<event>
 5    1  0.3232465E-002  0.1249976E+03  0.7818608E-02  0.1235073E+00
          4   -1    0    0  501    0  0.00000000000E+00  0.00000000000E+00  0.20969004116E+02  0.21007428058E+02  0.12700000000E+01 0. -1.
         -4   -1    0    0    0  501 -0.00000000000E+00 -0.00000000000E+00 -0.18606867385E+03  0.18607300795E+03  0.12700000000E+01 0. -1.
         25    2    1    2    0    0  0.00000000000E+00  0.00000000000E+00 -0.16509966973E+03  0.20708043601E+03  0.12499762410E+03 0.  0.
    9000005    1    3    3    0    0  0.38730661782E+02  0.46106040427E+02 -0.11023516790E+03  0.12561299044E+03  0.10000000000E+01 0.  0.
    9000005    1    3    3    0    0 -0.38730661782E+02 -0.46106040427E+02 -0.54864501834E+02  0.81467445568E+02  0.10000000000E+01 0.  0.
<mgrwt>
<rscale>  0 0.12499762E+03</rscale>
<asrwt>0</asrwt>
<pdfrwt beam="1">  1        4 0.32292898E-02 0.12499762E+03</pdfrwt>
<pdfrwt beam="2">  1       -4 0.28629238E-01 0.12499762E+03</pdfrwt>
<totfact> 0.88959641E+03</totfact>
</mgrwt>
</event>
<event>
 5    1  0.3232465E-002  0.1249982E+03  0.7818608E-02  0.1235072E+00
         -4   -1    0    0    0  501 -0.00000000000E+00  0.00000000000E+00  0.47415208022E+02  0.47432213228E+02  0.12700000000E+01 0. -1.
          4   -1    0    0  501    0  0.00000000000E+00 -0.00000000000E+00 -0.82344824985E+02  0.82354617975E+02  0.12700000000E+01 0. -1.
         25    2    1    2    0    0  0.00000000000E+00  0.00000000000E+00 -0.34929616963E+02  0.12978683120E+03  0.12499817364E+03 0.  0.
    9000005    1    3    3    0    0 -0.35467334868E+02 -0.18620173349E+02  0.32336119368E+02  0.51490458475E+02  0.10000000000E+01 0.  0.
    9000005    1    3    3    0    0  0.35467334868E+02  0.18620173349E+02 -0.67265736331E+02  0.78296372728E+02  0.10000000000E+01 0.  0.
<mgrwt>
<rscale>  0 0.12499817E+03</rscale>
<asrwt>0</asrwt>
<pdfrwt beam="2">  1        4 0.12670496E-01 0.12499817E+03</pdfrwt>
<pdfrwt beam="1">  1       -4 0.72967088E-02 0.12499817E+03</pdfrwt>
<totfact> 0.10349496E+04</totfact>
</mgrwt>
</event>
<event>
 5    1  0.3232465E-002  0.1250117E+03  0.7818608E-02  0.1235051E+00
          4   -1    0    0  501    0  0.00000000000E+00  0.00000000000E+00  0.60190280711E+01  0.61515525618E+01  0.12700000000E+01 0. -1.
         -4   -1    0    0    0  501 -0.00000000000E+00 -0.00000000000E+00 -0.64190365601E+03  0.64190491235E+03  0.12700000000E+01 0. -1.
         25    2    1    2    0    0  0.00000000000E+00  0.00000000000E+00 -0.63588462794E+03  0.64805646491E+03  0.12501168611E+03 0.  0.
    9000005    1    3    3    0    0  0.49981645321E+02 -0.20900873066E+02 -0.47947667887E+03  0.48252864884E+03  0.10000000000E+01 0.  0.
    9000005    1    3    3    0    0 -0.49981645321E+02  0.20900873066E+02 -0.15640794906E+03  0.16552781607E+03  0.10000000000E+01 0.  0.
<mgrwt>
<rscale>  0 0.12501169E+03</rscale>
<asrwt>0</asrwt>
<pdfrwt beam="1">  1        4 0.93629566E-03 0.12501169E+03</pdfrwt>
<pdfrwt beam="2">  1       -4 0.98764646E-01 0.12501169E+03</pdfrwt>
<totfact> 0.45956271E+03</totfact>
</mgrwt>
</event>
<event>
 5    1  0.3232465E-002  0.1250043E+03  0.7818608E-02  0.1235063E+00
         -4   -1    0    0    0  501 -0.00000000000E+00  0.00000000000E+00  0.61774461564E+02  0.61787514933E+02  0.12700000000E+01 0. -1.
          4   -1    0    0  501    0  0.00000000000E+00 -0.00000000000E+00 -0.63212299365E+02  0.63225055880E+02  0.12700000000E+01 0. -1.
         25    2    1    2    0    0  0.00000000000E+00  0.00000000000E+00 -0.14378378007E+01  0.12501257081E+03  0.12500430186E+03 0.  0.
    9000005    1    3    3    0    0  0.47954379886E+02 -0.36150340847E+02 -0.18013101228E+02  0.62705195235E+02  0.10000000000E+01 0.  0.
    9000005    1    3    3    0    0 -0.47954379886E+02  0.36150340847E+02  0.16575263427E+02  0.62307375577E+02  0.10000000000E+01 0.  0.
<mgrwt>
<rscale>  0 0.12500430E+03</rscale>
<asrwt>0</asrwt>
<pdfrwt beam="2">  1        4 0.97269545E-02 0.12500430E+03</pdfrwt>
<pdfrwt beam="1">  1       -4 0.95057487E-02 0.12500430E+03</pdfrwt>
<totfact> 0.10451573E+04</totfact>
</mgrwt>
</event>
<event>
 5    1  0.3232465E-002  0.1249980E+03  0.7818608E-02  0.1235072E+00
          4   -1    0    0  501    0  0.00000000000E+00  0.00000000000E+00  0.18085184885E+02  0.18129721794E+02  0.12700000000E+01 0.  1.
         -4   -1    0    0    0  501 -0.00000000000E+00 -0.00000000000E+00 -0.21567269123E+03  0.21567643043E+03  0.12700000000E+01 0.  1.
         25    2    1    2    0    0  0.00000000000E+00  0.00000000000E+00 -0.19758750634E+03  0.23380615222E+03  0.12499797660E+03 0.  0.
    9000005    1    3    3    0    0  0.44565210881E+02  0.13656513298E+02 -0.20936739705E+02  0.51106804301E+02  0.10000000000E+01 0.  0.
    9000005    1    3    3    0    0 -0.44565210881E+02 -0.13656513298E+02 -0.17665076664E+03  0.18269934792E+03  0.10000000000E+01 0.  0.
<mgrwt>
<rscale>  0 0.12499798E+03</rscale>
<asrwt>0</asrwt>
<pdfrwt beam="1">  1        4 0.27860498E-02 0.12499798E+03</pdfrwt>
<pdfrwt beam="2">  1       -4 0.33184126E-01 0.12499798E+03</pdfrwt>
<totfact> 0.84732390E+03</totfact>
</mgrwt>
</event>
<event>
 5    1  0.3232465E-002  0.1249991E+03  0.7818608E-02  0.1235071E+00
         -4   -1    0    0    0  501 -0.00000000000E+00  0.00000000000E+00  0.37792917174E+03  0.37793130559E+03  0.12700000000E+01 0.  1.
          4   -1    0    0  501    0  0.00000000000E+00 -0.00000000000E+00 -0.10294592837E+02  0.10372634269E+02  0.12700000000E+01 0.  1.
         25    2    1    2    0    0  0.00000000000E+00  0.00000000000E+00  0.36763457890E+03  0.38830393986E+03  0.12499906444E+03 0.  0.
    9000005    1    3    3    0    0 -0.29698298521E+02  0.33932387164E+02  0.49418840565E+02  0.66907530491E+02  0.10000000000E+01 0.  0.
    9000005    1    3    3    0    0  0.29698298521E+02 -0.33932387164E+02  0.31821573833E+03  0.32139640937E+03  0.10000000000E+01 0.  0.
<mgrwt>
<rscale>  0 0.12499906E+03</rscale>
<asrwt>0</asrwt>
<pdfrwt beam="2">  1        4 0.15899507E-02 0.12499906E+03</pdfrwt>
<pdfrwt beam="1">  1       -4 0.58149121E-01 0.12499906E+03</pdfrwt>
<totfact> 0.65707808E+03</totfact>
</mgrwt>
</event>
<event>
 5    1  0.3232465E-002  0.1250004E+03  0.7818608E-02  0.1235069E+00
         -4   -1    0    0    0  501 -0.00000000000E+00  0.00000000000E+00  0.32360705147E+02  0.32385616214E+02  0.12700000000E+01 0. -1.
          4   -1    0    0  501    0  0.00000000000E+00 -0.00000000000E+00 -0.12063567273E+03  0.12064235755E+03  0.12700000000E+01 0. -1.
         25    2    1    2    0    0  0.00000000000E+00  0.00000000000E+00 -0.88274967588E+02  0.15302797377E+03  0.12500036341E+03 0.  0.
    9000005    1    3    3    0    0  0.23012621976E+02 -0.51936818308E+02 -0.12254622787E+02  0.58122195810E+02  0.10000000000E+01 0.  0.
    9000005    1    3    3    0    0 -0.23012621976E+02  0.51936818308E+02 -0.76020344800E+02  0.94905777957E+02  0.10000000000E+01 0.  0.
<mgrwt>
<rscale>  0 0.12500036E+03</rscale>
<asrwt>0</asrwt>
<pdfrwt beam="2">  1        4 0.18561764E-01 0.12500036E+03</pdfrwt>
<pdfrwt beam="1">  1       -4 0.49810005E-02 0.12500036E+03</pdfrwt>
<totfact> 0.98702699E+03</totfact>
</mgrwt>
</event>
<event>
 5    1  0.3232465E-002  0.1249949E+03  0.7818608E-02  0.1235077E+00
         -4   -1    0    0    0  501 -0.00000000000E+00  0.00000000000E+00  0.36936737254E+02  0.36958564081E+02  0.12700000000E+01 0. -1.
          4   -1    0    0  501    0  0.00000000000E+00 -0.00000000000E+00 -0.10568957319E+03  0.10569720328E+03  0.12700000000E+01 0. -1.
         25    2    1    2    0    0  0.00000000000E+00  0.00000000000E+00 -0.68752835940E+02  0.14265576736E+03  0.12499486194E+03 0.  0.
    9000005    1    3    3    0    0 -0.30123021029E+02 -0.82719923279E+01 -0.96144592076E+02  0.10109700707E+03  0.10000000000E+01 0.  0.
    9000005    1    3    3    0    0  0.30123021029E+02  0.82719923279E+01  0.27391756136E+02  0.41558760294E+02  0.10000000000E+01 0.  0.
<mgrwt>
<rscale>  0 0.12499486E+03</rscale>
<asrwt>0</asrwt>
<pdfrwt beam="2">  1        4 0.16262200E-01 0.12499486E+03</pdfrwt>
<pdfrwt beam="1">  1       -4 0.56848409E-02 0.12499486E+03</pdfrwt>
<totfact> 0.10080004E+04</totfact>
</mgrwt>
</event>
<event>
 5    1  0.3232465E-002  0.1250028E+03  0.7818608E-02  0.1235065E+00
          4   -1    0    0  501    0  0.00000000000E+00  0.00000000000E+00  0.59714348048E+01  0.61049925166E+01  0.12700000000E+01 0. -1.
         -4   -1    0    0    0  501 -0.00000000000E+00 -0.00000000000E+00 -0.64681630826E+03  0.64681755505E+03  0.12700000000E+01 0. -1.
         25    2    1    2    0    0  0.00000000000E+00  0.00000000000E+00 -0.64084487345E+03  0.65292254757E+03  0.12500280516E+03 0.  0.
    9000005    1    3    3    0    0  0.97533392390E+01 -0.42199686255E+01  0.12427826649E+01  0.10746174680E+02  0.10000000000E+01 0.  0.
    9000005    1    3    3    0    0 -0.97533392390E+01  0.42199686255E+01 -0.64208765612E+03  0.64217637289E+03  0.10000000000E+01 0.  0.
<mgrwt>
<rscale>  0 0.12500281E+03</rscale>
<asrwt>0</asrwt>
<pdfrwt beam="1">  1        4 0.92905237E-03 0.12500281E+03</pdfrwt>
<pdfrwt beam="2">  1       -4 0.99520516E-01 0.12500281E+03</pdfrwt>
<totfact> 0.45685770E+03</totfact>
</mgrwt>
</event>
<event>
 5    1  0.3232465E-002  0.1250015E+03  0.7818608E-02  0.1235067E+00
         -4   -1    0    0    0  501 -0.00000000000E+00  0.00000000000E+00  0.91201051119E+02  0.91209893242E+02  0.12700000000E+01 0. -1.
          4   -1    0    0  501    0  0.00000000000E+00 -0.00000000000E+00 -0.42811863186E+02  0.42830696112E+02  0.12700000000E+01 0. -1.
         25    2    1    2    0    0  0.00000000000E+00  0.00000000000E+00  0.48389187934E+02  0.13404058935E+03  0.12500146433E+03 0.  0.
    9000005    1    3    3    0    0 -0.57889189485E+02  0.22932338347E+02  0.18491030232E+02  0.64961285397E+02  0.10000000000E+01 0.  0.
    9000005    1    3    3    0    0  0.57889189485E+02 -0.22932338347E+02  0.29898157701E+02  0.69079303958E+02  0.10000000000E+01 0.  0.
<mgrwt>
<rscale>  0 0.12500146E+03</rscale>
<asrwt>0</asrwt>
<pdfrwt beam="2">  1        4 0.65885695E-02 0.12500146E+03</pdfrwt>
<pdfrwt beam="1">  1       -4 0.14033060E-01 0.12500146E+03</pdfrwt>
<totfact> 0.10257994E+04</totfact>
</mgrwt>
</event>
<event>
 5    1  0.3232465E-002  0.1250015E+03  0.7818608E-02  0.1235067E+00
          4   -1    0    0  501    0  0.00000000000E+00  0.00000000000E+00  0.31529922686E+02  0.31555489611E+02  0.12700000000E+01 0.  1.
         -4   -1    0    0    0  501 -0.00000000000E+00 -0.00000000000E+00 -0.12381417514E+03  0.12382068836E+03  0.12700000000E+01 0.  1.
         25    2    1    2    0    0  0.00000000000E+00  0.00000000000E+00 -0.92284252458E+02  0.15537617797E+03  0.12500149371E+03 0.  0.
    9000005    1    3    3    0    0 -0.35209854702E+02 -0.51555633276E+02 -0.42709532663E+02  0.75649331596E+02  0.10000000000E+01 0.  0.
    9000005    1    3    3    0    0  0.35209854702E+02  0.51555633276E+02 -0.49574719795E+02  0.79726846378E+02  0.10000000000E+01 0.  0.
<mgrwt>
<rscale>  0 0.12500149E+03</rscale>
<asrwt>0</asrwt>
<pdfrwt beam="1">  1        4 0.48532251E-02 0.12500149E+03</pdfrwt>
<pdfrwt beam="2">  1       -4 0.19050802E-01 0.12500149E+03</pdfrwt>
<totfact> 0.98238401E+03</totfact>
</mgrwt>
</event>
<event>
 5    1  0.3232465E-002  0.1249996E+03  0.7818608E-02  0.1235070E+00
          4   -1    0    0  501    0  0.00000000000E+00  0.00000000000E+00  0.59356082177E+02  0.59369667267E+02  0.12700000000E+01 0.  1.
         -4   -1    0    0    0  501 -0.00000000000E+00 -0.00000000000E+00 -0.65782768576E+02  0.65795026723E+02  0.12700000000E+01 0.  1.
         25    2    1    2    0    0  0.00000000000E+00  0.00000000000E+00 -0.64266863986E+01  0.12516469399E+03  0.12499959329E+03 0.  0.
    9000005    1    3    3    0    0 -0.92229130137E+01  0.36345171314E+02  0.46844595740E+02  0.60012080053E+02  0.10000000000E+01 0.  0.
    9000005    1    3    3    0    0  0.92229130137E+01 -0.36345171314E+02 -0.53271282138E+02  0.65152613938E+02  0.10000000000E+01 0.  0.
<mgrwt>
<rscale>  0 0.12499959E+03</rscale>
<asrwt>0</asrwt>
<pdfrwt beam="1">  1        4 0.91336929E-02 0.12499959E+03</pdfrwt>
<pdfrwt beam="2">  1       -4 0.10122414E-01 0.12499959E+03</pdfrwt>
<totfact> 0.10449383E+04</totfact>
</mgrwt>
</event>
<event>
 5    1  0.3232465E-002  0.1250093E+03  0.7818608E-02  0.1235055E+00
         -4   -1    0    0    0  501 -0.00000000000E+00  0.00000000000E+00  0.66425749103E+01  0.67628914998E+01  0.12700000000E+01 0. -1.
          4   -1    0    0  501    0  0.00000000000E+00 -0.00000000000E+00 -0.58275079256E+03  0.58275217642E+03  0.12700000000E+01 0. -1.
         25    2    1    2    0    0  0.00000000000E+00  0.00000000000E+00 -0.57610821765E+03  0.58951506792E+03  0.12500934712E+03 0.  0.
    9000005    1    3    3    0    0 -0.32107076753E+02 -0.43004901715E+02 -0.43907272131E+03  0.44234165591E+03  0.10000000000E+01 0.  0.
    9000005    1    3    3    0    0  0.32107076753E+02  0.43004901715E+02 -0.13703549634E+03  0.14717341202E+03  0.10000000000E+01 0.  0.
<mgrwt>
<rscale>  0 0.12500935E+03</rscale>
<asrwt>0</asrwt>
<pdfrwt beam="2">  1        4 0.89663290E-01 0.12500935E+03</pdfrwt>
<pdfrwt beam="1">  1       -4 0.10312966E-02 0.12500935E+03</pdfrwt>
<totfact> 0.49526071E+03</totfact>
</mgrwt>
</event>
<event>
 5    1  0.3232465E-002  0.1250032E+03  0.7818608E-02  0.1235064E+00
          4   -1    0    0  501    0  0.00000000000E+00  0.00000000000E+00  0.86150910765E+02  0.86160271156E+02  0.12700000000E+01 0. -1.
         -4   -1    0    0    0  501 -0.00000000000E+00 -0.00000000000E+00 -0.45323530289E+02  0.45341319984E+02  0.12700000000E+01 0. -1.
         25    2    1    2    0    0  0.00000000000E+00  0.00000000000E+00  0.40827380475E+02  0.13150159114E+03  0.12500317386E+03 0.  0.
    9000005    1    3    3    0    0 -0.26794158079E+02  0.56456393993E+02  0.20880657145E+02  0.65895775075E+02  0.10000000000E+01 0.  0.
    9000005    1    3    3    0    0  0.26794158079E+02 -0.56456393993E+02  0.19946723330E+02  0.65605816065E+02  0.10000000000E+01 0.  0.
<mgrwt>
<rscale>  0 0.12500317E+03</rscale>
<asrwt>0</asrwt>
<pdfrwt beam="1">  1        4 0.13256075E-01 0.12500317E+03</pdfrwt>
<pdfrwt beam="2">  1       -4 0.69749393E-02 0.12500317E+03</pdfrwt>
<totfact> 0.10311610E+04</totfact>
</mgrwt>
</event>
<event>
 5    1  0.3232465E-002  0.1250011E+03  0.7818608E-02  0.1235067E+00
         -4   -1    0    0    0  501 -0.00000000000E+00  0.00000000000E+00  0.25963933380E+02  0.25994975217E+02  0.12700000000E+01 0.  1.
          4   -1    0    0  501    0  0.00000000000E+00 -0.00000000000E+00 -0.15032823319E+03  0.15033359769E+03  0.12700000000E+01 0.  1.
         25    2    1    2    0    0  0.00000000000E+00  0.00000000000E+00 -0.12436429981E+03  0.17632857290E+03  0.12500114622E+03 0.  0.
    9000005    1    3    3    0    0 -0.34886116317E+02 -0.77767369278E+01 -0.13449327024E+03  0.13916522011E+03  0.10000000000E+01 0.  0.
    9000005    1    3    3    0    0  0.34886116317E+02  0.77767369278E+01  0.10128970430E+02  0.37163352794E+02  0.10000000000E+01 0.  0.
<mgrwt>
<rscale>  0 0.12500115E+03</rscale>
<asrwt>0</asrwt>
<pdfrwt beam="2">  1        4 0.23130220E-01 0.12500115E+03</pdfrwt>
<pdfrwt beam="1">  1       -4 0.39972519E-02 0.12500115E+03</pdfrwt>
<totfact> 0.94279654E+03</totfact>
</mgrwt>
</event>
<event>
 5    1  0.3232465E-002  0.1249990E+03  0.7818608E-02  0.1235071E+00
          4   -1    0    0  501    0  0.00000000000E+00  0.00000000000E+00  0.84340579486E+02  0.84350140770E+02  0.12700000000E+01 0.  1.
         -4   -1    0    0    0  501 -0.00000000000E+00 -0.00000000000E+00 -0.46293519583E+02  0.46310936671E+02  0.12700000000E+01 0.  1.
         25    2    1    2    0    0  0.00000000000E+00  0.00000000000E+00  0.38047059903E+02  0.13066107744E+03  0.12499895356E+03 0.  0.
    9000005    1    3    3    0    0  0.19866769172E+02  0.18543501138E+02 -0.39798341448E+02  0.48202260671E+02  0.10000000000E+01 0.  0.
    9000005    1    3    3    0    0 -0.19866769172E+02 -0.18543501138E+02  0.77845401350E+02  0.82458816771E+02  0.10000000000E+01 0.  0.
<mgrwt>
<rscale>  0 0.12499895E+03</rscale>
<asrwt>0</asrwt>
<pdfrwt beam="1">  1        4 0.12977549E-01 0.12499895E+03</pdfrwt>
<pdfrwt beam="2">  1       -4 0.71241552E-02 0.12499895E+03</pdfrwt>
<totfact> 0.10330605E+04</totfact>
</mgrwt>
</event>
<event>
 5    1  0.3232465E-002  0.1250139E+03  0.7818608E-02  0.1235048E+00
         -4   -1    0    0    0  501 -0.00000000000E+00  0.00000000000E+00  0.25753442226E+02  0.25784737472E+02  0.12700000000E+01 0. -1.
          4   -1    0    0  501    0  0.00000000000E+00 -0.00000000000E+00 -0.15158637506E+03  0.15159169503E+03  0.12700000000E+01 0. -1.
         25    2    1    2    0    0  0.00000000000E+00  0.00000000000E+00 -0.12583293283E+03  0.17737643250E+03  0.12501388652E+03 0.  0.
    9000005    1    3    3    0    0 -0.17981979651E+02 -0.46180999031E+02 -0.88866000306E+01  0.50358791922E+02  0.10000000000E+01 0.  0.
    9000005    1    3    3    0    0  0.17981979651E+02  0.46180999031E+02 -0.11694633280E+03  0.12701764058E+03  0.10000000000E+01 0.  0.
<mgrwt>
<rscale>  0 0.12501389E+03</rscale>
<asrwt>0</asrwt>
<pdfrwt beam="2">  1        4 0.23323797E-01 0.12501389E+03</pdfrwt>
<pdfrwt beam="1">  1       -4 0.39648847E-02 0.12501389E+03</pdfrwt>
<totfact> 0.94062099E+03</totfact>
</mgrwt>
</event>
<event>
 5    1  0.3232465E-002  0.1250034E+03  0.7818608E-02  0.1235064E+00
          4   -1    0    0  501    0  0.00000000000E+00  0.00000000000E+00  0.21532037735E+03  0.21532412267E+03  0.12700000000E+01 0.  1.
         -4   -1    0    0    0  501 -0.00000000000E+00 -0.00000000000E+00 -0.18116413270E+02  0.18160873596E+02  0.12700000000E+01 0.  1.
         25    2    1    2    0    0  0.00000000000E+00  0.00000000000E+00  0.19720396408E+03  0.23348499626E+03  0.12500336008E+03 0.  0.
    9000005    1    3    3    0    0 -0.59097890478E+02 -0.99796952063E+01  0.65540602103E+02  0.88818497507E+02  0.10000000000E+01 0.  0.
    9000005    1    3    3    0    0  0.59097890478E+02  0.99796952063E+01  0.13166336198E+03  0.14466649876E+03  0.10000000000E+01 0.  0.
<mgrwt>
<rscale>  0 0.12500336E+03</rscale>
<asrwt>0</asrwt>
<pdfrwt beam="1">  1        4 0.33129920E-01 0.12500336E+03</pdfrwt>
<pdfrwt beam="2">  1       -4 0.27908487E-02 0.12500336E+03</pdfrwt>
<totfact> 0.84770976E+03</totfact>
</mgrwt>
</event>
<event>
 5    1  0.3232465E-002  0.1249527E+03  0.7818608E-02  0.1235143E+00
         -4   -1    0    0    0  501 -0.00000000000E+00  0.00000000000E+00  0.79720266647E+02  0.79730382002E+02  0.12700000000E+01 0.  1.
          4   -1    0    0  501    0  0.00000000000E+00 -0.00000000000E+00 -0.48940912012E+02  0.48957387273E+02  0.12700000000E+01 0.  1.
         25    2    1    2    0    0  0.00000000000E+00  0.00000000000E+00  0.30779354634E+02  0.12868776928E+03  0.12495268420E+03 0.  0.
    9000005    1    3    3    0    0 -0.56357836493E+01 -0.42343840305E+02 -0.31552732653E+02  0.53116266877E+02  0.10000000000E+01 0.  0.
    9000005    1    3    3    0    0  0.56357836493E+01  0.42343840305E+02  0.62332087287E+02  0.75571502398E+02  0.10000000000E+01 0.  0.
<mgrwt>
<rscale>  0 0.12495268E+03</rscale>
<asrwt>0</asrwt>
<pdfrwt beam="2">  1        4 0.75314166E-02 0.12495268E+03</pdfrwt>
<pdfrwt beam="1">  1       -4 0.12266702E-01 0.12495268E+03</pdfrwt>
<totfact> 0.10383748E+04</totfact>
</mgrwt>
</event>
<event>
 5    1  0.3232465E-002  0.1249997E+03  0.7818608E-02  0.1235070E+00
          4   -1    0    0  501    0  0.00000000000E+00  0.00000000000E+00  0.81589091761E+03  0.81589190603E+03  0.12700000000E+01 0.  1.
         -4   -1    0    0    0  501 -0.00000000000E+00 -0.00000000000E+00 -0.47024542257E+01  0.48709317122E+01  0.12700000000E+01 0.  1.
         25    2    1    2    0    0  0.00000000000E+00  0.00000000000E+00  0.81118846338E+03  0.82076283775E+03  0.12499965082E+03 0.  0.
    9000005    1    3    3    0    0 -0.58599407222E+02 -0.14615984516E+02  0.30018586978E+03  0.30620266809E+03  0.10000000000E+01 0.  0.
    9000005    1    3    3    0    0  0.58599407222E+02  0.14615984516E+02  0.51100259360E+03  0.51456016965E+03  0.10000000000E+01 0.  0.
<mgrwt>
<rscale>  0 0.12499965E+03</rscale>
<asrwt>0</asrwt>
<pdfrwt beam="1">  1        4 0.12553478E+00 0.12499965E+03</pdfrwt>
<pdfrwt beam="2">  1       -4 0.73648993E-03 0.12499965E+03</pdfrwt>
<totfact> 0.37354724E+03</totfact>
</mgrwt>
</event>
<event>
 5    1  0.3232465E-002  0.1250220E+03  0.7818608E-02  0.1235035E+00
          4   -1    0    0  501    0  0.00000000000E+00  0.00000000000E+00  0.37079826061E+01  0.39194432011E+01  0.12700000000E+01 0. -1.
         -4   -1    0    0    0  501 -0.00000000000E+00 -0.00000000000E+00 -0.10244132551E+04  0.10244140423E+04  0.12700000000E+01 0. -1.
         25    2    1    2    0    0  0.00000000000E+00  0.00000000000E+00 -0.10207052725E+04  0.10283334855E+04  0.12502201474E+03 0.  0.
    9000005    1    3    3    0    0  0.17215491699E+00  0.43867703598E+02 -0.14414826880E+03  0.15067889187E+03  0.10000000000E+01 0.  0.
    9000005    1    3    3    0    0 -0.17215491699E+00 -0.43867703598E+02 -0.87655700370E+03  0.87765459367E+03  0.10000000000E+01 0.  0.
<mgrwt>
<rscale>  0 0.12502201E+03</rscale>
<asrwt>0</asrwt>
<pdfrwt beam="1">  1        4 0.58678644E-03 0.12502201E+03</pdfrwt>
<pdfrwt beam="2">  1       -4 0.15761815E+00 0.12502201E+03</pdfrwt>
<totfact> 0.29666835E+03</totfact>
</mgrwt>
</event>
<event>
 5    1  0.3232465E-002  0.1249999E+03  0.7818608E-02  0.1235069E+00
         -4   -1    0    0    0  501 -0.00000000000E+00  0.00000000000E+00  0.19433990266E+02  0.19475442939E+02  0.12700000000E+01 0. -1.
          4   -1    0    0  501    0  0.00000000000E+00 -0.00000000000E+00 -0.20074297557E+03  0.20074699285E+03  0.12700000000E+01 0. -1.
         25    2    1    2    0    0  0.00000000000E+00  0.00000000000E+00 -0.18130898530E+03  0.22022243579E+03  0.12499989230E+03 0.  0.
    9000005    1    3    3    0    0  0.44651145842E+00  0.62410743806E+02 -0.96209819739E+02  0.11468491500E+03  0.10000000000E+01 0.  0.
    9000005    1    3    3    0    0 -0.44651145842E+00 -0.62410743806E+02 -0.85099165563E+02  0.10553752079E+03  0.10000000000E+01 0.  0.
<mgrwt>
<rscale>  0 0.12499989E+03</rscale>
<asrwt>0</asrwt>
<pdfrwt beam="2">  1        4 0.30887031E-01 0.12499989E+03</pdfrwt>
<pdfrwt beam="1">  1       -4 0.29933425E-02 0.12499989E+03</pdfrwt>
<totfact> 0.86833374E+03</totfact>
</mgrwt>
</event>
<event>
 5    1  0.3232465E-002  0.1250013E+03  0.7818608E-02  0.1235067E+00
         -4   -1    0    0    0  501 -0.00000000000E+00  0.00000000000E+00  0.66501922286E+01  0.67703734519E+01  0.12700000000E+01 0.  1.
          4   -1    0    0  501    0  0.00000000000E+00 -0.00000000000E+00 -0.58202023828E+03  0.58202162388E+03  0.12700000000E+01 0.  1.
         25    2    1    2    0    0  0.00000000000E+00  0.00000000000E+00 -0.57537004605E+03  0.58879199733E+03  0.12500130492E+03 0.  0.
    9000005    1    3    3    0    0 -0.57555506779E+02 -0.19761376189E+02 -0.22070891701E+03  0.22894666277E+03  0.10000000000E+01 0.  0.
    9000005    1    3    3    0    0  0.57555506779E+02  0.19761376189E+02 -0.35466112904E+03  0.35984533456E+03  0.10000000000E+01 0.  0.
<mgrwt>
<rscale>  0 0.12500130E+03</rscale>
<asrwt>0</asrwt>
<pdfrwt beam="2">  1        4 0.89550887E-01 0.12500130E+03</pdfrwt>
<pdfrwt beam="1">  1       -4 0.10324582E-02 0.12500130E+03</pdfrwt>
<totfact> 0.49581419E+03</totfact>
</mgrwt>
</event>
<event>
 5    1  0.3232465E-002  0.1249953E+03  0.7818608E-02  0.1235077E+00
          4   -1    0    0  501    0  0.00000000000E+00  0.00000000000E+00  0.41669332337E+02  0.41688681406E+02  0.12700000000E+01 0.  1.
         -4   -1    0    0    0  501 -0.00000000000E+00 -0.00000000000E+00 -0.93691524106E+02  0.93700131213E+02  0.12700000000E+01 0.  1.
         25    2    1    2    0    0  0.00000000000E+00  0.00000000000E+00 -0.52022191769E+02  0.13538881262E+03  0.12499528849E+03 0.  0.
    9000005    1    3    3    0    0 -0.44512306072E+02 -0.43285085748E+02 -0.33671012832E+02  0.70637675112E+02  0.10000000000E+01 0.  0.
    9000005    1    3    3    0    0  0.44512306072E+02  0.43285085748E+02 -0.18351178937E+02  0.64751137507E+02  0.10000000000E+01 0.  0.
<mgrwt>
<rscale>  0 0.12499529E+03</rscale>
<asrwt>0</asrwt>
<pdfrwt beam="1">  1        4 0.64128170E-02 0.12499529E+03</pdfrwt>
<pdfrwt beam="2">  1       -4 0.14416231E-01 0.12499529E+03</pdfrwt>
<totfact> 0.10230969E+04</totfact>
</mgrwt>
</event>
<event>
 5    1  0.3232465E-002  0.1250002E+03  0.7818608E-02  0.1235069E+00
         -4   -1    0    0    0  501 -0.00000000000E+00  0.00000000000E+00  0.76246781408E+02  0.76257357514E+02  0.12700000000E+01 0.  1.
          4   -1    0    0  501    0  0.00000000000E+00 -0.00000000000E+00 -0.51209791821E+02  0.51225537365E+02  0.12700000000E+01 0.  1.
         25    2    1    2    0    0  0.00000000000E+00  0.00000000000E+00  0.25036989587E+02  0.12748289488E+03  0.12500015056E+03 0.  0.
    9000005    1    3    3    0    0 -0.24115521936E+02  0.33842785123E+02  0.60118488588E+02  0.73089843161E+02  0.10000000000E+01 0.  0.
    9000005    1    3    3    0    0  0.24115521936E+02 -0.33842785123E+02 -0.35081499001E+02  0.54393051719E+02  0.10000000000E+01 0.  0.
<mgrwt>
<rscale>  0 0.12500015E+03</rscale>
<asrwt>0</asrwt>
<pdfrwt beam="2">  1        4 0.78804543E-02 0.12500015E+03</pdfrwt>
<pdfrwt beam="1">  1       -4 0.11732299E-01 0.12500015E+03</pdfrwt>
<totfact> 0.10398636E+04</totfact>
</mgrwt>
</event>
<event>
 5    1  0.3232465E-002  0.1250277E+03  0.7818608E-02  0.1235026E+00
          4   -1    0    0  501    0  0.00000000000E+00  0.00000000000E+00  0.99817394676E+01  0.10062207650E+02  0.12700000000E+01 0.  1.
         -4   -1    0    0    0  501 -0.00000000000E+00 -0.00000000000E+00 -0.38985997309E+03  0.38986204165E+03  0.12700000000E+01 0.  1.
         25    2    1    2    0    0  0.00000000000E+00  0.00000000000E+00 -0.37987823362E+03  0.39992424930E+03  0.12502772811E+03 0.  0.
    9000005    1    3    3    0    0 -0.45299824661E+02 -0.38745270794E+02 -0.12978062275E+03  0.14281904693E+03  0.10000000000E+01 0.  0.
    9000005    1    3    3    0    0  0.45299824661E+02  0.38745270794E+02 -0.25009761087E+03  0.25710520237E+03  0.10000000000E+01 0.  0.
<mgrwt>
<rscale>  0 0.12502773E+03</rscale>
<asrwt>0</asrwt>
<pdfrwt beam="1">  1        4 0.15420015E-02 0.12502773E+03</pdfrwt>
<pdfrwt beam="2">  1       -4 0.59984795E-01 0.12502773E+03</pdfrwt>
<totfact> 0.64520658E+03</totfact>
</mgrwt>
</event>
<event>
 5    1  0.3232465E-002  0.1249978E+03  0.7818608E-02  0.1235073E+00
         -4   -1    0    0    0  501 -0.00000000000E+00  0.00000000000E+00  0.10763218842E+03  0.10763968081E+03  0.12700000000E+01 0. -1.
          4   -1    0    0  501    0  0.00000000000E+00 -0.00000000000E+00 -0.36271418611E+02  0.36293645560E+02  0.12700000000E+01 0. -1.
         25    2    1    2    0    0  0.00000000000E+00  0.00000000000E+00  0.71360769808E+02  0.14393332637E+03  0.12499777186E+03 0.  0.
    9000005    1    3    3    0    0  0.40580745118E+02 -0.32714385592E+02  0.75370508650E+02  0.91644647815E+02  0.10000000000E+01 0.  0.
    9000005    1    3    3    0    0 -0.40580745118E+02  0.32714385592E+02 -0.40097388420E+01  0.52288678550E+02  0.10000000000E+01 0.  0.
<mgrwt>
<rscale>  0 0.12499777E+03</rscale>
<asrwt>0</asrwt>
<pdfrwt beam="2">  1        4 0.55825044E-02 0.12499777E+03</pdfrwt>
<pdfrwt beam="1">  1       -4 0.16561084E-01 0.12499777E+03</pdfrwt>
<totfact> 0.10053210E+04</totfact>
</mgrwt>
</event>
<event>
 5    1  0.3232465E-002  0.1250016E+03  0.7818608E-02  0.1235067E+00
          4   -1    0    0  501    0  0.00000000000E+00  0.00000000000E+00  0.48772253717E+03  0.48772419067E+03  0.12700000000E+01 0.  1.
         -4   -1    0    0    0  501 -0.00000000000E+00 -0.00000000000E+00 -0.79573451555E+01  0.80580544751E+01  0.12700000000E+01 0.  1.
         25    2    1    2    0    0  0.00000000000E+00  0.00000000000E+00  0.47976519201E+03  0.49578224514E+03  0.12500158051E+03 0.  0.
    9000005    1    3    3    0    0  0.55722691382E+02  0.62696912813E+01  0.34929685054E+03  0.35377057136E+03  0.10000000000E+01 0.  0.
    9000005    1    3    3    0    0 -0.55722691382E+02 -0.62696912813E+01  0.13046834148E+03  0.14201167378E+03  0.10000000000E+01 0.  0.
<mgrwt>
<rscale>  0 0.12500158E+03</rscale>
<asrwt>0</asrwt>
<pdfrwt beam="1">  1        4 0.75042130E-01 0.12500158E+03</pdfrwt>
<pdfrwt beam="2">  1       -4 0.12320807E-02 0.12500158E+03</pdfrwt>
<totfact> 0.56191139E+03</totfact>
</mgrwt>
</event>
<event>
 5    1  0.3232465E-002  0.1250012E+03  0.7818608E-02  0.1235067E+00
         -4   -1    0    0    0  501 -0.00000000000E+00  0.00000000000E+00  0.58018292508E+02  0.58032190770E+02  0.12700000000E+01 0.  1.
          4   -1    0    0  501    0  0.00000000000E+00 -0.00000000000E+00 -0.67301291766E+02  0.67313273382E+02  0.12700000000E+01 0.  1.
         25    2    1    2    0    0  0.00000000000E+00  0.00000000000E+00 -0.92829992575E+01  0.12534546415E+03  0.12500124523E+03 0.  0.
    9000005    1    3    3    0    0  0.83605792796E+01  0.52541505986E+02 -0.37516206444E+02  0.65107410355E+02  0.10000000000E+01 0.  0.
    9000005    1    3    3    0    0 -0.83605792796E+01 -0.52541505986E+02  0.28233207186E+02  0.60238053797E+02  0.10000000000E+01 0.  0.
<mgrwt>
<rscale>  0 0.12500125E+03</rscale>
<asrwt>0</asrwt>
<pdfrwt beam="2">  1        4 0.10356036E-01 0.12500125E+03</pdfrwt>
<pdfrwt beam="1">  1       -4 0.89278819E-02 0.12500125E+03</pdfrwt>
<totfact> 0.10445070E+04</totfact>
</mgrwt>
</event>
<event>
 5    1  0.3232465E-002  0.1249988E+03  0.7818608E-02  0.1235071E+00
          4   -1    0    0  501    0  0.00000000000E+00  0.00000000000E+00  0.47058132443E+03  0.47058303816E+03  0.12700000000E+01 0. -1.
         -4   -1    0    0    0  501 -0.00000000000E+00 -0.00000000000E+00 -0.82504264741E+01  0.83476006735E+01  0.12700000000E+01 0. -1.
         25    2    1    2    0    0  0.00000000000E+00  0.00000000000E+00  0.46233089795E+03  0.47893063883E+03  0.12499879042E+03 0.  0.
    9000005    1    3    3    0    0  0.22413072818E+02  0.29635948411E+02  0.42367747476E+03  0.42530487641E+03  0.10000000000E+01 0.  0.
    9000005    1    3    3    0    0 -0.22413072818E+02 -0.29635948411E+02  0.38653423190E+02  0.53625762425E+02  0.10000000000E+01 0.  0.
<mgrwt>
<rscale>  0 0.12499879E+03</rscale>
<asrwt>0</asrwt>
<pdfrwt beam="1">  1        4 0.72404756E-01 0.12499879E+03</pdfrwt>
<pdfrwt beam="2">  1       -4 0.12769028E-02 0.12499879E+03</pdfrwt>
<totfact> 0.57538485E+03</totfact>
</mgrwt>
</event>
<event>
 5    1  0.3232465E-002  0.1250037E+03  0.7818608E-02  0.1235063E+00
          4   -1    0    0  501    0  0.00000000000E+00  0.00000000000E+00  0.15515119841E+02  0.15567011392E+02  0.12700000000E+01 0.  1.
         -4   -1    0    0    0  501 -0.00000000000E+00 -0.00000000000E+00 -0.25131160407E+03  0.25131481302E+03  0.12700000000E+01 0.  1.
         25    2    1    2    0    0  0.00000000000E+00  0.00000000000E+00 -0.23579648423E+03  0.26688182441E+03  0.12500370484E+03 0.  0.
    9000005    1    3    3    0    0 -0.11267677191E+01  0.50660338086E+02 -0.19598588431E+03  0.20243321444E+03  0.10000000000E+01 0.  0.
    9000005    1    3    3    0    0  0.11267677191E+01 -0.50660338086E+02 -0.39810599920E+02  0.64448609965E+02  0.10000000000E+01 0.  0.
<mgrwt>
<rscale>  0 0.12500370E+03</rscale>
<asrwt>0</asrwt>
<pdfrwt beam="1">  1        4 0.23911802E-02 0.12500370E+03</pdfrwt>
<pdfrwt beam="2">  1       -4 0.38667559E-01 0.12500370E+03</pdfrwt>
<totfact> 0.79943302E+03</totfact>
</mgrwt>
</event>
<event>
 5    1  0.3232465E-002  0.1250008E+03  0.7818608E-02  0.1235068E+00
         -4   -1    0    0    0  501 -0.00000000000E+00  0.00000000000E+00  0.47533800648E+01  0.49201140272E+01  0.12700000000E+01 0.  1.
          4   -1    0    0  501    0  0.00000000000E+00 -0.00000000000E+00 -0.80746210889E+03  0.80746310764E+03  0.12700000000E+01 0.  1.
         25    2    1    2    0    0  0.00000000000E+00  0.00000000000E+00 -0.80270872883E+03  0.81238322166E+03  0.12500078203E+03 0.  0.
    9000005    1    3    3    0    0  0.56557170090E+02 -0.25197832916E+02 -0.34634073886E+03  0.35183313042E+03  0.10000000000E+01 0.  0.
    9000005    1    3    3    0    0 -0.56557170090E+02  0.25197832916E+02 -0.45636798997E+03  0.46055009124E+03  0.10000000000E+01 0.  0.
<mgrwt>
<rscale>  0 0.12500078E+03</rscale>
<asrwt>0</asrwt>
<pdfrwt beam="2">  1        4 0.12423774E+00 0.12500078E+03</pdfrwt>
<pdfrwt beam="1">  1       -4 0.74419240E-03 0.12500078E+03</pdfrwt>
<totfact> 0.37717236E+03</totfact>
</mgrwt>
</event>
<event>
 5    1  0.3232465E-002  0.1250027E+03  0.7818608E-02  0.1235065E+00
         -4   -1    0    0    0  501 -0.00000000000E+00  0.00000000000E+00  0.10549466932E+03  0.10550231350E+03  0.12700000000E+01 0.  1.
          4   -1    0    0  501    0  0.00000000000E+00 -0.00000000000E+00 -0.37009634982E+02  0.37031418843E+02  0.12700000000E+01 0.  1.
         25    2    1    2    0    0  0.00000000000E+00  0.00000000000E+00  0.68485034335E+02  0.14253373234E+03  0.12500265968E+03 0.  0.
    9000005    1    3    3    0    0  0.41963499993E+02  0.46308513718E+02  0.34185989831E+02  0.71239705749E+02  0.10000000000E+01 0.  0.
    9000005    1    3    3    0    0 -0.41963499993E+02 -0.46308513718E+02  0.34299044504E+02  0.71294026596E+02  0.10000000000E+01 0.  0.
<mgrwt>
<rscale>  0 0.12500266E+03</rscale>
<asrwt>0</asrwt>
<pdfrwt beam="2">  1        4 0.56960537E-02 0.12500266E+03</pdfrwt>
<pdfrwt beam="1">  1       -4 0.16232213E-01 0.12500266E+03</pdfrwt>
<totfact> 0.10080736E+04</totfact>
</mgrwt>
</event>
<event>
 5    1  0.3232465E-002  0.1250083E+03  0.7818608E-02  0.1235056E+00
          4   -1    0    0  501    0  0.00000000000E+00  0.00000000000E+00  0.58406060936E+03  0.58406199013E+03  0.12700000000E+01 0.  1.
         -4   -1    0    0    0  501 -0.00000000000E+00 -0.00000000000E+00 -0.66273002301E+01  0.67478891766E+01  0.12700000000E+01 0.  1.
         25    2    1    2    0    0  0.00000000000E+00  0.00000000000E+00  0.57743330913E+03  0.59080987930E+03  0.12500834766E+03 0.  0.
    9000005    1    3    3    0    0  0.46270604863E+01  0.61135056288E+02  0.34599240291E+03  0.35138390354E+03  0.10000000000E+01 0.  0.
    9000005    1    3    3    0    0 -0.46270604863E+01 -0.61135056288E+02  0.23144090623E+03  0.23942597576E+03  0.10000000000E+01 0.  0.
<mgrwt>
<rscale>  0 0.12500835E+03</rscale>
<asrwt>0</asrwt>
<pdfrwt beam="1">  1        4 0.89864886E-01 0.12500835E+03</pdfrwt>
<pdfrwt beam="2">  1       -4 0.10289667E-02 0.12500835E+03</pdfrwt>
<totfact> 0.49443840E+03</totfact>
</mgrwt>
</event>
<event>
 5    1  0.3232465E-002  0.1250025E+03  0.7818608E-02  0.1235065E+00
         -4   -1    0    0    0  501 -0.00000000000E+00  0.00000000000E+00  0.96749657671E+01  0.97579640599E+01  0.12700000000E+01 0.  1.
          4   -1    0    0  501    0  0.00000000000E+00 -0.00000000000E+00 -0.40195563155E+03  0.40195763786E+03  0.12700000000E+01 0.  1.
         25    2    1    2    0    0  0.00000000000E+00  0.00000000000E+00 -0.39228066578E+03  0.41171560192E+03  0.12500246445E+03 0.  0.
    9000005    1    3    3    0    0 -0.22634515206E+02  0.85291140304E+01 -0.38592880509E+03  0.38668735390E+03  0.10000000000E+01 0.  0.
    9000005    1    3    3    0    0  0.22634515206E+02 -0.85291140304E+01 -0.63518606878E+01  0.25028248020E+02  0.10000000000E+01 0.  0.
<mgrwt>
<rscale>  0 0.12500246E+03</rscale>
<asrwt>0</asrwt>
<pdfrwt beam="2">  1        4 0.61845854E-01 0.12500246E+03</pdfrwt>
<pdfrwt beam="1">  1       -4 0.14949954E-02 0.12500246E+03</pdfrwt>
<totfact> 0.63425630E+03</totfact>
</mgrwt>
</event>
<event>
 5    1  0.3232465E-002  0.1250005E+03  0.7818608E-02  0.1235068E+00
          4   -1    0    0  501    0  0.00000000000E+00  0.00000000000E+00  0.10207423273E+03  0.10208213305E+03  0.12700000000E+01 0. -1.
         -4   -1    0    0    0  501 -0.00000000000E+00 -0.00000000000E+00 -0.38249113210E+02  0.38270191551E+02  0.12700000000E+01 0. -1.
         25    2    1    2    0    0  0.00000000000E+00  0.00000000000E+00  0.63825119519E+02  0.14035232460E+03  0.12500051655E+03 0.  0.
    9000005    1    3    3    0    0  0.41951128421E+01 -0.56051108942E+02  0.62579083846E+02  0.84121742257E+02  0.10000000000E+01 0.  0.
    9000005    1    3    3    0    0 -0.41951128421E+01  0.56051108942E+02  0.12460356723E+01  0.56230582340E+02  0.10000000000E+01 0.  0.
<mgrwt>
<rscale>  0 0.12500052E+03</rscale>
<asrwt>0</asrwt>
<pdfrwt beam="1">  1        4 0.15705957E-01 0.12500052E+03</pdfrwt>
<pdfrwt beam="2">  1       -4 0.58867081E-02 0.12500052E+03</pdfrwt>
<totfact> 0.10126171E+04</totfact>
</mgrwt>
</event>
<event>
 5    1  0.3232465E-002  0.1249885E+03  0.7818608E-02  0.1235087E+00
          4   -1    0    0  501    0  0.00000000000E+00  0.00000000000E+00  0.44011649442E+02  0.44029969187E+02  0.12700000000E+01 0. -1.
         -4   -1    0    0    0  501 -0.00000000000E+00 -0.00000000000E+00 -0.88697272663E+02  0.88706364360E+02  0.12700000000E+01 0. -1.
         25    2    1    2    0    0  0.00000000000E+00  0.00000000000E+00 -0.44685623221E+02  0.13273633355E+03  0.12498851676E+03 0.  0.
    9000005    1    3    3    0    0  0.55706882996E+02 -0.71220513699E+01 -0.51437255989E+02  0.76162797562E+02  0.10000000000E+01 0.  0.
    9000005    1    3    3    0    0 -0.55706882996E+02  0.71220513699E+01  0.67516327684E+01  0.56573535985E+02  0.10000000000E+01 0.  0.
<mgrwt>
<rscale>  0 0.12498852E+03</rscale>
<asrwt>0</asrwt>
<pdfrwt beam="1">  1        4 0.67731316E-02 0.12498852E+03</pdfrwt>
<pdfrwt beam="2">  1       -4 0.13647843E-01 0.12498852E+03</pdfrwt>
<totfact> 0.10288672E+04</totfact>
</mgrwt>
</event>
<event>
 5    1  0.3232465E-002  0.1249996E+03  0.7818608E-02  0.1235070E+00
          4   -1    0    0  501    0  0.00000000000E+00  0.00000000000E+00  0.33066882977E+02  0.33091262440E+02  0.12700000000E+01 0.  1.
         -4   -1    0    0    0  501 -0.00000000000E+00 -0.00000000000E+00 -0.11805966095E+03  0.11806649162E+03  0.12700000000E+01 0.  1.
         25    2    1    2    0    0  0.00000000000E+00  0.00000000000E+00 -0.84992777972E+02  0.15115775406E+03  0.12499957722E+03 0.  0.
    9000005    1    3    3    0    0  0.49020112298E+02 -0.15613370062E+02 -0.85395091334E+02  0.99699901496E+02  0.10000000000E+01 0.  0.
    9000005    1    3    3    0    0 -0.49020112298E+02  0.15613370062E+02  0.40231336220E+00  0.51457852563E+02  0.10000000000E+01 0.  0.
<mgrwt>
<rscale>  0 0.12499958E+03</rscale>
<asrwt>0</asrwt>
<pdfrwt beam="1">  1        4 0.50896136E-02 0.12499958E+03</pdfrwt>
<pdfrwt beam="2">  1       -4 0.18165425E-01 0.12499958E+03</pdfrwt>
<totfact> 0.99074359E+03</totfact>
</mgrwt>
</event>
<event>
 5    1  0.3232465E-002  0.1250001E+03  0.7818608E-02  0.1235069E+00
          4   -1    0    0  501    0  0.00000000000E+00  0.00000000000E+00  0.33553472295E+02  0.33577498463E+02  0.12700000000E+01 0. -1.
         -4   -1    0    0    0  501 -0.00000000000E+00 -0.00000000000E+00 -0.11634970110E+03  0.11635663215E+03  0.12700000000E+01 0. -1.
         25    2    1    2    0    0  0.00000000000E+00  0.00000000000E+00 -0.82796228800E+02  0.14993413061E+03  0.12500011208E+03 0.  0.
    9000005    1    3    3    0    0  0.40019108334E+01 -0.24152697096E+02  0.27567757788E+02  0.36882913887E+02  0.10000000000E+01 0.  0.
    9000005    1    3    3    0    0 -0.40019108334E+01  0.24152697096E+02 -0.11036398659E+03  0.11305121672E+03  0.10000000000E+01 0.  0.
<mgrwt>
<rscale>  0 0.12500011E+03</rscale>
<asrwt>0</asrwt>
<pdfrwt beam="1">  1        4 0.51644540E-02 0.12500011E+03</pdfrwt>
<pdfrwt beam="2">  1       -4 0.17902335E-01 0.12500011E+03</pdfrwt>
<totfact> 0.99316579E+03</totfact>
</mgrwt>
</event>
<event>
 5    1  0.3232465E-002  0.1249989E+03  0.7818608E-02  0.1235071E+00
         -4   -1    0    0    0  501 -0.00000000000E+00  0.00000000000E+00  0.12134880995E+02  0.12201157189E+02  0.12700000000E+01 0.  1.
          4   -1    0    0  501    0  0.00000000000E+00 -0.00000000000E+00 -0.32095298018E+03  0.32095549284E+03  0.12700000000E+01 0.  1.
         25    2    1    2    0    0  0.00000000000E+00  0.00000000000E+00 -0.30881809918E+03  0.33315665003E+03  0.12499894030E+03 0.  0.
    9000005    1    3    3    0    0  0.31619831212E+02  0.30318002085E+02 -0.27319153789E+03  0.27668323287E+03  0.10000000000E+01 0.  0.
    9000005    1    3    3    0    0 -0.31619831212E+02 -0.30318002085E+02 -0.35626561291E+02  0.56473417160E+02  0.10000000000E+01 0.  0.
<mgrwt>
<rscale>  0 0.12499894E+03</rscale>
<asrwt>0</asrwt>
<pdfrwt beam="2">  1        4 0.49382667E-01 0.12499894E+03</pdfrwt>
<pdfrwt beam="1">  1       -4 0.18721965E-02 0.12499894E+03</pdfrwt>
<totfact> 0.71619848E+03</totfact>
</mgrwt>
</event>
<event>
 5    1  0.3232465E-002  0.1250127E+03  0.7818608E-02  0.1235049E+00
          4   -1    0    0  501    0  0.00000000000E+00  0.00000000000E+00  0.65124480242E+03  0.65124604074E+03  0.12700000000E+01 0.  1.
         -4   -1    0    0    0  501 -0.00000000000E+00 -0.00000000000E+00 -0.59308808540E+01  0.60653316236E+01  0.12700000000E+01 0.  1.
         25    2    1    2    0    0  0.00000000000E+00  0.00000000000E+00  0.64531392157E+03  0.65731137236E+03  0.12501273084E+03 0.  0.
    9000005    1    3    3    0    0 -0.14581047983E+02  0.51749746044E+02  0.49020371817E+03  0.49314432825E+03  0.10000000000E+01 0.  0.
    9000005    1    3    3    0    0  0.14581047983E+02 -0.51749746044E+02  0.15511020340E+03  0.16416704411E+03  0.10000000000E+01 0.  0.
<mgrwt>
<rscale>  0 0.12501273E+03</rscale>
<asrwt>0</asrwt>
<pdfrwt beam="1">  1        4 0.10020190E+00 0.12501273E+03</pdfrwt>
<pdfrwt beam="2">  1       -4 0.92288125E-03 0.12501273E+03</pdfrwt>
<totfact> 0.45425106E+03</totfact>
</mgrwt>
</event>
<event>
 5    1  0.3232465E-002  0.1250030E+03  0.7818608E-02  0.1235065E+00
         -4   -1    0    0    0  501 -0.00000000000E+00  0.00000000000E+00  0.80650550844E+02  0.80660549536E+02  0.12700000000E+01 0. -1.
          4   -1    0    0  501    0  0.00000000000E+00 -0.00000000000E+00 -0.48415292250E+02  0.48431946313E+02  0.12700000000E+01 0. -1.
         25    2    1    2    0    0  0.00000000000E+00  0.00000000000E+00  0.32235258595E+02  0.12909249585E+03  0.12500304231E+03 0.  0.
    9000005    1    3    3    0    0  0.17196109628E+02  0.31504468451E+02  0.68949875054E+02  0.77738812627E+02  0.10000000000E+01 0.  0.
    9000005    1    3    3    0    0 -0.17196109628E+02 -0.31504468451E+02 -0.36714616459E+02  0.51353683222E+02  0.10000000000E+01 0.  0.
<mgrwt>
<rscale>  0 0.12500304E+03</rscale>
<asrwt>0</asrwt>
<pdfrwt beam="2">  1        4 0.74505568E-02 0.12500304E+03</pdfrwt>
<pdfrwt beam="1">  1       -4 0.12409827E-01 0.12500304E+03</pdfrwt>
<totfact> 0.10363248E+04</totfact>
</mgrwt>
</event>
<event>
 5    1  0.3232465E-002  0.1250025E+03  0.7818608E-02  0.1235065E+00
          4   -1    0    0  501    0  0.00000000000E+00  0.00000000000E+00  0.40122159856E+01  0.42084174122E+01  0.12700000000E+01 0. -1.
         -4   -1    0    0    0  501 -0.00000000000E+00 -0.00000000000E+00 -0.95019426495E+03  0.95019511367E+03  0.12700000000E+01 0. -1.
         25    2    1    2    0    0  0.00000000000E+00  0.00000000000E+00 -0.94618204897E+03  0.95440353109E+03  0.12500252142E+03 0.  0.
    9000005    1    3    3    0    0  0.49450462969E+02  0.24161670294E+02 -0.24707825493E+03  0.25313592922E+03  0.10000000000E+01 0.  0.
    9000005    1    3    3    0    0 -0.49450462969E+02 -0.24161670294E+02 -0.69910379403E+03  0.70126760187E+03  0.10000000000E+01 0.  0.
<mgrwt>
<rscale>  0 0.12500252E+03</rscale>
<asrwt>0</asrwt>
<pdfrwt beam="1">  1        4 0.63242245E-03 0.12500252E+03</pdfrwt>
<pdfrwt beam="2">  1       -4 0.14619872E+00 0.12500252E+03</pdfrwt>
<totfact> 0.32158410E+03</totfact>
</mgrwt>
</event>
<event>
 5    1  0.3232465E-002  0.1250563E+03  0.7818608E-02  0.1234981E+00
          4   -1    0    0  501    0  0.00000000000E+00  0.00000000000E+00  0.40993910867E+02  0.41013578582E+02  0.12700000000E+01 0.  1.
         -4   -1    0    0    0  501 -0.00000000000E+00 -0.00000000000E+00 -0.95327606578E+02  0.95336065977E+02  0.12700000000E+01 0.  1.
         25    2    1    2    0    0  0.00000000000E+00  0.00000000000E+00 -0.54333695712E+02  0.13634964456E+03  0.12505628765E+03 0.  0.
    9000005    1    3    3    0    0 -0.15621539065E+01 -0.45748899240E+02  0.19262361875E+02  0.49673339846E+02  0.10000000000E+01 0.  0.
    9000005    1    3    3    0    0  0.15621539065E+01  0.45748899240E+02 -0.73596057587E+02  0.86676304713E+02  0.10000000000E+01 0.  0.
<mgrwt>
<rscale>  0 0.12505629E+03</rscale>
<asrwt>0</asrwt>
<pdfrwt beam="1">  1        4 0.63089192E-02 0.12505629E+03</pdfrwt>
<pdfrwt beam="2">  1       -4 0.14667949E-01 0.12505629E+03</pdfrwt>
<totfact> 0.10196754E+04</totfact>
</mgrwt>
</event>
<event>
 5    1  0.3232465E-002  0.1250529E+03  0.7818608E-02  0.1234987E+00
          4   -1    0    0  501    0  0.00000000000E+00  0.00000000000E+00  0.67078300778E+01  0.68269967301E+01  0.12700000000E+01 0.  1.
         -4   -1    0    0    0  501 -0.00000000000E+00 -0.00000000000E+00 -0.57758325221E+03  0.57758464846E+03  0.12700000000E+01 0.  1.
         25    2    1    2    0    0  0.00000000000E+00  0.00000000000E+00 -0.57087542214E+03  0.58441164519E+03  0.12505288256E+03 0.  0.
    9000005    1    3    3    0    0 -0.58658916328E+02 -0.19004604987E+02 -0.23720682886E+03  0.24509207072E+03  0.10000000000E+01 0.  0.
    9000005    1    3    3    0    0  0.58658916328E+02  0.19004604987E+02 -0.33366859328E+03  0.33931957447E+03  0.10000000000E+01 0.  0.
<mgrwt>
<rscale>  0 0.12505288E+03</rscale>
<asrwt>0</asrwt>
<pdfrwt beam="1">  1        4 0.10412484E-02 0.12505288E+03</pdfrwt>
<pdfrwt beam="2">  1       -4 0.88868197E-01 0.12505288E+03</pdfrwt>
<totfact> 0.49808826E+03</totfact>
</mgrwt>
</event>
<event>
 5    1  0.3232465E-002  0.1249838E+03  0.7818608E-02  0.1235095E+00
          4   -1    0    0  501    0  0.00000000000E+00  0.00000000000E+00  0.11932688779E+04  0.11932695537E+04  0.12700000000E+01 0. -1.
         -4   -1    0    0    0  501 -0.00000000000E+00 -0.00000000000E+00 -0.31488109940E+01  0.33952777023E+01  0.12700000000E+01 0. -1.
         25    2    1    2    0    0  0.00000000000E+00  0.00000000000E+00  0.11901200669E+04  0.11966648314E+04  0.12498377951E+03 0.  0.
    9000005    1    3    3    0    0 -0.46390542102E+02 -0.41912756425E+01  0.99382493899E+03  0.99491640782E+03  0.10000000000E+01 0.  0.
    9000005    1    3    3    0    0  0.46390542102E+02  0.41912756425E+01  0.19629512792E+03  0.20174842362E+03  0.10000000000E+01 0.  0.
<mgrwt>
<rscale>  0 0.12498378E+03</rscale>
<asrwt>0</asrwt>
<pdfrwt beam="1">  1        4 0.18359886E+00 0.12498378E+03</pdfrwt>
<pdfrwt beam="2">  1       -4 0.50344335E-03 0.12498378E+03</pdfrwt>
<totfact> 0.24808984E+03</totfact>
</mgrwt>
</event>
<event>
 5    1  0.3232465E-002  0.1249887E+03  0.7818608E-02  0.1235087E+00
          4   -1    0    0  501    0  0.00000000000E+00  0.00000000000E+00  0.68456678978E+03  0.68456796782E+03  0.12700000000E+01 0.  1.
         -4   -1    0    0    0  501 -0.00000000000E+00 -0.00000000000E+00 -0.56332546035E+01  0.57746391600E+01  0.12700000000E+01 0.  1.
         25    2    1    2    0    0  0.00000000000E+00  0.00000000000E+00  0.67893353517E+03  0.69034260698E+03  0.12498867880E+03 0.  0.
    9000005    1    3    3    0    0  0.38308686741E+02  0.12564594147E+02  0.75786638992E+02  0.85848932176E+02  0.10000000000E+01 0.  0.
    9000005    1    3    3    0    0 -0.38308686741E+02 -0.12564594147E+02  0.60314689618E+03  0.60449367480E+03  0.10000000000E+01 0.  0.
<mgrwt>
<rscale>  0 0.12498868E+03</rscale>
<asrwt>0</asrwt>
<pdfrwt beam="1">  1        4 0.10532894E+00 0.12498868E+03</pdfrwt>
<pdfrwt beam="2">  1       -4 0.87762084E-03 0.12498868E+03</pdfrwt>
<totfact> 0.43612217E+03</totfact>
</mgrwt>
</event>
<event>
 5    1  0.3232465E-002  0.1249994E+03  0.7818608E-02  0.1235070E+00
          4   -1    0    0  501    0  0.00000000000E+00  0.00000000000E+00  0.17713067339E+03  0.17713522619E+03  0.12700000000E+01 0. -1.
         -4   -1    0    0    0  501 -0.00000000000E+00 -0.00000000000E+00 -0.22029602664E+02  0.22066179858E+02  0.12700000000E+01 0. -1.
         25    2    1    2    0    0  0.00000000000E+00  0.00000000000E+00  0.15510107073E+03  0.19920140604E+03  0.12499943212E+03 0.  0.
    9000005    1    3    3    0    0 -0.21516633609E+02 -0.38021224710E+02  0.14875934881E+03  0.15504490610E+03  0.10000000000E+01 0.  0.
    9000005    1    3    3    0    0  0.21516633609E+02  0.38021224710E+02  0.63417219200E+01  0.44156499943E+02  0.10000000000E+01 0.  0.
<mgrwt>
<rscale>  0 0.12499943E+03</rscale>
<asrwt>0</asrwt>
<pdfrwt beam="1">  1        4 0.27254037E-01 0.12499943E+03</pdfrwt>
<pdfrwt beam="2">  1       -4 0.33923335E-02 0.12499943E+03</pdfrwt>
<totfact> 0.90271517E+03</totfact>
</mgrwt>
</event>
<event>
 5    1  0.3232465E-002  0.1250160E+03  0.7818608E-02  0.1235044E+00
         -4   -1    0    0    0  501 -0.00000000000E+00  0.00000000000E+00  0.53009897960E+01  0.54509992494E+01  0.12700000000E+01 0. -1.
          4   -1    0    0  501    0  0.00000000000E+00 -0.00000000000E+00 -0.72664491050E+03  0.72664602033E+03  0.12700000000E+01 0. -1.
         25    2    1    2    0    0  0.00000000000E+00  0.00000000000E+00 -0.72134392070E+03  0.73209701958E+03  0.12501597552E+03 0.  0.
    9000005    1    3    3    0    0 -0.59730203445E+02 -0.12997749204E+02 -0.28440636685E+03  0.29090311135E+03  0.10000000000E+01 0.  0.
    9000005    1    3    3    0    0  0.59730203445E+02  0.12997749204E+02 -0.43693755386E+03  0.44119390823E+03  0.10000000000E+01 0.  0.
<mgrwt>
<rscale>  0 0.12501598E+03</rscale>
<asrwt>0</asrwt>
<pdfrwt beam="2">  1        4 0.11180307E+00 0.12501598E+03</pdfrwt>
<pdfrwt beam="1">  1       -4 0.82716203E-03 0.12501598E+03</pdfrwt>
<totfact> 0.41430972E+03</totfact>
</mgrwt>
</event>
<event>
 5    1  0.3232465E-002  0.1249983E+03  0.7818608E-02  0.1235072E+00
          4   -1    0    0  501    0  0.00000000000E+00  0.00000000000E+00  0.92904094837E+02  0.92912774889E+02  0.12700000000E+01 0. -1.
         -4   -1    0    0    0  501 -0.00000000000E+00 -0.00000000000E+00 -0.42024679541E+02  0.42043865076E+02  0.12700000000E+01 0. -1.
         25    2    1    2    0    0  0.00000000000E+00  0.00000000000E+00  0.50879415296E+02  0.13495663996E+03  0.12499831907E+03 0.  0.
    9000005    1    3    3    0    0  0.39174800643E-01  0.34967359877E+01 -0.41924253122E+02  0.42081726403E+02  0.10000000000E+01 0.  0.
    9000005    1    3    3    0    0 -0.39174800643E-01 -0.34967359877E+01  0.92803668418E+02  0.92874913562E+02  0.10000000000E+01 0.  0.
<mgrwt>
<rscale>  0 0.12499832E+03</rscale>
<asrwt>0</asrwt>
<pdfrwt beam="1">  1        4 0.14295081E-01 0.12499832E+03</pdfrwt>
<pdfrwt beam="2">  1       -4 0.64674789E-02 0.12499832E+03</pdfrwt>
<totfact> 0.10239373E+04</totfact>
</mgrwt>
</event>
<event>
 5    1  0.3232465E-002  0.1249963E+03  0.7818608E-02  0.1235075E+00
         -4   -1    0    0    0  501 -0.00000000000E+00  0.00000000000E+00  0.45000188288E+03  0.45000367498E+03  0.12700000000E+01 0.  1.
          4   -1    0    0  501    0  0.00000000000E+00 -0.00000000000E+00 -0.86317267451E+01  0.87246550994E+01  0.12700000000E+01 0.  1.
         25    2    1    2    0    0  0.00000000000E+00  0.00000000000E+00  0.44137015614E+03  0.45872833008E+03  0.12499626431E+03 0.  0.
    9000005    1    3    3    0    0  0.30952884674E+02 -0.21164635196E+02  0.37225197520E+02  0.52846363953E+02  0.10000000000E+01 0.  0.
    9000005    1    3    3    0    0 -0.30952884674E+02  0.21164635196E+02  0.40414495862E+03  0.40588196613E+03  0.10000000000E+01 0.  0.
<mgrwt>
<rscale>  0 0.12499626E+03</rscale>
<asrwt>0</asrwt>
<pdfrwt beam="2">  1        4 0.13352438E-02 0.12499626E+03</pdfrwt>
<pdfrwt beam="1">  1       -4 0.69238361E-01 0.12499626E+03</pdfrwt>
<totfact> 0.59219910E+03</totfact>
</mgrwt>
</event>
<event>
 5    1  0.3232465E-002  0.1249998E+03  0.7818608E-02  0.1235070E+00
          4   -1    0    0  501    0  0.00000000000E+00  0.00000000000E+00  0.40883937972E+03  0.40884135225E+03  0.12700000000E+01 0. -1.
         -4   -1    0    0    0  501 -0.00000000000E+00 -0.00000000000E+00 -0.95102528700E+01  0.95946761098E+01  0.12700000000E+01 0. -1.
         25    2    1    2    0    0  0.00000000000E+00  0.00000000000E+00  0.39932912685E+03  0.41843602836E+03  0.12499983312E+03 0.  0.
    9000005    1    3    3    0    0  0.48125435605E+02 -0.28374373612E+02  0.29339895801E+03  0.29867224710E+03  0.10000000000E+01 0.  0.
    9000005    1    3    3    0    0 -0.48125435605E+02  0.28374373612E+02  0.10593016885E+03  0.11976378126E+03  0.10000000000E+01 0.  0.
<mgrwt>
<rscale>  0 0.12499983E+03</rscale>
<asrwt>0</asrwt>
<pdfrwt beam="1">  1        4 0.62905021E-01 0.12499983E+03</pdfrwt>
<pdfrwt beam="2">  1       -4 0.14697615E-02 0.12499983E+03</pdfrwt>
<totfact> 0.62798592E+03</totfact>
</mgrwt>
</event>
<event>
 5    1  0.3232465E-002  0.1249914E+03  0.7818608E-02  0.1235083E+00
         -4   -1    0    0    0  501 -0.00000000000E+00  0.00000000000E+00  0.18590823211E+03  0.18591256995E+03  0.12700000000E+01 0.  1.
          4   -1    0    0  501    0  0.00000000000E+00 -0.00000000000E+00 -0.20985045388E+02  0.21023440012E+02  0.12700000000E+01 0.  1.
         25    2    1    2    0    0  0.00000000000E+00  0.00000000000E+00  0.16492318672E+03  0.20693600997E+03  0.12499141851E+03 0.  0.
    9000005    1    3    3    0    0  0.26568004780E+02  0.49821081576E+02  0.38138607606E+02  0.68143616264E+02  0.10000000000E+01 0.  0.
    9000005    1    3    3    0    0 -0.26568004780E+02 -0.49821081576E+02  0.12678457912E+03  0.13879239370E+03  0.10000000000E+01 0.  0.
<mgrwt>
<rscale>  0 0.12499142E+03</rscale>
<asrwt>0</asrwt>
<pdfrwt beam="2">  1        4 0.32317557E-02 0.12499142E+03</pdfrwt>
<pdfrwt beam="1">  1       -4 0.28604553E-01 0.12499142E+03</pdfrwt>
<totfact> 0.88995806E+03</totfact>
</mgrwt>
</event>
<event>
 5    1  0.3232465E-002  0.1250011E+03  0.7818608E-02  0.1235068E+00
          4   -1    0    0  501    0  0.00000000000E+00  0.00000000000E+00  0.11895487588E+03  0.11896165515E+03  0.12700000000E+01 0.  1.
         -4   -1    0    0    0  501 -0.00000000000E+00 -0.00000000000E+00 -0.32818647898E+02  0.32843211625E+02  0.12700000000E+01 0.  1.
         25    2    1    2    0    0  0.00000000000E+00  0.00000000000E+00  0.86136227985E+02  0.15180486678E+03  0.12500107122E+03 0.  0.
    9000005    1    3    3    0    0  0.50663904757E+02 -0.17849200062E+02  0.81851792884E+02  0.97908841207E+02  0.10000000000E+01 0.  0.
    9000005    1    3    3    0    0 -0.50663904757E+02  0.17849200062E+02  0.42844351007E+01  0.53896025570E+02  0.10000000000E+01 0.  0.
<mgrwt>
<rscale>  0 0.12500107E+03</rscale>
<asrwt>0</asrwt>
<pdfrwt beam="1">  1        4 0.18303161E-01 0.12500107E+03</pdfrwt>
<pdfrwt beam="2">  1       -4 0.50514337E-02 0.12500107E+03</pdfrwt>
<totfact> 0.98942749E+03</totfact>
</mgrwt>
</event>
<event>
 5    1  0.3232465E-002  0.1250061E+03  0.7818608E-02  0.1235060E+00
         -4   -1    0    0    0  501 -0.00000000000E+00  0.00000000000E+00  0.35340911641E+01  0.37553562222E+01  0.12700000000E+01 0.  1.
          4   -1    0    0  501    0  0.00000000000E+00 -0.00000000000E+00 -0.10716371045E+04  0.10716378570E+04  0.12700000000E+01 0.  1.
         25    2    1    2    0    0  0.00000000000E+00  0.00000000000E+00 -0.10681030133E+04  0.10753932133E+04  0.12500606398E+03 0.  0.
    9000005    1    3    3    0    0 -0.13472685265E+01 -0.57981081093E+02 -0.73433220789E+03  0.73661958462E+03  0.10000000000E+01 0.  0.
    9000005    1    3    3    0    0  0.13472685265E+01  0.57981081093E+02 -0.33377080544E+03  0.33877362864E+03  0.10000000000E+01 0.  0.
<mgrwt>
<rscale>  0 0.12500606E+03</rscale>
<asrwt>0</asrwt>
<pdfrwt beam="2">  1        4 0.16488407E+00 0.12500606E+03</pdfrwt>
<pdfrwt beam="1">  1       -4 0.56078546E-03 0.12500606E+03</pdfrwt>
<totfact> 0.28211272E+03</totfact>
</mgrwt>
</event>
<event>
 5    1  0.3232465E-002  0.1249713E+03  0.7818608E-02  0.1235114E+00
         -4   -1    0    0    0  501 -0.00000000000E+00  0.00000000000E+00  0.62288314028E+03  0.62288443498E+03  0.12700000000E+01 0.  1.
          4   -1    0    0  501    0  0.00000000000E+00 -0.00000000000E+00 -0.62027228872E+01  0.63314035739E+01  0.12700000000E+01 0.  1.
         25    2    1    2    0    0  0.00000000000E+00  0.00000000000E+00  0.61668041739E+03  0.62921583856E+03  0.12497133390E+03 0.  0.
    9000005    1    3    3    0    0 -0.28632993102E+01  0.25042039483E+02  0.20507162903E+02  0.32509167241E+02  0.10000000000E+01 0.  0.
    9000005    1    3    3    0    0  0.28632993102E+01 -0.25042039483E+02  0.59617325449E+03  0.59670667131E+03  0.10000000000E+01 0.  0.
<mgrwt>
<rscale>  0 0.12497133E+03</rscale>
<asrwt>0</asrwt>
<pdfrwt beam="2">  1        4 0.96426301E-03 0.12497133E+03</pdfrwt>
<pdfrwt beam="1">  1       -4 0.95838189E-01 0.12497133E+03</pdfrwt>
<totfact> 0.47103446E+03</totfact>
</mgrwt>
</event>
<event>
 5    1  0.3232465E-002  0.1249991E+03  0.7818608E-02  0.1235071E+00
         -4   -1    0    0    0  501 -0.00000000000E+00  0.00000000000E+00  0.30704647512E+02  0.30730901042E+02  0.12700000000E+01 0.  1.
          4   -1    0    0  501    0  0.00000000000E+00 -0.00000000000E+00 -0.12713456161E+03  0.12714090473E+03  0.12700000000E+01 0.  1.
         25    2    1    2    0    0  0.00000000000E+00  0.00000000000E+00 -0.96429914100E+02  0.15787180578E+03  0.12499911490E+03 0.  0.
    9000005    1    3    3    0    0  0.44194218974E+01 -0.32213930702E+02 -0.11561528250E+03  0.12010479661E+03  0.10000000000E+01 0.  0.
    9000005    1    3    3    0    0 -0.44194218974E+01  0.32213930702E+02  0.19185368395E+02  0.37767009170E+02  0.10000000000E+01 0.  0.
<mgrwt>
<rscale>  0 0.12499911E+03</rscale>
<asrwt>0</asrwt>
<pdfrwt beam="2">  1        4 0.19561670E-01 0.12499911E+03</pdfrwt>
<pdfrwt beam="1">  1       -4 0.47262994E-02 0.12499911E+03</pdfrwt>
<totfact> 0.97756605E+03</totfact>
</mgrwt>
</event>
<event>
 5    1  0.3232465E-002  0.1249996E+03  0.7818608E-02  0.1235070E+00
         -4   -1    0    0    0  501 -0.00000000000E+00  0.00000000000E+00  0.45990352032E+02  0.46007883890E+02  0.12700000000E+01 0.  1.
          4   -1    0    0  501    0  0.00000000000E+00 -0.00000000000E+00 -0.84897265384E+02  0.84906763981E+02  0.12700000000E+01 0.  1.
         25    2    1    2    0    0  0.00000000000E+00  0.00000000000E+00 -0.38906913353E+02  0.13091464787E+03  0.12499958848E+03 0.  0.
    9000005    1    3    3    0    0 -0.46734016438E+02 -0.38781318079E+02 -0.34887329972E+02  0.70044162618E+02  0.10000000000E+01 0.  0.
    9000005    1    3    3    0    0  0.46734016438E+02  0.38781318079E+02 -0.40195833810E+01  0.60870485253E+02  0.10000000000E+01 0.  0.
<mgrwt>
<rscale>  0 0.12499959E+03</rscale>
<asrwt>0</asrwt>
<pdfrwt beam="2">  1        4 0.13063197E-01 0.12499959E+03</pdfrwt>
<pdfrwt beam="1">  1       -4 0.70775180E-02 0.12499959E+03</pdfrwt>
<totfact> 0.10325015E+04</totfact>
</mgrwt>
</event>
<event>
 5    1  0.3232465E-002  0.1249987E+03  0.7818608E-02  0.1235071E+00
         -4   -1    0    0    0  501 -0.00000000000E+00  0.00000000000E+00  0.74975751640E+01  0.76043759336E+01  0.12700000000E+01 0.  1.
          4   -1    0    0  501    0  0.00000000000E+00 -0.00000000000E+00 -0.51719908998E+03  0.51720064924E+03  0.12700000000E+01 0.  1.
         25    2    1    2    0    0  0.00000000000E+00  0.00000000000E+00 -0.50970151482E+03  0.52480502517E+03  0.12499872097E+03 0.  0.
    9000005    1    3    3    0    0 -0.69533520531E+01 -0.52566033411E+02 -0.39369511529E+03  0.39725102993E+03  0.10000000000E+01 0.  0.
    9000005    1    3    3    0    0  0.69533520531E+01  0.52566033411E+02 -0.11600639952E+03  0.12755399525E+03  0.10000000000E+01 0.  0.
<mgrwt>
<rscale>  0 0.12499872E+03</rscale>
<asrwt>0</asrwt>
<pdfrwt beam="2">  1        4 0.79577398E-01 0.12499872E+03</pdfrwt>
<pdfrwt beam="1">  1       -4 0.11618089E-02 0.12499872E+03</pdfrwt>
<totfact> 0.53991416E+03</totfact>
</mgrwt>
</event>
<event>
 5    1  0.3232465E-002  0.1250058E+03  0.7818608E-02  0.1235060E+00
          4   -1    0    0  501    0  0.00000000000E+00  0.00000000000E+00  0.62476981166E+03  0.62477110246E+03  0.12700000000E+01 0.  1.
         -4   -1    0    0    0  501 -0.00000000000E+00 -0.00000000000E+00 -0.61870857109E+01  0.63160849895E+01  0.12700000000E+01 0.  1.
         25    2    1    2    0    0  0.00000000000E+00  0.00000000000E+00  0.61858272595E+03  0.63108718745E+03  0.12500579712E+03 0.  0.
    9000005    1    3    3    0    0 -0.10036616874E+02  0.56998099926E+02  0.19024015569E+03  0.19885128592E+03  0.10000000000E+01 0.  0.
    9000005    1    3    3    0    0  0.10036616874E+02 -0.56998099926E+02  0.42834257026E+03  0.43223590153E+03  0.10000000000E+01 0.  0.
<mgrwt>
<rscale>  0 0.12500580E+03</rscale>
<asrwt>0</asrwt>
<pdfrwt beam="1">  1        4 0.96128477E-01 0.12500580E+03</pdfrwt>
<pdfrwt beam="2">  1       -4 0.96188143E-03 0.12500580E+03</pdfrwt>
<totfact> 0.46956338E+03</totfact>
</mgrwt>
</event>
<event>
 5    1  0.3232465E-002  0.1250037E+03  0.7818608E-02  0.1235063E+00
          4   -1    0    0  501    0  0.00000000000E+00  0.00000000000E+00  0.16227671824E+03  0.16228168776E+03  0.12700000000E+01 0. -1.
         -4   -1    0    0    0  501 -0.00000000000E+00 -0.00000000000E+00 -0.24050881956E+02  0.24084389609E+02  0.12700000000E+01 0. -1.
         25    2    1    2    0    0  0.00000000000E+00  0.00000000000E+00  0.13822583628E+03  0.18636607737E+03  0.12500373186E+03 0.  0.
    9000005    1    3    3    0    0 -0.34297070547E+02  0.50772589421E+02  0.87453723295E+02  0.10678622853E+03  0.10000000000E+01 0.  0.
    9000005    1    3    3    0    0  0.34297070547E+02 -0.50772589421E+02  0.50772112988E+02  0.79579848843E+02  0.10000000000E+01 0.  0.
<mgrwt>
<rscale>  0 0.12500373E+03</rscale>
<asrwt>0</asrwt>
<pdfrwt beam="1">  1        4 0.24968610E-01 0.12500373E+03</pdfrwt>
<pdfrwt beam="2">  1       -4 0.37030954E-02 0.12500373E+03</pdfrwt>
<totfact> 0.92475743E+03</totfact>
</mgrwt>
</event>
<event>
 5    1  0.3232465E-002  0.1249995E+03  0.7818608E-02  0.1235070E+00
          4   -1    0    0  501    0  0.00000000000E+00  0.00000000000E+00  0.29924586635E+02  0.29951523923E+02  0.12700000000E+01 0. -1.
         -4   -1    0    0    0  501 -0.00000000000E+00 -0.00000000000E+00 -0.13044675122E+03  0.13045293329E+03  0.12700000000E+01 0. -1.
         25    2    1    2    0    0  0.00000000000E+00  0.00000000000E+00 -0.10052216459E+03  0.16040445722E+03  0.12499953728E+03 0.  0.
    9000005    1    3    3    0    0  0.44736151884E+02 -0.11528168251E+01  0.57118698029E+01  0.45125134113E+02  0.10000000000E+01 0.  0.
    9000005    1    3    3    0    0 -0.44736151884E+02  0.11528168251E+01 -0.10623403439E+03  0.11527932310E+03  0.10000000000E+01 0.  0.
<mgrwt>
<rscale>  0 0.12499954E+03</rscale>
<asrwt>0</asrwt>
<pdfrwt beam="1">  1        4 0.46063303E-02 0.12499954E+03</pdfrwt>
<pdfrwt beam="2">  1       -4 0.20071278E-01 0.12499954E+03</pdfrwt>
<totfact> 0.97265877E+03</totfact>
</mgrwt>
</event>
<event>
 5    1  0.3232465E-002  0.1250016E+03  0.7818608E-02  0.1235067E+00
          4   -1    0    0  501    0  0.00000000000E+00  0.00000000000E+00  0.16227411946E+03  0.16227908907E+03  0.12700000000E+01 0. -1.
         -4   -1    0    0    0  501 -0.00000000000E+00 -0.00000000000E+00 -0.24050463574E+02  0.24083971810E+02  0.12700000000E+01 0. -1.
         25    2    1    2    0    0  0.00000000000E+00  0.00000000000E+00  0.13822365589E+03  0.18636306088E+03  0.12500164563E+03 0.  0.
    9000005    1    3    3    0    0  0.42405736058E+02  0.42893469018E+02  0.44738859876E+02  0.75104338876E+02  0.10000000000E+01 0.  0.
    9000005    1    3    3    0    0 -0.42405736058E+02 -0.42893469018E+02  0.93484796014E+02  0.11125872200E+03  0.10000000000E+01 0.  0.
<mgrwt>
<rscale>  0 0.12500165E+03</rscale>
<asrwt>0</asrwt>
<pdfrwt beam="1">  1        4 0.24968210E-01 0.12500165E+03</pdfrwt>
<pdfrwt beam="2">  1       -4 0.37030310E-02 0.12500165E+03</pdfrwt>
<totfact> 0.92480597E+03</totfact>
</mgrwt>
</event>
<event>
 5    1  0.3232465E-002  0.1249581E+03  0.7818608E-02  0.1235135E+00
          4   -1    0    0  501    0  0.00000000000E+00  0.00000000000E+00  0.32434944912E+03  0.32435193547E+03  0.12700000000E+01 0. -1.
         -4   -1    0    0    0  501 -0.00000000000E+00 -0.00000000000E+00 -0.11999222295E+02  0.12066243645E+02  0.12700000000E+01 0. -1.
         25    2    1    2    0    0  0.00000000000E+00  0.00000000000E+00  0.31235022682E+03  0.33641817911E+03  0.12495810115E+03 0.  0.
    9000005    1    3    3    0    0 -0.31121296216E+02 -0.53630054323E+02  0.17666344781E+03  0.18723165223E+03  0.10000000000E+01 0.  0.
    9000005    1    3    3    0    0  0.31121296216E+02  0.53630054323E+02  0.13568677901E+03  0.14918652688E+03  0.10000000000E+01 0.  0.
<mgrwt>
<rscale>  0 0.12495810E+03</rscale>
<asrwt>0</asrwt>
<pdfrwt beam="1">  1        4 0.49905263E-01 0.12495810E+03</pdfrwt>
<pdfrwt beam="2">  1       -4 0.18513809E-02 0.12495810E+03</pdfrwt>
<totfact> 0.71311176E+03</totfact>
</mgrwt>
</event>
<event>
 5    1  0.3232465E-002  0.1249991E+03  0.7818608E-02  0.1235071E+00
         -4   -1    0    0    0  501 -0.00000000000E+00  0.00000000000E+00  0.31246036837E+02  0.31271835859E+02  0.12700000000E+01 0. -1.
          4   -1    0    0  501    0  0.00000000000E+00 -0.00000000000E+00 -0.12493346385E+03  0.12493991872E+03  0.12700000000E+01 0. -1.
         25    2    1    2    0    0  0.00000000000E+00  0.00000000000E+00 -0.93687427012E+02  0.15621175458E+03  0.12499911315E+03 0.  0.
    9000005    1    3    3    0    0  0.24124016124E+02  0.53831747691E+02 -0.21069235422E+02  0.62647728567E+02  0.10000000000E+01 0.  0.
    9000005    1    3    3    0    0 -0.24124016124E+02 -0.53831747691E+02 -0.72618191590E+02  0.93564026010E+02  0.10000000000E+01 0.  0.
<mgrwt>
<rscale>  0 0.12499911E+03</rscale>
<asrwt>0</asrwt>
<pdfrwt beam="2">  1        4 0.19223014E-01 0.12499911E+03</pdfrwt>
<pdfrwt beam="1">  1       -4 0.48095637E-02 0.12499911E+03</pdfrwt>
<totfact> 0.98080096E+03</totfact>
</mgrwt>
</event>
<event>
 4    1  0.3232465E-002  0.1250761E+03  0.7818608E-02  0.1234950E+00
         -4   -1    0    0    0  501 -0.00000000000E+00  0.00000000000E+00  0.96348684837E+02  0.96357054592E+02  0.12700000000E+01 0.  1.
          4   -1    0    0  501    0  0.00000000000E+00 -0.00000000000E+00 -0.40572182608E+02  0.40592054661E+02  0.12700000000E+01 0.  1.
    9000005    1    1    2    0    0 -0.12265118957E+02  0.60564923796E+02  0.38359942444E+02  0.72739455056E+02  0.10000000000E+01 0.  0.
    9000005    1    1    2    0    0  0.12265118957E+02 -0.60564923796E+02  0.17416559784E+02  0.64209654198E+02  0.10000000000E+01 0.  0.
<mgrwt>
<rscale>  0 0.12507614E+03</rscale>
<asrwt>0</asrwt>
<pdfrwt beam="2">  1        4 0.62440467E-02 0.12507614E+03</pdfrwt>
<pdfrwt beam="1">  1       -4 0.14825047E-01 0.12507614E+03</pdfrwt>
<totfact> 0.10179664E+04</totfact>
</mgrwt>
</event>
<event>
 5    1  0.3232465E-002  0.1250008E+03  0.7818608E-02  0.1235068E+00
         -4   -1    0    0    0  501 -0.00000000000E+00  0.00000000000E+00  0.64006743235E+01  0.65254526123E+01  0.12700000000E+01 0.  1.
          4   -1    0    0  501    0  0.00000000000E+00 -0.00000000000E+00 -0.60427856588E+03  0.60427990044E+03  0.12700000000E+01 0.  1.
         25    2    1    2    0    0  0.00000000000E+00  0.00000000000E+00 -0.59787789156E+03  0.61080535306E+03  0.12500082444E+03 0.  0.
    9000005    1    3    3    0    0  0.44059247367E+02  0.33729354583E+02 -0.43941070569E+03  0.44290140541E+03  0.10000000000E+01 0.  0.
    9000005    1    3    3    0    0 -0.44059247367E+02 -0.33729354583E+02 -0.15846718586E+03  0.16790394764E+03  0.10000000000E+01 0.  0.
<mgrwt>
<rscale>  0 0.12500082E+03</rscale>
<asrwt>0</asrwt>
<pdfrwt beam="2">  1        4 0.92975590E-01 0.12500082E+03</pdfrwt>
<pdfrwt beam="1">  1       -4 0.99442059E-03 0.12500082E+03</pdfrwt>
<totfact> 0.48191718E+03</totfact>
</mgrwt>
</event>
<event>
 5    1  0.3232465E-002  0.1249972E+03  0.7818608E-02  0.1235074E+00
          4   -1    0    0  501    0  0.00000000000E+00  0.00000000000E+00  0.84773672633E+02  0.84783185076E+02  0.12700000000E+01 0. -1.
         -4   -1    0    0    0  501 -0.00000000000E+00 -0.00000000000E+00 -0.46055631009E+02  0.46073138027E+02  0.12700000000E+01 0. -1.
         25    2    1    2    0    0  0.00000000000E+00  0.00000000000E+00  0.38718041624E+02  0.13085632310E+03  0.12499716216E+03 0.  0.
    9000005    1    3    3    0    0 -0.37401645138E+02 -0.20633729118E+02  0.67108873075E+02  0.79556487364E+02  0.10000000000E+01 0.  0.
    9000005    1    3    3    0    0  0.37401645138E+02  0.20633729118E+02 -0.28390831451E+02  0.51299835739E+02  0.10000000000E+01 0.  0.
<mgrwt>
<rscale>  0 0.12499716E+03</rscale>
<asrwt>0</asrwt>
<pdfrwt beam="1">  1        4 0.13044182E-01 0.12499716E+03</pdfrwt>
<pdfrwt beam="2">  1       -4 0.70875602E-02 0.12499716E+03</pdfrwt>
<totfact> 0.10326832E+04</totfact>
</mgrwt>
</event>
<event>
 5    1  0.3232465E-002  0.1249997E+03  0.7818608E-02  0.1235070E+00
         -4   -1    0    0    0  501 -0.00000000000E+00  0.00000000000E+00  0.21977944898E+02  0.22014607922E+02  0.12700000000E+01 0.  1.
          4   -1    0    0  501    0  0.00000000000E+00 -0.00000000000E+00 -0.17754710012E+03  0.17755164224E+03  0.12700000000E+01 0.  1.
         25    2    1    2    0    0  0.00000000000E+00  0.00000000000E+00 -0.15556915522E+03  0.19956625016E+03  0.12499970458E+03 0.  0.
    9000005    1    3    3    0    0  0.56795172020E+02  0.24867078583E+01 -0.11921320648E+03  0.13207824908E+03  0.10000000000E+01 0.  0.
    9000005    1    3    3    0    0 -0.56795172020E+02 -0.24867078583E+01 -0.36355948744E+02  0.67488001081E+02  0.10000000000E+01 0.  0.
<mgrwt>
<rscale>  0 0.12499970E+03</rscale>
<asrwt>0</asrwt>
<pdfrwt beam="2">  1        4 0.27318107E-01 0.12499970E+03</pdfrwt>
<pdfrwt beam="1">  1       -4 0.33843920E-02 0.12499970E+03</pdfrwt>
<totfact> 0.90209310E+03</totfact>
</mgrwt>
</event>
<event>
 5    1  0.3232465E-002  0.1250064E+03  0.7818608E-02  0.1235059E+00
          4   -1    0    0  501    0  0.00000000000E+00  0.00000000000E+00  0.23302425660E+02  0.23337007984E+02  0.12700000000E+01 0. -1.
         -4   -1    0    0    0  501 -0.00000000000E+00 -0.00000000000E+00 -0.16748875183E+03  0.16749356671E+03  0.12700000000E+01 0. -1.
         25    2    1    2    0    0  0.00000000000E+00  0.00000000000E+00 -0.14418632617E+03  0.19083057469E+03  0.12500644617E+03 0.  0.
    9000005    1    3    3    0    0  0.24321829772E+02  0.55683199898E+02 -0.94397891273E+02  0.11226812562E+03  0.10000000000E+01 0.  0.
    9000005    1    3    3    0    0 -0.24321829772E+02 -0.55683199898E+02 -0.49788434895E+02  0.78562449069E+02  0.10000000000E+01 0.  0.
<mgrwt>
<rscale>  0 0.12500645E+03</rscale>
<asrwt>0</asrwt>
<pdfrwt beam="1">  1        4 0.35880192E-02 0.12500645E+03</pdfrwt>
<pdfrwt beam="2">  1       -4 0.25770530E-01 0.12500645E+03</pdfrwt>
<totfact> 0.91689759E+03</totfact>
</mgrwt>
</event>
<event>
 5    1  0.3232465E-002  0.1249972E+03  0.7818608E-02  0.1235074E+00
          4   -1    0    0  501    0  0.00000000000E+00  0.00000000000E+00  0.13907486034E+03  0.13908065890E+03  0.12700000000E+01 0.  1.
         -4   -1    0    0    0  501 -0.00000000000E+00 -0.00000000000E+00 -0.28065408342E+02  0.28094128308E+02  0.12700000000E+01 0.  1.
         25    2    1    2    0    0  0.00000000000E+00  0.00000000000E+00  0.11100945200E+03  0.16717478720E+03  0.12499724414E+03 0.  0.
    9000005    1    3    3    0    0  0.35185814623E+02  0.20347627263E+02 -0.79774678861E+01  0.41433168836E+02  0.10000000000E+01 0.  0.
    9000005    1    3    3    0    0 -0.35185814623E+02 -0.20347627263E+02  0.11898691989E+03  0.12574161837E+03  0.10000000000E+01 0.  0.
<mgrwt>
<rscale>  0 0.12499724E+03</rscale>
<asrwt>0</asrwt>
<pdfrwt beam="1">  1        4 0.21398788E-01 0.12499724E+03</pdfrwt>
<pdfrwt beam="2">  1       -4 0.43204104E-02 0.12499724E+03</pdfrwt>
<totfact> 0.95983041E+03</totfact>
</mgrwt>
</event>
<event>
 5    1  0.3232465E-002  0.1249956E+03  0.7818608E-02  0.1235076E+00
         -4   -1    0    0    0  501 -0.00000000000E+00  0.00000000000E+00  0.63103051796E+02  0.63115830391E+02  0.12700000000E+01 0. -1.
          4   -1    0    0  501    0  0.00000000000E+00 -0.00000000000E+00 -0.61872748468E+02  0.61885781105E+02  0.12700000000E+01 0. -1.
         25    2    1    2    0    0  0.00000000000E+00  0.00000000000E+00  0.12303033286E+01  0.12500161150E+03  0.12499555684E+03 0.  0.
    9000005    1    3    3    0    0 -0.28651691116E+02  0.46860686039E+02 -0.29187785269E+02  0.62207476309E+02  0.10000000000E+01 0.  0.
    9000005    1    3    3    0    0  0.28651691116E+02 -0.46860686039E+02  0.30418088598E+02  0.62794135186E+02  0.10000000000E+01 0.  0.
<mgrwt>
<rscale>  0 0.12499556E+03</rscale>
<asrwt>0</asrwt>
<pdfrwt beam="2">  1        4 0.95208699E-02 0.12499556E+03</pdfrwt>
<pdfrwt beam="1">  1       -4 0.97101473E-02 0.12499556E+03</pdfrwt>
<totfact> 0.10453877E+04</totfact>
</mgrwt>
</event>
<event>
 5    1  0.3232465E-002  0.1249988E+03  0.7818608E-02  0.1235071E+00
          4   -1    0    0  501    0  0.00000000000E+00  0.00000000000E+00  0.11708975029E+04  0.11708981916E+04  0.12700000000E+01 0. -1.
         -4   -1    0    0    0  501 -0.00000000000E+00 -0.00000000000E+00 -0.32144693757E+01  0.34562571327E+01  0.12700000000E+01 0. -1.
         25    2    1    2    0    0  0.00000000000E+00  0.00000000000E+00  0.11676830335E+04  0.11743544487E+04  0.12499881833E+03 0.  0.
    9000005    1    3    3    0    0  0.42036621467E+02  0.27541474048E+02  0.93279255995E+03  0.93414590415E+03  0.10000000000E+01 0.  0.
    9000005    1    3    3    0    0 -0.42036621467E+02 -0.27541474048E+02  0.23489047353E+03  0.24020854459E+03  0.10000000000E+01 0.  0.
<mgrwt>
<rscale>  0 0.12499882E+03</rscale>
<asrwt>0</asrwt>
<pdfrwt beam="1">  1        4 0.18015689E+00 0.12499882E+03</pdfrwt>
<pdfrwt beam="2">  1       -4 0.51318534E-03 0.12499882E+03</pdfrwt>
<totfact> 0.25394688E+03</totfact>
</mgrwt>
</event>
<event>
 5    1  0.3232465E-002  0.1249948E+03  0.7818608E-02  0.1235077E+00
          4   -1    0    0  501    0  0.00000000000E+00  0.00000000000E+00  0.23901941005E+04  0.23901944379E+04  0.12700000000E+01 0. -1.
         -4   -1    0    0    0  501 -0.00000000000E+00 -0.00000000000E+00 -0.13870074226E+01  0.18806088350E+01  0.12700000000E+01 0. -1.
         25    2    1    2    0    0  0.00000000000E+00  0.00000000000E+00  0.23888070930E+04  0.23920750467E+04  0.12499480498E+03 0.  0.
    9000005    1    3    3    0    0  0.43448751739E+02  0.11546304466E+02  0.36378454109E+03  0.36655327514E+03  0.10000000000E+01 0.  0.
    9000005    1    3    3    0    0 -0.43448751739E+02 -0.11546304466E+02  0.20250225519E+04  0.20255217716E+04  0.10000000000E+01 0.  0.
<mgrwt>
<rscale>  0 0.12499480E+03</rscale>
<asrwt>0</asrwt>
<pdfrwt beam="1">  1        4 0.36776125E+00 0.12499480E+03</pdfrwt>
<pdfrwt beam="2">  1       -4 0.25138031E-03 0.12499480E+03</pdfrwt>
<totfact> 0.55741420E+02</totfact>
</mgrwt>
</event>
<event>
 5    1  0.3232465E-002  0.1249778E+03  0.7818608E-02  0.1235104E+00
          4   -1    0    0  501    0  0.00000000000E+00  0.00000000000E+00  0.40420599602E+03  0.40420799116E+03  0.12700000000E+01 0.  1.
         -4   -1    0    0    0  501 -0.00000000000E+00 -0.00000000000E+00 -0.96168021405E+01  0.97002981093E+01  0.12700000000E+01 0.  1.
         25    2    1    2    0    0  0.00000000000E+00  0.00000000000E+00  0.39458919388E+03  0.41390828927E+03  0.12497775802E+03 0.  0.
    9000005    1    3    3    0    0 -0.31752884202E+02 -0.47924990662E+01  0.19788827983E+02  0.37733425705E+02  0.10000000000E+01 0.  0.
    9000005    1    3    3    0    0  0.31752884202E+02  0.47924990662E+01  0.37480036590E+03  0.37617486357E+03  0.10000000000E+01 0.  0.
<mgrwt>
<rscale>  0 0.12497776E+03</rscale>
<asrwt>0</asrwt>
<pdfrwt beam="1">  1        4 0.62192092E-01 0.12497776E+03</pdfrwt>
<pdfrwt beam="2">  1       -4 0.14860848E-02 0.12497776E+03</pdfrwt>
<totfact> 0.63253243E+03</totfact>
</mgrwt>
</event>
<event>
 5    1  0.3232465E-002  0.1250007E+03  0.7818608E-02  0.1235068E+00
          4   -1    0    0  501    0  0.00000000000E+00  0.00000000000E+00  0.10262717312E+03  0.10263503088E+03  0.12700000000E+01 0. -1.
         -4   -1    0    0    0  501 -0.00000000000E+00 -0.00000000000E+00 -0.38043039801E+02  0.38064232257E+02  0.12700000000E+01 0. -1.
         25    2    1    2    0    0  0.00000000000E+00  0.00000000000E+00  0.64584133321E+02  0.14069926313E+03  0.12500068948E+03 0.  0.
    9000005    1    3    3    0    0 -0.26089636709E+02  0.56671990535E+02  0.28247862467E+02  0.68493250681E+02  0.10000000000E+01 0.  0.
    9000005    1    3    3    0    0  0.26089636709E+02 -0.56671990535E+02  0.36336270854E+02  0.72206012453E+02  0.10000000000E+01 0.  0.
<mgrwt>
<rscale>  0 0.12500069E+03</rscale>
<asrwt>0</asrwt>
<pdfrwt beam="1">  1        4 0.15791030E-01 0.12500069E+03</pdfrwt>
<pdfrwt beam="2">  1       -4 0.58550100E-02 0.12500069E+03</pdfrwt>
<totfact> 0.10118957E+04</totfact>
</mgrwt>
</event>
<event>
 5    1  0.3232465E-002  0.1249853E+03  0.7818608E-02  0.1235092E+00
         -4   -1    0    0    0  501 -0.00000000000E+00  0.00000000000E+00  0.49020975490E+02  0.49037423852E+02  0.12700000000E+01 0. -1.
          4   -1    0    0  501    0  0.00000000000E+00 -0.00000000000E+00 -0.79631657475E+02  0.79641784085E+02  0.12700000000E+01 0. -1.
         25    2    1    2    0    0  0.00000000000E+00  0.00000000000E+00 -0.30610681985E+02  0.12867920794E+03  0.12498529795E+03 0.  0.
    9000005    1    3    3    0    0 -0.92313648006E+01 -0.22993695098E+02 -0.74362696997E+02  0.78388384439E+02  0.10000000000E+01 0.  0.
    9000005    1    3    3    0    0  0.92313648006E+01  0.22993695098E+02  0.43752015013E+02  0.50290823497E+02  0.10000000000E+01 0.  0.
<mgrwt>
<rscale>  0 0.12498530E+03</rscale>
<asrwt>0</asrwt>
<pdfrwt beam="2">  1        4 0.12253068E-01 0.12498530E+03</pdfrwt>
<pdfrwt beam="1">  1       -4 0.75437328E-02 0.12498530E+03</pdfrwt>
<totfact> 0.10376289E+04</totfact>
</mgrwt>
</event>
<event>
 5    1  0.3232465E-002  0.1250059E+03  0.7818608E-02  0.1235060E+00
         -4   -1    0    0    0  501 -0.00000000000E+00  0.00000000000E+00  0.25938485136E+02  0.25969557392E+02  0.12700000000E+01 0.  1.
          4   -1    0    0  501    0  0.00000000000E+00 -0.00000000000E+00 -0.15048709072E+03  0.15049244955E+03  0.12700000000E+01 0.  1.
         25    2    1    2    0    0  0.00000000000E+00  0.00000000000E+00 -0.12454860558E+03  0.17646200695E+03  0.12500593883E+03 0.  0.
    9000005    1    3    3    0    0 -0.23866601907E+02  0.26754827693E+02  0.99838081794E+01  0.37230523999E+02  0.10000000000E+01 0.  0.
    9000005    1    3    3    0    0  0.23866601907E+02 -0.26754827693E+02 -0.13453241376E+03  0.13923148295E+03  0.10000000000E+01 0.  0.
<mgrwt>
<rscale>  0 0.12500594E+03</rscale>
<asrwt>0</asrwt>
<pdfrwt beam="2">  1        4 0.23154662E-01 0.12500594E+03</pdfrwt>
<pdfrwt beam="1">  1       -4 0.39933387E-02 0.12500594E+03</pdfrwt>
<totfact> 0.94245203E+03</totfact>
</mgrwt>
</event>
<event>
 5    1  0.3232465E-002  0.1249980E+03  0.7818608E-02  0.1235072E+00
         -4   -1    0    0    0  501 -0.00000000000E+00  0.00000000000E+00  0.25531301949E+03  0.25531617814E+03  0.12700000000E+01 0.  1.
          4   -1    0    0  501    0  0.00000000000E+00 -0.00000000000E+00 -0.15269745108E+02  0.15322467676E+02  0.12700000000E+01 0.  1.
         25    2    1    2    0    0  0.00000000000E+00  0.00000000000E+00  0.24004327438E+03  0.27063864582E+03  0.12499801212E+03 0.  0.
    9000005    1    3    3    0    0 -0.54430303381E+01 -0.48885034943E+02  0.20347809462E+03  0.20934112880E+03  0.10000000000E+01 0.  0.
    9000005    1    3    3    0    0  0.54430303381E+01  0.48885034943E+02  0.36565179764E+02  0.61297517012E+02  0.10000000000E+01 0.  0.
<mgrwt>
<rscale>  0 0.12499801E+03</rscale>
<asrwt>0</asrwt>
<pdfrwt beam="2">  1        4 0.23534902E-02 0.12499801E+03</pdfrwt>
<pdfrwt beam="1">  1       -4 0.39283223E-01 0.12499801E+03</pdfrwt>
<totfact> 0.79439390E+03</totfact>
</mgrwt>
</event>
<event>
 5    1  0.3232465E-002  0.1249970E+03  0.7818608E-02  0.1235074E+00
          4   -1    0    0  501    0  0.00000000000E+00  0.00000000000E+00  0.10937439276E+03  0.10938176581E+03  0.12700000000E+01 0.  1.
         -4   -1    0    0    0  501 -0.00000000000E+00 -0.00000000000E+00 -0.35692870796E+02  0.35715457798E+02  0.12700000000E+01 0.  1.
         25    2    1    2    0    0  0.00000000000E+00  0.00000000000E+00  0.73681521964E+02  0.14509722361E+03  0.12499695044E+03 0.  0.
    9000005    1    3    3    0    0 -0.13105383890E+02 -0.20943703639E+01  0.10772526914E+03  0.10854432774E+03  0.10000000000E+01 0.  0.
    9000005    1    3    3    0    0  0.13105383890E+02  0.20943703639E+01 -0.34043747177E+02  0.36552895863E+02  0.10000000000E+01 0.  0.
<mgrwt>
<rscale>  0 0.12499695E+03</rscale>
<asrwt>0</asrwt>
<pdfrwt beam="1">  1        4 0.16829134E-01 0.12499695E+03</pdfrwt>
<pdfrwt beam="2">  1       -4 0.54935156E-02 0.12499695E+03</pdfrwt>
<totfact> 0.10029702E+04</totfact>
</mgrwt>
</event>
<event>
 5    1  0.3232465E-002  0.1250007E+03  0.7818608E-02  0.1235068E+00
          4   -1    0    0  501    0  0.00000000000E+00  0.00000000000E+00  0.16710960536E+03  0.16711443116E+03  0.12700000000E+01 0. -1.
         -4   -1    0    0    0  501 -0.00000000000E+00 -0.00000000000E+00 -0.23353212269E+02  0.23387719497E+02  0.12700000000E+01 0. -1.
         25    2    1    2    0    0  0.00000000000E+00  0.00000000000E+00  0.14375639309E+03  0.19050215066E+03  0.12500067541E+03 0.  0.
    9000005    1    3    3    0    0  0.44580744638E+02 -0.17962757681E+01  0.13856334742E+03  0.14557290493E+03  0.10000000000E+01 0.  0.
    9000005    1    3    3    0    0 -0.44580744638E+02  0.17962757681E+01  0.51930456664E+01  0.44929245736E+02  0.10000000000E+01 0.  0.
<mgrwt>
<rscale>  0 0.12500068E+03</rscale>
<asrwt>0</asrwt>
<pdfrwt beam="1">  1        4 0.25712195E-01 0.12500068E+03</pdfrwt>
<pdfrwt beam="2">  1       -4 0.35958276E-02 0.12500068E+03</pdfrwt>
<totfact> 0.91758628E+03</totfact>
</mgrwt>
</event>
<event>
 4    1  0.3232465E-002  0.1250643E+03  0.7818608E-02  0.1234969E+00
          4   -1    0    0  501    0  0.00000000000E+00  0.00000000000E+00  0.48711348005E+02  0.48727900883E+02  0.12700000000E+01 0. -1.
         -4   -1    0    0    0  501 -0.00000000000E+00 -0.00000000000E+00 -0.80239046484E+02  0.80249096448E+02  0.12700000000E+01 0. -1.
    9000005    1    1    2    0    0 -0.45406021348E+02  0.25782774849E+02  0.19704125450E+02  0.55818552591E+02  0.10000000000E+01 0.  0.
    9000005    1    1    2    0    0  0.45406021348E+02 -0.25782774849E+02 -0.51231823929E+02  0.73158444740E+02  0.10000000000E+01 0.  0.
<mgrwt>
<rscale>  0 0.12506426E+03</rscale>
<asrwt>0</asrwt>
<pdfrwt beam="1">  1        4 0.74960999E-02 0.12506426E+03</pdfrwt>
<pdfrwt beam="2">  1       -4 0.12346515E-01 0.12506426E+03</pdfrwt>
<totfact> 0.10351417E+04</totfact>
</mgrwt>
</event>
<event>
 5    1  0.3232465E-002  0.1250001E+03  0.7818608E-02  0.1235069E+00
          4   -1    0    0  501    0  0.00000000000E+00  0.00000000000E+00  0.21384424564E+02  0.21422103396E+02  0.12700000000E+01 0. -1.
         -4   -1    0    0    0  501 -0.00000000000E+00 -0.00000000000E+00 -0.18246757079E+03  0.18247199043E+03  0.12700000000E+01 0. -1.
         25    2    1    2    0    0  0.00000000000E+00  0.00000000000E+00 -0.16108314623E+03  0.20389409382E+03  0.12500008599E+03 0.  0.
    9000005    1    3    3    0    0  0.53834674877E+02  0.15143127314E+02 -0.35051188693E+02  0.66008123385E+02  0.10000000000E+01 0.  0.
    9000005    1    3    3    0    0 -0.53834674877E+02 -0.15143127314E+02 -0.12603195753E+03  0.13788597044E+03  0.10000000000E+01 0.  0.
<mgrwt>
<rscale>  0 0.12500009E+03</rscale>
<asrwt>0</asrwt>
<pdfrwt beam="1">  1        4 0.32931499E-02 0.12500009E+03</pdfrwt>
<pdfrwt beam="2">  1       -4 0.28075171E-01 0.12500009E+03</pdfrwt>
<totfact> 0.89482695E+03</totfact>
</mgrwt>
</event>
<event>
 5    1  0.3232465E-002  0.1249992E+03  0.7818608E-02  0.1235071E+00
         -4   -1    0    0    0  501 -0.00000000000E+00  0.00000000000E+00  0.30790710944E+02  0.30816891154E+02  0.12700000000E+01 0. -1.
          4   -1    0    0  501    0  0.00000000000E+00 -0.00000000000E+00 -0.12677958905E+03  0.12678594993E+03  0.12700000000E+01 0. -1.
         25    2    1    2    0    0  0.00000000000E+00  0.00000000000E+00 -0.95988878103E+02  0.15760284108E+03  0.12499916319E+03 0.  0.
    9000005    1    3    3    0    0  0.42223349775E+02 -0.23324537886E+02  0.20964706870E+01  0.48293276170E+02  0.10000000000E+01 0.  0.
    9000005    1    3    3    0    0 -0.42223349775E+02  0.23324537886E+02 -0.98085348790E+02  0.10930956491E+03  0.10000000000E+01 0.  0.
<mgrwt>
<rscale>  0 0.12499916E+03</rscale>
<asrwt>0</asrwt>
<pdfrwt beam="2">  1        4 0.19507055E-01 0.12499916E+03</pdfrwt>
<pdfrwt beam="1">  1       -4 0.47395357E-02 0.12499916E+03</pdfrwt>
<totfact> 0.97808779E+03</totfact>
</mgrwt>
</event>
<event>
 5    1  0.3232465E-002  0.1249999E+03  0.7818608E-02  0.1235069E+00
         -4   -1    0    0    0  501 -0.00000000000E+00  0.00000000000E+00  0.32013120517E+03  0.32013372429E+03  0.12700000000E+01 0.  1.
          4   -1    0    0  501    0  0.00000000000E+00 -0.00000000000E+00 -0.12166391835E+02  0.12232497303E+02  0.12700000000E+01 0.  1.
         25    2    1    2    0    0  0.00000000000E+00  0.00000000000E+00  0.30796481334E+03  0.33236622159E+03  0.12499991600E+03 0.  0.
    9000005    1    3    3    0    0  0.11652554741E+00 -0.16562344035E+02  0.31420195195E+03  0.31463978043E+03  0.10000000000E+01 0.  0.
    9000005    1    3    3    0    0 -0.11652554741E+00  0.16562344035E+02 -0.62371386134E+01  0.17726441161E+02  0.10000000000E+01 0.  0.
<mgrwt>
<rscale>  0 0.12499992E+03</rscale>
<asrwt>0</asrwt>
<pdfrwt beam="2">  1        4 0.18770314E-02 0.12499992E+03</pdfrwt>
<pdfrwt beam="1">  1       -4 0.49256235E-01 0.12499992E+03</pdfrwt>
<totfact> 0.71709202E+03</totfact>
</mgrwt>
</event>
<event>
 5    1  0.3232465E-002  0.1249998E+03  0.7818608E-02  0.1235070E+00
          4   -1    0    0  501    0  0.00000000000E+00  0.00000000000E+00  0.57610013525E+01  0.58993250956E+01  0.12700000000E+01 0. -1.
         -4   -1    0    0    0  501 -0.00000000000E+00 -0.00000000000E+00 -0.66986540337E+03  0.66986660726E+03  0.12700000000E+01 0. -1.
         25    2    1    2    0    0  0.00000000000E+00  0.00000000000E+00 -0.66410440201E+03  0.67576593236E+03  0.12499975425E+03 0.  0.
    9000005    1    3    3    0    0  0.20838021856E+02  0.99785436963E+01 -0.18149637881E+02  0.29397344172E+02  0.10000000000E+01 0.  0.
    9000005    1    3    3    0    0 -0.20838021856E+02 -0.99785436963E+01 -0.64595476413E+03  0.64636858819E+03  0.10000000000E+01 0.  0.
<mgrwt>
<rscale>  0 0.12499975E+03</rscale>
<asrwt>0</asrwt>
<pdfrwt beam="1">  1        4 0.89704133E-03 0.12499975E+03</pdfrwt>
<pdfrwt beam="2">  1       -4 0.10306689E+00 0.12499975E+03</pdfrwt>
<totfact> 0.44397486E+03</totfact>
</mgrwt>
</event>
<event>
 5    1  0.3232465E-002  0.1250025E+03  0.7818608E-02  0.1235065E+00
          4   -1    0    0  501    0  0.00000000000E+00  0.00000000000E+00  0.72353130048E+02  0.72364275217E+02  0.12700000000E+01 0.  1.
         -4   -1    0    0    0  501 -0.00000000000E+00 -0.00000000000E+00 -0.53968097480E+02  0.53983038499E+02  0.12700000000E+01 0.  1.
         25    2    1    2    0    0  0.00000000000E+00  0.00000000000E+00  0.18385032568E+02  0.12634731372E+03  0.12500253702E+03 0.  0.
    9000005    1    3    3    0    0 -0.39658830895E+02 -0.36095495071E+02 -0.23241649964E+02  0.58454101014E+02  0.10000000000E+01 0.  0.
    9000005    1    3    3    0    0  0.39658830895E+02  0.36095495071E+02  0.41626682532E+02  0.67893212702E+02  0.10000000000E+01 0.  0.
<mgrwt>
<rscale>  0 0.12500254E+03</rscale>
<asrwt>0</asrwt>
<pdfrwt beam="1">  1        4 0.11133257E-01 0.12500254E+03</pdfrwt>
<pdfrwt beam="2">  1       -4 0.83047909E-02 0.12500254E+03</pdfrwt>
<totfact> 0.10422763E+04</totfact>
</mgrwt>
</event>
<event>
 5    1  0.3232465E-002  0.1250008E+03  0.7818608E-02  0.1235068E+00
         -4   -1    0    0    0  501 -0.00000000000E+00  0.00000000000E+00  0.88225651236E+02  0.88234791528E+02  0.12700000000E+01 0.  1.
          4   -1    0    0  501    0  0.00000000000E+00 -0.00000000000E+00 -0.44255693556E+02  0.44273912320E+02  0.12700000000E+01 0.  1.
         25    2    1    2    0    0  0.00000000000E+00  0.00000000000E+00  0.43969957680E+02  0.13250870385E+03  0.12500079767E+03 0.  0.
    9000005    1    3    3    0    0 -0.58292285288E+02 -0.21766421955E+02  0.28123484787E+02  0.68291273567E+02  0.10000000000E+01 0.  0.
    9000005    1    3    3    0    0  0.58292285288E+02  0.21766421955E+02  0.15846472893E+02  0.64217430281E+02  0.10000000000E+01 0.  0.
<mgrwt>
<rscale>  0 0.12500080E+03</rscale>
<asrwt>0</asrwt>
<pdfrwt beam="2">  1        4 0.68106729E-02 0.12500080E+03</pdfrwt>
<pdfrwt beam="1">  1       -4 0.13575281E-01 0.12500080E+03</pdfrwt>
<totfact> 0.10290667E+04</totfact>
</mgrwt>
</event>
<event>
 5    1  0.3232465E-002  0.1250015E+03  0.7818608E-02  0.1235067E+00
          4   -1    0    0  501    0  0.00000000000E+00  0.00000000000E+00  0.18747446365E+03  0.18747876525E+03  0.12700000000E+01 0.  1.
         -4   -1    0    0    0  501 -0.00000000000E+00 -0.00000000000E+00 -0.20812778010E+02  0.20851489839E+02  0.12700000000E+01 0.  1.
         25    2    1    2    0    0  0.00000000000E+00  0.00000000000E+00  0.16666168564E+03  0.20833025509E+03  0.12500151090E+03 0.  0.
    9000005    1    3    3    0    0 -0.20655354772E+02 -0.58419154173E+02  0.69801077689E+02  0.93341478998E+02  0.10000000000E+01 0.  0.
    9000005    1    3    3    0    0  0.20655354772E+02  0.58419154173E+02  0.96860607950E+02  0.11498877609E+03  0.10000000000E+01 0.  0.
<mgrwt>
<rscale>  0 0.12500151E+03</rscale>
<asrwt>0</asrwt>
<pdfrwt beam="1">  1        4 0.28845534E-01 0.12500151E+03</pdfrwt>
<pdfrwt beam="2">  1       -4 0.32052746E-02 0.12500151E+03</pdfrwt>
<totfact> 0.88746302E+03</totfact>
</mgrwt>
</event>
<event>
 5    1  0.3232465E-002  0.1250026E+03  0.7818608E-02  0.1235065E+00
         -4   -1    0    0    0  501 -0.00000000000E+00  0.00000000000E+00  0.39991170372E+03  0.39991372028E+03  0.12700000000E+01 0.  1.
          4   -1    0    0  501    0  0.00000000000E+00 -0.00000000000E+00 -0.97248607719E+01  0.98074368228E+01  0.12700000000E+01 0.  1.
         25    2    1    2    0    0  0.00000000000E+00  0.00000000000E+00  0.39018684295E+03  0.40972115711E+03  0.12500261666E+03 0.  0.
    9000005    1    3    3    0    0 -0.17836823453E+02 -0.20205550332E+02  0.10288153863E+02  0.28866289076E+02  0.10000000000E+01 0.  0.
    9000005    1    3    3    0    0  0.17836823453E+02  0.20205550332E+02  0.37989868908E+03  0.38085486803E+03  0.10000000000E+01 0.  0.
<mgrwt>
<rscale>  0 0.12500262E+03</rscale>
<asrwt>0</asrwt>
<pdfrwt beam="2">  1        4 0.15026394E-02 0.12500262E+03</pdfrwt>
<pdfrwt beam="1">  1       -4 0.61531389E-01 0.12500262E+03</pdfrwt>
<totfact> 0.63614498E+03</totfact>
</mgrwt>
</event>
<event>
 5    1  0.3232465E-002  0.1250015E+03  0.7818608E-02  0.1235067E+00
         -4   -1    0    0    0  501 -0.00000000000E+00  0.00000000000E+00  0.20984679266E+03  0.20985063566E+03  0.12700000000E+01 0.  1.
          4   -1    0    0  501    0  0.00000000000E+00 -0.00000000000E+00 -0.18589527965E+02  0.18632859415E+02  0.12700000000E+01 0.  1.
         25    2    1    2    0    0  0.00000000000E+00  0.00000000000E+00  0.19125726469E+03  0.22848349508E+03  0.12500146490E+03 0.  0.
    9000005    1    3    3    0    0 -0.13829170697E+02 -0.60874201547E+02  0.90322465844E+02  0.10980010115E+03  0.10000000000E+01 0.  0.
    9000005    1    3    3    0    0  0.13829170697E+02  0.60874201547E+02  0.10093479885E+03  0.11868339393E+03  0.10000000000E+01 0.  0.
<mgrwt>
<rscale>  0 0.12500146E+03</rscale>
<asrwt>0</asrwt>
<pdfrwt beam="2">  1        4 0.28635560E-02 0.12500146E+03</pdfrwt>
<pdfrwt beam="1">  1       -4 0.32287753E-01 0.12500146E+03</pdfrwt>
<totfact> 0.85540204E+03</totfact>
</mgrwt>
</event>
<event>
 5    1  0.3232465E-002  0.1249996E+03  0.7818608E-02  0.1235070E+00
         -4   -1    0    0    0  501 -0.00000000000E+00  0.00000000000E+00  0.79860928534E+03  0.79861029516E+03  0.12700000000E+01 0. -1.
          4   -1    0    0  501    0  0.00000000000E+00 -0.00000000000E+00 -0.48078203334E+01  0.49727292665E+01  0.12700000000E+01 0. -1.
         25    2    1    2    0    0  0.00000000000E+00  0.00000000000E+00  0.79380146501E+03  0.80358302442E+03  0.12499964518E+03 0.  0.
    9000005    1    3    3    0    0 -0.74873896711E+01  0.54045460197E+02  0.59276519012E+03  0.59527182311E+03  0.10000000000E+01 0.  0.
    9000005    1    3    3    0    0  0.74873896711E+01 -0.54045460197E+02  0.20103627489E+03  0.20831120131E+03  0.10000000000E+01 0.  0.
<mgrwt>
<rscale>  0 0.12499965E+03</rscale>
<asrwt>0</asrwt>
<pdfrwt beam="2">  1        4 0.75242773E-03 0.12499965E+03</pdfrwt>
<pdfrwt beam="1">  1       -4 0.12287572E+00 0.12499965E+03</pdfrwt>
<totfact> 0.38105567E+03</totfact>
</mgrwt>
</event>
<event>
 5    1  0.3232465E-002  0.1250003E+03  0.7818608E-02  0.1235069E+00
         -4   -1    0    0    0  501 -0.00000000000E+00  0.00000000000E+00  0.10054171905E+03  0.10054973977E+03  0.12700000000E+01 0.  1.
          4   -1    0    0  501    0  0.00000000000E+00 -0.00000000000E+00 -0.38832278781E+02  0.38853040747E+02  0.12700000000E+01 0.  1.
         25    2    1    2    0    0  0.00000000000E+00  0.00000000000E+00  0.61709440265E+02  0.13940278052E+03  0.12500032080E+03 0.  0.
    9000005    1    3    3    0    0  0.37107095691E+01  0.53656406029E+02  0.66340621940E+02  0.85409937319E+02  0.10000000000E+01 0.  0.
    9000005    1    3    3    0    0 -0.37107095691E+01 -0.53656406029E+02 -0.46311816750E+01  0.53992843203E+02  0.10000000000E+01 0.  0.
<mgrwt>
<rscale>  0 0.12500032E+03</rscale>
<asrwt>0</asrwt>
<pdfrwt beam="2">  1        4 0.59764108E-02 0.12500032E+03</pdfrwt>
<pdfrwt beam="1">  1       -4 0.15470171E-01 0.12500032E+03</pdfrwt>
<totfact> 0.10145905E+04</totfact>
</mgrwt>
</event>
<event>
 5    1  0.3232465E-002  0.1250004E+03  0.7818608E-02  0.1235069E+00
         -4   -1    0    0    0  501 -0.00000000000E+00  0.00000000000E+00  0.12810872669E+02  0.12873669195E+02  0.12700000000E+01 0. -1.
          4   -1    0    0  501    0  0.00000000000E+00 -0.00000000000E+00 -0.30410903681E+03  0.30411168865E+03  0.12700000000E+01 0. -1.
         25    2    1    2    0    0  0.00000000000E+00  0.00000000000E+00 -0.29129816414E+03  0.31698535784E+03  0.12500038661E+03 0.  0.
    9000005    1    3    3    0    0 -0.70156512184E+01 -0.56035049335E+02 -0.21351054022E+03  0.22085492274E+03  0.10000000000E+01 0.  0.
    9000005    1    3    3    0    0  0.70156512184E+01  0.56035049335E+02 -0.77787623929E+02  0.96130435100E+02  0.10000000000E+01 0.  0.
<mgrwt>
<rscale>  0 0.12500039E+03</rscale>
<asrwt>0</asrwt>
<pdfrwt beam="2">  1        4 0.46791035E-01 0.12500039E+03</pdfrwt>
<pdfrwt beam="1">  1       -4 0.19759382E-02 0.12500039E+03</pdfrwt>
<totfact> 0.73515489E+03</totfact>
</mgrwt>
</event>
<event>
 5    1  0.3232465E-002  0.1250013E+03  0.7818608E-02  0.1235067E+00
          4   -1    0    0  501    0  0.00000000000E+00  0.00000000000E+00  0.11358366458E+02  0.11429146451E+02  0.12700000000E+01 0. -1.
         -4   -1    0    0    0  501 -0.00000000000E+00 -0.00000000000E+00 -0.34277650746E+03  0.34277886015E+03  0.12700000000E+01 0. -1.
         25    2    1    2    0    0  0.00000000000E+00  0.00000000000E+00 -0.33141814100E+03  0.35420800660E+03  0.12500131102E+03 0.  0.
    9000005    1    3    3    0    0 -0.30578930698E+02  0.50848158758E+02 -0.22128917999E+03  0.22910806933E+03  0.10000000000E+01 0.  0.
    9000005    1    3    3    0    0  0.30578930698E+02 -0.50848158758E+02 -0.11012896101E+03  0.12509993727E+03  0.10000000000E+01 0.  0.
<mgrwt>
<rscale>  0 0.12500131E+03</rscale>
<asrwt>0</asrwt>
<pdfrwt beam="1">  1        4 0.17530668E-02 0.12500131E+03</pdfrwt>
<pdfrwt beam="2">  1       -4 0.52740465E-01 0.12500131E+03</pdfrwt>
<totfact> 0.69262086E+03</totfact>
</mgrwt>
</event>
<event>
 4    1  0.3232465E-002  0.1251804E+03  0.7818608E-02  0.1234788E+00
          4   -1    0    0  501    0  0.00000000000E+00  0.00000000000E+00  0.11328001015E+02  0.11398969558E+02  0.12700000000E+01 0. -1.
         -4   -1    0    0    0  501 -0.00000000000E+00 -0.00000000000E+00 -0.34467554365E+03  0.34467788338E+03  0.12700000000E+01 0. -1.
    9000005    1    1    2    0    0 -0.18318682720E+02 -0.59151420370E+02 -0.14090456416E+03  0.15391413473E+03  0.10000000000E+01 0.  0.
    9000005    1    1    2    0    0  0.18318682720E+02  0.59151420370E+02 -0.19244297847E+03  0.20216271821E+03  0.10000000000E+01 0.  0.
<mgrwt>
<rscale>  0 0.12518043E+03</rscale>
<asrwt>0</asrwt>
<pdfrwt beam="1">  1        4 0.17484088E-02 0.12518043E+03</pdfrwt>
<pdfrwt beam="2">  1       -4 0.53032638E-01 0.12518043E+03</pdfrwt>
<totfact> 0.68786211E+03</totfact>
</mgrwt>
</event>
<event>
 5    1  0.3232465E-002  0.1249915E+03  0.7818608E-02  0.1235083E+00
         -4   -1    0    0    0  501 -0.00000000000E+00  0.00000000000E+00  0.17641271739E+02  0.17686926487E+02  0.12700000000E+01 0.  1.
          4   -1    0    0  501    0  0.00000000000E+00 -0.00000000000E+00 -0.22106315492E+03  0.22106680294E+03  0.12700000000E+01 0.  1.
         25    2    1    2    0    0  0.00000000000E+00  0.00000000000E+00 -0.20342188318E+03  0.23875372943E+03  0.12499152275E+03 0.  0.
    9000005    1    3    3    0    0  0.28244520922E+02  0.13311159056E+02 -0.20510298777E+03  0.20746849281E+03  0.10000000000E+01 0.  0.
    9000005    1    3    3    0    0 -0.28244520922E+02 -0.13311159056E+02  0.16811045899E+01  0.31285236617E+02  0.10000000000E+01 0.  0.
<mgrwt>
<rscale>  0 0.12499152E+03</rscale>
<asrwt>0</asrwt>
<pdfrwt beam="2">  1        4 0.34013507E-01 0.12499152E+03</pdfrwt>
<pdfrwt beam="1">  1       -4 0.27178345E-02 0.12499152E+03</pdfrwt>
<totfact> 0.83999204E+03</totfact>
</mgrwt>
</event>
<event>
 5    1  0.3232465E-002  0.1250044E+03  0.7818608E-02  0.1235062E+00
         -4   -1    0    0    0  501 -0.00000000000E+00  0.00000000000E+00  0.41185265288E+03  0.41185461098E+03  0.12700000000E+01 0.  1.
          4   -1    0    0  501    0  0.00000000000E+00 -0.00000000000E+00 -0.94407481621E+01  0.95257874142E+01  0.12700000000E+01 0.  1.
         25    2    1    2    0    0  0.00000000000E+00  0.00000000000E+00  0.40241190472E+03  0.42138039839E+03  0.12500439629E+03 0.  0.
    9000005    1    3    3    0    0 -0.50596591798E+02  0.13939162424E+02  0.31557966271E+03  0.31991536204E+03  0.10000000000E+01 0.  0.
    9000005    1    3    3    0    0  0.50596591798E+02 -0.13939162424E+02  0.86832242006E+02  0.10146503635E+03  0.10000000000E+01 0.  0.
<mgrwt>
<rscale>  0 0.12500440E+03</rscale>
<asrwt>0</asrwt>
<pdfrwt beam="2">  1        4 0.14591144E-02 0.12500440E+03</pdfrwt>
<pdfrwt beam="1">  1       -4 0.63368661E-01 0.12500440E+03</pdfrwt>
<totfact> 0.62519076E+03</totfact>
</mgrwt>
</event>
<event>
 5    1  0.3232465E-002  0.1249997E+03  0.7818608E-02  0.1235070E+00
         -4   -1    0    0    0  501 -0.00000000000E+00  0.00000000000E+00  0.30473703161E+03  0.30473967798E+03  0.12700000000E+01 0.  1.
          4   -1    0    0  501    0  0.00000000000E+00 -0.00000000000E+00 -0.12784210141E+02  0.12847136994E+02  0.12700000000E+01 0.  1.
         25    2    1    2    0    0  0.00000000000E+00  0.00000000000E+00  0.29195282147E+03  0.31758681497E+03  0.12499974032E+03 0.  0.
    9000005    1    3    3    0    0  0.37162336509E+02 -0.28654076675E+02  0.25082879831E+03  0.25518264327E+03  0.10000000000E+01 0.  0.
    9000005    1    3    3    0    0 -0.37162336509E+02  0.28654076675E+02  0.41124023155E+02  0.62404171698E+02  0.10000000000E+01 0.  0.
<mgrwt>
<rscale>  0 0.12499974E+03</rscale>
<asrwt>0</asrwt>
<pdfrwt beam="2">  1        4 0.19718457E-02 0.12499974E+03</pdfrwt>
<pdfrwt beam="1">  1       -4 0.46887663E-01 0.12499974E+03</pdfrwt>
<totfact> 0.73444486E+03</totfact>
</mgrwt>
</event>
<event>
 5    1  0.3232465E-002  0.1250014E+03  0.7818608E-02  0.1235067E+00
          4   -1    0    0  501    0  0.00000000000E+00  0.00000000000E+00  0.78614748439E+02  0.78625006023E+02  0.12700000000E+01 0. -1.
         -4   -1    0    0    0  501 -0.00000000000E+00 -0.00000000000E+00 -0.49667983568E+02  0.49684217733E+02  0.12700000000E+01 0. -1.
         25    2    1    2    0    0  0.00000000000E+00  0.00000000000E+00  0.28946764871E+02  0.12830922376E+03  0.12500136681E+03 0.  0.
    9000005    1    3    3    0    0 -0.61212930971E+02  0.69933772165E+01  0.25209866023E+02  0.66576779645E+02  0.10000000000E+01 0.  0.
    9000005    1    3    3    0    0  0.61212930971E+02 -0.69933772165E+01  0.37368988478E+01  0.61732444111E+02  0.10000000000E+01 0.  0.
<mgrwt>
<rscale>  0 0.12500137E+03</rscale>
<asrwt>0</asrwt>
<pdfrwt beam="1">  1        4 0.12096614E-01 0.12500137E+03</pdfrwt>
<pdfrwt beam="2">  1       -4 0.76432661E-02 0.12500137E+03</pdfrwt>
<totfact> 0.10380495E+04</totfact>
</mgrwt>
</event>
<event>
 5    1  0.3232465E-002  0.1250003E+03  0.7818608E-02  0.1235069E+00
          4   -1    0    0  501    0  0.00000000000E+00  0.00000000000E+00  0.40851133499E+02  0.40870869921E+02  0.12700000000E+01 0.  1.
         -4   -1    0    0    0  501 -0.00000000000E+00 -0.00000000000E+00 -0.95574991412E+02  0.95583428917E+02  0.12700000000E+01 0.  1.
         25    2    1    2    0    0  0.00000000000E+00  0.00000000000E+00 -0.54723857914E+02  0.13645429884E+03  0.12500030019E+03 0.  0.
    9000005    1    3    3    0    0  0.67798276933E+01 -0.35283440445E+02 -0.83178178218E+02  0.90611790430E+02  0.10000000000E+01 0.  0.
    9000005    1    3    3    0    0 -0.67798276933E+01  0.35283440445E+02  0.28454320304E+02  0.45842508409E+02  0.10000000000E+01 0.  0.
<mgrwt>
<rscale>  0 0.12500030E+03</rscale>
<asrwt>0</asrwt>
<pdfrwt beam="1">  1        4 0.62869570E-02 0.12500030E+03</pdfrwt>
<pdfrwt beam="2">  1       -4 0.14706012E-01 0.12500030E+03</pdfrwt>
<totfact> 0.10207439E+04</totfact>
</mgrwt>
</event>
<event>
 5    1  0.3232465E-002  0.1249999E+03  0.7818608E-02  0.1235069E+00
         -4   -1    0    0    0  501 -0.00000000000E+00  0.00000000000E+00  0.87440349283E+01  0.88357821854E+01  0.12700000000E+01 0.  1.
          4   -1    0    0  501    0  0.00000000000E+00 -0.00000000000E+00 -0.44430840747E+03  0.44431022254E+03  0.12700000000E+01 0.  1.
         25    2    1    2    0    0  0.00000000000E+00  0.00000000000E+00 -0.43556437255E+03  0.45314600472E+03  0.12499991586E+03 0.  0.
    9000005    1    3    3    0    0  0.80153963990E+01 -0.37434816567E+02 -0.39683891872E+03  0.39868250461E+03  0.10000000000E+01 0.  0.
    9000005    1    3    3    0    0 -0.80153963990E+01  0.37434816567E+02 -0.38725453829E+02  0.54463500118E+02  0.10000000000E+01 0.  0.
<mgrwt>
<rscale>  0 0.12499992E+03</rscale>
<asrwt>0</asrwt>
<pdfrwt beam="2">  1        4 0.68362319E-01 0.12499992E+03</pdfrwt>
<pdfrwt beam="1">  1       -4 0.13524336E-02 0.12499992E+03</pdfrwt>
<totfact> 0.59692341E+03</totfact>
</mgrwt>
</event>
<event>
 5    1  0.3232465E-002  0.1249981E+03  0.7818608E-02  0.1235072E+00
          4   -1    0    0  501    0  0.00000000000E+00  0.00000000000E+00  0.18148598915E+03  0.18149043268E+03  0.12700000000E+01 0.  1.
         -4   -1    0    0    0  501 -0.00000000000E+00 -0.00000000000E+00 -0.21499602096E+02  0.21537079428E+02  0.12700000000E+01 0.  1.
         25    2    1    2    0    0  0.00000000000E+00  0.00000000000E+00  0.15998638705E+03  0.20302751211E+03  0.12499810652E+03 0.  0.
    9000005    1    3    3    0    0  0.19973848232E+02 -0.29755470107E+02 -0.31578091970E+01  0.35990476149E+02  0.10000000000E+01 0.  0.
    9000005    1    3    3    0    0 -0.19973848232E+02  0.29755470107E+02  0.16314419625E+03  0.16703703596E+03  0.10000000000E+01 0.  0.
<mgrwt>
<rscale>  0 0.12499811E+03</rscale>
<asrwt>0</asrwt>
<pdfrwt beam="1">  1        4 0.27924146E-01 0.12499811E+03</pdfrwt>
<pdfrwt beam="2">  1       -4 0.33108558E-02 0.12499811E+03</pdfrwt>
<totfact> 0.89631188E+03</totfact>
</mgrwt>
</event>
<event>
 5    1  0.3232465E-002  0.1250011E+03  0.7818608E-02  0.1235068E+00
         -4   -1    0    0    0  501 -0.00000000000E+00  0.00000000000E+00  0.52858559254E+03  0.52858711821E+03  0.12700000000E+01 0. -1.
          4   -1    0    0  501    0  0.00000000000E+00 -0.00000000000E+00 -0.73340216090E+01  0.74431695508E+01  0.12700000000E+01 0. -1.
         25    2    1    2    0    0  0.00000000000E+00  0.00000000000E+00  0.52125157093E+03  0.53603028777E+03  0.12500107680E+03 0.  0.
    9000005    1    3    3    0    0 -0.62381413928E+02 -0.27093181045E+01  0.24966265292E+03  0.25735427230E+03  0.10000000000E+01 0.  0.
    9000005    1    3    3    0    0  0.62381413928E+02  0.27093181045E+01  0.27158891801E+03  0.27867601547E+03  0.10000000000E+01 0.  0.
<mgrwt>
<rscale>  0 0.12500108E+03</rscale>
<asrwt>0</asrwt>
<pdfrwt beam="2">  1        4 0.11368247E-02 0.12500108E+03</pdfrwt>
<pdfrwt beam="1">  1       -4 0.81329353E-01 0.12500108E+03</pdfrwt>
<totfact> 0.53172109E+03</totfact>
</mgrwt>
</event>
<event>
 5    1  0.3232465E-002  0.1250022E+03  0.7818608E-02  0.1235066E+00
          4   -1    0    0  501    0  0.00000000000E+00  0.00000000000E+00  0.42326401459E+03  0.42326591990E+03  0.12700000000E+01 0. -1.
         -4   -1    0    0    0  501 -0.00000000000E+00 -0.00000000000E+00 -0.91835734475E+01  0.92709719699E+01  0.12700000000E+01 0. -1.
         25    2    1    2    0    0  0.00000000000E+00  0.00000000000E+00  0.41408044115E+03  0.43253689187E+03  0.12500220434E+03 0.  0.
    9000005    1    3    3    0    0 -0.40029632599E+02  0.22758248187E+02  0.60844677070E+02  0.76311100597E+02  0.10000000000E+01 0.  0.
    9000005    1    3    3    0    0  0.40029632599E+02 -0.22758248187E+02  0.35323576408E+03  0.35622579127E+03  0.10000000000E+01 0.  0.
<mgrwt>
<rscale>  0 0.12500220E+03</rscale>
<asrwt>0</asrwt>
<pdfrwt beam="1">  1        4 0.65124408E-01 0.12500220E+03</pdfrwt>
<pdfrwt beam="2">  1       -4 0.14197270E-02 0.12500220E+03</pdfrwt>
<totfact> 0.61503720E+03</totfact>
</mgrwt>
</event>
<event>
 5    1  0.3232465E-002  0.1249937E+03  0.7818608E-02  0.1235079E+00
          4   -1    0    0  501    0  0.00000000000E+00  0.00000000000E+00  0.43635663177E+01  0.45446244079E+01  0.12700000000E+01 0. -1.
         -4   -1    0    0    0  501 -0.00000000000E+00 -0.00000000000E+00 -0.87673154088E+03  0.87673246071E+03  0.12700000000E+01 0. -1.
         25    2    1    2    0    0  0.00000000000E+00  0.00000000000E+00 -0.87236797456E+03  0.88127708512E+03  0.12499367073E+03 0.  0.
    9000005    1    3    3    0    0  0.49087372652E+02  0.17011070724E+02 -0.19134447904E+03  0.19827419484E+03  0.10000000000E+01 0.  0.
    9000005    1    3    3    0    0 -0.49087372652E+02 -0.17011070724E+02 -0.68102349552E+03  0.68300289028E+03  0.10000000000E+01 0.  0.
<mgrwt>
<rscale>  0 0.12499367E+03</rscale>
<asrwt>0</asrwt>
<pdfrwt beam="1">  1        4 0.68531689E-03 0.12499367E+03</pdfrwt>
<pdfrwt beam="2">  1       -4 0.13489564E+00 0.12499367E+03</pdfrwt>
<totfact> 0.34885332E+03</totfact>
</mgrwt>
</event>
<event>
 5    1  0.3232465E-002  0.1249996E+03  0.7818608E-02  0.1235070E+00
          4   -1    0    0  501    0  0.00000000000E+00  0.00000000000E+00  0.67372310830E+02  0.67384279818E+02  0.12700000000E+01 0.  1.
         -4   -1    0    0    0  501 -0.00000000000E+00 -0.00000000000E+00 -0.57955585134E+02  0.57969498430E+02  0.12700000000E+01 0.  1.
         25    2    1    2    0    0  0.00000000000E+00  0.00000000000E+00  0.94167256966E+01  0.12535377825E+03  0.12499957999E+03 0.  0.
    9000005    1    3    3    0    0 -0.56518598108E+02  0.26456258941E+02  0.80250263600E+01  0.62926040852E+02  0.10000000000E+01 0.  0.
    9000005    1    3    3    0    0  0.56518598108E+02 -0.26456258941E+02  0.13916993366E+01  0.62427737396E+02  0.10000000000E+01 0.  0.
<mgrwt>
<rscale>  0 0.12499958E+03</rscale>
<asrwt>0</asrwt>
<pdfrwt beam="1">  1        4 0.10366962E-01 0.12499958E+03</pdfrwt>
<pdfrwt beam="2">  1       -4 0.89182348E-02 0.12499958E+03</pdfrwt>
<totfact> 0.10445282E+04</totfact>
</mgrwt>
</event>
<event>
 5    1  0.3232465E-002  0.1249957E+03  0.7818608E-02  0.1235076E+00
         -4   -1    0    0    0  501 -0.00000000000E+00  0.00000000000E+00  0.12532133011E+02  0.12596319217E+02  0.12700000000E+01 0.  1.
          4   -1    0    0  501    0  0.00000000000E+00 -0.00000000000E+00 -0.31081544622E+03  0.31081804083E+03  0.12700000000E+01 0.  1.
         25    2    1    2    0    0  0.00000000000E+00  0.00000000000E+00 -0.29828331321E+03  0.32341436005E+03  0.12499565332E+03 0.  0.
    9000005    1    3    3    0    0  0.59822185050E+02 -0.16268593104E+02 -0.16945194281E+03  0.18043924703E+03  0.10000000000E+01 0.  0.
    9000005    1    3    3    0    0 -0.59822185050E+02  0.16268593104E+02 -0.12883137039E+03  0.14297511302E+03  0.10000000000E+01 0.  0.
<mgrwt>
<rscale>  0 0.12499565E+03</rscale>
<asrwt>0</asrwt>
<pdfrwt beam="2">  1        4 0.47822892E-01 0.12499565E+03</pdfrwt>
<pdfrwt beam="1">  1       -4 0.19331577E-02 0.12499565E+03</pdfrwt>
<totfact> 0.72758876E+03</totfact>
</mgrwt>
</event>
<event>
 5    1  0.3232465E-002  0.1250066E+03  0.7818608E-02  0.1235059E+00
         -4   -1    0    0    0  501 -0.00000000000E+00  0.00000000000E+00  0.47922724719E+01  0.49576986037E+01  0.12700000000E+01 0. -1.
          4   -1    0    0  501    0  0.00000000000E+00 -0.00000000000E+00 -0.80120274823E+03  0.80120375478E+03  0.12700000000E+01 0. -1.
         25    2    1    2    0    0  0.00000000000E+00  0.00000000000E+00 -0.79641047576E+03  0.80616145338E+03  0.12500657192E+03 0.  0.
    9000005    1    3    3    0    0  0.56612021636E+02  0.15789079051E+02 -0.53522761063E+03  0.53844573654E+03  0.10000000000E+01 0.  0.
    9000005    1    3    3    0    0 -0.56612021636E+02 -0.15789079051E+02 -0.26118286513E+03  0.26771571685E+03  0.10000000000E+01 0.  0.
<mgrwt>
<rscale>  0 0.12500657E+03</rscale>
<asrwt>0</asrwt>
<pdfrwt beam="2">  1        4 0.12327466E+00 0.12500657E+03</pdfrwt>
<pdfrwt beam="1">  1       -4 0.75007584E-03 0.12500657E+03</pdfrwt>
<totfact> 0.37985712E+03</totfact>
</mgrwt>
</event>
<event>
 5    1  0.3232465E-002  0.1250040E+03  0.7818608E-02  0.1235063E+00
         -4   -1    0    0    0  501 -0.00000000000E+00  0.00000000000E+00  0.15272399066E+03  0.15272927100E+03  0.12700000000E+01 0. -1.
          4   -1    0    0  501    0  0.00000000000E+00 -0.00000000000E+00 -0.25557321620E+02  0.25588856723E+02  0.12700000000E+01 0. -1.
         25    2    1    2    0    0  0.00000000000E+00  0.00000000000E+00  0.12716666904E+03  0.17831812773E+03  0.12500397179E+03 0.  0.
    9000005    1    3    3    0    0  0.28265333978E+02  0.55420405139E+02  0.72040424311E+02  0.95190194588E+02  0.10000000000E+01 0.  0.
    9000005    1    3    3    0    0 -0.28265333978E+02 -0.55420405139E+02  0.55126244725E+02  0.83127933140E+02  0.10000000000E+01 0.  0.
<mgrwt>
<rscale>  0 0.12500397E+03</rscale>
<asrwt>0</asrwt>
<pdfrwt beam="2">  1        4 0.39347275E-02 0.12500397E+03</pdfrwt>
<pdfrwt beam="1">  1       -4 0.23498831E-01 0.12500397E+03</pdfrwt>
<totfact> 0.93912258E+03</totfact>
</mgrwt>
</event>
<event>
 5    1  0.3232465E-002  0.1250276E+03  0.7818608E-02  0.1235026E+00
         -4   -1    0    0    0  501 -0.00000000000E+00  0.00000000000E+00  0.82040589334E+02  0.82050418636E+02  0.12700000000E+01 0.  1.
          4   -1    0    0  501    0  0.00000000000E+00 -0.00000000000E+00 -0.47613528034E+02  0.47630462436E+02  0.12700000000E+01 0.  1.
         25    2    1    2    0    0  0.00000000000E+00  0.00000000000E+00  0.34427061300E+02  0.12968088107E+03  0.12502763041E+03 0.  0.
    9000005    1    3    3    0    0 -0.59085017273E+02 -0.19947370267E+02  0.21618989668E+02  0.66009980767E+02  0.10000000000E+01 0.  0.
    9000005    1    3    3    0    0  0.59085017273E+02  0.19947370267E+02  0.12808071632E+02  0.63670900305E+02  0.10000000000E+01 0.  0.
<mgrwt>
<rscale>  0 0.12502763E+03</rscale>
<asrwt>0</asrwt>
<pdfrwt beam="2">  1        4 0.73272170E-02 0.12502763E+03</pdfrwt>
<pdfrwt beam="1">  1       -4 0.12623688E-01 0.12502763E+03</pdfrwt>
<totfact> 0.10344885E+04</totfact>
</mgrwt>
</event>
<event>
 5    1  0.3232465E-002  0.1249984E+03  0.7818608E-02  0.1235072E+00
         -4   -1    0    0    0  501 -0.00000000000E+00  0.00000000000E+00  0.12348607471E+02  0.12413742645E+02  0.12700000000E+01 0. -1.
          4   -1    0    0  501    0  0.00000000000E+00 -0.00000000000E+00 -0.31542482102E+03  0.31542737772E+03  0.12700000000E+01 0. -1.
         25    2    1    2    0    0  0.00000000000E+00  0.00000000000E+00 -0.30307621355E+03  0.32784112037E+03  0.12499843592E+03 0.  0.
    9000005    1    3    3    0    0  0.59282712431E+02 -0.90807387559E+00 -0.99750172484E+02  0.11604465305E+03  0.10000000000E+01 0.  0.
    9000005    1    3    3    0    0 -0.59282712431E+02  0.90807387559E+00 -0.20332604106E+03  0.21179646731E+03  0.10000000000E+01 0.  0.
<mgrwt>
<rscale>  0 0.12499844E+03</rscale>
<asrwt>0</asrwt>
<pdfrwt beam="2">  1        4 0.48532097E-01 0.12499844E+03</pdfrwt>
<pdfrwt beam="1">  1       -4 0.19049931E-02 0.12499844E+03</pdfrwt>
<totfact> 0.72235638E+03</totfact>
</mgrwt>
</event>
<event>
 5    1  0.3232465E-002  0.1250032E+03  0.7818608E-02  0.1235064E+00
          4   -1    0    0  501    0  0.00000000000E+00  0.00000000000E+00  0.14410091075E+03  0.14410650707E+03  0.12700000000E+01 0.  1.
         -4   -1    0    0    0  501 -0.00000000000E+00 -0.00000000000E+00 -0.27088115788E+02  0.27117870804E+02  0.12700000000E+01 0.  1.
         25    2    1    2    0    0  0.00000000000E+00  0.00000000000E+00  0.11701279496E+03  0.17122437787E+03  0.12500317353E+03 0.  0.
    9000005    1    3    3    0    0 -0.61711790959E+01  0.61870340031E+02  0.49905664154E+02  0.79734545472E+02  0.10000000000E+01 0.  0.
    9000005    1    3    3    0    0  0.61711790959E+01 -0.61870340031E+02  0.67107130807E+02  0.91489832398E+02  0.10000000000E+01 0.  0.
<mgrwt>
<rscale>  0 0.12500317E+03</rscale>
<asrwt>0</asrwt>
<pdfrwt beam="1">  1        4 0.22172090E-01 0.12500317E+03</pdfrwt>
<pdfrwt beam="2">  1       -4 0.41701218E-02 0.12500317E+03</pdfrwt>
<totfact> 0.95214139E+03</totfact>
</mgrwt>
</event>
<event>
 5    1  0.3232465E-002  0.1250001E+03  0.7818608E-02  0.1235069E+00
          4   -1    0    0  501    0  0.00000000000E+00  0.00000000000E+00  0.10237328579E+03  0.10238116303E+03  0.12700000000E+01 0. -1.
         -4   -1    0    0    0  501 -0.00000000000E+00 -0.00000000000E+00 -0.38137099676E+02  0.38158239892E+02  0.12700000000E+01 0. -1.
         25    2    1    2    0    0  0.00000000000E+00  0.00000000000E+00  0.64236186119E+02  0.14053940293E+03  0.12500014467E+03 0.  0.
    9000005    1    3    3    0    0  0.36052957565E+02 -0.29671305449E+01 -0.25173831607E+02  0.44083346183E+02  0.10000000000E+01 0.  0.
    9000005    1    3    3    0    0 -0.36052957565E+02  0.29671305449E+01  0.89410017726E+02  0.96456056744E+02  0.10000000000E+01 0.  0.
<mgrwt>
<rscale>  0 0.12500014E+03</rscale>
<asrwt>0</asrwt>
<pdfrwt beam="1">  1        4 0.15751968E-01 0.12500014E+03</pdfrwt>
<pdfrwt beam="2">  1       -4 0.58694782E-02 0.12500014E+03</pdfrwt>
<totfact> 0.10122386E+04</totfact>
</mgrwt>
</event>
<event>
 5    1  0.3232465E-002  0.1250030E+03  0.7818608E-02  0.1235065E+00
          4   -1    0    0  501    0  0.00000000000E+00  0.00000000000E+00  0.96058412623E+01  0.96894316839E+01  0.12700000000E+01 0. -1.
         -4   -1    0    0    0  501 -0.00000000000E+00 -0.00000000000E+00 -0.40482703533E+03  0.40482902741E+03  0.12700000000E+01 0. -1.
         25    2    1    2    0    0  0.00000000000E+00  0.00000000000E+00 -0.39522119406E+03  0.41451845909E+03  0.12500304272E+03 0.  0.
    9000005    1    3    3    0    0  0.27550149872E+01  0.37196430118E+02 -0.36388666101E+03  0.36579456882E+03  0.10000000000E+01 0.  0.
    9000005    1    3    3    0    0 -0.27550149872E+01 -0.37196430118E+02 -0.31334533060E+02  0.48723890271E+02  0.10000000000E+01 0.  0.
<mgrwt>
<rscale>  0 0.12500304E+03</rscale>
<asrwt>0</asrwt>
<pdfrwt beam="1">  1        4 0.14844053E-02 0.12500304E+03</pdfrwt>
<pdfrwt beam="2">  1       -4 0.62287652E-01 0.12500304E+03</pdfrwt>
<totfact> 0.63160583E+03</totfact>
</mgrwt>
</event>
<event>
 5    1  0.3232465E-002  0.1250026E+03  0.7818608E-02  0.1235065E+00
         -4   -1    0    0    0  501 -0.00000000000E+00  0.00000000000E+00  0.17734713867E+03  0.17735168591E+03  0.12700000000E+01 0.  1.
          4   -1    0    0  501    0  0.00000000000E+00 -0.00000000000E+00 -0.22003787841E+02  0.22040407876E+02  0.12700000000E+01 0.  1.
         25    2    1    2    0    0  0.00000000000E+00  0.00000000000E+00  0.15534335083E+03  0.19939209379E+03  0.12500260164E+03 0.  0.
    9000005    1    3    3    0    0  0.62271133067E+02  0.35677518459E+01  0.71495979599E+02  0.94884656113E+02  0.10000000000E+01 0.  0.
    9000005    1    3    3    0    0 -0.62271133067E+02 -0.35677518459E+01  0.83847371230E+02  0.10450743767E+03  0.10000000000E+01 0.  0.
<mgrwt>
<rscale>  0 0.12500260E+03</rscale>
<asrwt>0</asrwt>
<pdfrwt beam="2">  1        4 0.33883649E-02 0.12500260E+03</pdfrwt>
<pdfrwt beam="1">  1       -4 0.27287342E-01 0.12500260E+03</pdfrwt>
<totfact> 0.90232882E+03</totfact>
</mgrwt>
</event>
<event>
 5    1  0.3232465E-002  0.1250163E+03  0.7818608E-02  0.1235044E+00
         -4   -1    0    0    0  501 -0.00000000000E+00  0.00000000000E+00  0.88678554139E+01  0.89583346467E+01  0.12700000000E+01 0.  1.
          4   -1    0    0  501    0  0.00000000000E+00 -0.00000000000E+00 -0.43828238836E+03  0.43828422838E+03  0.12700000000E+01 0.  1.
         25    2    1    2    0    0  0.00000000000E+00  0.00000000000E+00 -0.42941453294E+03  0.44724256302E+03  0.12501627525E+03 0.  0.
    9000005    1    3    3    0    0  0.15364227208E+02 -0.23811425414E+02 -0.41399617187E+03  0.41496611161E+03  0.10000000000E+01 0.  0.
    9000005    1    3    3    0    0 -0.15364227208E+02  0.23811425414E+02 -0.15418361072E+02  0.32276451417E+02  0.10000000000E+01 0.  0.
<mgrwt>
<rscale>  0 0.12501628E+03</rscale>
<asrwt>0</asrwt>
<pdfrwt beam="2">  1        4 0.67435145E-01 0.12501628E+03</pdfrwt>
<pdfrwt beam="1">  1       -4 0.13713873E-02 0.12501628E+03</pdfrwt>
<totfact> 0.60181845E+03</totfact>
</mgrwt>
</event>
<event>
 5    1  0.3232465E-002  0.1249953E+03  0.7818608E-02  0.1235077E+00
          4   -1    0    0  501    0  0.00000000000E+00  0.00000000000E+00  0.69870589001E+03  0.69870704422E+03  0.12700000000E+01 0.  1.
         -4   -1    0    0    0  501 -0.00000000000E+00 -0.00000000000E+00 -0.55169655753E+01  0.56612550869E+01  0.12700000000E+01 0.  1.
         25    2    1    2    0    0  0.00000000000E+00  0.00000000000E+00  0.69318892444E+03  0.70436829930E+03  0.12499526432E+03 0.  0.
    9000005    1    3    3    0    0  0.11495202488E+02  0.54104343602E+02  0.18273486986E+03  0.19092525328E+03  0.10000000000E+01 0.  0.
    9000005    1    3    3    0    0 -0.11495202488E+02 -0.54104343602E+02  0.51045405458E+03  0.51344304603E+03  0.10000000000E+01 0.  0.
<mgrwt>
<rscale>  0 0.12499526E+03</rscale>
<asrwt>0</asrwt>
<pdfrwt beam="1">  1        4 0.10750442E+00 0.12499526E+03</pdfrwt>
<pdfrwt beam="2">  1       -4 0.85995180E-03 0.12499526E+03</pdfrwt>
<totfact> 0.42861533E+03</totfact>
</mgrwt>
</event>
<event>
 5    1  0.3232465E-002  0.1249969E+03  0.7818608E-02  0.1235074E+00
         -4   -1    0    0    0  501 -0.00000000000E+00  0.00000000000E+00  0.28770405146E+02  0.28798422044E+02  0.12700000000E+01 0.  1.
          4   -1    0    0  501    0  0.00000000000E+00 -0.00000000000E+00 -0.13566943044E+03  0.13567537454E+03  0.12700000000E+01 0.  1.
         25    2    1    2    0    0  0.00000000000E+00  0.00000000000E+00 -0.10689902529E+03  0.16447379658E+03  0.12499691257E+03 0.  0.
    9000005    1    3    3    0    0 -0.60401892220E+02 -0.38771433184E+01 -0.73903521652E+02  0.95530892054E+02  0.10000000000E+01 0.  0.
    9000005    1    3    3    0    0  0.60401892220E+02  0.38771433184E+01 -0.32995503641E+02  0.68942904526E+02  0.10000000000E+01 0.  0.
<mgrwt>
<rscale>  0 0.12499691E+03</rscale>
<asrwt>0</asrwt>
<pdfrwt beam="2">  1        4 0.20874832E-01 0.12499691E+03</pdfrwt>
<pdfrwt beam="1">  1       -4 0.44288286E-02 0.12499691E+03</pdfrwt>
<totfact> 0.96493833E+03</totfact>
</mgrwt>
</event>
<event>
 5    1  0.3232465E-002  0.1250375E+03  0.7818608E-02  0.1235011E+00
         -4   -1    0    0    0  501 -0.00000000000E+00  0.00000000000E+00  0.33382758246E+01  0.35716922433E+01  0.12700000000E+01 0. -1.
          4   -1    0    0  501    0  0.00000000000E+00 -0.00000000000E+00 -0.11310581075E+04  0.11310588205E+04  0.12700000000E+01 0. -1.
         25    2    1    2    0    0  0.00000000000E+00  0.00000000000E+00 -0.11277198316E+04  0.11346305127E+04  0.12503752119E+03 0.  0.
    9000005    1    3    3    0    0  0.44090795622E+02 -0.32186140869E+02 -0.28748026656E+03  0.29261894946E+03  0.10000000000E+01 0.  0.
    9000005    1    3    3    0    0 -0.44090795622E+02  0.32186140869E+02 -0.84023956508E+03  0.84201156326E+03  0.10000000000E+01 0.  0.
<mgrwt>
<rscale>  0 0.12503752E+03</rscale>
<asrwt>0</asrwt>
<pdfrwt beam="2">  1        4 0.17402665E+00 0.12503752E+03</pdfrwt>
<pdfrwt beam="1">  1       -4 0.53159176E-03 0.12503752E+03</pdfrwt>
<totfact> 0.26468942E+03</totfact>
</mgrwt>
</event>
<event>
 5    1  0.3232465E-002  0.1250012E+03  0.7818608E-02  0.1235067E+00
          4   -1    0    0  501    0  0.00000000000E+00  0.00000000000E+00  0.20773173500E+02  0.20811958996E+02  0.12700000000E+01 0. -1.
         -4   -1    0    0    0  501 -0.00000000000E+00 -0.00000000000E+00 -0.18783039467E+03  0.18783468812E+03  0.12700000000E+01 0. -1.
         25    2    1    2    0    0  0.00000000000E+00  0.00000000000E+00 -0.16705722117E+03  0.20864664712E+03  0.12500123283E+03 0.  0.
    9000005    1    3    3    0    0 -0.52838268054E+02 -0.20488397652E+02 -0.39567001157E+02  0.69124558514E+02  0.10000000000E+01 0.  0.
    9000005    1    3    3    0    0  0.52838268054E+02  0.20488397652E+02 -0.12749022001E+03  0.13952208860E+03  0.10000000000E+01 0.  0.
<mgrwt>
<rscale>  0 0.12500123E+03</rscale>
<asrwt>0</asrwt>
<pdfrwt beam="1">  1        4 0.31991867E-02 0.12500123E+03</pdfrwt>
<pdfrwt beam="2">  1       -4 0.28900296E-01 0.12500123E+03</pdfrwt>
<totfact> 0.88694935E+03</totfact>
</mgrwt>
</event>
<event>
 4    1  0.3232465E-002  0.1246195E+03  0.7818608E-02  0.1235665E+00
          4   -1    0    0  501    0  0.00000000000E+00  0.00000000000E+00  0.83781178542E+03  0.83781274799E+03  0.12700000000E+01 0.  1.
         -4   -1    0    0    0  501 -0.00000000000E+00 -0.00000000000E+00 -0.45461079159E+01  0.47201691901E+01  0.12700000000E+01 0.  1.
    9000005    1    1    2    0    0 -0.12341698808E+02  0.49780169562E+02  0.65577213426E+03  0.65777539851E+03  0.10000000000E+01 0.  0.
    9000005    1    1    2    0    0  0.12341698808E+02 -0.49780169562E+02  0.17749354325E+03  0.18475751867E+03  0.10000000000E+01 0.  0.
<mgrwt>
<rscale>  0 0.12461953E+03</rscale>
<asrwt>0</asrwt>
<pdfrwt beam="1">  1        4 0.12890762E+00 0.12461953E+03</pdfrwt>
<pdfrwt beam="2">  1       -4 0.71286438E-03 0.12461953E+03</pdfrwt>
<totfact> 0.36739235E+03</totfact>
</mgrwt>
</event>
<event>
 5    1  0.3232465E-002  0.1249951E+03  0.7818608E-02  0.1235077E+00
          4   -1    0    0  501    0  0.00000000000E+00  0.00000000000E+00  0.56922558808E+02  0.56936724539E+02  0.12700000000E+01 0. -1.
         -4   -1    0    0    0  501 -0.00000000000E+00 -0.00000000000E+00 -0.68589957277E+02  0.68601713821E+02  0.12700000000E+01 0. -1.
         25    2    1    2    0    0  0.00000000000E+00  0.00000000000E+00 -0.11667398469E+02  0.12553843836E+03  0.12499508518E+03 0.  0.
    9000005    1    3    3    0    0  0.44188740324E+02  0.41097321432E+02  0.10463613577E+02  0.61254565621E+02  0.10000000000E+01 0.  0.
    9000005    1    3    3    0    0 -0.44188740324E+02 -0.41097321432E+02 -0.22131012045E+02  0.64283872740E+02  0.10000000000E+01 0.  0.
<mgrwt>
<rscale>  0 0.12499509E+03</rscale>
<asrwt>0</asrwt>
<pdfrwt beam="1">  1        4 0.87593108E-02 0.12499509E+03</pdfrwt>
<pdfrwt beam="2">  1       -4 0.10554295E-01 0.12499509E+03</pdfrwt>
<totfact> 0.10442263E+04</totfact>
</mgrwt>
</event>
<event>
 5    1  0.3232465E-002  0.1250004E+03  0.7818608E-02  0.1235069E+00
         -4   -1    0    0    0  501 -0.00000000000E+00  0.00000000000E+00  0.59784284687E+01  0.61118333547E+01  0.12700000000E+01 0.  1.
          4   -1    0    0  501    0  0.00000000000E+00 -0.00000000000E+00 -0.64605087848E+03  0.64605212676E+03  0.12700000000E+01 0.  1.
         25    2    1    2    0    0  0.00000000000E+00  0.00000000000E+00 -0.64007245001E+03  0.65216396011E+03  0.12500035841E+03 0.  0.
    9000005    1    3    3    0    0  0.53816055268E+01  0.19433030312E+02 -0.11435525068E+02  0.23202921772E+02  0.10000000000E+01 0.  0.
    9000005    1    3    3    0    0 -0.53816055268E+01 -0.19433030312E+02 -0.62863692494E+03  0.62896103834E+03  0.10000000000E+01 0.  0.
<mgrwt>
<rscale>  0 0.12500036E+03</rscale>
<asrwt>0</asrwt>
<pdfrwt beam="2">  1        4 0.99402746E-01 0.12500036E+03</pdfrwt>
<pdfrwt beam="1">  1       -4 0.93011667E-03 0.12500036E+03</pdfrwt>
<totfact> 0.45731619E+03</totfact>
</mgrwt>
</event>
<event>
 5    1  0.3232465E-002  0.1249991E+03  0.7818608E-02  0.1235071E+00
         -4   -1    0    0    0  501 -0.00000000000E+00  0.00000000000E+00  0.12961107647E+03  0.12961729840E+03  0.12700000000E+01 0. -1.
          4   -1    0    0  501    0  0.00000000000E+00 -0.00000000000E+00 -0.30117486957E+02  0.30144251867E+02  0.12700000000E+01 0. -1.
         25    2    1    2    0    0  0.00000000000E+00  0.00000000000E+00  0.99493589516E+02  0.15976155027E+03  0.12499911435E+03 0.  0.
    9000005    1    3    3    0    0  0.61458769354E+02  0.11305574451E+02  0.50315949167E+02  0.80235223466E+02  0.10000000000E+01 0.  0.
    9000005    1    3    3    0    0 -0.61458769354E+02 -0.11305574451E+02  0.49177640349E+02  0.79526326801E+02  0.10000000000E+01 0.  0.
<mgrwt>
<rscale>  0 0.12499911E+03</rscale>
<asrwt>0</asrwt>
<pdfrwt beam="2">  1        4 0.46359971E-02 0.12499911E+03</pdfrwt>
<pdfrwt beam="1">  1       -4 0.19942703E-01 0.12499911E+03</pdfrwt>
<totfact> 0.97390715E+03</totfact>
</mgrwt>
</event>
<event>
 5    1  0.3232465E-002  0.1250015E+03  0.7818608E-02  0.1235067E+00
         -4   -1    0    0    0  501 -0.00000000000E+00  0.00000000000E+00  0.15564414432E+03  0.15564932560E+03  0.12700000000E+01 0. -1.
          4   -1    0    0  501    0  0.00000000000E+00 -0.00000000000E+00 -0.25076264216E+02  0.25108403514E+02  0.12700000000E+01 0. -1.
         25    2    1    2    0    0  0.00000000000E+00  0.00000000000E+00  0.13056788010E+03  0.18075772912E+03  0.12500154127E+03 0.  0.
    9000005    1    3    3    0    0 -0.38231043570E+02  0.68596132991E+01 -0.55084337127E+01  0.39242958974E+02  0.10000000000E+01 0.  0.
    9000005    1    3    3    0    0  0.38231043570E+02 -0.68596132991E+01  0.13607631381E+03  0.14151477014E+03  0.10000000000E+01 0.  0.
<mgrwt>
<rscale>  0 0.12500154E+03</rscale>
<asrwt>0</asrwt>
<pdfrwt beam="2">  1        4 0.38607576E-02 0.12500154E+03</pdfrwt>
<pdfrwt beam="1">  1       -4 0.23948124E-01 0.12500154E+03</pdfrwt>
<totfact> 0.93477556E+03</totfact>
</mgrwt>
</event>
<event>
 5    1  0.3232465E-002  0.1249952E+03  0.7818608E-02  0.1235077E+00
         -4   -1    0    0    0  501 -0.00000000000E+00  0.00000000000E+00  0.56572862400E+03  0.56573004951E+03  0.12700000000E+01 0.  1.
          4   -1    0    0  501    0  0.00000000000E+00 -0.00000000000E+00 -0.68444280620E+01  0.69612567468E+01  0.12700000000E+01 0.  1.
         25    2    1    2    0    0  0.00000000000E+00  0.00000000000E+00  0.55888419594E+03  0.57269130625E+03  0.12499515105E+03 0.  0.
    9000005    1    3    3    0    0 -0.30155147599E+02  0.16778239664E+02  0.40748526495E+02  0.53406784816E+02  0.10000000000E+01 0.  0.
    9000005    1    3    3    0    0  0.30155147599E+02 -0.16778239664E+02  0.51813566944E+03  0.51928452144E+03  0.10000000000E+01 0.  0.
<mgrwt>
<rscale>  0 0.12499515E+03</rscale>
<asrwt>0</asrwt>
<pdfrwt beam="2">  1        4 0.10620855E-02 0.12499515E+03</pdfrwt>
<pdfrwt beam="1">  1       -4 0.87044265E-01 0.12499515E+03</pdfrwt>
<totfact> 0.50643459E+03</totfact>
</mgrwt>
</event>
<event>
 4    1  0.3232465E-002  0.1250966E+03  0.7818608E-02  0.1234918E+00
          4   -1    0    0  501    0  0.00000000000E+00  0.00000000000E+00  0.11192897828E+03  0.11193618306E+03  0.12700000000E+01 0. -1.
         -4   -1    0    0    0  501 -0.00000000000E+00 -0.00000000000E+00 -0.34933433306E+02  0.34956511017E+02  0.12700000000E+01 0. -1.
    9000005    1    1    2    0    0  0.56689563969E+01  0.31710708661E+00  0.11163146496E+03  0.11178023793E+03  0.10000000000E+01 0.  0.
    9000005    1    1    2    0    0 -0.56689563969E+01 -0.31710708661E+00 -0.34635919985E+02  0.35112456148E+02  0.10000000000E+01 0.  0.
<mgrwt>
<rscale>  0 0.12509656E+03</rscale>
<asrwt>0</asrwt>
<pdfrwt beam="1">  1        4 0.17222172E-01 0.12509656E+03</pdfrwt>
<pdfrwt beam="2">  1       -4 0.53767037E-02 0.12509656E+03</pdfrwt>
<totfact> 0.99709817E+03</totfact>
</mgrwt>
</event>
<event>
 5    1  0.3232465E-002  0.1249978E+03  0.7818608E-02  0.1235073E+00
         -4   -1    0    0    0  501 -0.00000000000E+00  0.00000000000E+00  0.13383765151E+03  0.13384367696E+03  0.12700000000E+01 0.  1.
          4   -1    0    0  501    0  0.00000000000E+00 -0.00000000000E+00 -0.29164957096E+02  0.29192595335E+02  0.12700000000E+01 0.  1.
         25    2    1    2    0    0  0.00000000000E+00  0.00000000000E+00  0.10467269441E+03  0.16303627229E+03  0.12499781249E+03 0.  0.
    9000005    1    3    3    0    0 -0.44872876555E+02  0.81659765166E+01  0.10805441047E+03  0.11729029732E+03  0.10000000000E+01 0.  0.
    9000005    1    3    3    0    0  0.44872876555E+02 -0.81659765166E+01 -0.33817160580E+01  0.45745974974E+02  0.10000000000E+01 0.  0.
<mgrwt>
<rscale>  0 0.12499781E+03</rscale>
<asrwt>0</asrwt>
<pdfrwt beam="2">  1        4 0.44895060E-02 0.12499781E+03</pdfrwt>
<pdfrwt beam="1">  1       -4 0.20592997E-01 0.12499781E+03</pdfrwt>
<totfact> 0.96765345E+03</totfact>
</mgrwt>
</event>
<event>
 5    1  0.3232465E-002  0.1249527E+03  0.7818608E-02  0.1235143E+00
          4   -1    0    0  501    0  0.00000000000E+00  0.00000000000E+00  0.50143380989E+02  0.50159461291E+02  0.12700000000E+01 0.  1.
         -4   -1    0    0    0  501 -0.00000000000E+00 -0.00000000000E+00 -0.77808933184E+02  0.77819296985E+02  0.12700000000E+01 0.  1.
         25    2    1    2    0    0  0.00000000000E+00  0.00000000000E+00 -0.27665552196E+02  0.12797875828E+03  0.12495271022E+03 0.  0.
    9000005    1    3    3    0    0  0.16561421400E+02 -0.84715824304E+00 -0.75518369314E+02  0.77324138920E+02  0.10000000000E+01 0.  0.
    9000005    1    3    3    0    0 -0.16561421400E+02  0.84715824304E+00  0.47852817119E+02  0.50654619356E+02  0.10000000000E+01 0.  0.
<mgrwt>
<rscale>  0 0.12495271E+03</rscale>
<asrwt>0</asrwt>
<pdfrwt beam="1">  1        4 0.77164005E-02 0.12495271E+03</pdfrwt>
<pdfrwt beam="2">  1       -4 0.11972639E-01 0.12495271E+03</pdfrwt>
<totfact> 0.10399044E+04</totfact>
</mgrwt>
</event>
<event>
 5    1  0.3232465E-002  0.1249972E+03  0.7818608E-02  0.1235074E+00
          4   -1    0    0  501    0  0.00000000000E+00  0.00000000000E+00  0.33387708226E+03  0.33387949766E+03  0.12700000000E+01 0. -1.
         -4   -1    0    0    0  501 -0.00000000000E+00 -0.00000000000E+00 -0.11662212251E+02  0.11731159133E+02  0.12700000000E+01 0. -1.
         25    2    1    2    0    0  0.00000000000E+00  0.00000000000E+00  0.32221487000E+03  0.34561065679E+03  0.12499721451E+03 0.  0.
    9000005    1    3    3    0    0  0.84483556371E+01  0.42536944038E+02  0.36706038335E+02  0.56825166707E+02  0.10000000000E+01 0.  0.
    9000005    1    3    3    0    0 -0.84483556371E+01 -0.42536944038E+02  0.28550883167E+03  0.28878549008E+03  0.10000000000E+01 0.  0.
<mgrwt>
<rscale>  0 0.12499721E+03</rscale>
<asrwt>0</asrwt>
<pdfrwt beam="1">  1        4 0.51371193E-01 0.12499721E+03</pdfrwt>
<pdfrwt beam="2">  1       -4 0.17996759E-02 0.12499721E+03</pdfrwt>
<totfact> 0.70214480E+03</totfact>
</mgrwt>
</event>
<event>
 5    1  0.3232465E-002  0.1250001E+03  0.7818608E-02  0.1235069E+00
          4   -1    0    0  501    0  0.00000000000E+00  0.00000000000E+00  0.43676016971E+01  0.45484991573E+01  0.12700000000E+01 0.  1.
         -4   -1    0    0    0  501 -0.00000000000E+00 -0.00000000000E+00 -0.87604343883E+03  0.87604435939E+03  0.12700000000E+01 0.  1.
         25    2    1    2    0    0  0.00000000000E+00  0.00000000000E+00 -0.87167583714E+03  0.88059285855E+03  0.12500006992E+03 0.  0.
    9000005    1    3    3    0    0 -0.32370326835E+02 -0.50921318952E+02 -0.55039576840E+03  0.55369424835E+03  0.10000000000E+01 0.  0.
    9000005    1    3    3    0    0  0.32370326835E+02  0.50921318952E+02 -0.32128006874E+03  0.32689861020E+03  0.10000000000E+01 0.  0.
<mgrwt>
<rscale>  0 0.12500007E+03</rscale>
<asrwt>0</asrwt>
<pdfrwt beam="1">  1        4 0.68592542E-03 0.12500007E+03</pdfrwt>
<pdfrwt beam="2">  1       -4 0.13478976E+00 0.12500007E+03</pdfrwt>
<totfact> 0.34907054E+03</totfact>
</mgrwt>
</event>
<event>
 5    1  0.3232465E-002  0.1250075E+03  0.7818608E-02  0.1235058E+00
         -4   -1    0    0    0  501 -0.00000000000E+00  0.00000000000E+00  0.16520999070E+03  0.16521487199E+03  0.12700000000E+01 0.  1.
          4   -1    0    0  501    0  0.00000000000E+00 -0.00000000000E+00 -0.23624696906E+02  0.23658808167E+02  0.12700000000E+01 0.  1.
         25    2    1    2    0    0  0.00000000000E+00  0.00000000000E+00  0.14158529379E+03  0.18887368016E+03  0.12500748633E+03 0.  0.
    9000005    1    3    3    0    0  0.54304817919E+02 -0.35487082727E+00  0.24062647075E+02  0.59406650864E+02  0.10000000000E+01 0.  0.
    9000005    1    3    3    0    0 -0.54304817919E+02  0.35487082727E+00  0.11752264672E+03  0.12946702929E+03  0.10000000000E+01 0.  0.
<mgrwt>
<rscale>  0 0.12500749E+03</rscale>
<asrwt>0</asrwt>
<pdfrwt beam="2">  1        4 0.36375682E-02 0.12500749E+03</pdfrwt>
<pdfrwt beam="1">  1       -4 0.25419921E-01 0.12500749E+03</pdfrwt>
<totfact> 0.92028225E+03</totfact>
</mgrwt>
</event>
<event>
 5    1  0.3232465E-002  0.1249993E+03  0.7818608E-02  0.1235070E+00
          4   -1    0    0  501    0  0.00000000000E+00  0.00000000000E+00  0.11783220810E+02  0.11851463735E+02  0.12700000000E+01 0.  1.
         -4   -1    0    0    0  501 -0.00000000000E+00 -0.00000000000E+00 -0.33047922392E+03  0.33048166416E+03  0.12700000000E+01 0.  1.
         25    2    1    2    0    0  0.00000000000E+00  0.00000000000E+00 -0.31869600311E+03  0.34233312789E+03  0.12499931221E+03 0.  0.
    9000005    1    3    3    0    0 -0.47792315782E+02 -0.33189050949E+02 -0.96921204310E+02  0.11305015876E+03  0.10000000000E+01 0.  0.
    9000005    1    3    3    0    0  0.47792315782E+02  0.33189050949E+02 -0.22177479880E+03  0.22928296913E+03  0.10000000000E+01 0.  0.
<mgrwt>
<rscale>  0 0.12499931E+03</rscale>
<asrwt>0</asrwt>
<pdfrwt beam="1">  1        4 0.18182406E-02 0.12499931E+03</pdfrwt>
<pdfrwt beam="2">  1       -4 0.50848388E-01 0.12499931E+03</pdfrwt>
<totfact> 0.70577401E+03</totfact>
</mgrwt>
</event>
<event>
 5    1  0.3232465E-002  0.1250227E+03  0.7818608E-02  0.1235034E+00
         -4   -1    0    0    0  501 -0.00000000000E+00  0.00000000000E+00  0.66449820567E+01  0.67652558365E+01  0.12700000000E+01 0.  1.
          4   -1    0    0  501    0  0.00000000000E+00 -0.00000000000E+00 -0.58266822531E+03  0.58266960937E+03  0.12700000000E+01 0.  1.
         25    2    1    2    0    0  0.00000000000E+00  0.00000000000E+00 -0.57602324325E+03  0.58943486520E+03  0.12502273215E+03 0.  0.
    9000005    1    3    3    0    0 -0.56087859165E+02 -0.24166767165E+02 -0.35069841597E+03  0.35597789194E+03  0.10000000000E+01 0.  0.
    9000005    1    3    3    0    0  0.56087859165E+02  0.24166767165E+02 -0.22532482728E+03  0.23345697327E+03  0.10000000000E+01 0.  0.
<mgrwt>
<rscale>  0 0.12502273E+03</rscale>
<asrwt>0</asrwt>
<pdfrwt beam="2">  1        4 0.89650584E-01 0.12502273E+03</pdfrwt>
<pdfrwt beam="1">  1       -4 0.10316637E-02 0.12502273E+03</pdfrwt>
<totfact> 0.49516700E+03</totfact>
</mgrwt>
</event>
<event>
 5    1  0.3232465E-002  0.1249996E+03  0.7818608E-02  0.1235070E+00
         -4   -1    0    0    0  501 -0.00000000000E+00  0.00000000000E+00  0.40480502469E+02  0.40500419506E+02  0.12700000000E+01 0.  1.
          4   -1    0    0  501    0  0.00000000000E+00 -0.00000000000E+00 -0.96448678305E+02  0.96457039385E+02  0.12700000000E+01 0.  1.
         25    2    1    2    0    0  0.00000000000E+00  0.00000000000E+00 -0.55968175837E+02  0.13695745889E+03  0.12499963536E+03 0.  0.
    9000005    1    3    3    0    0  0.24593968118E+02 -0.38446933542E+02 -0.74754870428E+02  0.87591783971E+02  0.10000000000E+01 0.  0.
    9000005    1    3    3    0    0 -0.24593968118E+02  0.38446933542E+02  0.18786694591E+02  0.49365674919E+02  0.10000000000E+01 0.  0.
<mgrwt>
<rscale>  0 0.12499964E+03</rscale>
<asrwt>0</asrwt>
<pdfrwt beam="2">  1        4 0.14840433E-01 0.12499964E+03</pdfrwt>
<pdfrwt beam="1">  1       -4 0.62299449E-02 0.12499964E+03</pdfrwt>
<totfact> 0.10197059E+04</totfact>
</mgrwt>
</event>
<event>
 5    1  0.3232465E-002  0.1250010E+03  0.7818608E-02  0.1235068E+00
          4   -1    0    0  501    0  0.00000000000E+00  0.00000000000E+00  0.88780810473E+01  0.89684571183E+01  0.12700000000E+01 0. -1.
         -4   -1    0    0    0  501 -0.00000000000E+00 -0.00000000000E+00 -0.43767600023E+03  0.43767784280E+03  0.12700000000E+01 0. -1.
         25    2    1    2    0    0  0.00000000000E+00  0.00000000000E+00 -0.42879791918E+03  0.44664629992E+03  0.12500104693E+03 0.  0.
    9000005    1    3    3    0    0  0.52731202091E+01 -0.46201002631E+02 -0.65224003937E+02  0.80109357321E+02  0.10000000000E+01 0.  0.
    9000005    1    3    3    0    0 -0.52731202091E+01  0.46201002631E+02 -0.36357391525E+03  0.36653694260E+03  0.10000000000E+01 0.  0.
<mgrwt>
<rscale>  0 0.12500105E+03</rscale>
<asrwt>0</asrwt>
<pdfrwt beam="1">  1        4 0.13729527E-02 0.12500105E+03</pdfrwt>
<pdfrwt beam="2">  1       -4 0.67341846E-01 0.12500105E+03</pdfrwt>
<totfact> 0.60254048E+03</totfact>
</mgrwt>
</event>
<event>
 5    1  0.3232465E-002  0.1249987E+03  0.7818608E-02  0.1235071E+00
          4   -1    0    0  501    0  0.00000000000E+00  0.00000000000E+00  0.44156981238E+03  0.44157163870E+03  0.12700000000E+01 0.  1.
         -4   -1    0    0    0  501 -0.00000000000E+00 -0.00000000000E+00 -0.87986576890E+01  0.88898412319E+01  0.12700000000E+01 0.  1.
         25    2    1    2    0    0  0.00000000000E+00  0.00000000000E+00  0.43277115469E+03  0.45046147993E+03  0.12499869028E+03 0.  0.
    9000005    1    3    3    0    0  0.29161074092E+02  0.18703909483E+02  0.28958248808E+02  0.45163975093E+02  0.10000000000E+01 0.  0.
    9000005    1    3    3    0    0 -0.29161074092E+02 -0.18703909483E+02  0.40381290588E+03  0.40529750484E+03  0.10000000000E+01 0.  0.
<mgrwt>
<rscale>  0 0.12499869E+03</rscale>
<asrwt>0</asrwt>
<pdfrwt beam="1">  1        4 0.67940967E-01 0.12499869E+03</pdfrwt>
<pdfrwt beam="2">  1       -4 0.13607943E-02 0.12499869E+03</pdfrwt>
<totfact> 0.59925567E+03</totfact>
</mgrwt>
</event>
<event>
 5    1  0.3232465E-002  0.1249980E+03  0.7818608E-02  0.1235072E+00
          4   -1    0    0  501    0  0.00000000000E+00  0.00000000000E+00  0.20449985077E+02  0.20489382364E+02  0.12700000000E+01 0.  1.
         -4   -1    0    0    0  501 -0.00000000000E+00 -0.00000000000E+00 -0.19078335044E+03  0.19078757744E+03  0.12700000000E+01 0.  1.
         25    2    1    2    0    0  0.00000000000E+00  0.00000000000E+00 -0.17033336536E+03  0.21127695980E+03  0.12499799353E+03 0.  0.
    9000005    1    3    3    0    0 -0.51575040747E+02  0.35276357029E+02 -0.86599310329E+02  0.10679347706E+03  0.10000000000E+01 0.  0.
    9000005    1    3    3    0    0  0.51575040747E+02 -0.35276357029E+02 -0.83734055030E+02  0.10448348274E+03  0.10000000000E+01 0.  0.
<mgrwt>
<rscale>  0 0.12499799E+03</rscale>
<asrwt>0</asrwt>
<pdfrwt beam="1">  1        4 0.31495074E-02 0.12499799E+03</pdfrwt>
<pdfrwt beam="2">  1       -4 0.29354639E-01 0.12499799E+03</pdfrwt>
<totfact> 0.88271720E+03</totfact>
</mgrwt>
</event>
<event>
 5    1  0.3232465E-002  0.1250044E+03  0.7818608E-02  0.1235062E+00
          4   -1    0    0  501    0  0.00000000000E+00  0.00000000000E+00  0.36842221980E+02  0.36864104769E+02  0.12700000000E+01 0. -1.
         -4   -1    0    0    0  501 -0.00000000000E+00 -0.00000000000E+00 -0.10597673432E+03  0.10598434374E+03  0.12700000000E+01 0. -1.
         25    2    1    2    0    0  0.00000000000E+00  0.00000000000E+00 -0.69134512340E+02  0.14284844850E+03  0.12500439370E+03 0.  0.
    9000005    1    3    3    0    0 -0.53361945504E+02  0.32515744718E+02 -0.33575151063E+02  0.70944074110E+02  0.10000000000E+01 0.  0.
    9000005    1    3    3    0    0  0.53361945504E+02 -0.32515744718E+02 -0.35559361277E+02  0.71904374394E+02  0.10000000000E+01 0.  0.
<mgrwt>
<rscale>  0 0.12500439E+03</rscale>
<asrwt>0</asrwt>
<pdfrwt beam="1">  1        4 0.56703028E-02 0.12500439E+03</pdfrwt>
<pdfrwt beam="2">  1       -4 0.16306381E-01 0.12500439E+03</pdfrwt>
<totfact> 0.10073891E+04</totfact>
</mgrwt>
</event>
<event>
 5    1  0.3232465E-002  0.1249877E+03  0.7818608E-02  0.1235089E+00
         -4   -1    0    0    0  501 -0.00000000000E+00  0.00000000000E+00  0.36946426275E+03  0.36946644550E+03  0.12700000000E+01 0.  1.
          4   -1    0    0  501    0  0.00000000000E+00 -0.00000000000E+00 -0.10530286512E+02  0.10606593894E+02  0.12700000000E+01 0.  1.
         25    2    1    2    0    0  0.00000000000E+00  0.00000000000E+00  0.35893397624E+03  0.38007303940E+03  0.12498766329E+03 0.  0.
    9000005    1    3    3    0    0  0.45073505372E+02  0.42445818138E+02  0.15380606188E+03  0.16580281371E+03  0.10000000000E+01 0.  0.
    9000005    1    3    3    0    0 -0.45073505372E+02 -0.42445818138E+02  0.20512791437E+03  0.21427022569E+03  0.10000000000E+01 0.  0.
<mgrwt>
<rscale>  0 0.12498766E+03</rscale>
<asrwt>0</asrwt>
<pdfrwt beam="2">  1        4 0.16260817E-02 0.12498766E+03</pdfrwt>
<pdfrwt beam="1">  1       -4 0.56846696E-01 0.12498766E+03</pdfrwt>
<totfact> 0.66556249E+03</totfact>
</mgrwt>
</event>
<event>
 5    1  0.3232465E-002  0.1249996E+03  0.7818608E-02  0.1235070E+00
          4   -1    0    0  501    0  0.00000000000E+00  0.00000000000E+00  0.29993265261E+02  0.30020140923E+02  0.12700000000E+01 0.  1.
         -4   -1    0    0    0  501 -0.00000000000E+00 -0.00000000000E+00 -0.13014837449E+03  0.13015457073E+03  0.12700000000E+01 0.  1.
         25    2    1    2    0    0  0.00000000000E+00  0.00000000000E+00 -0.10015510923E+03  0.16017471165E+03  0.12499956940E+03 0.  0.
    9000005    1    3    3    0    0 -0.26971422830E+02  0.43204150859E+02 -0.96477172457E+02  0.10910041753E+03  0.10000000000E+01 0.  0.
    9000005    1    3    3    0    0  0.26971422830E+02 -0.43204150859E+02 -0.36779367725E+01  0.51074294120E+02  0.10000000000E+01 0.  0.
<mgrwt>
<rscale>  0 0.12499957E+03</rscale>
<asrwt>0</asrwt>
<pdfrwt beam="1">  1        4 0.46168926E-02 0.12499957E+03</pdfrwt>
<pdfrwt beam="2">  1       -4 0.20025370E-01 0.12499957E+03</pdfrwt>
<totfact> 0.97310054E+03</totfact>
</mgrwt>
</event>
<event>
 5    1  0.3232465E-002  0.1250009E+03  0.7818608E-02  0.1235068E+00
         -4   -1    0    0    0  501 -0.00000000000E+00  0.00000000000E+00  0.15047369158E+02  0.15100868140E+02  0.12700000000E+01 0.  1.
          4   -1    0    0  501    0  0.00000000000E+00 -0.00000000000E+00 -0.25908475810E+03  0.25908787077E+03  0.12700000000E+01 0.  1.
         25    2    1    2    0    0  0.00000000000E+00  0.00000000000E+00 -0.24403738894E+03  0.27418873891E+03  0.12500086937E+03 0.  0.
    9000005    1    3    3    0    0  0.27857208037E+02 -0.26043102388E+02 -0.13423270713E+02  0.40440714858E+02  0.10000000000E+01 0.  0.
    9000005    1    3    3    0    0 -0.27857208037E+02  0.26043102388E+02 -0.23061411823E+03  0.23374802405E+03  0.10000000000E+01 0.  0.
<mgrwt>
<rscale>  0 0.12500087E+03</rscale>
<asrwt>0</asrwt>
<pdfrwt beam="2">  1        4 0.39863545E-01 0.12500087E+03</pdfrwt>
<pdfrwt beam="1">  1       -4 0.23193348E-02 0.12500087E+03</pdfrwt>
<totfact> 0.78953475E+03</totfact>
</mgrwt>
</event>
<event>
 5    1  0.3232465E-002  0.1250013E+03  0.7818608E-02  0.1235067E+00
         -4   -1    0    0    0  501 -0.00000000000E+00  0.00000000000E+00  0.18207529994E+02  0.18251768366E+02  0.12700000000E+01 0. -1.
          4   -1    0    0  501    0  0.00000000000E+00 -0.00000000000E+00 -0.21423836769E+03  0.21424213192E+03  0.12700000000E+01 0. -1.
         25    2    1    2    0    0  0.00000000000E+00  0.00000000000E+00 -0.19603083770E+03  0.23249390029E+03  0.12500129737E+03 0.  0.
    9000005    1    3    3    0    0  0.21103294886E+02 -0.26421987453E+02 -0.19576117729E+03  0.19866280228E+03  0.10000000000E+01 0.  0.
    9000005    1    3    3    0    0 -0.21103294886E+02  0.26421987453E+02 -0.26966041106E+00  0.33831098012E+02  0.10000000000E+01 0.  0.
<mgrwt>
<rscale>  0 0.12500130E+03</rscale>
<asrwt>0</asrwt>
<pdfrwt beam="2">  1        4 0.32963440E-01 0.12500130E+03</pdfrwt>
<pdfrwt beam="1">  1       -4 0.28048511E-02 0.12500130E+03</pdfrwt>
<totfact> 0.84925665E+03</totfact>
</mgrwt>
</event>
<event>
 5    1  0.3232465E-002  0.1250008E+03  0.7818608E-02  0.1235068E+00
         -4   -1    0    0    0  501 -0.00000000000E+00  0.00000000000E+00  0.37269838922E+02  0.37291470784E+02  0.12700000000E+01 0. -1.
          4   -1    0    0  501    0  0.00000000000E+00 -0.00000000000E+00 -0.10475536075E+03  0.10476305888E+03  0.12700000000E+01 0. -1.
         25    2    1    2    0    0  0.00000000000E+00  0.00000000000E+00 -0.67485521826E+02  0.14205452966E+03  0.12500077496E+03 0.  0.
    9000005    1    3    3    0    0  0.60261394332E+02  0.37407423871E+01 -0.15422985335E+02  0.62324130777E+02  0.10000000000E+01 0.  0.
    9000005    1    3    3    0    0 -0.60261394332E+02 -0.37407423871E+01 -0.52062536491E+02  0.79730398885E+02  0.10000000000E+01 0.  0.
<mgrwt>
<rscale>  0 0.12500077E+03</rscale>
<asrwt>0</asrwt>
<pdfrwt beam="2">  1        4 0.16118465E-01 0.12500077E+03</pdfrwt>
<pdfrwt beam="1">  1       -4 0.57360776E-02 0.12500077E+03</pdfrwt>
<totfact> 0.10091005E+04</totfact>
</mgrwt>
</event>
<event>
 5    1  0.3232465E-002  0.1249968E+03  0.7818608E-02  0.1235074E+00
          4   -1    0    0  501    0  0.00000000000E+00  0.00000000000E+00  0.78689231350E+02  0.78699479226E+02  0.12700000000E+01 0.  1.
         -4   -1    0    0    0  501 -0.00000000000E+00 -0.00000000000E+00 -0.49617354625E+02  0.49633605349E+02  0.12700000000E+01 0.  1.
         25    2    1    2    0    0  0.00000000000E+00  0.00000000000E+00  0.29071876725E+02  0.12833308458E+03  0.12499682628E+03 0.  0.
    9000005    1    3    3    0    0  0.23770357428E+02 -0.14366584806E+02 -0.42936949438E+02  0.51146947888E+02  0.10000000000E+01 0.  0.
    9000005    1    3    3    0    0 -0.23770357428E+02  0.14366584806E+02  0.72008826163E+02  0.77186136687E+02  0.10000000000E+01 0.  0.
<mgrwt>
<rscale>  0 0.12499683E+03</rscale>
<asrwt>0</asrwt>
<pdfrwt beam="1">  1        4 0.12108074E-01 0.12499683E+03</pdfrwt>
<pdfrwt beam="2">  1       -4 0.76354775E-02 0.12499683E+03</pdfrwt>
<totfact> 0.10381044E+04</totfact>
</mgrwt>
</event>
<event>
 5    1  0.3232465E-002  0.1249988E+03  0.7818608E-02  0.1235071E+00
          4   -1    0    0  501    0  0.00000000000E+00  0.00000000000E+00  0.25629671917E+01  0.28603672536E+01  0.12700000000E+01 0. -1.
         -4   -1    0    0    0  501 -0.00000000000E+00 -0.00000000000E+00 -0.14402095982E+04  0.14402101582E+04  0.12700000000E+01 0. -1.
         25    2    1    2    0    0  0.00000000000E+00  0.00000000000E+00 -0.14376466310E+04  0.14430705254E+04  0.12499882259E+03 0.  0.
    9000005    1    3    3    0    0 -0.38499629029E+02 -0.37830764242E+02 -0.35525074203E+03  0.35932920542E+03  0.10000000000E+01 0.  0.
    9000005    1    3    3    0    0  0.38499629029E+02  0.37830764242E+02 -0.10823958890E+04  0.10837413200E+04  0.10000000000E+01 0.  0.
<mgrwt>
<rscale>  0 0.12499882E+03</rscale>
<asrwt>0</asrwt>
<pdfrwt beam="1">  1        4 0.41722380E-03 0.12499882E+03</pdfrwt>
<pdfrwt beam="2">  1       -4 0.22159302E+00 0.12499882E+03</pdfrwt>
<totfact> 0.19075682E+03</totfact>
</mgrwt>
</event>
<event>
 5    1  0.3232465E-002  0.1249701E+03  0.7818608E-02  0.1235116E+00
          4   -1    0    0  501    0  0.00000000000E+00  0.00000000000E+00  0.11091716200E+03  0.11092443250E+03  0.12700000000E+01 0.  1.
         -4   -1    0    0    0  501 -0.00000000000E+00 -0.00000000000E+00 -0.35180988618E+02  0.35203904047E+02  0.12700000000E+01 0.  1.
         25    2    1    2    0    0  0.00000000000E+00  0.00000000000E+00  0.75736173382E+02  0.14612833655E+03  0.12497008756E+03 0.  0.
    9000005    1    3    3    0    0 -0.56533760864E+02 -0.89102246057E+01  0.67169015061E+02  0.88250409655E+02  0.10000000000E+01 0.  0.
    9000005    1    3    3    0    0  0.56533760864E+02  0.89102246057E+01  0.85671583211E+01  0.57877926895E+02  0.10000000000E+01 0.  0.
<mgrwt>
<rscale>  0 0.12497009E+03</rscale>
<asrwt>0</asrwt>
<pdfrwt beam="1">  1        4 0.17066500E-01 0.12497009E+03</pdfrwt>
<pdfrwt beam="2">  1       -4 0.54147819E-02 0.12497009E+03</pdfrwt>
<totfact> 0.10014857E+04</totfact>
</mgrwt>
</event>
<event>
 5    1  0.3232465E-002  0.1249932E+03  0.7818608E-02  0.1235080E+00
         -4   -1    0    0    0  501 -0.00000000000E+00  0.00000000000E+00  0.34039959499E+02  0.34063642534E+02  0.12700000000E+01 0.  1.
          4   -1    0    0  501    0  0.00000000000E+00 -0.00000000000E+00 -0.11467522439E+03  0.11468225665E+03  0.12700000000E+01 0.  1.
         25    2    1    2    0    0  0.00000000000E+00  0.00000000000E+00 -0.80635264895E+02  0.14874589918E+03  0.12499318613E+03 0.  0.
    9000005    1    3    3    0    0 -0.28038645998E+02 -0.47890843282E+02 -0.74501303050E+02  0.92903943381E+02  0.10000000000E+01 0.  0.
    9000005    1    3    3    0    0  0.28038645998E+02  0.47890843282E+02 -0.61339618456E+01  0.55841955800E+02  0.10000000000E+01 0.  0.
<mgrwt>
<rscale>  0 0.12499319E+03</rscale>
<asrwt>0</asrwt>
<pdfrwt beam="2">  1        4 0.17644705E-01 0.12499319E+03</pdfrwt>
<pdfrwt beam="1">  1       -4 0.52392796E-02 0.12499319E+03</pdfrwt>
<totfact> 0.99569544E+03</totfact>
</mgrwt>
</event>
<event>
 5    1  0.3232465E-002  0.1250034E+03  0.7818608E-02  0.1235064E+00
         -4   -1    0    0    0  501 -0.00000000000E+00  0.00000000000E+00  0.11000574137E+03  0.11001307211E+03  0.12700000000E+01 0.  1.
          4   -1    0    0  501    0  0.00000000000E+00 -0.00000000000E+00 -0.35491549056E+02  0.35514264098E+02  0.12700000000E+01 0.  1.
         25    2    1    2    0    0  0.00000000000E+00  0.00000000000E+00  0.74514192314E+02  0.14552733620E+03  0.12500336286E+03 0.  0.
    9000005    1    3    3    0    0  0.56858868619E+02  0.20087525001E+02  0.56351919109E+02  0.82540768039E+02  0.10000000000E+01 0.  0.
    9000005    1    3    3    0    0 -0.56858868619E+02 -0.20087525001E+02  0.18162273205E+02  0.62986568165E+02  0.10000000000E+01 0.  0.
<mgrwt>
<rscale>  0 0.12500336E+03</rscale>
<asrwt>0</asrwt>
<pdfrwt beam="2">  1        4 0.54625496E-02 0.12500336E+03</pdfrwt>
<pdfrwt beam="1">  1       -4 0.16926271E-01 0.12500336E+03</pdfrwt>
<totfact> 0.10019526E+04</totfact>
</mgrwt>
</event>
<event>
 5    1  0.3232465E-002  0.1249982E+03  0.7818608E-02  0.1235072E+00
         -4   -1    0    0    0  501 -0.00000000000E+00  0.00000000000E+00  0.16919206232E+03  0.16919682873E+03  0.12700000000E+01 0. -1.
          4   -1    0    0  501    0  0.00000000000E+00 -0.00000000000E+00 -0.23064447141E+02  0.23099385748E+02  0.12700000000E+01 0. -1.
         25    2    1    2    0    0  0.00000000000E+00  0.00000000000E+00  0.14612761518E+03  0.19229621448E+03  0.12499821672E+03 0.  0.
    9000005    1    3    3    0    0  0.45704405974E+02 -0.42490853778E+02  0.68014421363E+02  0.92311033433E+02  0.10000000000E+01 0.  0.
    9000005    1    3    3    0    0 -0.45704405974E+02  0.42490853778E+02  0.78113193814E+02  0.99985181042E+02  0.10000000000E+01 0.  0.
<mgrwt>
<rscale>  0 0.12499822E+03</rscale>
<asrwt>0</asrwt>
<pdfrwt beam="2">  1        4 0.35514309E-02 0.12499822E+03</pdfrwt>
<pdfrwt beam="1">  1       -4 0.26032601E-01 0.12499822E+03</pdfrwt>
<totfact> 0.91452962E+03</totfact>
</mgrwt>
</event>
<event>
 5    1  0.3232465E-002  0.1249983E+03  0.7818608E-02  0.1235072E+00
         -4   -1    0    0    0  501 -0.00000000000E+00  0.00000000000E+00  0.79476470925E+03  0.79476572395E+03  0.12700000000E+01 0. -1.
          4   -1    0    0  501    0  0.00000000000E+00 -0.00000000000E+00 -0.48317638932E+01  0.49958825366E+01  0.12700000000E+01 0. -1.
         25    2    1    2    0    0  0.00000000000E+00  0.00000000000E+00  0.78993294536E+03  0.79976160649E+03  0.12499827620E+03 0.  0.
    9000005    1    3    3    0    0 -0.27536058873E+02  0.35238844757E+02  0.67423308171E+03  0.67571536847E+03  0.10000000000E+01 0.  0.
    9000005    1    3    3    0    0  0.27536058873E+02 -0.35238844757E+02  0.11569986365E+03  0.12404623802E+03  0.10000000000E+01 0.  0.
<mgrwt>
<rscale>  0 0.12499828E+03</rscale>
<asrwt>0</asrwt>
<pdfrwt beam="2">  1        4 0.75605159E-03 0.12499828E+03</pdfrwt>
<pdfrwt beam="1">  1       -4 0.12228408E+00 0.12499828E+03</pdfrwt>
<totfact> 0.38276844E+03</totfact>
</mgrwt>
</event>
<event>
 5    1  0.3232465E-002  0.1249972E+03  0.7818608E-02  0.1235074E+00
         -4   -1    0    0    0  501 -0.00000000000E+00  0.00000000000E+00  0.61962758424E+03  0.61962888575E+03  0.12700000000E+01 0.  1.
          4   -1    0    0  501    0  0.00000000000E+00 -0.00000000000E+00 -0.62386175596E+01  0.63665727872E+01  0.12700000000E+01 0.  1.
         25    2    1    2    0    0  0.00000000000E+00  0.00000000000E+00  0.61338896668E+03  0.62599545853E+03  0.12499715860E+03 0.  0.
    9000005    1    3    3    0    0  0.50431774713E+02 -0.67949161635E+01  0.48833916176E+03  0.49098439048E+03  0.10000000000E+01 0.  0.
    9000005    1    3    3    0    0 -0.50431774713E+02  0.67949161635E+01  0.12504980492E+03  0.13501106806E+03  0.10000000000E+01 0.  0.
<mgrwt>
<rscale>  0 0.12499716E+03</rscale>
<asrwt>0</asrwt>
<pdfrwt beam="2">  1        4 0.96973004E-03 0.12499716E+03</pdfrwt>
<pdfrwt beam="1">  1       -4 0.95337274E-01 0.12499716E+03</pdfrwt>
<totfact> 0.47269706E+03</totfact>
</mgrwt>
</event>
<event>
 5    1  0.3232465E-002  0.1249951E+03  0.7818608E-02  0.1235077E+00
         -4   -1    0    0    0  501 -0.00000000000E+00  0.00000000000E+00  0.14329893760E+03  0.14330456524E+03  0.12700000000E+01 0. -1.
          4   -1    0    0  501    0  0.00000000000E+00 -0.00000000000E+00 -0.27236371106E+02  0.27265964333E+02  0.12700000000E+01 0. -1.
         25    2    1    2    0    0  0.00000000000E+00  0.00000000000E+00  0.11606256650E+03  0.17057052957E+03  0.12499514477E+03 0.  0.
    9000005    1    3    3    0    0 -0.30209053475E+02 -0.51156917080E+02  0.84468588819E+02  0.10327419607E+03  0.10000000000E+01 0.  0.
    9000005    1    3    3    0    0  0.30209053475E+02  0.51156917080E+02  0.31593977676E+02  0.67296333499E+02  0.10000000000E+01 0.  0.
<mgrwt>
<rscale>  0 0.12499514E+03</rscale>
<asrwt>0</asrwt>
<pdfrwt beam="2">  1        4 0.41929203E-02 0.12499514E+03</pdfrwt>
<pdfrwt beam="1">  1       -4 0.22048699E-01 0.12499514E+03</pdfrwt>
<totfact> 0.95352795E+03</totfact>
</mgrwt>
</event>
<event>
 5    1  0.3232465E-002  0.1249984E+03  0.7818608E-02  0.1235072E+00
         -4   -1    0    0    0  501 -0.00000000000E+00  0.00000000000E+00  0.15976606268E+03  0.15977111029E+03  0.12700000000E+01 0.  1.
          4   -1    0    0  501    0  0.00000000000E+00 -0.00000000000E+00 -0.24427239486E+02  0.24460231579E+02  0.12700000000E+01 0.  1.
         25    2    1    2    0    0  0.00000000000E+00  0.00000000000E+00  0.13533882320E+03  0.18423134187E+03  0.12499836105E+03 0.  0.
    9000005    1    3    3    0    0  0.40237410717E+02  0.45956264766E+02  0.87117799934E+02  0.10640271875E+03  0.10000000000E+01 0.  0.
    9000005    1    3    3    0    0 -0.40237410717E+02 -0.45956264766E+02  0.48221023262E+02  0.77828623121E+02  0.10000000000E+01 0.  0.
<mgrwt>
<rscale>  0 0.12499836E+03</rscale>
<asrwt>0</asrwt>
<pdfrwt beam="2">  1        4 0.37609631E-02 0.12499836E+03</pdfrwt>
<pdfrwt beam="1">  1       -4 0.24582320E-01 0.12499836E+03</pdfrwt>
<totfact> 0.92864257E+03</totfact>
</mgrwt>
</event>
<event>
 5    1  0.3232465E-002  0.1250016E+03  0.7818608E-02  0.1235067E+00
          4   -1    0    0  501    0  0.00000000000E+00  0.00000000000E+00  0.30752879105E+01  0.33272053938E+01  0.12700000000E+01 0. -1.
         -4   -1    0    0    0  501 -0.00000000000E+00 -0.00000000000E+00 -0.12200072087E+04  0.12200078697E+04  0.12700000000E+01 0. -1.
         25    2    1    2    0    0  0.00000000000E+00  0.00000000000E+00 -0.12169319208E+04  0.12233350751E+04  0.12500162466E+03 0.  0.
    9000005    1    3    3    0    0  0.23596061437E+02  0.54043978483E+02 -0.81089054847E+03  0.81303259918E+03  0.10000000000E+01 0.  0.
    9000005    1    3    3    0    0 -0.23596061437E+02 -0.54043978483E+02 -0.40604137232E+03  0.41030247593E+03  0.10000000000E+01 0.  0.
<mgrwt>
<rscale>  0 0.12500162E+03</rscale>
<asrwt>0</asrwt>
<pdfrwt beam="1">  1        4 0.49255131E-03 0.12500162E+03</pdfrwt>
<pdfrwt beam="2">  1       -4 0.18771247E+00 0.12500162E+03</pdfrwt>
<totfact> 0.24109210E+03</totfact>
</mgrwt>
</event>
<event>
 5    1  0.3232465E-002  0.1250011E+03  0.7818608E-02  0.1235067E+00
         -4   -1    0    0    0  501 -0.00000000000E+00  0.00000000000E+00  0.14339315384E+02  0.14395446005E+02  0.12700000000E+01 0. -1.
          4   -1    0    0  501    0  0.00000000000E+00 -0.00000000000E+00 -0.27183060740E+03  0.27183357412E+03  0.12700000000E+01 0. -1.
         25    2    1    2    0    0  0.00000000000E+00  0.00000000000E+00 -0.25749129202E+03  0.28622902013E+03  0.12500114599E+03 0.  0.
    9000005    1    3    3    0    0  0.24964673910E+02  0.57289143855E+02 -0.12828382228E+03  0.14269905398E+03  0.10000000000E+01 0.  0.
    9000005    1    3    3    0    0 -0.24964673910E+02 -0.57289143855E+02 -0.12920746974E+03  0.14352996615E+03  0.10000000000E+01 0.  0.
<mgrwt>
<rscale>  0 0.12500115E+03</rscale>
<asrwt>0</asrwt>
<pdfrwt beam="2">  1        4 0.41824636E-01 0.12500115E+03</pdfrwt>
<pdfrwt beam="1">  1       -4 0.22105947E-02 0.12500115E+03</pdfrwt>
<totfact> 0.77357398E+03</totfact>
</mgrwt>
</event>
<event>
 5    1  0.3232465E-002  0.1249939E+03  0.7818608E-02  0.1235079E+00
          4   -1    0    0  501    0  0.00000000000E+00  0.00000000000E+00  0.11820257347E+03  0.11820939588E+03  0.12700000000E+01 0.  1.
         -4   -1    0    0    0  501 -0.00000000000E+00 -0.00000000000E+00 -0.33023894411E+02  0.33048305586E+02  0.12700000000E+01 0.  1.
         25    2    1    2    0    0  0.00000000000E+00  0.00000000000E+00  0.85178679057E+02  0.15125770147E+03  0.12499393940E+03 0.  0.
    9000005    1    3    3    0    0  0.31649248207E+02  0.47246686618E+02  0.73934653212E+02  0.93280529876E+02  0.10000000000E+01 0.  0.
    9000005    1    3    3    0    0 -0.31649248207E+02 -0.47246686618E+02  0.11244025845E+02  0.57977171591E+02  0.10000000000E+01 0.  0.
<mgrwt>
<rscale>  0 0.12499394E+03</rscale>
<asrwt>0</asrwt>
<pdfrwt beam="1">  1        4 0.18187414E-01 0.12499394E+03</pdfrwt>
<pdfrwt beam="2">  1       -4 0.50830017E-02 0.12499394E+03</pdfrwt>
<totfact> 0.99067093E+03</totfact>
</mgrwt>
</event>
<event>
 5    1  0.3232465E-002  0.1250031E+03  0.7818608E-02  0.1235064E+00
         -4   -1    0    0    0  501 -0.00000000000E+00  0.00000000000E+00  0.12848455144E+03  0.12849082791E+03  0.12700000000E+01 0. -1.
          4   -1    0    0  501    0  0.00000000000E+00 -0.00000000000E+00 -0.30383722674E+02  0.30410253263E+02  0.12700000000E+01 0. -1.
         25    2    1    2    0    0  0.00000000000E+00  0.00000000000E+00  0.98100828762E+02  0.15890108118E+03  0.12500312394E+03 0.  0.
    9000005    1    3    3    0    0  0.68476141384E+01  0.76778962778E+01 -0.29306121950E+02  0.31075532085E+02  0.10000000000E+01 0.  0.
    9000005    1    3    3    0    0 -0.68476141384E+01 -0.76778962778E+01  0.12740695071E+03  0.12782554909E+03  0.10000000000E+01 0.  0.
<mgrwt>
<rscale>  0 0.12500312E+03</rscale>
<asrwt>0</asrwt>
<pdfrwt beam="2">  1        4 0.46769425E-02 0.12500312E+03</pdfrwt>
<pdfrwt beam="1">  1       -4 0.19769378E-01 0.12500312E+03</pdfrwt>
<totfact> 0.97548216E+03</totfact>
</mgrwt>
</event>
<event>
 5    1  0.3232465E-002  0.1249975E+03  0.7818608E-02  0.1235073E+00
         -4   -1    0    0    0  501 -0.00000000000E+00  0.00000000000E+00  0.93304193626E+01  0.94164550379E+01  0.12700000000E+01 0.  1.
          4   -1    0    0  501    0  0.00000000000E+00 -0.00000000000E+00 -0.41663274770E+03  0.41663468333E+03  0.12700000000E+01 0.  1.
         25    2    1    2    0    0  0.00000000000E+00  0.00000000000E+00 -0.40730232834E+03  0.42605113837E+03  0.12499754333E+03 0.  0.
    9000005    1    3    3    0    0  0.22741964333E+02 -0.14849216197E+01 -0.53231158649E+01  0.23425146669E+02  0.10000000000E+01 0.  0.
    9000005    1    3    3    0    0 -0.22741964333E+02  0.14849216197E+01 -0.40197921247E+03  0.40262599170E+03  0.10000000000E+01 0.  0.
<mgrwt>
<rscale>  0 0.12499754E+03</rscale>
<asrwt>0</asrwt>
<pdfrwt beam="2">  1        4 0.64104099E-01 0.12499754E+03</pdfrwt>
<pdfrwt beam="1">  1       -4 0.14422165E-02 0.12499754E+03</pdfrwt>
<totfact> 0.62098940E+03</totfact>
</mgrwt>
</event>
<event>
 5    1  0.3232465E-002  0.1250001E+03  0.7818608E-02  0.1235069E+00
          4   -1    0    0  501    0  0.00000000000E+00  0.00000000000E+00  0.81927664952E+02  0.81937507800E+02  0.12700000000E+01 0. -1.
         -4   -1    0    0    0  501 -0.00000000000E+00 -0.00000000000E+00 -0.47658199724E+02  0.47675118258E+02  0.12700000000E+01 0. -1.
         25    2    1    2    0    0  0.00000000000E+00  0.00000000000E+00  0.34269465228E+02  0.12961262606E+03  0.12500014635E+03 0.  0.
    9000005    1    3    3    0    0 -0.40933248400E+02 -0.43391075887E+02 -0.21789799041E+01  0.59699784293E+02  0.10000000000E+01 0.  0.
    9000005    1    3    3    0    0  0.40933248400E+02  0.43391075887E+02  0.36448445132E+02  0.69912841765E+02  0.10000000000E+01 0.  0.
<mgrwt>
<rscale>  0 0.12500015E+03</rscale>
<asrwt>0</asrwt>
<pdfrwt beam="1">  1        4 0.12606315E-01 0.12500015E+03</pdfrwt>
<pdfrwt beam="2">  1       -4 0.73340893E-02 0.12500015E+03</pdfrwt>
<totfact> 0.10352767E+04</totfact>
</mgrwt>
</event>
<event>
 5    1  0.3232465E-002  0.1249947E+03  0.7818608E-02  0.1235077E+00
         -4   -1    0    0    0  501 -0.00000000000E+00  0.00000000000E+00  0.43920364076E+02  0.43938721881E+02  0.12700000000E+01 0. -1.
          4   -1    0    0  501    0  0.00000000000E+00 -0.00000000000E+00 -0.88890423626E+02  0.88899495569E+02  0.12700000000E+01 0. -1.
         25    2    1    2    0    0  0.00000000000E+00  0.00000000000E+00 -0.44970059550E+02  0.13283821745E+03  0.12499474293E+03 0.  0.
    9000005    1    3    3    0    0 -0.19602366335E+02 -0.27200044282E+02  0.33557563055E+02  0.47446867263E+02  0.10000000000E+01 0.  0.
    9000005    1    3    3    0    0  0.19602366335E+02  0.27200044282E+02 -0.78527622605E+02  0.85391350187E+02  0.10000000000E+01 0.  0.
<mgrwt>
<rscale>  0 0.12499474E+03</rscale>
<asrwt>0</asrwt>
<pdfrwt beam="2">  1        4 0.13677560E-01 0.12499474E+03</pdfrwt>
<pdfrwt beam="1">  1       -4 0.67590891E-02 0.12499474E+03</pdfrwt>
<totfact> 0.10285059E+04</totfact>
</mgrwt>
</event>
<event>
 5    1  0.3232465E-002  0.1250084E+03  0.7818608E-02  0.1235056E+00
          4   -1    0    0  501    0  0.00000000000E+00  0.00000000000E+00  0.21560028230E+03  0.21560402275E+03  0.12700000000E+01 0.  1.
         -4   -1    0    0    0  501 -0.00000000000E+00 -0.00000000000E+00 -0.18094306126E+02  0.18138820639E+02  0.12700000000E+01 0.  1.
         25    2    1    2    0    0  0.00000000000E+00  0.00000000000E+00  0.19750597617E+03  0.23374284339E+03  0.12500842457E+03 0.  0.
    9000005    1    3    3    0    0  0.91106623966E+01 -0.40051851894E+02  0.18682555490E+03  0.19129020616E+03  0.10000000000E+01 0.  0.
    9000005    1    3    3    0    0 -0.91106623966E+01  0.40051851894E+02  0.10680421276E+02  0.42452637234E+02  0.10000000000E+01 0.  0.
<mgrwt>
<rscale>  0 0.12500842E+03</rscale>
<asrwt>0</asrwt>
<pdfrwt beam="1">  1        4 0.33172988E-01 0.12500842E+03</pdfrwt>
<pdfrwt beam="2">  1       -4 0.27874512E-02 0.12500842E+03</pdfrwt>
<totfact> 0.84722251E+03</totfact>
</mgrwt>
</event>
<event>
 5    1  0.3232465E-002  0.1250003E+03  0.7818608E-02  0.1235069E+00
          4   -1    0    0  501    0  0.00000000000E+00  0.00000000000E+00  0.56136434296E+03  0.56136577955E+03  0.12700000000E+01 0.  1.
         -4   -1    0    0    0  501 -0.00000000000E+00 -0.00000000000E+00 -0.68991166354E+01  0.70150345936E+01  0.12700000000E+01 0.  1.
         25    2    1    2    0    0  0.00000000000E+00  0.00000000000E+00  0.55446522633E+03  0.56838081414E+03  0.12500025072E+03 0.  0.
    9000005    1    3    3    0    0 -0.35153285014E+02 -0.51435197564E+02  0.29947718966E+03  0.30589037272E+03  0.10000000000E+01 0.  0.
    9000005    1    3    3    0    0  0.35153285014E+02  0.51435197564E+02  0.25498803667E+03  0.26249044143E+03  0.10000000000E+01 0.  0.
<mgrwt>
<rscale>  0 0.12500025E+03</rscale>
<asrwt>0</asrwt>
<pdfrwt beam="1">  1        4 0.86372788E-01 0.12500025E+03</pdfrwt>
<pdfrwt beam="2">  1       -4 0.10704296E-02 0.12500025E+03</pdfrwt>
<totfact> 0.50926044E+03</totfact>
</mgrwt>
</event>
<event>
 5    1  0.3232465E-002  0.1250011E+03  0.7818608E-02  0.1235068E+00
          4   -1    0    0  501    0  0.00000000000E+00  0.00000000000E+00  0.87561656249E+02  0.87570865846E+02  0.12700000000E+01 0. -1.
         -4   -1    0    0    0  501 -0.00000000000E+00 -0.00000000000E+00 -0.44591603562E+02  0.44609685139E+02  0.12700000000E+01 0. -1.
         25    2    1    2    0    0  0.00000000000E+00  0.00000000000E+00  0.42970052687E+02  0.13218055099E+03  0.12500109052E+03 0.  0.
    9000005    1    3    3    0    0 -0.29867592358E+02  0.49003206319E+00  0.79528537902E+02  0.84959411165E+02  0.10000000000E+01 0.  0.
    9000005    1    3    3    0    0  0.29867592358E+02 -0.49003206319E+00 -0.36558485215E+02  0.47221139820E+02  0.10000000000E+01 0.  0.
<mgrwt>
<rscale>  0 0.12500109E+03</rscale>
<asrwt>0</asrwt>
<pdfrwt beam="1">  1        4 0.13473123E-01 0.12500109E+03</pdfrwt>
<pdfrwt beam="2">  1       -4 0.68623461E-02 0.12500109E+03</pdfrwt>
<totfact> 0.10297593E+04</totfact>
</mgrwt>
</event>
<event>
 5    1  0.3232465E-002  0.1249997E+03  0.7818608E-02  0.1235070E+00
          4   -1    0    0  501    0  0.00000000000E+00  0.00000000000E+00  0.30474106523E+02  0.30500558493E+02  0.12700000000E+01 0.  1.
         -4   -1    0    0    0  501 -0.00000000000E+00 -0.00000000000E+00 -0.12809679663E+03  0.12810309210E+03  0.12700000000E+01 0.  1.
         25    2    1    2    0    0  0.00000000000E+00  0.00000000000E+00 -0.97622690105E+02  0.15860365060E+03  0.12499971344E+03 0.  0.
    9000005    1    3    3    0    0 -0.16428819897E+02  0.71897336723E+00 -0.12530844338E+03  0.12638682300E+03  0.10000000000E+01 0.  0.
    9000005    1    3    3    0    0  0.16428819897E+02 -0.71897336723E+00  0.27685753275E+02  0.32216827596E+02  0.10000000000E+01 0.  0.
<mgrwt>
<rscale>  0 0.12499971E+03</rscale>
<asrwt>0</asrwt>
<pdfrwt beam="1">  1        4 0.46908432E-02 0.12499971E+03</pdfrwt>
<pdfrwt beam="2">  1       -4 0.19709718E-01 0.12499971E+03</pdfrwt>
<totfact> 0.97613296E+03</totfact>
</mgrwt>
</event>
<event>
 5    1  0.3232465E-002  0.1249970E+03  0.7818608E-02  0.1235074E+00
         -4   -1    0    0    0  501 -0.00000000000E+00  0.00000000000E+00  0.37504441805E+02  0.37525938431E+02  0.12700000000E+01 0. -1.
          4   -1    0    0  501    0  0.00000000000E+00 -0.00000000000E+00 -0.10409410338E+03  0.10410185040E+03  0.12700000000E+01 0. -1.
         25    2    1    2    0    0  0.00000000000E+00  0.00000000000E+00 -0.66589661570E+02  0.14162778883E+03  0.12499699013E+03 0.  0.
    9000005    1    3    3    0    0  0.33512790609E+02 -0.52692491278E+02 -0.30648216571E+02  0.69569526018E+02  0.10000000000E+01 0.  0.
    9000005    1    3    3    0    0 -0.33512790609E+02  0.52692491278E+02 -0.35941444999E+02  0.72058262816E+02  0.10000000000E+01 0.  0.
<mgrwt>
<rscale>  0 0.12499699E+03</rscale>
<asrwt>0</asrwt>
<pdfrwt beam="2">  1        4 0.16016727E-01 0.12499699E+03</pdfrwt>
<pdfrwt beam="1">  1       -4 0.57721637E-02 0.12499699E+03</pdfrwt>
<totfact> 0.10100645E+04</totfact>
</mgrwt>
</event>
<event>
 5    1  0.3232465E-002  0.1249998E+03  0.7818608E-02  0.1235070E+00
         -4   -1    0    0    0  501 -0.00000000000E+00  0.00000000000E+00  0.72312762515E+01  0.73419517994E+01  0.12700000000E+01 0. -1.
          4   -1    0    0  501    0  0.00000000000E+00 -0.00000000000E+00 -0.53597268610E+03  0.53597419074E+03  0.12700000000E+01 0. -1.
         25    2    1    2    0    0  0.00000000000E+00  0.00000000000E+00 -0.52874140985E+03  0.54331614254E+03  0.12499980904E+03 0.  0.
    9000005    1    3    3    0    0 -0.41010786492E+02 -0.24764748482E+02 -0.89963515969E+02  0.10192944413E+03  0.10000000000E+01 0.  0.
    9000005    1    3    3    0    0  0.41010786492E+02  0.24764748482E+02 -0.43877789388E+03  0.44138669841E+03  0.10000000000E+01 0.  0.
<mgrwt>
<rscale>  0 0.12499981E+03</rscale>
<asrwt>0</asrwt>
<pdfrwt beam="2">  1        4 0.82465934E-01 0.12499981E+03</pdfrwt>
<pdfrwt beam="1">  1       -4 0.11211337E-02 0.12499981E+03</pdfrwt>
<totfact> 0.52653755E+03</totfact>
</mgrwt>
</event>
<event>
 5    1  0.3232465E-002  0.1249993E+03  0.7818608E-02  0.1235070E+00
          4   -1    0    0  501    0  0.00000000000E+00  0.00000000000E+00  0.56424144038E+03  0.56424286964E+03  0.12700000000E+01 0. -1.
         -4   -1    0    0    0  501 -0.00000000000E+00 -0.00000000000E+00 -0.68632436455E+01  0.69797573982E+01  0.12700000000E+01 0. -1.
         25    2    1    2    0    0  0.00000000000E+00  0.00000000000E+00  0.55737819673E+03  0.57122262704E+03  0.12499934179E+03 0.  0.
    9000005    1    3    3    0    0  0.96667307191E+01 -0.33801355372E+02  0.51478627911E+03  0.51598632779E+03  0.10000000000E+01 0.  0.
    9000005    1    3    3    0    0 -0.96667307191E+01  0.33801355372E+02  0.42591917625E+02  0.55236299250E+02  0.10000000000E+01 0.  0.
<mgrwt>
<rscale>  0 0.12499934E+03</rscale>
<asrwt>0</asrwt>
<pdfrwt beam="1">  1        4 0.86815471E-01 0.12499934E+03</pdfrwt>
<pdfrwt beam="2">  1       -4 0.10649559E-02 0.12499934E+03</pdfrwt>
<totfact> 0.50736731E+03</totfact>
</mgrwt>
</event>
<event>
 5    1  0.3232465E-002  0.1250150E+03  0.7818608E-02  0.1235046E+00
          4   -1    0    0  501    0  0.00000000000E+00  0.00000000000E+00  0.53226099050E+01  0.54720266996E+01  0.12700000000E+01 0.  1.
         -4   -1    0    0    0  501 -0.00000000000E+00 -0.00000000000E+00 -0.72376264357E+03  0.72376375781E+03  0.12700000000E+01 0.  1.
         25    2    1    2    0    0  0.00000000000E+00  0.00000000000E+00 -0.71844003366E+03  0.72923578451E+03  0.12501498888E+03 0.  0.
    9000005    1    3    3    0    0 -0.10073973328E+02 -0.26551225444E+01  0.25067053391E+00  0.10468880077E+02  0.10000000000E+01 0.  0.
    9000005    1    3    3    0    0  0.10073973328E+02  0.26551225444E+01 -0.71869070420E+03  0.71876690444E+03  0.10000000000E+01 0.  0.
<mgrwt>
<rscale>  0 0.12501499E+03</rscale>
<asrwt>0</asrwt>
<pdfrwt beam="1">  1        4 0.83044295E-03 0.12501499E+03</pdfrwt>
<pdfrwt beam="2">  1       -4 0.11135960E+00 0.12501499E+03</pdfrwt>
<totfact> 0.41573915E+03</totfact>
</mgrwt>
</event>
<event>
 5    1  0.3232465E-002  0.1250002E+03  0.7818608E-02  0.1235069E+00
          4   -1    0    0  501    0  0.00000000000E+00  0.00000000000E+00  0.78713007021E+01  0.79730969355E+01  0.12700000000E+01 0.  1.
         -4   -1    0    0    0  501 -0.00000000000E+00 -0.00000000000E+00 -0.49297533900E+03  0.49297697488E+03  0.12700000000E+01 0.  1.
         25    2    1    2    0    0  0.00000000000E+00  0.00000000000E+00 -0.48510403830E+03  0.50095007181E+03  0.12500018592E+03 0.  0.
    9000005    1    3    3    0    0  0.15215446871E+02 -0.25621529587E+02 -0.46268861193E+03  0.46364827640E+03  0.10000000000E+01 0.  0.
    9000005    1    3    3    0    0 -0.15215446871E+02  0.25621529587E+02 -0.22415426371E+02  0.37301795416E+02  0.10000000000E+01 0.  0.
<mgrwt>
<rscale>  0 0.12500019E+03</rscale>
<asrwt>0</asrwt>
<pdfrwt beam="1">  1        4 0.12189260E-02 0.12500019E+03</pdfrwt>
<pdfrwt beam="2">  1       -4 0.75850292E-01 0.12500019E+03</pdfrwt>
<totfact> 0.55790510E+03</totfact>
</mgrwt>
</event>
<event>
 5    1  0.3232465E-002  0.1250256E+03  0.7818608E-02  0.1235029E+00
         -4   -1    0    0    0  501 -0.00000000000E+00  0.00000000000E+00  0.11423370353E+03  0.11424076296E+03  0.12700000000E+01 0.  1.
          4   -1    0    0  501    0  0.00000000000E+00 -0.00000000000E+00 -0.34189372796E+02  0.34212952404E+02  0.12700000000E+01 0.  1.
         25    2    1    2    0    0  0.00000000000E+00  0.00000000000E+00  0.80044330735E+02  0.14845371537E+03  0.12502564026E+03 0.  0.
    9000005    1    3    3    0    0 -0.43372431526E+02 -0.28386749510E+02  0.81493695733E+02  0.96587772562E+02  0.10000000000E+01 0.  0.
    9000005    1    3    3    0    0  0.43372431526E+02  0.28386749510E+02 -0.14493649974E+01  0.51865942806E+02  0.10000000000E+01 0.  0.
<mgrwt>
<rscale>  0 0.12502564E+03</rscale>
<asrwt>0</asrwt>
<pdfrwt beam="2">  1        4 0.52622603E-02 0.12502564E+03</pdfrwt>
<pdfrwt beam="1">  1       -4 0.17576773E-01 0.12502564E+03</pdfrwt>
<totfact> 0.99555354E+03</totfact>
</mgrwt>
</event>
<event>
 5    1  0.3232465E-002  0.1249991E+03  0.7818608E-02  0.1235071E+00
         -4   -1    0    0    0  501 -0.00000000000E+00  0.00000000000E+00  0.12772922867E+03  0.12773554226E+03  0.12700000000E+01 0.  1.
          4   -1    0    0  501    0  0.00000000000E+00 -0.00000000000E+00 -0.30561595167E+02  0.30587971478E+02  0.12700000000E+01 0.  1.
         25    2    1    2    0    0  0.00000000000E+00  0.00000000000E+00  0.97167633499E+02  0.15832351374E+03  0.12499914400E+03 0.  0.
    9000005    1    3    3    0    0 -0.14075177750E+02  0.24454851578E+01  0.12563939994E+03  0.12645295506E+03  0.10000000000E+01 0.  0.
    9000005    1    3    3    0    0  0.14075177750E+02 -0.24454851578E+01 -0.28471766438E+02  0.31870558678E+02  0.10000000000E+01 0.  0.
<mgrwt>
<rscale>  0 0.12499914E+03</rscale>
<asrwt>0</asrwt>
<pdfrwt beam="2">  1        4 0.47042985E-02 0.12499914E+03</pdfrwt>
<pdfrwt beam="1">  1       -4 0.19653165E-01 0.12499914E+03</pdfrwt>
<totfact> 0.97668854E+03</totfact>
</mgrwt>
</event>
<event>
 5    1  0.3232465E-002  0.1249988E+03  0.7818608E-02  0.1235071E+00
          4   -1    0    0  501    0  0.00000000000E+00  0.00000000000E+00  0.76229514755E+02  0.76240093256E+02  0.12700000000E+01 0. -1.
         -4   -1    0    0    0  501 -0.00000000000E+00 -0.00000000000E+00 -0.51220257917E+02  0.51236000244E+02  0.12700000000E+01 0. -1.
         25    2    1    2    0    0  0.00000000000E+00  0.00000000000E+00  0.25009256838E+02  0.12747609350E+03  0.12499876594E+03 0.  0.
    9000005    1    3    3    0    0  0.57690671667E+02  0.23358468885E+02  0.67953546298E+01  0.62617956774E+02  0.10000000000E+01 0.  0.
    9000005    1    3    3    0    0 -0.57690671667E+02 -0.23358468885E+02  0.18213902208E+02  0.64858136727E+02  0.10000000000E+01 0.  0.
<mgrwt>
<rscale>  0 0.12499877E+03</rscale>
<asrwt>0</asrwt>
<pdfrwt beam="1">  1        4 0.11729642E-01 0.12499877E+03</pdfrwt>
<pdfrwt beam="2">  1       -4 0.78820644E-02 0.12499877E+03</pdfrwt>
<totfact> 0.10399108E+04</totfact>
</mgrwt>
</event>
<event>
 5    1  0.3232465E-002  0.1249997E+03  0.7818608E-02  0.1235070E+00
         -4   -1    0    0    0  501 -0.00000000000E+00  0.00000000000E+00  0.17534296264E+02  0.17580228823E+02  0.12700000000E+01 0.  1.
          4   -1    0    0  501    0  0.00000000000E+00 -0.00000000000E+00 -0.22243758761E+03  0.22244121309E+03  0.12700000000E+01 0.  1.
         25    2    1    2    0    0  0.00000000000E+00  0.00000000000E+00 -0.20490329134E+03  0.24002144191E+03  0.12499973510E+03 0.  0.
    9000005    1    3    3    0    0 -0.19962448108E+02  0.22746126555E+02  0.25338187327E+01  0.30385948152E+02  0.10000000000E+01 0.  0.
    9000005    1    3    3    0    0  0.19962448108E+02 -0.22746126555E+02 -0.20743711007E+03  0.20963549376E+03  0.10000000000E+01 0.  0.
<mgrwt>
<rscale>  0 0.12499974E+03</rscale>
<asrwt>0</asrwt>
<pdfrwt beam="2">  1        4 0.34224977E-01 0.12499974E+03</pdfrwt>
<pdfrwt beam="1">  1       -4 0.27013964E-02 0.12499974E+03</pdfrwt>
<totfact> 0.83794670E+03</totfact>
</mgrwt>
</event>
<event>
 5    1  0.3232465E-002  0.1250020E+03  0.7818608E-02  0.1235066E+00
         -4   -1    0    0    0  501 -0.00000000000E+00  0.00000000000E+00  0.76720983675E+02  0.76731494421E+02  0.12700000000E+01 0.  1.
          4   -1    0    0  501    0  0.00000000000E+00 -0.00000000000E+00 -0.50894696602E+02  0.50910539598E+02  0.12700000000E+01 0.  1.
         25    2    1    2    0    0  0.00000000000E+00  0.00000000000E+00  0.25826287073E+02  0.12764203402E+03  0.12500196696E+03 0.  0.
    9000005    1    3    3    0    0  0.26753600453E+02 -0.50484513493E+02 -0.12938177681E+02  0.58590423121E+02  0.10000000000E+01 0.  0.
    9000005    1    3    3    0    0 -0.26753600453E+02  0.50484513493E+02  0.38764464755E+02  0.69051610897E+02  0.10000000000E+01 0.  0.
<mgrwt>
<rscale>  0 0.12500197E+03</rscale>
<asrwt>0</asrwt>
<pdfrwt beam="2">  1        4 0.78319806E-02 0.12500197E+03</pdfrwt>
<pdfrwt beam="1">  1       -4 0.11805255E-01 0.12500197E+03</pdfrwt>
<totfact> 0.10394764E+04</totfact>
</mgrwt>
</event>
<event>
 5    1  0.3232465E-002  0.1249989E+03  0.7818608E-02  0.1235071E+00
         -4   -1    0    0    0  501 -0.00000000000E+00  0.00000000000E+00  0.26919156087E+02  0.26949097655E+02  0.12700000000E+01 0. -1.
          4   -1    0    0  501    0  0.00000000000E+00 -0.00000000000E+00 -0.14499447481E+03  0.14500003664E+03  0.12700000000E+01 0. -1.
         25    2    1    2    0    0  0.00000000000E+00  0.00000000000E+00 -0.11807531872E+03  0.17194913429E+03  0.12499889557E+03 0.  0.
    9000005    1    3    3    0    0  0.52223134661E+01 -0.24410249305E+02  0.19769612158E+02  0.31858600000E+02  0.10000000000E+01 0.  0.
    9000005    1    3    3    0    0 -0.52223134661E+01  0.24410249305E+02 -0.13784493088E+03  0.14009053429E+03  0.10000000000E+01 0.  0.
<mgrwt>
<rscale>  0 0.12499890E+03</rscale>
<asrwt>0</asrwt>
<pdfrwt beam="2">  1        4 0.22309573E-01 0.12499890E+03</pdfrwt>
<pdfrwt beam="1">  1       -4 0.41441397E-02 0.12499890E+03</pdfrwt>
<totfact> 0.95088945E+03</totfact>
</mgrwt>
</event>
<event>
 5    1  0.3232465E-002  0.1249933E+03  0.7818608E-02  0.1235080E+00
         -4   -1    0    0    0  501 -0.00000000000E+00  0.00000000000E+00  0.35367147667E+03  0.35367375688E+03  0.12700000000E+01 0. -1.
          4   -1    0    0  501    0  0.00000000000E+00 -0.00000000000E+00 -0.11004837848E+02  0.11077876875E+02  0.12700000000E+01 0. -1.
         25    2    1    2    0    0  0.00000000000E+00  0.00000000000E+00  0.34266663882E+03  0.36475163376E+03  0.12499331570E+03 0.  0.
    9000005    1    3    3    0    0  0.53807157232E+02  0.19352952182E+02  0.97792833952E+02  0.11328806336E+03  0.10000000000E+01 0.  0.
    9000005    1    3    3    0    0 -0.53807157232E+02 -0.19352952182E+02  0.24487380487E+03  0.25146357040E+03  0.10000000000E+01 0.  0.
<mgrwt>
<rscale>  0 0.12499332E+03</rscale>
<asrwt>0</asrwt>
<pdfrwt beam="2">  1        4 0.16988459E-02 0.12499332E+03</pdfrwt>
<pdfrwt beam="1">  1       -4 0.54416786E-01 0.12499332E+03</pdfrwt>
<totfact> 0.68141684E+03</totfact>
</mgrwt>
</event>
<event>
 5    1  0.3232465E-002  0.1250001E+03  0.7818608E-02  0.1235069E+00
         -4   -1    0    0    0  501 -0.00000000000E+00  0.00000000000E+00  0.19744616834E+02  0.19785418719E+02  0.12700000000E+01 0. -1.
          4   -1    0    0  501    0  0.00000000000E+00 -0.00000000000E+00 -0.19759215524E+03  0.19759623658E+03  0.12700000000E+01 0. -1.
         25    2    1    2    0    0  0.00000000000E+00  0.00000000000E+00 -0.17784753840E+03  0.21738165530E+03  0.12500014858E+03 0.  0.
    9000005    1    3    3    0    0  0.32717700532E+02  0.52631529265E+02 -0.74931863876E+02  0.97243560326E+02  0.10000000000E+01 0.  0.
    9000005    1    3    3    0    0 -0.32717700532E+02 -0.52631529265E+02 -0.10291567453E+03  0.12013809497E+03  0.10000000000E+01 0.  0.
<mgrwt>
<rscale>  0 0.12500015E+03</rscale>
<asrwt>0</asrwt>
<pdfrwt beam="2">  1        4 0.30402244E-01 0.12500015E+03</pdfrwt>
<pdfrwt beam="1">  1       -4 0.30410860E-02 0.12500015E+03</pdfrwt>
<totfact> 0.87284082E+03</totfact>
</mgrwt>
</event>
<event>
 5    1  0.3232465E-002  0.1249988E+03  0.7818608E-02  0.1235071E+00
         -4   -1    0    0    0  501 -0.00000000000E+00  0.00000000000E+00  0.22700577297E+02  0.22736075071E+02  0.12700000000E+01 0. -1.
          4   -1    0    0  501    0  0.00000000000E+00 -0.00000000000E+00 -0.17190142098E+03  0.17190611227E+03  0.12700000000E+01 0. -1.
         25    2    1    2    0    0  0.00000000000E+00  0.00000000000E+00 -0.14920084368E+03  0.19464218734E+03  0.12499875734E+03 0.  0.
    9000005    1    3    3    0    0 -0.17927878703E+02  0.59574826683E+02 -0.83760337010E+02  0.10434252664E+03  0.10000000000E+01 0.  0.
    9000005    1    3    3    0    0  0.17927878703E+02 -0.59574826683E+02 -0.65440506672E+02  0.90299660700E+02  0.10000000000E+01 0.  0.
<mgrwt>
<rscale>  0 0.12499876E+03</rscale>
<asrwt>0</asrwt>
<pdfrwt beam="2">  1        4 0.26449463E-01 0.12499876E+03</pdfrwt>
<pdfrwt beam="1">  1       -4 0.34954881E-02 0.12499876E+03</pdfrwt>
<totfact> 0.91048338E+03</totfact>
</mgrwt>
</event>
<event>
 5    1  0.3232465E-002  0.1250002E+03  0.7818608E-02  0.1235069E+00
         -4   -1    0    0    0  501 -0.00000000000E+00  0.00000000000E+00  0.76673985901E+03  0.76674091080E+03  0.12700000000E+01 0.  1.
          4   -1    0    0  501    0  0.00000000000E+00 -0.00000000000E+00 -0.50144236782E+01  0.51727502186E+01  0.12700000000E+01 0.  1.
         25    2    1    2    0    0  0.00000000000E+00  0.00000000000E+00  0.76172543533E+03  0.77191366102E+03  0.12500024494E+03 0.  0.
    9000005    1    3    3    0    0 -0.58912901410E+01 -0.24484404642E+02  0.73404825450E+03  0.73448079165E+03  0.10000000000E+01 0.  0.
    9000005    1    3    3    0    0  0.58912901410E+01  0.24484404642E+02  0.27677180827E+02  0.37432869363E+02  0.10000000000E+01 0.  0.
<mgrwt>
<rscale>  0 0.12500024E+03</rscale>
<asrwt>0</asrwt>
<pdfrwt beam="2">  1        4 0.78371031E-03 0.12500024E+03</pdfrwt>
<pdfrwt beam="1">  1       -4 0.11797214E+00 0.12500024E+03</pdfrwt>
<totfact> 0.39547094E+03</totfact>
</mgrwt>
</event>
<event>
 5    1  0.3232465E-002  0.1249971E+03  0.7818608E-02  0.1235074E+00
         -4   -1    0    0    0  501 -0.00000000000E+00  0.00000000000E+00  0.12605522383E+04  0.12605528780E+04  0.12700000000E+01 0. -1.
          4   -1    0    0  501    0  0.00000000000E+00 -0.00000000000E+00 -0.29678998650E+01  0.32282084209E+01  0.12700000000E+01 0. -1.
         25    2    1    2    0    0  0.00000000000E+00  0.00000000000E+00  0.12575843384E+04  0.12637810864E+04  0.12499706503E+03 0.  0.
    9000005    1    3    3    0    0  0.36325284902E+02  0.48101288108E+02  0.79547920198E+03  0.79776025284E+03  0.10000000000E+01 0.  0.
    9000005    1    3    3    0    0 -0.36325284902E+02 -0.48101288108E+02  0.46210513641E+03  0.46602083359E+03  0.10000000000E+01 0.  0.
<mgrwt>
<rscale>  0 0.12499707E+03</rscale>
<asrwt>0</asrwt>
<pdfrwt beam="2">  1        4 0.47667245E-03 0.12499707E+03</pdfrwt>
<pdfrwt beam="1">  1       -4 0.19395138E+00 0.12499707E+03</pdfrwt>
<totfact> 0.23101261E+03</totfact>
</mgrwt>
</event>
<event>
 5    1  0.3232465E-002  0.1249946E+03  0.7818608E-02  0.1235078E+00
         -4   -1    0    0    0  501 -0.00000000000E+00  0.00000000000E+00  0.20615817268E+02  0.20654898248E+02  0.12700000000E+01 0. -1.
          4   -1    0    0  501    0  0.00000000000E+00 -0.00000000000E+00 -0.18924126954E+03  0.18924553098E+03  0.12700000000E+01 0. -1.
         25    2    1    2    0    0  0.00000000000E+00  0.00000000000E+00 -0.16862545227E+03  0.20990042923E+03  0.12499458803E+03 0.  0.
    9000005    1    3    3    0    0 -0.21137976539E+02 -0.59073222233E+01 -0.18256403245E+03  0.18388131078E+03  0.10000000000E+01 0.  0.
    9000005    1    3    3    0    0  0.21137976539E+02  0.59073222233E+01  0.13938580176E+02  0.26019118458E+02  0.10000000000E+01 0.  0.
<mgrwt>
<rscale>  0 0.12499459E+03</rscale>
<asrwt>0</asrwt>
<pdfrwt beam="2">  1        4 0.29117374E-01 0.12499459E+03</pdfrwt>
<pdfrwt beam="1">  1       -4 0.31749984E-02 0.12499459E+03</pdfrwt>
<totfact> 0.88502853E+03</totfact>
</mgrwt>
</event>
<event>
 5    1  0.3232465E-002  0.1249788E+03  0.7818608E-02  0.1235102E+00
         -4   -1    0    0    0  501 -0.00000000000E+00  0.00000000000E+00  0.22313868185E+03  0.22314229594E+03  0.12700000000E+01 0.  1.
          4   -1    0    0  501    0  0.00000000000E+00 -0.00000000000E+00 -0.17473196173E+02  0.17519288927E+02  0.12700000000E+01 0.  1.
         25    2    1    2    0    0  0.00000000000E+00  0.00000000000E+00  0.20566548568E+03  0.24066158487E+03  0.12497882394E+03 0.  0.
    9000005    1    3    3    0    0 -0.24276721621E+02 -0.42119715385E+02  0.27253808650E+02  0.55742261550E+02  0.10000000000E+01 0.  0.
    9000005    1    3    3    0    0  0.24276721621E+02  0.42119715385E+02  0.17841167703E+03  0.18491932332E+03  0.10000000000E+01 0.  0.
<mgrwt>
<rscale>  0 0.12497882E+03</rscale>
<asrwt>0</asrwt>
<pdfrwt beam="2">  1        4 0.26920079E-02 0.12497882E+03</pdfrwt>
<pdfrwt beam="1">  1       -4 0.34332849E-01 0.12497882E+03</pdfrwt>
<totfact> 0.83738460E+03</totfact>
</mgrwt>
</event>
<event>
 5    1  0.3232465E-002  0.1249978E+03  0.7818608E-02  0.1235073E+00
          4   -1    0    0  501    0  0.00000000000E+00  0.00000000000E+00  0.23033148690E+01  0.26302394161E+01  0.12700000000E+01 0. -1.
         -4   -1    0    0    0  501 -0.00000000000E+00 -0.00000000000E+00 -0.15831601447E+04  0.15831606541E+04  0.12700000000E+01 0. -1.
         25    2    1    2    0    0  0.00000000000E+00  0.00000000000E+00 -0.15808568298E+04  0.15857908935E+04  0.12499776602E+03 0.  0.
    9000005    1    3    3    0    0 -0.11891363821E+02 -0.60018716112E+02 -0.95163231745E+03  0.95359777602E+03  0.10000000000E+01 0.  0.
    9000005    1    3    3    0    0  0.11891363821E+02  0.60018716112E+02 -0.62922451234E+03  0.63219311745E+03  0.10000000000E+01 0.  0.
<mgrwt>
<rscale>  0 0.12499777E+03</rscale>
<asrwt>0</asrwt>
<pdfrwt beam="1">  1        4 0.37954462E-03 0.12499777E+03</pdfrwt>
<pdfrwt beam="2">  1       -4 0.24358747E+00 0.12499777E+03</pdfrwt>
<totfact> 0.16305146E+03</totfact>
</mgrwt>
</event>
<event>
 5    1  0.3232465E-002  0.1249918E+03  0.7818608E-02  0.1235082E+00
          4   -1    0    0  501    0  0.00000000000E+00  0.00000000000E+00  0.13269210539E+04  0.13269216616E+04  0.12700000000E+01 0.  1.
         -4   -1    0    0    0  501 -0.00000000000E+00 -0.00000000000E+00 -0.28058296826E+01  0.30798669140E+01  0.12700000000E+01 0.  1.
         25    2    1    2    0    0  0.00000000000E+00  0.00000000000E+00  0.13241152242E+04  0.13300015285E+04  0.12499175575E+03 0.  0.
    9000005    1    3    3    0    0 -0.33674366592E+02  0.33230276048E+02  0.22767132498E+03  0.23253697862E+03  0.10000000000E+01 0.  0.
    9000005    1    3    3    0    0  0.33674366592E+02 -0.33230276048E+02  0.10964438992E+04  0.10974645499E+04  0.10000000000E+01 0.  0.
<mgrwt>
<rscale>  0 0.12499176E+03</rscale>
<asrwt>0</asrwt>
<pdfrwt beam="1">  1        4 0.20416241E+00 0.12499176E+03</pdfrwt>
<pdfrwt beam="2">  1       -4 0.45279358E-03 0.12499176E+03</pdfrwt>
<totfact> 0.21535254E+03</totfact>
</mgrwt>
</event>
<event>
 5    1  0.3232465E-002  0.1250002E+03  0.7818608E-02  0.1235069E+00
         -4   -1    0    0    0  501 -0.00000000000E+00  0.00000000000E+00  0.94915537710E+01  0.95761418634E+01  0.12700000000E+01 0. -1.
          4   -1    0    0  501    0  0.00000000000E+00 -0.00000000000E+00 -0.40964002840E+03  0.40964199707E+03  0.12700000000E+01 0. -1.
         25    2    1    2    0    0  0.00000000000E+00  0.00000000000E+00 -0.40014847462E+03  0.41921813893E+03  0.12500018507E+03 0.  0.
    9000005    1    3    3    0    0 -0.25994552497E+02 -0.43786892411E+02 -0.32156357757E+03  0.32557202449E+03  0.10000000000E+01 0.  0.
    9000005    1    3    3    0    0  0.25994552497E+02  0.43786892411E+02 -0.78584897053E+02  0.93646114449E+02  0.10000000000E+01 0.  0.
<mgrwt>
<rscale>  0 0.12500019E+03</rscale>
<asrwt>0</asrwt>
<pdfrwt beam="2">  1        4 0.63028187E-01 0.12500019E+03</pdfrwt>
<pdfrwt beam="1">  1       -4 0.14668976E-02 0.12500019E+03</pdfrwt>
<totfact> 0.62725361E+03</totfact>
</mgrwt>
</event>
<event>
 5    1  0.3232465E-002  0.1250110E+03  0.7818608E-02  0.1235052E+00
         -4   -1    0    0    0  501 -0.00000000000E+00  0.00000000000E+00  0.44548098968E+01  0.46323030143E+01  0.12700000000E+01 0.  1.
          4   -1    0    0  501    0  0.00000000000E+00 -0.00000000000E+00 -0.85970769518E+03  0.85970863323E+03  0.12700000000E+01 0.  1.
         25    2    1    2    0    0  0.00000000000E+00  0.00000000000E+00 -0.85525288528E+03  0.86434093624E+03  0.12501102465E+03 0.  0.
    9000005    1    3    3    0    0 -0.48948890808E+02 -0.36413386064E+02 -0.33383611769E+03  0.33936629484E+03  0.10000000000E+01 0.  0.
    9000005    1    3    3    0    0  0.48948890808E+02  0.36413386064E+02 -0.52141676759E+03  0.52497464141E+03  0.10000000000E+01 0.  0.
<mgrwt>
<rscale>  0 0.12501102E+03</rscale>
<asrwt>0</asrwt>
<pdfrwt beam="2">  1        4 0.13227632E+00 0.12501102E+03</pdfrwt>
<pdfrwt beam="1">  1       -4 0.69908152E-03 0.12501102E+03</pdfrwt>
<totfact> 0.35539038E+03</totfact>
</mgrwt>
</event>
<event>
 5    1  0.3232465E-002  0.1249999E+03  0.7818608E-02  0.1235069E+00
          4   -1    0    0  501    0  0.00000000000E+00  0.00000000000E+00  0.14119975914E+04  0.14119981626E+04  0.12700000000E+01 0.  1.
         -4   -1    0    0    0  501 -0.00000000000E+00 -0.00000000000E+00 -0.26201091394E+01  0.29116785369E+01  0.12700000000E+01 0.  1.
         25    2    1    2    0    0  0.00000000000E+00  0.00000000000E+00  0.14093774823E+04  0.14149098411E+04  0.12499988351E+03 0.  0.
    9000005    1    3    3    0    0  0.51023143704E+02 -0.11850805074E+02  0.31892843458E+03  0.32320295351E+03  0.10000000000E+01 0.  0.
    9000005    1    3    3    0    0 -0.51023143704E+02  0.11850805074E+02  0.10904490477E+04  0.10917068876E+04  0.10000000000E+01 0.  0.
<mgrwt>
<rscale>  0 0.12499988E+03</rscale>
<asrwt>0</asrwt>
<pdfrwt beam="1">  1        4 0.21725203E+00 0.12499988E+03</pdfrwt>
<pdfrwt beam="2">  1       -4 0.42556771E-03 0.12499988E+03</pdfrwt>
<totfact> 0.19663377E+03</totfact>
</mgrwt>
</event>
<event>
 5    1  0.3232465E-002  0.1250011E+03  0.7818608E-02  0.1235068E+00
         -4   -1    0    0    0  501 -0.00000000000E+00  0.00000000000E+00  0.18387023277E+02  0.18430830827E+02  0.12700000000E+01 0. -1.
          4   -1    0    0  501    0  0.00000000000E+00 -0.00000000000E+00 -0.21215137230E+03  0.21215517356E+03  0.12700000000E+01 0. -1.
         25    2    1    2    0    0  0.00000000000E+00  0.00000000000E+00 -0.19376434902E+03  0.23058600439E+03  0.12500112987E+03 0.  0.
    9000005    1    3    3    0    0 -0.19714325939E+02  0.38248850587E+02 -0.13285962754E+02  0.45046043387E+02  0.10000000000E+01 0.  0.
    9000005    1    3    3    0    0  0.19714325939E+02 -0.38248850587E+02 -0.18047838627E+03  0.18553996100E+03  0.10000000000E+01 0.  0.
<mgrwt>
<rscale>  0 0.12500113E+03</rscale>
<asrwt>0</asrwt>
<pdfrwt beam="2">  1        4 0.32642333E-01 0.12500113E+03</pdfrwt>
<pdfrwt beam="1">  1       -4 0.28324352E-02 0.12500113E+03</pdfrwt>
<totfact> 0.85217549E+03</totfact>
</mgrwt>
</event>
<event>
 5    1  0.3232465E-002  0.1249938E+03  0.7818608E-02  0.1235079E+00
          4   -1    0    0  501    0  0.00000000000E+00  0.00000000000E+00  0.69015741439E+02  0.69027425466E+02  0.12700000000E+01 0. -1.
         -4   -1    0    0    0  501 -0.00000000000E+00 -0.00000000000E+00 -0.56570178150E+02  0.56584432099E+02  0.12700000000E+01 0. -1.
         25    2    1    2    0    0  0.00000000000E+00  0.00000000000E+00  0.12445563289E+02  0.12561185756E+03  0.12499378671E+03 0.  0.
    9000005    1    3    3    0    0 -0.18799730586E+02 -0.59540040300E+02  0.36773911798E+01  0.62553732702E+02  0.10000000000E+01 0.  0.
    9000005    1    3    3    0    0  0.18799730586E+02  0.59540040300E+02  0.87681721095E+01  0.63058124862E+02  0.10000000000E+01 0.  0.
<mgrwt>
<rscale>  0 0.12499379E+03</rscale>
<asrwt>0</asrwt>
<pdfrwt beam="1">  1        4 0.10619802E-01 0.12499379E+03</pdfrwt>
<pdfrwt beam="2">  1       -4 0.87050995E-02 0.12499379E+03</pdfrwt>
<totfact> 0.10440949E+04</totfact>
</mgrwt>
</event>
<event>
 5    1  0.3232465E-002  0.1250005E+03  0.7818608E-02  0.1235068E+00
         -4   -1    0    0    0  501 -0.00000000000E+00  0.00000000000E+00  0.13093207493E+02  0.13154656303E+02  0.12700000000E+01 0. -1.
          4   -1    0    0  501    0  0.00000000000E+00 -0.00000000000E+00 -0.29758294023E+03  0.29758565022E+03  0.12700000000E+01 0. -1.
         25    2    1    2    0    0  0.00000000000E+00  0.00000000000E+00 -0.28448973274E+03  0.31074030653E+03  0.12500052026E+03 0.  0.
    9000005    1    3    3    0    0 -0.34799461114E+02 -0.40370265734E+02 -0.61136991608E+02  0.81114071481E+02  0.10000000000E+01 0.  0.
    9000005    1    3    3    0    0  0.34799461114E+02  0.40370265734E+02 -0.22335274113E+03  0.22962623505E+03  0.10000000000E+01 0.  0.
<mgrwt>
<rscale>  0 0.12500052E+03</rscale>
<asrwt>0</asrwt>
<pdfrwt beam="2">  1        4 0.45786921E-01 0.12500052E+03</pdfrwt>
<pdfrwt beam="1">  1       -4 0.20192751E-02 0.12500052E+03</pdfrwt>
<totfact> 0.74270192E+03</totfact>
</mgrwt>
</event>
<event>
 5    1  0.3232465E-002  0.1250002E+03  0.7818608E-02  0.1235069E+00
          4   -1    0    0  501    0  0.00000000000E+00  0.00000000000E+00  0.56813631438E+02  0.56827824322E+02  0.12700000000E+01 0. -1.
         -4   -1    0    0    0  501 -0.00000000000E+00 -0.00000000000E+00 -0.68727103967E+02  0.68738837055E+02  0.12700000000E+01 0. -1.
         25    2    1    2    0    0  0.00000000000E+00  0.00000000000E+00 -0.11913472529E+02  0.12556666138E+03  0.12500022249E+03 0.  0.
    9000005    1    3    3    0    0  0.47660625996E+02  0.61568821065E+01 -0.46085493369E+02  0.66590653748E+02  0.10000000000E+01 0.  0.
    9000005    1    3    3    0    0 -0.47660625996E+02 -0.61568821065E+01  0.34172020840E+02  0.58976007629E+02  0.10000000000E+01 0.  0.
<mgrwt>
<rscale>  0 0.12500022E+03</rscale>
<asrwt>0</asrwt>
<pdfrwt beam="1">  1        4 0.87425530E-02 0.12500022E+03</pdfrwt>
<pdfrwt beam="2">  1       -4 0.10575395E-01 0.12500022E+03</pdfrwt>
<totfact> 0.10440430E+04</totfact>
</mgrwt>
</event>
<event>
 5    1  0.3232465E-002  0.1250026E+03  0.7818608E-02  0.1235065E+00
          4   -1    0    0  501    0  0.00000000000E+00  0.00000000000E+00  0.57494504803E+03  0.57494645069E+03  0.12700000000E+01 0. -1.
         -4   -1    0    0    0  501 -0.00000000000E+00 -0.00000000000E+00 -0.67336455941E+01  0.68523633140E+01  0.12700000000E+01 0. -1.
         25    2    1    2    0    0  0.00000000000E+00  0.00000000000E+00  0.56821140244E+03  0.58179881400E+03  0.12500264842E+03 0.  0.
    9000005    1    3    3    0    0  0.36208680245E+02 -0.37943138535E+02  0.44226024122E+03  0.44536038356E+03  0.10000000000E+01 0.  0.
    9000005    1    3    3    0    0 -0.36208680245E+02  0.37943138535E+02  0.12595116122E+03  0.13643843044E+03  0.10000000000E+01 0.  0.
<mgrwt>
<rscale>  0 0.12500265E+03</rscale>
<asrwt>0</asrwt>
<pdfrwt beam="1">  1        4 0.88462300E-01 0.12500265E+03</pdfrwt>
<pdfrwt beam="2">  1       -4 0.10451858E-02 0.12500265E+03</pdfrwt>
<totfact> 0.50034156E+03</totfact>
</mgrwt>
</event>
<event>
 5    1  0.3232465E-002  0.1250104E+03  0.7818608E-02  0.1235053E+00
          4   -1    0    0  501    0  0.00000000000E+00  0.00000000000E+00  0.39688234330E+02  0.39708548755E+02  0.12700000000E+01 0.  1.
         -4   -1    0    0    0  501 -0.00000000000E+00 -0.00000000000E+00 -0.98390218271E+02  0.98398414375E+02  0.12700000000E+01 0.  1.
         25    2    1    2    0    0  0.00000000000E+00  0.00000000000E+00 -0.58701983941E+02  0.13810696313E+03  0.12501044095E+03 0.  0.
    9000005    1    3    3    0    0  0.46249611911E+01  0.89265190379E+01 -0.97496446567E+02  0.98018519176E+02  0.10000000000E+01 0.  0.
    9000005    1    3    3    0    0 -0.46249611911E+01 -0.89265190379E+01  0.38794462627E+02  0.40088443954E+02  0.10000000000E+01 0.  0.
<mgrwt>
<rscale>  0 0.12501044E+03</rscale>
<asrwt>0</asrwt>
<pdfrwt beam="1">  1        4 0.61080754E-02 0.12501044E+03</pdfrwt>
<pdfrwt beam="2">  1       -4 0.15139150E-01 0.12501044E+03</pdfrwt>
<totfact> 0.10170578E+04</totfact>
</mgrwt>
</event>
<event>
 5    1  0.3232465E-002  0.1249756E+03  0.7818608E-02  0.1235107E+00
          4   -1    0    0  501    0  0.00000000000E+00  0.00000000000E+00  0.25776412883E+02  0.25807680274E+02  0.12700000000E+01 0.  1.
         -4   -1    0    0    0  501 -0.00000000000E+00 -0.00000000000E+00 -0.15135860451E+03  0.15136393250E+03  0.12700000000E+01 0.  1.
         25    2    1    2    0    0  0.00000000000E+00  0.00000000000E+00 -0.12558219163E+03  0.17717161277E+03  0.12497557168E+03 0.  0.
    9000005    1    3    3    0    0 -0.30365199467E+02  0.46336308559E+02 -0.10374681758E+03  0.11761590448E+03  0.10000000000E+01 0.  0.
    9000005    1    3    3    0    0  0.30365199467E+02 -0.46336308559E+02 -0.21835374052E+02  0.59555708287E+02  0.10000000000E+01 0.  0.
<mgrwt>
<rscale>  0 0.12497557E+03</rscale>
<asrwt>0</asrwt>
<pdfrwt beam="1">  1        4 0.39684171E-02 0.12497557E+03</pdfrwt>
<pdfrwt beam="2">  1       -4 0.23288754E-01 0.12497557E+03</pdfrwt>
<totfact> 0.94180204E+03</totfact>
</mgrwt>
</event>
<event>
 5    1  0.3232465E-002  0.1250003E+03  0.7818608E-02  0.1235069E+00
         -4   -1    0    0    0  501 -0.00000000000E+00  0.00000000000E+00  0.12070225707E+03  0.12070893820E+03  0.12700000000E+01 0.  1.
          4   -1    0    0  501    0  0.00000000000E+00 -0.00000000000E+00 -0.32342786741E+02  0.32367711599E+02  0.12700000000E+01 0.  1.
         25    2    1    2    0    0  0.00000000000E+00  0.00000000000E+00  0.88359470325E+02  0.15307664980E+03  0.12500025887E+03 0.  0.
    9000005    1    3    3    0    0  0.23306234880E+02  0.36929745558E+02 -0.10562957006E+02  0.44939545525E+02  0.10000000000E+01 0.  0.
    9000005    1    3    3    0    0 -0.23306234880E+02 -0.36929745558E+02  0.98922427331E+02  0.10813710427E+03  0.10000000000E+01 0.  0.
<mgrwt>
<rscale>  0 0.12500026E+03</rscale>
<asrwt>0</asrwt>
<pdfrwt beam="2">  1        4 0.49782447E-02 0.12500026E+03</pdfrwt>
<pdfrwt beam="1">  1       -4 0.18572009E-01 0.12500026E+03</pdfrwt>
<totfact> 0.98693337E+03</totfact>
</mgrwt>
</event>
<event>
 5    1  0.3232465E-002  0.1249954E+03  0.7818608E-02  0.1235076E+00
         -4   -1    0    0    0  501 -0.00000000000E+00  0.00000000000E+00  0.21234755702E+01  0.24742773687E+01  0.12700000000E+01 0. -1.
          4   -1    0    0  501    0  0.00000000000E+00 -0.00000000000E+00 -0.16987237616E+04  0.16987242364E+04  0.12700000000E+01 0. -1.
         25    2    1    2    0    0  0.00000000000E+00  0.00000000000E+00 -0.16966002860E+04  0.17011985137E+04  0.12499540985E+03 0.  0.
    9000005    1    3    3    0    0 -0.39272815779E+01  0.22970853682E+02 -0.16374364021E+04  0.16376025325E+04  0.10000000000E+01 0.  0.
    9000005    1    3    3    0    0  0.39272815779E+01 -0.22970853682E+02 -0.59163883989E+02  0.63595981227E+02  0.10000000000E+01 0.  0.
<mgrwt>
<rscale>  0 0.12499541E+03</rscale>
<asrwt>0</asrwt>
<pdfrwt beam="2">  1        4 0.26136813E+00 0.12499541E+03</pdfrwt>
<pdfrwt beam="1">  1       -4 0.35371118E-03 0.12499541E+03</pdfrwt>
<totfact> 0.14289476E+03</totfact>
</mgrwt>
</event>
<event>
 5    1  0.3232465E-002  0.1250016E+03  0.7818608E-02  0.1235067E+00
          4   -1    0    0  501    0  0.00000000000E+00  0.00000000000E+00  0.99584587372E+03  0.99584668354E+03  0.12700000000E+01 0.  1.
         -4   -1    0    0    0  501 -0.00000000000E+00 -0.00000000000E+00 -0.38190174143E+01  0.40246483090E+01  0.12700000000E+01 0.  1.
         25    2    1    2    0    0  0.00000000000E+00  0.00000000000E+00  0.99202685631E+03  0.99987133185E+03  0.12500158643E+03 0.  0.
    9000005    1    3    3    0    0 -0.28555184765E+02 -0.28683467895E+02  0.11514550859E+03  0.12205583991E+03  0.10000000000E+01 0.  0.
    9000005    1    3    3    0    0  0.28555184765E+02  0.28683467895E+02  0.87688134772E+03  0.87781549193E+03  0.10000000000E+01 0.  0.
<mgrwt>
<rscale>  0 0.12500159E+03</rscale>
<asrwt>0</asrwt>
<pdfrwt beam="1">  1        4 0.15322301E+00 0.12500159E+03</pdfrwt>
<pdfrwt beam="2">  1       -4 0.60342091E-03 0.12500159E+03</pdfrwt>
<totfact> 0.30607656E+03</totfact>
</mgrwt>
</event>
<event>
 5    1  0.3232465E-002  0.1249976E+03  0.7818608E-02  0.1235073E+00
          4   -1    0    0  501    0  0.00000000000E+00  0.00000000000E+00  0.48428691330E+01  0.50066237565E+01  0.12700000000E+01 0. -1.
         -4   -1    0    0    0  501 -0.00000000000E+00 -0.00000000000E+00 -0.79299268160E+03  0.79299369857E+03  0.12700000000E+01 0. -1.
         25    2    1    2    0    0  0.00000000000E+00  0.00000000000E+00 -0.78814981247E+03  0.79800032232E+03  0.12499755014E+03 0.  0.
    9000005    1    3    3    0    0 -0.80616822168E+01  0.22286686298E+02 -0.76321937869E+03  0.76358791708E+03  0.10000000000E+01 0.  0.
    9000005    1    3    3    0    0  0.80616822168E+01 -0.22286686298E+02 -0.24930433776E+02  0.34412405243E+02  0.10000000000E+01 0.  0.
<mgrwt>
<rscale>  0 0.12499755E+03</rscale>
<asrwt>0</asrwt>
<pdfrwt beam="1">  1        4 0.75773216E-03 0.12499755E+03</pdfrwt>
<pdfrwt beam="2">  1       -4 0.12201145E+00 0.12499755E+03</pdfrwt>
<totfact> 0.38356233E+03</totfact>
</mgrwt>
</event>
<event>
 5    1  0.3232465E-002  0.1249985E+03  0.7818608E-02  0.1235072E+00
          4   -1    0    0  501    0  0.00000000000E+00  0.00000000000E+00  0.16255477714E+03  0.16255973816E+03  0.12700000000E+01 0.  1.
         -4   -1    0    0    0  501 -0.00000000000E+00 -0.00000000000E+00 -0.24007676489E+02  0.24041244360E+02  0.12700000000E+01 0.  1.
         25    2    1    2    0    0  0.00000000000E+00  0.00000000000E+00  0.13854710065E+03  0.18660098252E+03  0.12499851031E+03 0.  0.
    9000005    1    3    3    0    0 -0.14267690050E+02 -0.17169323151E+02 -0.17859452174E+02  0.28606164874E+02  0.10000000000E+01 0.  0.
    9000005    1    3    3    0    0  0.14267690050E+02  0.17169323151E+02  0.15640655283E+03  0.15799481765E+03  0.10000000000E+01 0.  0.
<mgrwt>
<rscale>  0 0.12499851E+03</rscale>
<asrwt>0</asrwt>
<pdfrwt beam="1">  1        4 0.25011391E-01 0.12499851E+03</pdfrwt>
<pdfrwt beam="2">  1       -4 0.36964524E-02 0.12499851E+03</pdfrwt>
<totfact> 0.92445204E+03</totfact>
</mgrwt>
</event>
<event>
 5    1  0.3232465E-002  0.1249940E+03  0.7818608E-02  0.1235079E+00
          4   -1    0    0  501    0  0.00000000000E+00  0.00000000000E+00  0.83018722873E+03  0.83018820013E+03  0.12700000000E+01 0.  1.
         -4   -1    0    0    0  501 -0.00000000000E+00 -0.00000000000E+00 -0.46181122218E+01  0.47895574423E+01  0.12700000000E+01 0.  1.
         25    2    1    2    0    0  0.00000000000E+00  0.00000000000E+00  0.82556911651E+03  0.83497775758E+03  0.12499395793E+03 0.  0.
    9000005    1    3    3    0    0  0.36763648681E+02  0.40210121929E+02  0.20836201422E+03  0.21536979533E+03  0.10000000000E+01 0.  0.
    9000005    1    3    3    0    0 -0.36763648681E+02 -0.40210121929E+02  0.61720710229E+03  0.61960796225E+03  0.10000000000E+01 0.  0.
<mgrwt>
<rscale>  0 0.12499396E+03</rscale>
<asrwt>0</asrwt>
<pdfrwt beam="1">  1        4 0.12773456E+00 0.12499396E+03</pdfrwt>
<pdfrwt beam="2">  1       -4 0.72374057E-03 0.12499396E+03</pdfrwt>
<totfact> 0.36754854E+03</totfact>
</mgrwt>
</event>
<event>
 5    1  0.3232465E-002  0.1249987E+03  0.7818608E-02  0.1235071E+00
          4   -1    0    0  501    0  0.00000000000E+00  0.00000000000E+00  0.18718030692E+03  0.18718461528E+03  0.12700000000E+01 0. -1.
         -4   -1    0    0    0  501 -0.00000000000E+00 -0.00000000000E+00 -0.20844620828E+02  0.20883273629E+02  0.12700000000E+01 0. -1.
         25    2    1    2    0    0  0.00000000000E+00  0.00000000000E+00  0.16633568609E+03  0.20806788891E+03  0.12499874371E+03 0.  0.
    9000005    1    3    3    0    0  0.17046067492E+02  0.76007876772E+01  0.18244081725E+03  0.18339572566E+03  0.10000000000E+01 0.  0.
    9000005    1    3    3    0    0 -0.17046067492E+02 -0.76007876772E+01 -0.16105131156E+02  0.24672163257E+02  0.10000000000E+01 0.  0.
<mgrwt>
<rscale>  0 0.12499874E+03</rscale>
<asrwt>0</asrwt>
<pdfrwt beam="1">  1        4 0.28800275E-01 0.12499874E+03</pdfrwt>
<pdfrwt beam="2">  1       -4 0.32101695E-02 0.12499874E+03</pdfrwt>
<totfact> 0.88794889E+03</totfact>
</mgrwt>
</event>
<event>
 5    1  0.3232465E-002  0.1250018E+03  0.7818608E-02  0.1235066E+00
         -4   -1    0    0    0  501 -0.00000000000E+00  0.00000000000E+00  0.15130155511E+02  0.15183362795E+02  0.12700000000E+01 0. -1.
          4   -1    0    0  501    0  0.00000000000E+00 -0.00000000000E+00 -0.25767609228E+03  0.25767922196E+03  0.12700000000E+01 0. -1.
         25    2    1    2    0    0  0.00000000000E+00  0.00000000000E+00 -0.24254593677E+03  0.27286258476E+03  0.12500183486E+03 0.  0.
    9000005    1    3    3    0    0 -0.32724990090E+02  0.21694493650E+02 -0.22740144302E+03  0.23076826540E+03  0.10000000000E+01 0.  0.
    9000005    1    3    3    0    0  0.32724990090E+02 -0.21694493650E+02 -0.15144493751E+02  0.42094319356E+02  0.10000000000E+01 0.  0.
<mgrwt>
<rscale>  0 0.12500183E+03</rscale>
<asrwt>0</asrwt>
<pdfrwt beam="2">  1        4 0.39646806E-01 0.12500183E+03</pdfrwt>
<pdfrwt beam="1">  1       -4 0.23320500E-02 0.12500183E+03</pdfrwt>
<totfact> 0.79130865E+03</totfact>
</mgrwt>
</event>
<event>
 5    1  0.3232465E-002  0.1249996E+03  0.7818608E-02  0.1235070E+00
         -4   -1    0    0    0  501 -0.00000000000E+00  0.00000000000E+00  0.24458529303E+01  0.27559202740E+01  0.12700000000E+01 0. -1.
          4   -1    0    0  501    0  0.00000000000E+00 -0.00000000000E+00 -0.15015716686E+04  0.15015722057E+04  0.12700000000E+01 0. -1.
         25    2    1    2    0    0  0.00000000000E+00  0.00000000000E+00 -0.14991258157E+04  0.15043281259E+04  0.12499959720E+03 0.  0.
    9000005    1    3    3    0    0 -0.41493109999E+02  0.46725853912E+02 -0.75547367784E+03  0.75805439218E+03  0.10000000000E+01 0.  0.
    9000005    1    3    3    0    0  0.41493109999E+02 -0.46725853912E+02 -0.74365213782E+03  0.74627373376E+03  0.10000000000E+01 0.  0.
<mgrwt>
<rscale>  0 0.12499960E+03</rscale>
<asrwt>0</asrwt>
<pdfrwt beam="2">  1        4 0.23103423E+00 0.12499960E+03</pdfrwt>
<pdfrwt beam="1">  1       -4 0.40017891E-03 0.12499960E+03</pdfrwt>
<totfact> 0.17845747E+03</totfact>
</mgrwt>
</event>
<event>
 5    1  0.3232465E-002  0.1250007E+03  0.7818608E-02  0.1235068E+00
          4   -1    0    0  501    0  0.00000000000E+00  0.00000000000E+00  0.71299322991E+01  0.72421567637E+01  0.12700000000E+01 0. -1.
         -4   -1    0    0    0  501 -0.00000000000E+00 -0.00000000000E+00 -0.54348133077E+03  0.54348281463E+03  0.12700000000E+01 0. -1.
         25    2    1    2    0    0  0.00000000000E+00  0.00000000000E+00 -0.53635139847E+03  0.55072497139E+03  0.12500068589E+03 0.  0.
    9000005    1    3    3    0    0  0.16843824788E+02  0.12606212687E+02 -0.52743086177E+03  0.52785125270E+03  0.10000000000E+01 0.  0.
    9000005    1    3    3    0    0 -0.16843824788E+02 -0.12606212687E+02 -0.89205367061E+01  0.22873718694E+02  0.10000000000E+01 0.  0.
<mgrwt>
<rscale>  0 0.12500069E+03</rscale>
<asrwt>0</asrwt>
<pdfrwt beam="1">  1        4 0.11056599E-02 0.12500069E+03</pdfrwt>
<pdfrwt beam="2">  1       -4 0.83621227E-01 0.12500069E+03</pdfrwt>
<totfact> 0.52132665E+03</totfact>
</mgrwt>
</event>
<event>
 5    1  0.3232465E-002  0.1249975E+03  0.7818608E-02  0.1235073E+00
         -4   -1    0    0    0  501 -0.00000000000E+00  0.00000000000E+00  0.80170097059E+02  0.80180155665E+02  0.12700000000E+01 0. -1.
          4   -1    0    0  501    0  0.00000000000E+00 -0.00000000000E+00 -0.48701217398E+02  0.48717773718E+02  0.12700000000E+01 0. -1.
         25    2    1    2    0    0  0.00000000000E+00  0.00000000000E+00  0.31468879662E+02  0.12889792938E+03  0.12499754322E+03 0.  0.
    9000005    1    3    3    0    0 -0.54453396707E+02 -0.17944420572E+01 -0.15826189542E+02  0.56743816497E+02  0.10000000000E+01 0.  0.
    9000005    1    3    3    0    0  0.54453396707E+02  0.17944420572E+01  0.47295069204E+02  0.72154112886E+02  0.10000000000E+01 0.  0.
<mgrwt>
<rscale>  0 0.12499754E+03</rscale>
<asrwt>0</asrwt>
<pdfrwt beam="2">  1        4 0.74945424E-02 0.12499754E+03</pdfrwt>
<pdfrwt beam="1">  1       -4 0.12335908E-01 0.12499754E+03</pdfrwt>
<totfact> 0.10368716E+04</totfact>
</mgrwt>
</event>
<event>
 5    1  0.3232465E-002  0.1250008E+03  0.7818608E-02  0.1235068E+00
          4   -1    0    0  501    0  0.00000000000E+00  0.00000000000E+00  0.39789896957E+03  0.39790099634E+03  0.12700000000E+01 0.  1.
         -4   -1    0    0    0  501 -0.00000000000E+00 -0.00000000000E+00 -0.97741825367E+01  0.98563453806E+01  0.12700000000E+01 0.  1.
         25    2    1    2    0    0  0.00000000000E+00  0.00000000000E+00  0.38812478703E+03  0.40775734172E+03  0.12500079765E+03 0.  0.
    9000005    1    3    3    0    0  0.56972048219E+02 -0.24643419769E+02  0.21762764022E+03  0.22630930649E+03  0.10000000000E+01 0.  0.
    9000005    1    3    3    0    0 -0.56972048219E+02  0.24643419769E+02  0.17049714682E+03  0.18144803523E+03  0.10000000000E+01 0.  0.
<mgrwt>
<rscale>  0 0.12500080E+03</rscale>
<asrwt>0</asrwt>
<pdfrwt beam="1">  1        4 0.61221686E-01 0.12500080E+03</pdfrwt>
<pdfrwt beam="2">  1       -4 0.15101969E-02 0.12500080E+03</pdfrwt>
<totfact> 0.63804133E+03</totfact>
</mgrwt>
</event>
<event>
 5    1  0.3232465E-002  0.1249991E+03  0.7818608E-02  0.1235071E+00
          4   -1    0    0  501    0  0.00000000000E+00  0.00000000000E+00  0.13831991860E+03  0.13832574880E+03  0.12700000000E+01 0. -1.
         -4   -1    0    0    0  501 -0.00000000000E+00 -0.00000000000E+00 -0.28219594306E+02  0.28248157512E+02  0.12700000000E+01 0. -1.
         25    2    1    2    0    0  0.00000000000E+00  0.00000000000E+00  0.11010032429E+03  0.16657390631E+03  0.12499913941E+03 0.  0.
    9000005    1    3    3    0    0  0.12339956624E+01  0.61888648324E+02  0.43627928048E+02  0.75737201180E+02  0.10000000000E+01 0.  0.
    9000005    1    3    3    0    0 -0.12339956624E+01 -0.61888648324E+02  0.66472396242E+02  0.90836705130E+02  0.10000000000E+01 0.  0.
<mgrwt>
<rscale>  0 0.12499914E+03</rscale>
<asrwt>0</asrwt>
<pdfrwt beam="1">  1        4 0.21282632E-01 0.12499914E+03</pdfrwt>
<pdfrwt beam="2">  1       -4 0.43441218E-02 0.12499914E+03</pdfrwt>
<totfact> 0.96092005E+03</totfact>
</mgrwt>
</event>
<event>
 5    1  0.3232465E-002  0.1250002E+03  0.7818608E-02  0.1235069E+00
          4   -1    0    0  501    0  0.00000000000E+00  0.00000000000E+00  0.58827613486E+02  0.58841320587E+02  0.12700000000E+01 0. -1.
         -4   -1    0    0    0  501 -0.00000000000E+00 -0.00000000000E+00 -0.66374344680E+02  0.66386493594E+02  0.12700000000E+01 0. -1.
         25    2    1    2    0    0  0.00000000000E+00  0.00000000000E+00 -0.75467311941E+01  0.12522781418E+03  0.12500020917E+03 0.  0.
    9000005    1    3    3    0    0  0.41208925459E+02  0.41965739084E+02 -0.24929684134E+02  0.63888871843E+02  0.10000000000E+01 0.  0.
    9000005    1    3    3    0    0 -0.41208925459E+02 -0.41965739084E+02  0.17382952940E+02  0.61338942339E+02  0.10000000000E+01 0.  0.
<mgrwt>
<rscale>  0 0.12500021E+03</rscale>
<asrwt>0</asrwt>
<pdfrwt beam="1">  1        4 0.90523909E-02 0.12500021E+03</pdfrwt>
<pdfrwt beam="2">  1       -4 0.10213427E-01 0.12500021E+03</pdfrwt>
<totfact> 0.10447867E+04</totfact>
</mgrwt>
</event>
<event>
 5    1  0.3232465E-002  0.1250006E+03  0.7818608E-02  0.1235068E+00
         -4   -1    0    0    0  501 -0.00000000000E+00  0.00000000000E+00  0.21749887305E+03  0.21750258085E+03  0.12700000000E+01 0.  1.
          4   -1    0    0  501    0  0.00000000000E+00 -0.00000000000E+00 -0.17933705417E+02  0.17978617577E+02  0.12700000000E+01 0.  1.
         25    2    1    2    0    0  0.00000000000E+00  0.00000000000E+00  0.19956516763E+03  0.23548119843E+03  0.12500055473E+03 0.  0.
    9000005    1    3    3    0    0  0.17631897194E+02  0.56855424424E+02  0.13561825458E+03  0.14811054675E+03  0.10000000000E+01 0.  0.
    9000005    1    3    3    0    0 -0.17631897194E+02 -0.56855424424E+02  0.63946913052E+02  0.87370651674E+02  0.10000000000E+01 0.  0.
<mgrwt>
<rscale>  0 0.12500055E+03</rscale>
<asrwt>0</asrwt>
<pdfrwt beam="2">  1        4 0.27627717E-02 0.12500055E+03</pdfrwt>
<pdfrwt beam="1">  1       -4 0.33465104E-01 0.12500055E+03</pdfrwt>
<totfact> 0.84473953E+03</totfact>
</mgrwt>
</event>
<event>
 5    1  0.3232465E-002  0.1249991E+03  0.7818608E-02  0.1235071E+00
          4   -1    0    0  501    0  0.00000000000E+00  0.00000000000E+00  0.24512375676E+02  0.24545253335E+02  0.12700000000E+01 0.  1.
         -4   -1    0    0    0  501 -0.00000000000E+00 -0.00000000000E+00 -0.15921383951E+03  0.15921890463E+03  0.12700000000E+01 0.  1.
         25    2    1    2    0    0  0.00000000000E+00  0.00000000000E+00 -0.13470146384E+03  0.18376415797E+03  0.12499912557E+03 0.  0.
    9000005    1    3    3    0    0  0.46280741491E+02  0.41541085116E+02 -0.76368542493E+02  0.98492248771E+02  0.10000000000E+01 0.  0.
    9000005    1    3    3    0    0 -0.46280741491E+02 -0.41541085116E+02 -0.58332921346E+02  0.85271909198E+02  0.10000000000E+01 0.  0.
<mgrwt>
<rscale>  0 0.12499913E+03</rscale>
<asrwt>0</asrwt>
<pdfrwt beam="1">  1        4 0.37740535E-02 0.12499913E+03</pdfrwt>
<pdfrwt beam="2">  1       -4 0.24497355E-01 0.12499913E+03</pdfrwt>
<totfact> 0.92945619E+03</totfact>
</mgrwt>
</event>
<event>
 5    1  0.3232465E-002  0.1250014E+03  0.7818608E-02  0.1235067E+00
         -4   -1    0    0    0  501 -0.00000000000E+00  0.00000000000E+00  0.22227691964E+02  0.22263943722E+02  0.12700000000E+01 0. -1.
          4   -1    0    0  501    0  0.00000000000E+00 -0.00000000000E+00 -0.17556013512E+03  0.17556472864E+03  0.12700000000E+01 0. -1.
         25    2    1    2    0    0  0.00000000000E+00  0.00000000000E+00 -0.15333244316E+03  0.19782867237E+03  0.12500138193E+03 0.  0.
    9000005    1    3    3    0    0 -0.46064586202E+02 -0.39106522668E+02 -0.10189238749E+03  0.11846655581E+03  0.10000000000E+01 0.  0.
    9000005    1    3    3    0    0  0.46064586202E+02  0.39106522668E+02 -0.51440055670E+02  0.79362116558E+02  0.10000000000E+01 0.  0.
<mgrwt>
<rscale>  0 0.12500138E+03</rscale>
<asrwt>0</asrwt>
<pdfrwt beam="2">  1        4 0.27012393E-01 0.12500138E+03</pdfrwt>
<pdfrwt beam="1">  1       -4 0.34227870E-02 0.12500138E+03</pdfrwt>
<totfact> 0.90499912E+03</totfact>
</mgrwt>
</event>
<event>
 5    1  0.3232465E-002  0.1249993E+03  0.7818608E-02  0.1235070E+00
         -4   -1    0    0    0  501 -0.00000000000E+00  0.00000000000E+00  0.24657954646E+02  0.24690638455E+02  0.12700000000E+01 0. -1.
          4   -1    0    0  501    0  0.00000000000E+00 -0.00000000000E+00 -0.15827554183E+03  0.15828063698E+03  0.12700000000E+01 0. -1.
         25    2    1    2    0    0  0.00000000000E+00  0.00000000000E+00 -0.13361758719E+03  0.18297127543E+03  0.12499931211E+03 0.  0.
    9000005    1    3    3    0    0 -0.25276837333E+02 -0.56670693581E+02 -0.77636893825E+02  0.99393024400E+02  0.10000000000E+01 0.  0.
    9000005    1    3    3    0    0  0.25276837333E+02  0.56670693581E+02 -0.55980693360E+02  0.83578251032E+02  0.10000000000E+01 0.  0.
<mgrwt>
<rscale>  0 0.12499931E+03</rscale>
<asrwt>0</asrwt>
<pdfrwt beam="2">  1        4 0.24352989E-01 0.12499931E+03</pdfrwt>
<pdfrwt beam="1">  1       -4 0.37964377E-02 0.12499931E+03</pdfrwt>
<totfact> 0.93086317E+03</totfact>
</mgrwt>
</event>
<event>
 5    1  0.3232465E-002  0.1250085E+03  0.7818608E-02  0.1235056E+00
          4   -1    0    0  501    0  0.00000000000E+00  0.00000000000E+00  0.90851497948E+02  0.90860374088E+02  0.12700000000E+01 0.  1.
         -4   -1    0    0    0  501 -0.00000000000E+00 -0.00000000000E+00 -0.42981478831E+02  0.43000237470E+02  0.12700000000E+01 0.  1.
         25    2    1    2    0    0  0.00000000000E+00  0.00000000000E+00  0.47870019117E+02  0.13386061156E+03  0.12500849810E+03 0.  0.
    9000005    1    3    3    0    0  0.37307845429E+02  0.35471060766E+02  0.61880300420E+02  0.80499956909E+02  0.10000000000E+01 0.  0.
    9000005    1    3    3    0    0 -0.37307845429E+02 -0.35471060766E+02 -0.14010281303E+02  0.53360654649E+02  0.10000000000E+01 0.  0.
<mgrwt>
<rscale>  0 0.12500850E+03</rscale>
<asrwt>0</asrwt>
<pdfrwt beam="1">  1        4 0.13979279E-01 0.12500850E+03</pdfrwt>
<pdfrwt beam="2">  1       -4 0.66146610E-02 0.12500850E+03</pdfrwt>
<totfact> 0.10260176E+04</totfact>
</mgrwt>
</event>
<event>
 5    1  0.3232465E-002  0.1249867E+03  0.7818608E-02  0.1235090E+00
         -4   -1    0    0    0  501 -0.00000000000E+00  0.00000000000E+00  0.95319615583E+03  0.95319700187E+03  0.12700000000E+01 0. -1.
          4   -1    0    0  501    0  0.00000000000E+00 -0.00000000000E+00 -0.39978972006E+01  0.41947684115E+01  0.12700000000E+01 0. -1.
         25    2    1    2    0    0  0.00000000000E+00  0.00000000000E+00  0.94919825862E+03  0.95739177028E+03  0.12498666982E+03 0.  0.
    9000005    1    3    3    0    0  0.16169030471E+01 -0.58513074064E+02  0.30712402698E+03  0.31265406148E+03  0.10000000000E+01 0.  0.
    9000005    1    3    3    0    0 -0.16169030471E+01  0.58513074064E+02  0.64207423165E+03  0.64473770881E+03  0.10000000000E+01 0.  0.
<mgrwt>
<rscale>  0 0.12498667E+03</rscale>
<asrwt>0</asrwt>
<pdfrwt beam="2">  1        4 0.63027040E-03 0.12498667E+03</pdfrwt>
<pdfrwt beam="1">  1       -4 0.14666071E+00 0.12498667E+03</pdfrwt>
<totfact> 0.32064315E+03</totfact>
</mgrwt>
</event>
<event>
 5    1  0.3232465E-002  0.1250014E+03  0.7818608E-02  0.1235067E+00
         -4   -1    0    0    0  501 -0.00000000000E+00  0.00000000000E+00  0.19162863353E+03  0.19163284188E+03  0.12700000000E+01 0.  1.
          4   -1    0    0  501    0  0.00000000000E+00 -0.00000000000E+00 -0.20360723528E+02  0.20400293199E+02  0.12700000000E+01 0.  1.
         25    2    1    2    0    0  0.00000000000E+00  0.00000000000E+00  0.17126791000E+03  0.21203313508E+03  0.12500141350E+03 0.  0.
    9000005    1    3    3    0    0  0.33267684356E+02 -0.51850510527E+02  0.67833546997E+02  0.91638443694E+02  0.10000000000E+01 0.  0.
    9000005    1    3    3    0    0 -0.33267684356E+02  0.51850510527E+02  0.10343436300E+03  0.12039469138E+03  0.10000000000E+01 0.  0.
<mgrwt>
<rscale>  0 0.12500141E+03</rscale>
<asrwt>0</asrwt>
<pdfrwt beam="2">  1        4 0.31357866E-02 0.12500141E+03</pdfrwt>
<pdfrwt beam="1">  1       -4 0.29484695E-01 0.12500141E+03</pdfrwt>
<totfact> 0.88142131E+03</totfact>
</mgrwt>
</event>
<event>
 5    1  0.3232465E-002  0.1249975E+03  0.7818608E-02  0.1235073E+00
         -4   -1    0    0    0  501 -0.00000000000E+00  0.00000000000E+00  0.95142029366E+02  0.95150505263E+02  0.12700000000E+01 0.  1.
          4   -1    0    0  501    0  0.00000000000E+00 -0.00000000000E+00 -0.41035294192E+02  0.41054942083E+02  0.12700000000E+01 0.  1.
         25    2    1    2    0    0  0.00000000000E+00  0.00000000000E+00  0.54106735173E+02  0.13620544735E+03  0.12499754036E+03 0.  0.
    9000005    1    3    3    0    0 -0.26831355542E+02  0.53977570289E+02  0.90954850824E+01  0.60969070711E+02  0.10000000000E+01 0.  0.
    9000005    1    3    3    0    0  0.26831355542E+02 -0.53977570289E+02  0.45011250091E+02  0.75236376635E+02  0.10000000000E+01 0.  0.
<mgrwt>
<rscale>  0 0.12499754E+03</rscale>
<asrwt>0</asrwt>
<pdfrwt beam="2">  1        4 0.63152857E-02 0.12499754E+03</pdfrwt>
<pdfrwt beam="1">  1       -4 0.14639398E-01 0.12499754E+03</pdfrwt>
<totfact> 0.10213292E+04</totfact>
</mgrwt>
</event>
<event>
 5    1  0.3232465E-002  0.1250010E+03  0.7818608E-02  0.1235068E+00
         -4   -1    0    0    0  501 -0.00000000000E+00  0.00000000000E+00  0.71378473150E+02  0.71389770481E+02  0.12700000000E+01 0.  1.
          4   -1    0    0  501    0  0.00000000000E+00 -0.00000000000E+00 -0.54703776143E+02  0.54718516284E+02  0.12700000000E+01 0.  1.
         25    2    1    2    0    0  0.00000000000E+00  0.00000000000E+00  0.16674697007E+02  0.12610828676E+03  0.12500101788E+03 0.  0.
    9000005    1    3    3    0    0 -0.65553576530E+01 -0.60174444318E+02 -0.73365907032E+01  0.60981653193E+02  0.10000000000E+01 0.  0.
    9000005    1    3    3    0    0  0.65553576530E+01  0.60174444318E+02  0.24011287710E+02  0.65126633572E+02  0.10000000000E+01 0.  0.
<mgrwt>
<rscale>  0 0.12500102E+03</rscale>
<asrwt>0</asrwt>
<pdfrwt beam="2">  1        4 0.84179685E-02 0.12500102E+03</pdfrwt>
<pdfrwt beam="1">  1       -4 0.10983306E-01 0.12500102E+03</pdfrwt>
<totfact> 0.10428346E+04</totfact>
</mgrwt>
</event>
<event>
 4    1  0.3232465E-002  0.1250698E+03  0.7818608E-02  0.1234960E+00
          4   -1    0    0  501    0  0.00000000000E+00  0.00000000000E+00  0.10848866445E+02  0.10922948464E+02  0.12700000000E+01 0.  1.
         -4   -1    0    0    0  501 -0.00000000000E+00 -0.00000000000E+00 -0.35916141943E+03  0.35916366480E+03  0.12700000000E+01 0.  1.
    9000005    1    1    2    0    0  0.25010714363E+02 -0.27359932740E+02 -0.25157108841E+02  0.44810510795E+02  0.10000000000E+01 0.  0.
    9000005    1    1    2    0    0 -0.25010714363E+02  0.27359932740E+02 -0.32315544415E+03  0.32527610246E+03  0.10000000000E+01 0.  0.
<mgrwt>
<rscale>  0 0.12506985E+03</rscale>
<asrwt>0</asrwt>
<pdfrwt beam="1">  1        4 0.16749280E-02 0.12506985E+03</pdfrwt>
<pdfrwt beam="2">  1       -4 0.55261465E-01 0.12506985E+03</pdfrwt>
<totfact> 0.67465647E+03</totfact>
</mgrwt>
</event>
<event>
 5    1  0.3232465E-002  0.1249994E+03  0.7818608E-02  0.1235070E+00
         -4   -1    0    0    0  501 -0.00000000000E+00  0.00000000000E+00  0.30302368078E+02  0.30328969833E+02  0.12700000000E+01 0.  1.
          4   -1    0    0  501    0  0.00000000000E+00 -0.00000000000E+00 -0.12882149459E+03  0.12882775465E+03  0.12700000000E+01 0.  1.
         25    2    1    2    0    0  0.00000000000E+00  0.00000000000E+00 -0.98519126513E+02  0.15915672448E+03  0.12499937864E+03 0.  0.
    9000005    1    3    3    0    0  0.22542565743E+02 -0.30584731145E+02 -0.11243197802E+03  0.11868252917E+03  0.10000000000E+01 0.  0.
    9000005    1    3    3    0    0 -0.22542565743E+02  0.30584731145E+02  0.13912851503E+02  0.40474195316E+02  0.10000000000E+01 0.  0.
<mgrwt>
<rscale>  0 0.12499938E+03</rscale>
<asrwt>0</asrwt>
<pdfrwt beam="2">  1        4 0.19821219E-01 0.12499938E+03</pdfrwt>
<pdfrwt beam="1">  1       -4 0.46644307E-02 0.12499938E+03</pdfrwt>
<totfact> 0.97506970E+03</totfact>
</mgrwt>
</event>
<event>
 5    1  0.3232465E-002  0.1249989E+03  0.7818608E-02  0.1235071E+00
         -4   -1    0    0    0  501 -0.00000000000E+00  0.00000000000E+00  0.68646410362E+02  0.68658157240E+02  0.12700000000E+01 0. -1.
          4   -1    0    0  501    0  0.00000000000E+00 -0.00000000000E+00 -0.56879219985E+02  0.56893396507E+02  0.12700000000E+01 0. -1.
         25    2    1    2    0    0  0.00000000000E+00  0.00000000000E+00  0.11767190377E+02  0.12555155375E+03  0.12499890351E+03 0.  0.
    9000005    1    3    3    0    0 -0.16130786559E+02 -0.49463061779E+02  0.40654342001E+02  0.66034629393E+02  0.10000000000E+01 0.  0.
    9000005    1    3    3    0    0  0.16130786559E+02  0.49463061779E+02 -0.28887151624E+02  0.59516924354E+02  0.10000000000E+01 0.  0.
<mgrwt>
<rscale>  0 0.12499890E+03</rscale>
<asrwt>0</asrwt>
<pdfrwt beam="2">  1        4 0.87526434E-02 0.12499890E+03</pdfrwt>
<pdfrwt beam="1">  1       -4 0.10562980E-01 0.12499890E+03</pdfrwt>
<totfact> 0.10441074E+04</totfact>
</mgrwt>
</event>
<event>
 5    1  0.3232465E-002  0.1250047E+03  0.7818608E-02  0.1235062E+00
          4   -1    0    0  501    0  0.00000000000E+00  0.00000000000E+00  0.11841607356E+03  0.11842288367E+03  0.12700000000E+01 0. -1.
         -4   -1    0    0    0  501 -0.00000000000E+00 -0.00000000000E+00 -0.32969969546E+02  0.32994420617E+02  0.12700000000E+01 0. -1.
         25    2    1    2    0    0  0.00000000000E+00  0.00000000000E+00  0.85446104009E+02  0.15141730428E+03  0.12500465330E+03 0.  0.
    9000005    1    3    3    0    0  0.18493325214E+02  0.54920339790E+02  0.71060431619E+02  0.91699682344E+02  0.10000000000E+01 0.  0.
    9000005    1    3    3    0    0 -0.18493325214E+02 -0.54920339790E+02  0.14385672390E+02  0.59717621941E+02  0.10000000000E+01 0.  0.
<mgrwt>
<rscale>  0 0.12500465E+03</rscale>
<asrwt>0</asrwt>
<pdfrwt beam="1">  1        4 0.18220263E-01 0.12500465E+03</pdfrwt>
<pdfrwt beam="2">  1       -4 0.50747076E-02 0.12500465E+03</pdfrwt>
<totfact> 0.99011558E+03</totfact>
</mgrwt>
</event>
<event>
 5    1  0.3232465E-002  0.1250337E+03  0.7818608E-02  0.1235017E+00
          4   -1    0    0  501    0  0.00000000000E+00  0.00000000000E+00  0.36928747338E+02  0.36950578885E+02  0.12700000000E+01 0. -1.
         -4   -1    0    0    0  501 -0.00000000000E+00 -0.00000000000E+00 -0.10577821222E+03  0.10578583591E+03  0.12700000000E+01 0. -1.
         25    2    1    2    0    0  0.00000000000E+00  0.00000000000E+00 -0.68849464880E+02  0.14273641480E+03  0.12503373663E+03 0.  0.
    9000005    1    3    3    0    0 -0.21549820408E+02 -0.43330523199E+02 -0.79592057962E+02  0.93154842552E+02  0.10000000000E+01 0.  0.
    9000005    1    3    3    0    0  0.21549820408E+02  0.43330523199E+02  0.10742593082E+02  0.49581572246E+02  0.10000000000E+01 0.  0.
<mgrwt>
<rscale>  0 0.12503374E+03</rscale>
<asrwt>0</asrwt>
<pdfrwt beam="1">  1        4 0.56836116E-02 0.12503374E+03</pdfrwt>
<pdfrwt beam="2">  1       -4 0.16275837E-01 0.12503374E+03</pdfrwt>
<totfact> 0.10069530E+04</totfact>
</mgrwt>
</event>
<event>
 5    1  0.3232465E-002  0.1250219E+03  0.7818608E-02  0.1235035E+00
         -4   -1    0    0    0  501 -0.00000000000E+00  0.00000000000E+00  0.80792167106E+02  0.80802148274E+02  0.12700000000E+01 0. -1.
          4   -1    0    0  501    0  0.00000000000E+00 -0.00000000000E+00 -0.48344990808E+02  0.48361669080E+02  0.12700000000E+01 0. -1.
         25    2    1    2    0    0  0.00000000000E+00  0.00000000000E+00  0.32447176298E+02  0.12916381735E+03  0.12502188794E+03 0.  0.
    9000005    1    3    3    0    0  0.29270844154E+02  0.54084095094E+02  0.46845681038E+01  0.61683197371E+02  0.10000000000E+01 0.  0.
    9000005    1    3    3    0    0 -0.29270844154E+02 -0.54084095094E+02  0.27762608194E+02  0.67480619983E+02  0.10000000000E+01 0.  0.
<mgrwt>
<rscale>  0 0.12502189E+03</rscale>
<asrwt>0</asrwt>
<pdfrwt beam="2">  1        4 0.74397416E-02 0.12502189E+03</pdfrwt>
<pdfrwt beam="1">  1       -4 0.12431615E-01 0.12502189E+03</pdfrwt>
<totfact> 0.10357310E+04</totfact>
</mgrwt>
</event>
<event>
 5    1  0.3232465E-002  0.1250002E+03  0.7818608E-02  0.1235069E+00
          4   -1    0    0  501    0  0.00000000000E+00  0.00000000000E+00  0.14453341888E+03  0.14453899845E+03  0.12700000000E+01 0.  1.
         -4   -1    0    0    0  501 -0.00000000000E+00 -0.00000000000E+00 -0.27005686059E+02  0.27035531796E+02  0.12700000000E+01 0.  1.
         25    2    1    2    0    0  0.00000000000E+00  0.00000000000E+00  0.11752773282E+03  0.17157453025E+03  0.12500020579E+03 0.  0.
    9000005    1    3    3    0    0 -0.34283015203E+02 -0.42171063806E+02  0.10110431078E+03  0.11479026706E+03  0.10000000000E+01 0.  0.
    9000005    1    3    3    0    0  0.34283015203E+02  0.42171063806E+02  0.16423422042E+02  0.56784263185E+02  0.10000000000E+01 0.  0.
<mgrwt>
<rscale>  0 0.12500021E+03</rscale>
<asrwt>0</asrwt>
<pdfrwt beam="1">  1        4 0.22238635E-01 0.12500021E+03</pdfrwt>
<pdfrwt beam="2">  1       -4 0.41574461E-02 0.12500021E+03</pdfrwt>
<totfact> 0.95155538E+03</totfact>
</mgrwt>
</event>
<event>
 5    1  0.3232465E-002  0.1249951E+03  0.7818608E-02  0.1235077E+00
         -4   -1    0    0    0  501 -0.00000000000E+00  0.00000000000E+00  0.78204551481E+02  0.78214862861E+02  0.12700000000E+01 0.  1.
          4   -1    0    0  501    0  0.00000000000E+00 -0.00000000000E+00 -0.49923577270E+02  0.49939728348E+02  0.12700000000E+01 0.  1.
         25    2    1    2    0    0  0.00000000000E+00  0.00000000000E+00  0.28280974211E+02  0.12815459121E+03  0.12499514289E+03 0.  0.
    9000005    1    3    3    0    0  0.30433662378E+02 -0.33058579380E+02  0.58664755137E+02  0.73902848197E+02  0.10000000000E+01 0.  0.
    9000005    1    3    3    0    0 -0.30433662378E+02  0.33058579380E+02 -0.30383780927E+02  0.54251743011E+02  0.10000000000E+01 0.  0.
<mgrwt>
<rscale>  0 0.12499514E+03</rscale>
<asrwt>0</asrwt>
<pdfrwt beam="2">  1        4 0.76825859E-02 0.12499514E+03</pdfrwt>
<pdfrwt beam="1">  1       -4 0.12033505E-01 0.12499514E+03</pdfrwt>
<totfact> 0.10385289E+04</totfact>
</mgrwt>
</event>
<event>
 5    1  0.3232465E-002  0.1249985E+03  0.7818608E-02  0.1235072E+00
         -4   -1    0    0    0  501 -0.00000000000E+00  0.00000000000E+00  0.42249397858E+01  0.44116908542E+01  0.12700000000E+01 0. -1.
          4   -1    0    0  501    0  0.00000000000E+00 -0.00000000000E+00 -0.90436859014E+03  0.90436948187E+03  0.12700000000E+01 0. -1.
         25    2    1    2    0    0  0.00000000000E+00  0.00000000000E+00 -0.90014365036E+03  0.90878117273E+03  0.12499851447E+03 0.  0.
    9000005    1    3    3    0    0 -0.29107651647E+02 -0.34241334618E+02 -0.13438242826E+03  0.14170166338E+03  0.10000000000E+01 0.  0.
    9000005    1    3    3    0    0  0.29107651647E+02  0.34241334618E+02 -0.76576122210E+03  0.76707950935E+03  0.10000000000E+01 0.  0.
<mgrwt>
<rscale>  0 0.12499851E+03</rscale>
<asrwt>0</asrwt>
<pdfrwt beam="2">  1        4 0.13914791E+00 0.12499851E+03</pdfrwt>
<pdfrwt beam="1">  1       -4 0.66442552E-03 0.12499851E+03</pdfrwt>
<totfact> 0.33827035E+03</totfact>
</mgrwt>
</event>
<event>
 5    1  0.3232465E-002  0.1250011E+03  0.7818608E-02  0.1235068E+00
          4   -1    0    0  501    0  0.00000000000E+00  0.00000000000E+00  0.99269588654E+03  0.99269669892E+03  0.12700000000E+01 0. -1.
         -4   -1    0    0    0  501 -0.00000000000E+00 -0.00000000000E+00 -0.38317533858E+01  0.40367355635E+01  0.12700000000E+01 0. -1.
         25    2    1    2    0    0  0.00000000000E+00  0.00000000000E+00  0.98886413315E+03  0.99673343449E+03  0.12500106234E+03 0.  0.
    9000005    1    3    3    0    0  0.18156463946E+02  0.59560588835E+02  0.53677247074E+03  0.54037284005E+03  0.10000000000E+01 0.  0.
    9000005    1    3    3    0    0 -0.18156463946E+02 -0.59560588835E+02  0.45209166242E+03  0.45636059443E+03  0.10000000000E+01 0.  0.
<mgrwt>
<rscale>  0 0.12500106E+03</rscale>
<asrwt>0</asrwt>
<pdfrwt beam="1">  1        4 0.15273842E+00 0.12500106E+03</pdfrwt>
<pdfrwt beam="2">  1       -4 0.60533030E-03 0.12500106E+03</pdfrwt>
<totfact> 0.30711840E+03</totfact>
</mgrwt>
</event>
<event>
 5    1  0.3232465E-002  0.1249994E+03  0.7818608E-02  0.1235070E+00
          4   -1    0    0  501    0  0.00000000000E+00  0.00000000000E+00  0.66056772588E+01  0.67266538522E+01  0.12700000000E+01 0.  1.
         -4   -1    0    0    0  501 -0.00000000000E+00 -0.00000000000E+00 -0.58585453358E+03  0.58585591011E+03  0.12700000000E+01 0.  1.
         25    2    1    2    0    0  0.00000000000E+00  0.00000000000E+00 -0.57924885632E+03  0.59258256397E+03  0.12499943027E+03 0.  0.
    9000005    1    3    3    0    0 -0.58985610007E+02  0.17925782340E+02 -0.24114448467E+03  0.24890218630E+03  0.10000000000E+01 0.  0.
    9000005    1    3    3    0    0  0.58985610007E+02 -0.17925782340E+02 -0.33810437165E+03  0.34368037766E+03  0.10000000000E+01 0.  0.
<mgrwt>
<rscale>  0 0.12499943E+03</rscale>
<asrwt>0</asrwt>
<pdfrwt beam="1">  1        4 0.10256703E-02 0.12499943E+03</pdfrwt>
<pdfrwt beam="2">  1       -4 0.90140838E-01 0.12499943E+03</pdfrwt>
<totfact> 0.49339826E+03</totfact>
</mgrwt>
</event>
<event>
 5    1  0.3232465E-002  0.1249967E+03  0.7818608E-02  0.1235074E+00
          4   -1    0    0  501    0  0.00000000000E+00  0.00000000000E+00  0.22409175460E+03  0.22409535332E+03  0.12700000000E+01 0. -1.
         -4   -1    0    0    0  501 -0.00000000000E+00 -0.00000000000E+00 -0.17403679739E+02  0.17449956116E+02  0.12700000000E+01 0. -1.
         25    2    1    2    0    0  0.00000000000E+00  0.00000000000E+00  0.20668807486E+03  0.24154530944E+03  0.12499670484E+03 0.  0.
    9000005    1    3    3    0    0 -0.53087599650E+02 -0.15022407772E+02  0.46639043047E+02  0.72250718392E+02  0.10000000000E+01 0.  0.
    9000005    1    3    3    0    0  0.53087599650E+02  0.15022407772E+02  0.16004903181E+03  0.16929459104E+03  0.10000000000E+01 0.  0.
<mgrwt>
<rscale>  0 0.12499670E+03</rscale>
<asrwt>0</asrwt>
<pdfrwt beam="1">  1        4 0.34479491E-01 0.12499670E+03</pdfrwt>
<pdfrwt beam="2">  1       -4 0.26813257E-02 0.12499670E+03</pdfrwt>
<totfact> 0.83573895E+03</totfact>
</mgrwt>
</event>
<event>
 5    1  0.3232465E-002  0.1249963E+03  0.7818608E-02  0.1235075E+00
         -4   -1    0    0    0  501 -0.00000000000E+00  0.00000000000E+00  0.13091244806E+04  0.13091250966E+04  0.12700000000E+01 0.  1.
          4   -1    0    0  501    0  0.00000000000E+00 -0.00000000000E+00 -0.28478998135E+01  0.31182420284E+01  0.12700000000E+01 0.  1.
         25    2    1    2    0    0  0.00000000000E+00  0.00000000000E+00  0.13062765808E+04  0.13122433386E+04  0.12499629723E+03 0.  0.
    9000005    1    3    3    0    0 -0.27390075821E+02 -0.11408915746E+02  0.75768574849E+02  0.81377248335E+02  0.10000000000E+01 0.  0.
    9000005    1    3    3    0    0  0.27390075821E+02  0.11408915746E+02  0.12305080059E+04  0.12308660903E+04  0.10000000000E+01 0.  0.
<mgrwt>
<rscale>  0 0.12499630E+03</rscale>
<asrwt>0</asrwt>
<pdfrwt beam="2">  1        4 0.45898090E-03 0.12499630E+03</pdfrwt>
<pdfrwt beam="1">  1       -4 0.20142482E+00 0.12499630E+03</pdfrwt>
<totfact> 0.21943126E+03</totfact>
</mgrwt>
</event>
<event>
 5    1  0.3232465E-002  0.1249986E+03  0.7818608E-02  0.1235071E+00
         -4   -1    0    0    0  501 -0.00000000000E+00  0.00000000000E+00  0.41256347255E+02  0.41275889921E+02  0.12700000000E+01 0.  1.
          4   -1    0    0  501    0  0.00000000000E+00 -0.00000000000E+00 -0.94634033592E+02  0.94642554984E+02  0.12700000000E+01 0.  1.
         25    2    1    2    0    0  0.00000000000E+00  0.00000000000E+00 -0.53377686337E+02  0.13591844491E+03  0.12499858506E+03 0.  0.
    9000005    1    3    3    0    0 -0.64407443152E+00  0.26483991837E+02  0.34853659237E+02  0.43790343886E+02  0.10000000000E+01 0.  0.
    9000005    1    3    3    0    0  0.64407443152E+00 -0.26483991837E+02 -0.88231345574E+02  0.92128101019E+02  0.10000000000E+01 0.  0.
<mgrwt>
<rscale>  0 0.12499859E+03</rscale>
<asrwt>0</asrwt>
<pdfrwt beam="2">  1        4 0.14561241E-01 0.12499859E+03</pdfrwt>
<pdfrwt beam="1">  1       -4 0.63492891E-02 0.12499859E+03</pdfrwt>
<totfact> 0.10219075E+04</totfact>
</mgrwt>
</event>
<event>
 5    1  0.3232465E-002  0.1249991E+03  0.7818608E-02  0.1235071E+00
         -4   -1    0    0    0  501 -0.00000000000E+00  0.00000000000E+00  0.42230030584E+03  0.42230221550E+03  0.12700000000E+01 0.  1.
          4   -1    0    0  501    0  0.00000000000E+00 -0.00000000000E+00 -0.92042747256E+01  0.92914785273E+01  0.12700000000E+01 0.  1.
         25    2    1    2    0    0  0.00000000000E+00  0.00000000000E+00  0.41309603112E+03  0.43159369402E+03  0.12499914319E+03 0.  0.
    9000005    1    3    3    0    0  0.42600386840E+02  0.37448536525E+02  0.29711410589E+03  0.30248136764E+03  0.10000000000E+01 0.  0.
    9000005    1    3    3    0    0 -0.42600386840E+02 -0.37448536525E+02  0.11598192522E+03  0.12911232639E+03  0.10000000000E+01 0.  0.
<mgrwt>
<rscale>  0 0.12499914E+03</rscale>
<asrwt>0</asrwt>
<pdfrwt beam="2">  1        4 0.14228973E-02 0.12499914E+03</pdfrwt>
<pdfrwt beam="1">  1       -4 0.64976125E-01 0.12499914E+03</pdfrwt>
<totfact> 0.61592964E+03</totfact>
</mgrwt>
</event>
<event>
 5    1  0.3232465E-002  0.1250002E+03  0.7818608E-02  0.1235069E+00
         -4   -1    0    0    0  501 -0.00000000000E+00  0.00000000000E+00  0.62264936937E+02  0.62277887502E+02  0.12700000000E+01 0. -1.
          4   -1    0    0  501    0  0.00000000000E+00 -0.00000000000E+00 -0.62710242736E+02  0.62723101358E+02  0.12700000000E+01 0. -1.
         25    2    1    2    0    0  0.00000000000E+00  0.00000000000E+00 -0.44530579886E+00  0.12500098886E+03  0.12500019568E+03 0.  0.
    9000005    1    3    3    0    0  0.26443289696E+02  0.31293155428E+01 -0.56758151546E+02  0.62701897520E+02  0.10000000000E+01 0.  0.
    9000005    1    3    3    0    0 -0.26443289696E+02 -0.31293155428E+01  0.56312845747E+02  0.62299091340E+02  0.10000000000E+01 0.  0.
<mgrwt>
<rscale>  0 0.12500020E+03</rscale>
<asrwt>0</asrwt>
<pdfrwt beam="2">  1        4 0.96497150E-02 0.12500020E+03</pdfrwt>
<pdfrwt beam="1">  1       -4 0.95812064E-02 0.12500020E+03</pdfrwt>
<totfact> 0.10452795E+04</totfact>
</mgrwt>
</event>
<event>
 5    1  0.3232465E-002  0.1249999E+03  0.7818608E-02  0.1235069E+00
          4   -1    0    0  501    0  0.00000000000E+00  0.00000000000E+00  0.24184974727E+01  0.27316716540E+01  0.12700000000E+01 0.  1.
         -4   -1    0    0    0  501 -0.00000000000E+00 -0.00000000000E+00 -0.15166243068E+04  0.15166248385E+04  0.12700000000E+01 0.  1.
         25    2    1    2    0    0  0.00000000000E+00  0.00000000000E+00 -0.15142058093E+04  0.15193565102E+04  0.12499988827E+03 0.  0.
    9000005    1    3    3    0    0 -0.72668042219E+01 -0.53692779911E+02 -0.37863514341E+03  0.38249352005E+03  0.10000000000E+01 0.  0.
    9000005    1    3    3    0    0  0.72668042219E+01  0.53692779911E+02 -0.11355706659E+04  0.11368629901E+04  0.10000000000E+01 0.  0.
<mgrwt>
<rscale>  0 0.12499989E+03</rscale>
<asrwt>0</asrwt>
<pdfrwt beam="1">  1        4 0.39620897E-03 0.12499989E+03</pdfrwt>
<pdfrwt beam="2">  1       -4 0.23335023E+00 0.12499989E+03</pdfrwt>
<totfact> 0.17553155E+03</totfact>
</mgrwt>
</event>
<event>
 5    1  0.3232465E-002  0.1249970E+03  0.7818608E-02  0.1235074E+00
          4   -1    0    0  501    0  0.00000000000E+00  0.00000000000E+00  0.36087694012E+02  0.36110034050E+02  0.12700000000E+01 0. -1.
         -4   -1    0    0    0  501 -0.00000000000E+00 -0.00000000000E+00 -0.10817843557E+03  0.10818589012E+03  0.12700000000E+01 0. -1.
         25    2    1    2    0    0  0.00000000000E+00  0.00000000000E+00 -0.72090741557E+02  0.14429592417E+03  0.12499695482E+03 0.  0.
    9000005    1    3    3    0    0 -0.48376928060E+02 -0.32692562945E+02 -0.61753135280E+02  0.84991649927E+02  0.10000000000E+01 0.  0.
    9000005    1    3    3    0    0  0.48376928060E+02  0.32692562945E+02 -0.10337606277E+02  0.59304274247E+02  0.10000000000E+01 0.  0.
<mgrwt>
<rscale>  0 0.12499695E+03</rscale>
<asrwt>0</asrwt>
<pdfrwt beam="1">  1        4 0.55542449E-02 0.12499695E+03</pdfrwt>
<pdfrwt beam="2">  1       -4 0.16645128E-01 0.12499695E+03</pdfrwt>
<totfact> 0.10046002E+04</totfact>
</mgrwt>
</event>
<event>
 5    1  0.3232465E-002  0.1250006E+03  0.7818608E-02  0.1235068E+00
          4   -1    0    0  501    0  0.00000000000E+00  0.00000000000E+00  0.10940269165E+03  0.10941006279E+03  0.12700000000E+01 0. -1.
         -4   -1    0    0    0  501 -0.00000000000E+00 -0.00000000000E+00 -0.35685720728E+02  0.35708312252E+02  0.12700000000E+01 0. -1.
         25    2    1    2    0    0  0.00000000000E+00  0.00000000000E+00  0.73716970920E+02  0.14511837504E+03  0.12500060389E+03 0.  0.
    9000005    1    3    3    0    0 -0.13668294310E+02  0.51045256605E+02 -0.18697824972E+01  0.52886071681E+02  0.10000000000E+01 0.  0.
    9000005    1    3    3    0    0  0.13668294310E+02 -0.51045256605E+02  0.75586753417E+02  0.92232303362E+02  0.10000000000E+01 0.  0.
<mgrwt>
<rscale>  0 0.12500060E+03</rscale>
<asrwt>0</asrwt>
<pdfrwt beam="1">  1        4 0.16833488E-01 0.12500060E+03</pdfrwt>
<pdfrwt beam="2">  1       -4 0.54924157E-02 0.12500060E+03</pdfrwt>
<totfact> 0.10028448E+04</totfact>
</mgrwt>
</event>
<event>
 5    1  0.3232465E-002  0.1250029E+03  0.7818608E-02  0.1235065E+00
          4   -1    0    0  501    0  0.00000000000E+00  0.00000000000E+00  0.73431967585E+03  0.73432077408E+03  0.12700000000E+01 0.  1.
         -4   -1    0    0    0  501 -0.00000000000E+00 -0.00000000000E+00 -0.52428840177E+01  0.53945095072E+01  0.12700000000E+01 0.  1.
         25    2    1    2    0    0  0.00000000000E+00  0.00000000000E+00  0.72907679184E+03  0.73971528359E+03  0.12500292948E+03 0.  0.
    9000005    1    3    3    0    0 -0.46911657771E+02  0.32112750034E+02  0.21096590048E+03  0.21849380658E+03  0.10000000000E+01 0.  0.
    9000005    1    3    3    0    0  0.46911657771E+02 -0.32112750034E+02  0.51811089135E+03  0.52122147700E+03  0.10000000000E+01 0.  0.
<mgrwt>
<rscale>  0 0.12500293E+03</rscale>
<asrwt>0</asrwt>
<pdfrwt beam="1">  1        4 0.11298400E+00 0.12500293E+03</pdfrwt>
<pdfrwt beam="2">  1       -4 0.81834559E-03 0.12500293E+03</pdfrwt>
<totfact> 0.41068324E+03</totfact>
</mgrwt>
</event>
<event>
 5    1  0.3232465E-002  0.1250000E+03  0.7818608E-02  0.1235069E+00
         -4   -1    0    0    0  501 -0.00000000000E+00  0.00000000000E+00  0.97681510161E+02  0.97689765724E+02  0.12700000000E+01 0. -1.
          4   -1    0    0  501    0  0.00000000000E+00 -0.00000000000E+00 -0.39969648885E+02  0.39989820354E+02  0.12700000000E+01 0. -1.
         25    2    1    2    0    0  0.00000000000E+00  0.00000000000E+00  0.57711861276E+02  0.13767958608E+03  0.12500003796E+03 0.  0.
    9000005    1    3    3    0    0  0.25792750737E+02 -0.56803265076E+02  0.32884155922E+02  0.70528324981E+02  0.10000000000E+01 0.  0.
    9000005    1    3    3    0    0 -0.25792750737E+02  0.56803265076E+02  0.24827705354E+02  0.67151261098E+02  0.10000000000E+01 0.  0.
<mgrwt>
<rscale>  0 0.12500004E+03</rscale>
<asrwt>0</asrwt>
<pdfrwt beam="2">  1        4 0.61513635E-02 0.12500004E+03</pdfrwt>
<pdfrwt beam="1">  1       -4 0.15030111E-01 0.12500004E+03</pdfrwt>
<totfact> 0.10181887E+04</totfact>
</mgrwt>
</event>
<event>
 5    1  0.3232465E-002  0.1249993E+03  0.7818608E-02  0.1235070E+00
         -4   -1    0    0    0  501 -0.00000000000E+00  0.00000000000E+00  0.76038734280E+03  0.76038840338E+03  0.12700000000E+01 0. -1.
          4   -1    0    0  501    0  0.00000000000E+00 -0.00000000000E+00 -0.50575567872E+01  0.52145738709E+01  0.12700000000E+01 0. -1.
         25    2    1    2    0    0  0.00000000000E+00  0.00000000000E+00  0.75532978601E+03  0.76560297725E+03  0.12499933253E+03 0.  0.
    9000005    1    3    3    0    0  0.37689627558E+02  0.40864430632E+02  0.55249694219E+03  0.55528756590E+03  0.10000000000E+01 0.  0.
    9000005    1    3    3    0    0 -0.37689627558E+02 -0.40864430632E+02  0.20283284383E+03  0.21031541135E+03  0.10000000000E+01 0.  0.
<mgrwt>
<rscale>  0 0.12499933E+03</rscale>
<asrwt>0</asrwt>
<pdfrwt beam="2">  1        4 0.79024578E-03 0.12499933E+03</pdfrwt>
<pdfrwt beam="1">  1       -4 0.11699478E+00 0.12499933E+03</pdfrwt>
<totfact> 0.39839328E+03</totfact>
</mgrwt>
</event>
<event>
 5    1  0.3232465E-002  0.1250014E+03  0.7818608E-02  0.1235067E+00
          4   -1    0    0  501    0  0.00000000000E+00  0.00000000000E+00  0.10285649401E+02  0.10363758179E+02  0.12700000000E+01 0.  1.
         -4   -1    0    0    0  501 -0.00000000000E+00 -0.00000000000E+00 -0.37826974250E+03  0.37827187444E+03  0.12700000000E+01 0.  1.
         25    2    1    2    0    0  0.00000000000E+00  0.00000000000E+00 -0.36798409310E+03  0.38863563262E+03  0.12500144865E+03 0.  0.
    9000005    1    3    3    0    0 -0.10740201586E+01 -0.62483168299E+02 -0.18461928419E+03  0.19491172344E+03  0.10000000000E+01 0.  0.
    9000005    1    3    3    0    0  0.10740201586E+01  0.62483168299E+02 -0.18336480892E+03  0.19372390918E+03  0.10000000000E+01 0.  0.
<mgrwt>
<rscale>  0 0.12500145E+03</rscale>
<asrwt>0</asrwt>
<pdfrwt beam="1">  1        4 0.15885803E-02 0.12500145E+03</pdfrwt>
<pdfrwt beam="2">  1       -4 0.58201507E-01 0.12500145E+03</pdfrwt>
<totfact> 0.65671191E+03</totfact>
</mgrwt>
</event>
<event>
 5    1  0.3232465E-002  0.1249997E+03  0.7818608E-02  0.1235070E+00
          4   -1    0    0  501    0  0.00000000000E+00  0.00000000000E+00  0.57164362962E+02  0.57178468787E+02  0.12700000000E+01 0.  1.
         -4   -1    0    0    0  501 -0.00000000000E+00 -0.00000000000E+00 -0.68304849579E+02  0.68316655187E+02  0.12700000000E+01 0.  1.
         25    2    1    2    0    0  0.00000000000E+00  0.00000000000E+00 -0.11140486617E+02  0.12549512397E+03  0.12499966280E+03 0.  0.
    9000005    1    3    3    0    0  0.37501288658E+02  0.37401829694E+01  0.44476046153E+02  0.58304839431E+02  0.10000000000E+01 0.  0.
    9000005    1    3    3    0    0 -0.37501288658E+02 -0.37401829694E+01 -0.55616532770E+02  0.67190284543E+02  0.10000000000E+01 0.  0.
<mgrwt>
<rscale>  0 0.12499966E+03</rscale>
<asrwt>0</asrwt>
<pdfrwt beam="1">  1        4 0.87965105E-02 0.12499966E+03</pdfrwt>
<pdfrwt beam="2">  1       -4 0.10510432E-01 0.12499966E+03</pdfrwt>
<totfact> 0.10442141E+04</totfact>
</mgrwt>
</event>
<event>
 5    1  0.3232465E-002  0.1250012E+03  0.7818608E-02  0.1235067E+00
         -4   -1    0    0    0  501 -0.00000000000E+00  0.00000000000E+00  0.57593914564E+02  0.57607915210E+02  0.12700000000E+01 0.  1.
          4   -1    0    0  501    0  0.00000000000E+00 -0.00000000000E+00 -0.67797071235E+02  0.67808965248E+02  0.12700000000E+01 0.  1.
         25    2    1    2    0    0  0.00000000000E+00  0.00000000000E+00 -0.10203156671E+02  0.12541688046E+03  0.12500115799E+03 0.  0.
    9000005    1    3    3    0    0 -0.34547631767E+02  0.29541276738E+01  0.47062258914E+02  0.58464706833E+02  0.10000000000E+01 0.  0.
    9000005    1    3    3    0    0  0.34547631767E+02 -0.29541276738E+01 -0.57265415584E+02  0.66952173625E+02  0.10000000000E+01 0.  0.
<mgrwt>
<rscale>  0 0.12500116E+03</rscale>
<asrwt>0</asrwt>
<pdfrwt beam="2">  1        4 0.10432311E-01 0.12500116E+03</pdfrwt>
<pdfrwt beam="1">  1       -4 0.88625941E-02 0.12500116E+03</pdfrwt>
<totfact> 0.10443520E+04</totfact>
</mgrwt>
</event>
<event>
 5    1  0.3232465E-002  0.1249996E+03  0.7818608E-02  0.1235070E+00
          4   -1    0    0  501    0  0.00000000000E+00  0.00000000000E+00  0.13623690037E+03  0.13624281971E+03  0.12700000000E+01 0.  1.
         -4   -1    0    0    0  501 -0.00000000000E+00 -0.00000000000E+00 -0.28651672403E+02  0.28679805290E+02  0.12700000000E+01 0.  1.
         25    2    1    2    0    0  0.00000000000E+00  0.00000000000E+00  0.10758522797E+03  0.16492262500E+03  0.12499956384E+03 0.  0.
    9000005    1    3    3    0    0 -0.22433373790E+02  0.15120943165E+02 -0.20531359371E+02  0.33976990735E+02  0.10000000000E+01 0.  0.
    9000005    1    3    3    0    0  0.22433373790E+02 -0.15120943165E+02  0.12811658734E+03  0.13094563426E+03  0.10000000000E+01 0.  0.
<mgrwt>
<rscale>  0 0.12499956E+03</rscale>
<asrwt>0</asrwt>
<pdfrwt beam="1">  1        4 0.20962143E-01 0.12499956E+03</pdfrwt>
<pdfrwt beam="2">  1       -4 0.44105689E-02 0.12499956E+03</pdfrwt>
<totfact> 0.96402992E+03</totfact>
</mgrwt>
</event>
<event>
 5    1  0.3232465E-002  0.1250012E+03  0.7818608E-02  0.1235067E+00
         -4   -1    0    0    0  501 -0.00000000000E+00  0.00000000000E+00  0.11026582417E+04  0.11026589730E+04  0.12700000000E+01 0.  1.
          4   -1    0    0  501    0  0.00000000000E+00 -0.00000000000E+00 -0.34280644566E+01  0.36557524422E+01  0.12700000000E+01 0.  1.
         25    2    1    2    0    0  0.00000000000E+00  0.00000000000E+00  0.10992301772E+04  0.11063147255E+04  0.12500115727E+03 0.  0.
    9000005    1    3    3    0    0  0.23012793416E+01  0.13420383259E+02  0.10894133049E+04  0.10894988533E+04  0.10000000000E+01 0.  0.
    9000005    1    3    3    0    0 -0.23012793416E+01 -0.13420383259E+02  0.98168723257E+01  0.16815872136E+02  0.10000000000E+01 0.  0.
<mgrwt>
<rscale>  0 0.12500116E+03</rscale>
<asrwt>0</asrwt>
<pdfrwt beam="2">  1        4 0.54496477E-03 0.12500116E+03</pdfrwt>
<pdfrwt beam="1">  1       -4 0.16965745E+00 0.12500116E+03</pdfrwt>
<totfact> 0.27298593E+03</totfact>
</mgrwt>
</event>
<event>
 5    1  0.3232465E-002  0.1249881E+03  0.7818608E-02  0.1235088E+00
          4   -1    0    0  501    0  0.00000000000E+00  0.00000000000E+00  0.36746131224E+02  0.36768071202E+02  0.12700000000E+01 0.  1.
         -4   -1    0    0    0  501 -0.00000000000E+00 -0.00000000000E+00 -0.10622607923E+03  0.10623367078E+03  0.12700000000E+01 0.  1.
         25    2    1    2    0    0  0.00000000000E+00  0.00000000000E+00 -0.69479948003E+02  0.14300174198E+03  0.12498813958E+03 0.  0.
    9000005    1    3    3    0    0  0.62282378752E+02 -0.32867411317E+01 -0.39113364661E+02  0.73625760881E+02  0.10000000000E+01 0.  0.
    9000005    1    3    3    0    0 -0.62282378752E+02  0.32867411317E+01 -0.30366583343E+02  0.69375981104E+02  0.10000000000E+01 0.  0.
<mgrwt>
<rscale>  0 0.12498814E+03</rscale>
<asrwt>0</asrwt>
<pdfrwt beam="1">  1        4 0.56555227E-02 0.12498814E+03</pdfrwt>
<pdfrwt beam="2">  1       -4 0.16344745E-01 0.12498814E+03</pdfrwt>
<totfact> 0.10074438E+04</totfact>
</mgrwt>
</event>
<event>
 5    1  0.3232465E-002  0.1250025E+03  0.7818608E-02  0.1235065E+00
         -4   -1    0    0    0  501 -0.00000000000E+00  0.00000000000E+00  0.24481735317E+02  0.24514654070E+02  0.12700000000E+01 0.  1.
          4   -1    0    0  501    0  0.00000000000E+00 -0.00000000000E+00 -0.15942155151E+03  0.15942661003E+03  0.12700000000E+01 0.  1.
         25    2    1    2    0    0  0.00000000000E+00  0.00000000000E+00 -0.13493981619E+03  0.18394126410E+03  0.12500253855E+03 0.  0.
    9000005    1    3    3    0    0  0.41810911860E+02 -0.10238964158E+02 -0.80558941310E+00  0.43065504896E+02  0.10000000000E+01 0.  0.
    9000005    1    3    3    0    0 -0.41810911860E+02  0.10238964158E+02 -0.13413422678E+03  0.14087575920E+03  0.10000000000E+01 0.  0.
<mgrwt>
<rscale>  0 0.12500254E+03</rscale>
<asrwt>0</asrwt>
<pdfrwt beam="2">  1        4 0.24529313E-01 0.12500254E+03</pdfrwt>
<pdfrwt beam="1">  1       -4 0.37693422E-02 0.12500254E+03</pdfrwt>
<totfact> 0.92907049E+03</totfact>
</mgrwt>
</event>
<event>
 5    1  0.3232465E-002  0.1249927E+03  0.7818608E-02  0.1235081E+00
          4   -1    0    0  501    0  0.00000000000E+00  0.00000000000E+00  0.14180146141E+02  0.14236904319E+02  0.12700000000E+01 0.  1.
         -4   -1    0    0    0  501 -0.00000000000E+00 -0.00000000000E+00 -0.27483261545E+03  0.27483554977E+03  0.12700000000E+01 0.  1.
         25    2    1    2    0    0  0.00000000000E+00  0.00000000000E+00 -0.26065246931E+03  0.28907245409E+03  0.12499269560E+03 0.  0.
    9000005    1    3    3    0    0 -0.31720867039E+02 -0.24634751079E+02 -0.24104005116E+03  0.24436528115E+03  0.10000000000E+01 0.  0.
    9000005    1    3    3    0    0  0.31720867039E+02  0.24634751079E+02 -0.19612418148E+02  0.44707172937E+02  0.10000000000E+01 0.  0.
<mgrwt>
<rscale>  0 0.12499270E+03</rscale>
<asrwt>0</asrwt>
<pdfrwt beam="1">  1        4 0.21861529E-02 0.12499270E+03</pdfrwt>
<pdfrwt beam="2">  1       -4 0.42286529E-01 0.12499270E+03</pdfrwt>
<totfact> 0.77002835E+03</totfact>
</mgrwt>
</event>
<event>
 5    1  0.3232465E-002  0.1250022E+03  0.7818608E-02  0.1235066E+00
         -4   -1    0    0    0  501 -0.00000000000E+00  0.00000000000E+00  0.10307324619E+02  0.10385270377E+02  0.12700000000E+01 0. -1.
          4   -1    0    0  501    0  0.00000000000E+00 -0.00000000000E+00 -0.37748507439E+03  0.37748721076E+03  0.12700000000E+01 0. -1.
         25    2    1    2    0    0  0.00000000000E+00  0.00000000000E+00 -0.36717774977E+03  0.38787248114E+03  0.12500224676E+03 0.  0.
    9000005    1    3    3    0    0  0.69183347058E+01  0.51725517999E+02 -0.29026801190E+03  0.29492356857E+03  0.10000000000E+01 0.  0.
    9000005    1    3    3    0    0 -0.69183347058E+01 -0.51725517999E+02 -0.76909737869E+02  0.92948912562E+02  0.10000000000E+01 0.  0.
<mgrwt>
<rscale>  0 0.12500225E+03</rscale>
<asrwt>0</asrwt>
<pdfrwt beam="2">  1        4 0.58080776E-01 0.12500225E+03</pdfrwt>
<pdfrwt beam="1">  1       -4 0.15919027E-02 0.12500225E+03</pdfrwt>
<totfact> 0.65746380E+03</totfact>
</mgrwt>
</event>
<event>
 5    1  0.3232465E-002  0.1250117E+03  0.7818608E-02  0.1235051E+00
         -4   -1    0    0    0  501 -0.00000000000E+00  0.00000000000E+00  0.46604186886E+02  0.46621487914E+02  0.12700000000E+01 0.  1.
          4   -1    0    0  501    0  0.00000000000E+00 -0.00000000000E+00 -0.83795645654E+02  0.83805269110E+02  0.12700000000E+01 0.  1.
         25    2    1    2    0    0  0.00000000000E+00  0.00000000000E+00 -0.37191458767E+02  0.13042675702E+03  0.12501173682E+03 0.  0.
    9000005    1    3    3    0    0 -0.22099455843E+02  0.76863292686E+01 -0.79058736896E+02  0.82454529808E+02  0.10000000000E+01 0.  0.
    9000005    1    3    3    0    0  0.22099455843E+02 -0.76863292686E+01  0.41867278129E+02  0.47972227216E+02  0.10000000000E+01 0.  0.
<mgrwt>
<rscale>  0 0.12501174E+03</rscale>
<asrwt>0</asrwt>
<pdfrwt beam="2">  1        4 0.12893709E-01 0.12501174E+03</pdfrwt>
<pdfrwt beam="1">  1       -4 0.71719460E-02 0.12501174E+03</pdfrwt>
<totfact> 0.10332649E+04</totfact>
</mgrwt>
</event>
<event>
 5    1  0.3232465E-002  0.1249995E+03  0.7818608E-02  0.1235070E+00
          4   -1    0    0  501    0  0.00000000000E+00  0.00000000000E+00  0.56663909998E+03  0.56664052319E+03  0.12700000000E+01 0.  1.
         -4   -1    0    0    0  501 -0.00000000000E+00 -0.00000000000E+00 -0.68337286672E+01  0.69507371909E+01  0.12700000000E+01 0.  1.
         25    2    1    2    0    0  0.00000000000E+00  0.00000000000E+00  0.55980537131E+03  0.57359126039E+03  0.12499952096E+03 0.  0.
    9000005    1    3    3    0    0  0.53240635609E+02  0.11657510446E+02  0.42019813790E+03  0.42371917342E+03  0.10000000000E+01 0.  0.
    9000005    1    3    3    0    0 -0.53240635609E+02 -0.11657510446E+02  0.13960723341E+03  0.14987208696E+03  0.10000000000E+01 0.  0.
<mgrwt>
<rscale>  0 0.12499952E+03</rscale>
<asrwt>0</asrwt>
<pdfrwt beam="1">  1        4 0.87184355E-01 0.12499952E+03</pdfrwt>
<pdfrwt beam="2">  1       -4 0.10604530E-02 0.12499952E+03</pdfrwt>
<totfact> 0.50578728E+03</totfact>
</mgrwt>
</event>
<event>
 5    1  0.3232465E-002  0.1250102E+03  0.7818608E-02  0.1235053E+00
          4   -1    0    0  501    0  0.00000000000E+00  0.00000000000E+00  0.13089525965E+04  0.13089532126E+04  0.12700000000E+01 0.  1.
         -4   -1    0    0    0  501 -0.00000000000E+00 -0.00000000000E+00 -0.28490007229E+01  0.31192475245E+01  0.12700000000E+01 0.  1.
         25    2    1    2    0    0  0.00000000000E+00  0.00000000000E+00  0.13061035957E+04  0.13120724601E+04  0.12501015048E+03 0.  0.
    9000005    1    3    3    0    0  0.24075881754E+02  0.52947003033E+01  0.12558212022E+04  0.12560635230E+04  0.10000000000E+01 0.  0.
    9000005    1    3    3    0    0 -0.24075881754E+02 -0.52947003033E+01  0.50282393576E+02  0.56008937120E+02  0.10000000000E+01 0.  0.
<mgrwt>
<rscale>  0 0.12501015E+03</rscale>
<asrwt>0</asrwt>
<pdfrwt beam="1">  1        4 0.20139875E+00 0.12501015E+03</pdfrwt>
<pdfrwt beam="2">  1       -4 0.45914206E-03 0.12501015E+03</pdfrwt>
<totfact> 0.21940416E+03</totfact>
</mgrwt>
</event>
<event>
 5    1  0.3232465E-002  0.1249995E+03  0.7818608E-02  0.1235070E+00
         -4   -1    0    0    0  501 -0.00000000000E+00  0.00000000000E+00  0.12478330536E+03  0.12478976799E+03  0.12700000000E+01 0.  1.
          4   -1    0    0  501    0  0.00000000000E+00 -0.00000000000E+00 -0.31283851924E+02  0.31309619786E+02  0.12700000000E+01 0.  1.
         25    2    1    2    0    0  0.00000000000E+00  0.00000000000E+00  0.93499453434E+02  0.15609938778E+03  0.12499948429E+03 0.  0.
    9000005    1    3    3    0    0 -0.39641601988E+02 -0.48274843665E+02  0.44480952153E+02  0.76690757224E+02  0.10000000000E+01 0.  0.
    9000005    1    3    3    0    0  0.39641601988E+02  0.48274843665E+02  0.49018501281E+02  0.79408630557E+02  0.10000000000E+01 0.  0.
<mgrwt>
<rscale>  0 0.12499948E+03</rscale>
<asrwt>0</asrwt>
<pdfrwt beam="2">  1        4 0.48153796E-02 0.12499948E+03</pdfrwt>
<pdfrwt beam="1">  1       -4 0.19199911E-01 0.12499948E+03</pdfrwt>
<totfact> 0.98101244E+03</totfact>
</mgrwt>
</event>
<event>
 5    1  0.3232465E-002  0.1249994E+03  0.7818608E-02  0.1235070E+00
         -4   -1    0    0    0  501 -0.00000000000E+00  0.00000000000E+00  0.82989504957E+02  0.82999221882E+02  0.12700000000E+01 0.  1.
          4   -1    0    0  501    0  0.00000000000E+00 -0.00000000000E+00 -0.47047699718E+02  0.47064837711E+02  0.12700000000E+01 0.  1.
         25    2    1    2    0    0  0.00000000000E+00  0.00000000000E+00  0.35941805239E+02  0.13006405959E+03  0.12499938493E+03 0.  0.
    9000005    1    3    3    0    0 -0.33970565066E+02 -0.51404479875E+02  0.28823841156E+02  0.68031122739E+02  0.10000000000E+01 0.  0.
    9000005    1    3    3    0    0  0.33970565066E+02  0.51404479875E+02  0.71179640826E+01  0.62032936855E+02  0.10000000000E+01 0.  0.
<mgrwt>
<rscale>  0 0.12499938E+03</rscale>
<asrwt>0</asrwt>
<pdfrwt beam="2">  1        4 0.72401734E-02 0.12499938E+03</pdfrwt>
<pdfrwt beam="1">  1       -4 0.12769682E-01 0.12499938E+03</pdfrwt>
<totfact> 0.10343281E+04</totfact>
</mgrwt>
</event>
<event>
 5    1  0.3232465E-002  0.1249973E+03  0.7818608E-02  0.1235073E+00
         -4   -1    0    0    0  501 -0.00000000000E+00  0.00000000000E+00  0.90040134052E+02  0.90049090168E+02  0.12700000000E+01 0. -1.
          4   -1    0    0  501    0  0.00000000000E+00 -0.00000000000E+00 -0.43361151408E+02  0.43379745866E+02  0.12700000000E+01 0. -1.
         25    2    1    2    0    0  0.00000000000E+00  0.00000000000E+00  0.46678982644E+02  0.13342883603E+03  0.12499730743E+03 0.  0.
    9000005    1    3    3    0    0 -0.10214480327E+02  0.42248633659E+01  0.88993504347E+02  0.89682935360E+02  0.10000000000E+01 0.  0.
    9000005    1    3    3    0    0  0.10214480327E+02 -0.42248633659E+01 -0.42314521703E+02  0.43745900674E+02  0.10000000000E+01 0.  0.
<mgrwt>
<rscale>  0 0.12499731E+03</rscale>
<asrwt>0</asrwt>
<pdfrwt beam="2">  1        4 0.66730657E-02 0.12499731E+03</pdfrwt>
<pdfrwt beam="1">  1       -4 0.13854447E-01 0.12499731E+03</pdfrwt>
<totfact> 0.10271918E+04</totfact>
</mgrwt>
</event>
<event>
 5    1  0.3232465E-002  0.1250001E+03  0.7818608E-02  0.1235069E+00
          4   -1    0    0  501    0  0.00000000000E+00  0.00000000000E+00  0.33579259307E+03  0.33579499469E+03  0.12700000000E+01 0.  1.
         -4   -1    0    0    0  501 -0.00000000000E+00 -0.00000000000E+00 -0.11595835366E+02  0.11665174574E+02  0.12700000000E+01 0.  1.
         25    2    1    2    0    0  0.00000000000E+00  0.00000000000E+00  0.32419675770E+03  0.34746016926E+03  0.12500012608E+03 0.  0.
    9000005    1    3    3    0    0 -0.26647059753E+02 -0.84765025308E+01  0.67508760726E+01  0.28783523349E+02  0.10000000000E+01 0.  0.
    9000005    1    3    3    0    0  0.26647059753E+02  0.84765025308E+01  0.31744588163E+03  0.31867664591E+03  0.10000000000E+01 0.  0.
<mgrwt>
<rscale>  0 0.12500013E+03</rscale>
<asrwt>0</asrwt>
<pdfrwt beam="1">  1        4 0.51665919E-01 0.12500013E+03</pdfrwt>
<pdfrwt beam="2">  1       -4 0.17894932E-02 0.12500013E+03</pdfrwt>
<totfact> 0.70004677E+03</totfact>
</mgrwt>
</event>
<event>
 5    1  0.3232465E-002  0.1250005E+03  0.7818608E-02  0.1235068E+00
         -4   -1    0    0    0  501 -0.00000000000E+00  0.00000000000E+00  0.10659809322E+04  0.10659816887E+04  0.12700000000E+01 0. -1.
          4   -1    0    0  501    0  0.00000000000E+00 -0.00000000000E+00 -0.35536795237E+01  0.37737962527E+01  0.12700000000E+01 0. -1.
         25    2    1    2    0    0  0.00000000000E+00  0.00000000000E+00  0.10624272527E+04  0.10697554850E+04  0.12500052171E+03 0.  0.
    9000005    1    3    3    0    0  0.28095231947E+02  0.55820442585E+02  0.53004213534E+03  0.53371427665E+03  0.10000000000E+01 0.  0.
    9000005    1    3    3    0    0 -0.28095231947E+02 -0.55820442585E+02  0.53238511735E+03  0.53604120834E+03  0.10000000000E+01 0.  0.
<mgrwt>
<rscale>  0 0.12500052E+03</rscale>
<asrwt>0</asrwt>
<pdfrwt beam="2">  1        4 0.56371031E-03 0.12500052E+03</pdfrwt>
<pdfrwt beam="1">  1       -4 0.16401402E+00 0.12500052E+03</pdfrwt>
<totfact> 0.28385542E+03</totfact>
</mgrwt>
</event>
<event>
 5    1  0.3232465E-002  0.1250003E+03  0.7818608E-02  0.1235069E+00
          4   -1    0    0  501    0  0.00000000000E+00  0.00000000000E+00  0.47688866222E+01  0.49350967179E+01  0.12700000000E+01 0.  1.
         -4   -1    0    0    0  501 -0.00000000000E+00 -0.00000000000E+00 -0.80491872565E+03  0.80491972755E+03  0.12700000000E+01 0.  1.
         25    2    1    2    0    0  0.00000000000E+00  0.00000000000E+00 -0.80014983903E+03  0.80985482427E+03  0.12500028599E+03 0.  0.
    9000005    1    3    3    0    0 -0.27408509035E+02  0.52419093187E+02 -0.53066463719E+03  0.53395219343E+03  0.10000000000E+01 0.  0.
    9000005    1    3    3    0    0  0.27408509035E+02 -0.52419093187E+02 -0.26948520183E+03  0.27590263084E+03  0.10000000000E+01 0.  0.
<mgrwt>
<rscale>  0 0.12500029E+03</rscale>
<asrwt>0</asrwt>
<pdfrwt beam="1">  1        4 0.74653797E-03 0.12500029E+03</pdfrwt>
<pdfrwt beam="2">  1       -4 0.12384641E+00 0.12500029E+03</pdfrwt>
<totfact> 0.37828343E+03</totfact>
</mgrwt>
</event>
<event>
 5    1  0.3232465E-002  0.1249990E+03  0.7818608E-02  0.1235071E+00
          4   -1    0    0  501    0  0.00000000000E+00  0.00000000000E+00  0.16203398242E+03  0.16203895939E+03  0.12700000000E+01 0.  1.
         -4   -1    0    0    0  501 -0.00000000000E+00 -0.00000000000E+00 -0.24085152040E+02  0.24118612082E+02  0.12700000000E+01 0.  1.
         25    2    1    2    0    0  0.00000000000E+00  0.00000000000E+00  0.13794883038E+03  0.18615757147E+03  0.12499904644E+03 0.  0.
    9000005    1    3    3    0    0  0.44958693012E+02  0.15305255301E+02  0.12946261122E+03  0.13790251129E+03  0.10000000000E+01 0.  0.
    9000005    1    3    3    0    0 -0.44958693012E+02 -0.15305255301E+02  0.84862191640E+01  0.48255060178E+02  0.10000000000E+01 0.  0.
<mgrwt>
<rscale>  0 0.12499905E+03</rscale>
<asrwt>0</asrwt>
<pdfrwt beam="1">  1        4 0.24931261E-01 0.12499905E+03</pdfrwt>
<pdfrwt beam="2">  1       -4 0.37083648E-02 0.12499905E+03</pdfrwt>
<totfact> 0.92522193E+03</totfact>
</mgrwt>
</event>
<event>
 5    1  0.3232465E-002  0.1249988E+03  0.7818608E-02  0.1235071E+00
          4   -1    0    0  501    0  0.00000000000E+00  0.00000000000E+00  0.35708475540E+01  0.37899673157E+01  0.12700000000E+01 0.  1.
         -4   -1    0    0    0  501 -0.00000000000E+00 -0.00000000000E+00 -0.10611236479E+04  0.10611244079E+04  0.12700000000E+01 0.  1.
         25    2    1    2    0    0  0.00000000000E+00  0.00000000000E+00 -0.10575528004E+04  0.10649143752E+04  0.12499880405E+03 0.  0.
    9000005    1    3    3    0    0  0.25345988522E+02  0.54651757543E+02 -0.67029624877E+03  0.67299873317E+03  0.10000000000E+01 0.  0.
    9000005    1    3    3    0    0 -0.25345988522E+02 -0.54651757543E+02 -0.38725655161E+03  0.39191564207E+03  0.10000000000E+01 0.  0.
<mgrwt>
<rscale>  0 0.12499880E+03</rscale>
<asrwt>0</asrwt>
<pdfrwt beam="1">  1        4 0.56627584E-03 0.12499880E+03</pdfrwt>
<pdfrwt beam="2">  1       -4 0.16326646E+00 0.12499880E+03</pdfrwt>
<totfact> 0.28534410E+03</totfact>
</mgrwt>
</event>
<event>
 5    1  0.3232465E-002  0.1250015E+03  0.7818608E-02  0.1235067E+00
          4   -1    0    0  501    0  0.00000000000E+00  0.00000000000E+00  0.18615611300E+03  0.18616044507E+03  0.12700000000E+01 0.  1.
         -4   -1    0    0    0  501 -0.00000000000E+00 -0.00000000000E+00 -0.20960439797E+02  0.20998879410E+02  0.12700000000E+01 0.  1.
         25    2    1    2    0    0  0.00000000000E+00  0.00000000000E+00  0.16519567320E+03  0.20715932448E+03  0.12500150108E+03 0.  0.
    9000005    1    3    3    0    0 -0.43470322314E+02 -0.20577074872E+02  0.16468205736E+02  0.50845714987E+02  0.10000000000E+01 0.  0.
    9000005    1    3    3    0    0  0.43470322314E+02  0.20577074872E+02  0.14872746747E+03  0.15631360949E+03  0.10000000000E+01 0.  0.
<mgrwt>
<rscale>  0 0.12500150E+03</rscale>
<asrwt>0</asrwt>
<pdfrwt beam="1">  1        4 0.28642691E-01 0.12500150E+03</pdfrwt>
<pdfrwt beam="2">  1       -4 0.32279733E-02 0.12500150E+03</pdfrwt>
<totfact> 0.88938927E+03</totfact>
</mgrwt>
</event>
<event>
 5    1  0.3232465E-002  0.1250032E+03  0.7818608E-02  0.1235064E+00
          4   -1    0    0  501    0  0.00000000000E+00  0.00000000000E+00  0.90985195550E+02  0.90994058648E+02  0.12700000000E+01 0.  1.
         -4   -1    0    0    0  501 -0.00000000000E+00 -0.00000000000E+00 -0.42914665053E+02  0.42933452884E+02  0.12700000000E+01 0.  1.
         25    2    1    2    0    0  0.00000000000E+00  0.00000000000E+00  0.48070530497E+02  0.13392751153E+03  0.12500320973E+03 0.  0.
    9000005    1    3    3    0    0  0.36780875073E+02  0.46201106457E+02  0.45941919131E+02  0.74826699395E+02  0.10000000000E+01 0.  0.
    9000005    1    3    3    0    0 -0.36780875073E+02 -0.46201106457E+02  0.21286113664E+01  0.59100812137E+02  0.10000000000E+01 0.  0.
<mgrwt>
<rscale>  0 0.12500321E+03</rscale>
<asrwt>0</asrwt>
<pdfrwt beam="1">  1        4 0.13999849E-01 0.12500321E+03</pdfrwt>
<pdfrwt beam="2">  1       -4 0.66043833E-02 0.12500321E+03</pdfrwt>
<totfact> 0.10259983E+04</totfact>
</mgrwt>
</event>
<event>
 5    1  0.3232465E-002  0.1249997E+03  0.7818608E-02  0.1235070E+00
         -4   -1    0    0    0  501 -0.00000000000E+00  0.00000000000E+00  0.74043136040E+02  0.74054026864E+02  0.12700000000E+01 0.  1.
          4   -1    0    0  501    0  0.00000000000E+00 -0.00000000000E+00 -0.52733763745E+02  0.52749054387E+02  0.12700000000E+01 0.  1.
         25    2    1    2    0    0  0.00000000000E+00  0.00000000000E+00  0.21309372295E+02  0.12680308125E+03  0.12499972827E+03 0.  0.
    9000005    1    3    3    0    0  0.90201628838E+01  0.45781001177E+02  0.52823247824E+02  0.70488005489E+02  0.10000000000E+01 0.  0.
    9000005    1    3    3    0    0 -0.90201628838E+01 -0.45781001177E+02 -0.31513875528E+02  0.56315075761E+02  0.10000000000E+01 0.  0.
<mgrwt>
<rscale>  0 0.12499973E+03</rscale>
<asrwt>0</asrwt>
<pdfrwt beam="2">  1        4 0.81149007E-02 0.12499973E+03</pdfrwt>
<pdfrwt beam="1">  1       -4 0.11393266E-01 0.12499973E+03</pdfrwt>
<totfact> 0.10413491E+04</totfact>
</mgrwt>
</event>
<event>
 5    1  0.3232465E-002  0.1250008E+03  0.7818608E-02  0.1235068E+00
          4   -1    0    0  501    0  0.00000000000E+00  0.00000000000E+00  0.27324890676E+03  0.27325185808E+03  0.12700000000E+01 0. -1.
         -4   -1    0    0    0  501 -0.00000000000E+00 -0.00000000000E+00 -0.14264505570E+02  0.14320929409E+02  0.12700000000E+01 0. -1.
         25    2    1    2    0    0  0.00000000000E+00  0.00000000000E+00  0.25898440119E+03  0.28757278749E+03  0.12500075218E+03 0.  0.
    9000005    1    3    3    0    0  0.23457192615E+02  0.38669345680E+02  0.30280900607E+02  0.54437956632E+02  0.10000000000E+01 0.  0.
    9000005    1    3    3    0    0 -0.23457192615E+02 -0.38669345680E+02  0.22870350058E+03  0.23313483085E+03  0.10000000000E+01 0.  0.
<mgrwt>
<rscale>  0 0.12500075E+03</rscale>
<asrwt>0</asrwt>
<pdfrwt beam="1">  1        4 0.42042858E-01 0.12500075E+03</pdfrwt>
<pdfrwt beam="2">  1       -4 0.21991068E-02 0.12500075E+03</pdfrwt>
<totfact> 0.77183315E+03</totfact>
</mgrwt>
</event>
<event>
 5    1  0.3232465E-002  0.1250040E+03  0.7818608E-02  0.1235063E+00
         -4   -1    0    0    0  501 -0.00000000000E+00  0.00000000000E+00  0.35672435759E+03  0.35672661829E+03  0.12700000000E+01 0.  1.
          4   -1    0    0  501    0  0.00000000000E+00 -0.00000000000E+00 -0.10911911326E+02  0.10985568205E+02  0.12700000000E+01 0.  1.
         25    2    1    2    0    0  0.00000000000E+00  0.00000000000E+00  0.34581244627E+03  0.36771218650E+03  0.12500401636E+03 0.  0.
    9000005    1    3    3    0    0  0.24179290113E+02  0.56099219994E+02  0.21167968292E+03  0.22032033205E+03  0.10000000000E+01 0.  0.
    9000005    1    3    3    0    0 -0.24179290113E+02 -0.56099219994E+02  0.13413276335E+03  0.14739185445E+03  0.10000000000E+01 0.  0.
<mgrwt>
<rscale>  0 0.12500402E+03</rscale>
<asrwt>0</asrwt>
<pdfrwt beam="2">  1        4 0.16845956E-02 0.12500402E+03</pdfrwt>
<pdfrwt beam="1">  1       -4 0.54886505E-01 0.12500402E+03</pdfrwt>
<totfact> 0.67812946E+03</totfact>
</mgrwt>
</event>
<event>
 5    1  0.3232465E-002  0.1250011E+03  0.7818608E-02  0.1235068E+00
          4   -1    0    0  501    0  0.00000000000E+00  0.00000000000E+00  0.60565747559E+02  0.60579061377E+02  0.12700000000E+01 0.  1.
         -4   -1    0    0    0  501 -0.00000000000E+00 -0.00000000000E+00 -0.64470452957E+02  0.64482960575E+02  0.12700000000E+01 0.  1.
         25    2    1    2    0    0  0.00000000000E+00  0.00000000000E+00 -0.39047053983E+01  0.12506202195E+03  0.12500105044E+03 0.  0.
    9000005    1    3    3    0    0 -0.44566082385E+02  0.19358437568E+02 -0.41270769043E+02  0.63758616529E+02  0.10000000000E+01 0.  0.
    9000005    1    3    3    0    0  0.44566082385E+02 -0.19358437568E+02  0.37366063644E+02  0.61303405424E+02  0.10000000000E+01 0.  0.
<mgrwt>
<rscale>  0 0.12500105E+03</rscale>
<asrwt>0</asrwt>
<pdfrwt beam="1">  1        4 0.93197935E-02 0.12500105E+03</pdfrwt>
<pdfrwt beam="2">  1       -4 0.99205175E-02 0.12500105E+03</pdfrwt>
<totfact> 0.10451268E+04</totfact>
</mgrwt>
</event>
<event>
 5    1  0.3232465E-002  0.1250005E+03  0.7818608E-02  0.1235069E+00
          4   -1    0    0  501    0  0.00000000000E+00  0.00000000000E+00  0.28113597010E+03  0.28113883862E+03  0.12700000000E+01 0.  1.
         -4   -1    0    0    0  501 -0.00000000000E+00 -0.00000000000E+00 -0.13862664333E+02  0.13920717023E+02  0.12700000000E+01 0.  1.
         25    2    1    2    0    0  0.00000000000E+00  0.00000000000E+00  0.26727330576E+03  0.29505955565E+03  0.12500048562E+03 0.  0.
    9000005    1    3    3    0    0 -0.15476420165E+01 -0.60481181026E+02  0.96696139660E+02  0.11406801427E+03  0.10000000000E+01 0.  0.
    9000005    1    3    3    0    0  0.15476420165E+01  0.60481181026E+02  0.17057716610E+03  0.18099154138E+03  0.10000000000E+01 0.  0.
<mgrwt>
<rscale>  0 0.12500049E+03</rscale>
<asrwt>0</asrwt>
<pdfrwt beam="1">  1        4 0.43256375E-01 0.12500049E+03</pdfrwt>
<pdfrwt beam="2">  1       -4 0.21374038E-02 0.12500049E+03</pdfrwt>
<totfact> 0.76221943E+03</totfact>
</mgrwt>
</event>
<event>
 5    1  0.3232465E-002  0.1249999E+03  0.7818608E-02  0.1235069E+00
         -4   -1    0    0    0  501 -0.00000000000E+00  0.00000000000E+00  0.33514730911E+02  0.33538784832E+02  0.12700000000E+01 0. -1.
          4   -1    0    0  501    0  0.00000000000E+00 -0.00000000000E+00 -0.11648367452E+03  0.11649059760E+03  0.12700000000E+01 0. -1.
         25    2    1    2    0    0  0.00000000000E+00  0.00000000000E+00 -0.82968943609E+02  0.15002938243E+03  0.12499987996E+03 0.  0.
    9000005    1    3    3    0    0  0.15473961280E+02  0.36428821734E+02 -0.99528520039E+02  0.10711409259E+03  0.10000000000E+01 0.  0.
    9000005    1    3    3    0    0 -0.15473961280E+02 -0.36428821734E+02  0.16559576430E+02  0.42915289841E+02  0.10000000000E+01 0.  0.
<mgrwt>
<rscale>  0 0.12499988E+03</rscale>
<asrwt>0</asrwt>
<pdfrwt beam="2">  1        4 0.17922948E-01 0.12499988E+03</pdfrwt>
<pdfrwt beam="1">  1       -4 0.51584953E-02 0.12499988E+03</pdfrwt>
<totfact> 0.99298110E+03</totfact>
</mgrwt>
</event>
<event>
 5    1  0.3232465E-002  0.1249524E+03  0.7818608E-02  0.1235144E+00
          4   -1    0    0  501    0  0.00000000000E+00  0.00000000000E+00  0.85744431274E+01  0.86679856337E+01  0.12700000000E+01 0.  1.
         -4   -1    0    0    0  501 -0.00000000000E+00 -0.00000000000E+00 -0.45265807211E+03  0.45265985370E+03  0.12700000000E+01 0.  1.
         25    2    1    2    0    0  0.00000000000E+00  0.00000000000E+00 -0.44408362898E+03  0.46132783933E+03  0.12495241418E+03 0.  0.
    9000005    1    3    3    0    0  0.15232212512E+02  0.41365409432E+02 -0.38545980280E+03  0.38797342302E+03  0.10000000000E+01 0.  0.
    9000005    1    3    3    0    0 -0.15232212512E+02 -0.41365409432E+02 -0.58623826183E+02  0.73354416308E+02  0.10000000000E+01 0.  0.
<mgrwt>
<rscale>  0 0.12495241E+03</rscale>
<asrwt>0</asrwt>
<pdfrwt beam="1">  1        4 0.13264781E-02 0.12495241E+03</pdfrwt>
<pdfrwt beam="2">  1       -4 0.69647018E-01 0.12495241E+03</pdfrwt>
<totfact> 0.59056737E+03</totfact>
</mgrwt>
</event>
<event>
 5    1  0.3232465E-002  0.1249983E+03  0.7818608E-02  0.1235072E+00
         -4   -1    0    0    0  501 -0.00000000000E+00  0.00000000000E+00  0.36460568915E+01  0.38609106252E+01  0.12700000000E+01 0.  1.
          4   -1    0    0  501    0  0.00000000000E+00 -0.00000000000E+00 -0.10404566601E+04  0.10404574352E+04  0.12700000000E+01 0.  1.
         25    2    1    2    0    0  0.00000000000E+00  0.00000000000E+00 -0.10368106032E+04  0.10443183458E+04  0.12499832193E+03 0.  0.
    9000005    1    3    3    0    0 -0.26865192429E+02  0.42489972625E+02 -0.20826749039E+03  0.21425098341E+03  0.10000000000E+01 0.  0.
    9000005    1    3    3    0    0  0.26865192429E+02 -0.42489972625E+02 -0.82854311285E+03  0.83006736244E+03  0.10000000000E+01 0.  0.
<mgrwt>
<rscale>  0 0.12499832E+03</rscale>
<asrwt>0</asrwt>
<pdfrwt beam="2">  1        4 0.16008661E+00 0.12499832E+03</pdfrwt>
<pdfrwt beam="1">  1       -4 0.57751949E-03 0.12499832E+03</pdfrwt>
<totfact> 0.29173949E+03</totfact>
</mgrwt>
</event>
<event>
 5    1  0.3232465E-002  0.1250033E+03  0.7818608E-02  0.1235064E+00
         -4   -1    0    0    0  501 -0.00000000000E+00  0.00000000000E+00  0.51507990307E+02  0.51523644722E+02  0.12700000000E+01 0.  1.
          4   -1    0    0  501    0  0.00000000000E+00 -0.00000000000E+00 -0.75809289500E+02  0.75819926632E+02  0.12700000000E+01 0.  1.
         25    2    1    2    0    0  0.00000000000E+00  0.00000000000E+00 -0.24301299192E+02  0.12734357135E+03  0.12500332805E+03 0.  0.
    9000005    1    3    3    0    0 -0.10815178210E+02  0.59607054417E+02  0.34822937174E+01  0.60688511149E+02  0.10000000000E+01 0.  0.
    9000005    1    3    3    0    0  0.10815178210E+02 -0.59607054417E+02 -0.27783592910E+02  0.66655060205E+02  0.10000000000E+01 0.  0.
<mgrwt>
<rscale>  0 0.12500333E+03</rscale>
<asrwt>0</asrwt>
<pdfrwt beam="2">  1        4 0.11664990E-01 0.12500333E+03</pdfrwt>
<pdfrwt beam="1">  1       -4 0.79263286E-02 0.12500333E+03</pdfrwt>
<totfact> 0.10400908E+04</totfact>
</mgrwt>
</event>
<event>
 5    1  0.3232465E-002  0.1250108E+03  0.7818608E-02  0.1235052E+00
          4   -1    0    0  501    0  0.00000000000E+00  0.00000000000E+00  0.37249798596E+01  0.39355272778E+01  0.12700000000E+01 0.  1.
         -4   -1    0    0    0  501 -0.00000000000E+00 -0.00000000000E+00 -0.10198056571E+04  0.10198064479E+04  0.12700000000E+01 0.  1.
         25    2    1    2    0    0  0.00000000000E+00  0.00000000000E+00 -0.10160806772E+04  0.10237419751E+04  0.12501075575E+03 0.  0.
    9000005    1    3    3    0    0  0.21169412713E+02  0.50325687992E+02 -0.25896068206E+03  0.26465534901E+03  0.10000000000E+01 0.  0.
    9000005    1    3    3    0    0 -0.21169412713E+02 -0.50325687992E+02 -0.75711999516E+03  0.75908662613E+03  0.10000000000E+01 0.  0.
<mgrwt>
<rscale>  0 0.12501076E+03</rscale>
<asrwt>0</asrwt>
<pdfrwt beam="1">  1        4 0.58933142E-03 0.12501076E+03</pdfrwt>
<pdfrwt beam="2">  1       -4 0.15690922E+00 0.12501076E+03</pdfrwt>
<totfact> 0.29822056E+03</totfact>
</mgrwt>
</event>
<event>
 5    1  0.3232465E-002  0.1249998E+03  0.7818608E-02  0.1235070E+00
         -4   -1    0    0    0  501 -0.00000000000E+00  0.00000000000E+00  0.22973305302E+02  0.23008382310E+02  0.12700000000E+01 0.  1.
          4   -1    0    0  501    0  0.00000000000E+00 -0.00000000000E+00 -0.16986659694E+03  0.16987134442E+03  0.12700000000E+01 0.  1.
         25    2    1    2    0    0  0.00000000000E+00  0.00000000000E+00 -0.14689329164E+03  0.19287972673E+03  0.12499979942E+03 0.  0.
    9000005    1    3    3    0    0 -0.40143448220E+02 -0.35792023464E+02 -0.12255005948E+03  0.13383602825E+03  0.10000000000E+01 0.  0.
    9000005    1    3    3    0    0  0.40143448220E+02  0.35792023464E+02 -0.24343232154E+02  0.59043698481E+02  0.10000000000E+01 0.  0.
<mgrwt>
<rscale>  0 0.12499980E+03</rscale>
<asrwt>0</asrwt>
<pdfrwt beam="2">  1        4 0.26136385E-01 0.12499980E+03</pdfrwt>
<pdfrwt beam="1">  1       -4 0.35374182E-02 0.12499980E+03</pdfrwt>
<totfact> 0.91349063E+03</totfact>
</mgrwt>
</event>
<event>
 5    1  0.3232465E-002  0.1250017E+03  0.7818608E-02  0.1235067E+00
          4   -1    0    0  501    0  0.00000000000E+00  0.00000000000E+00  0.30184875440E+03  0.30185142609E+03  0.12700000000E+01 0.  1.
         -4   -1    0    0    0  501 -0.00000000000E+00 -0.00000000000E+00 -0.12907541334E+02  0.12969869825E+02  0.12700000000E+01 0.  1.
         25    2    1    2    0    0  0.00000000000E+00  0.00000000000E+00  0.28894121307E+03  0.31482129591E+03  0.12500169500E+03 0.  0.
    9000005    1    3    3    0    0  0.27637110102E+02 -0.49981873148E+02  0.20835204717E+03  0.21604067455E+03  0.10000000000E+01 0.  0.
    9000005    1    3    3    0    0 -0.27637110102E+02  0.49981873148E+02  0.80589165890E+02  0.98780621364E+02  0.10000000000E+01 0.  0.
<mgrwt>
<rscale>  0 0.12500170E+03</rscale>
<asrwt>0</asrwt>
<pdfrwt beam="1">  1        4 0.46443267E-01 0.12500170E+03</pdfrwt>
<pdfrwt beam="2">  1       -4 0.19907757E-02 0.12500170E+03</pdfrwt>
<totfact> 0.73773554E+03</totfact>
</mgrwt>
</event>
<event>
 5    1  0.3232465E-002  0.1250050E+03  0.7818608E-02  0.1235061E+00
         -4   -1    0    0    0  501 -0.00000000000E+00  0.00000000000E+00  0.83011895034E+02  0.83021609339E+02  0.12700000000E+01 0. -1.
          4   -1    0    0  501    0  0.00000000000E+00 -0.00000000000E+00 -0.47039250104E+02  0.47056391174E+02  0.12700000000E+01 0. -1.
         25    2    1    2    0    0  0.00000000000E+00  0.00000000000E+00  0.35972644931E+02  0.13007800051E+03  0.12500502004E+03 0.  0.
    9000005    1    3    3    0    0  0.12885652740E+02  0.60924008839E+02  0.23471766086E+02  0.66555981720E+02  0.10000000000E+01 0.  0.
    9000005    1    3    3    0    0 -0.12885652740E+02 -0.60924008839E+02  0.12500878845E+02  0.63522018792E+02  0.10000000000E+01 0.  0.
<mgrwt>
<rscale>  0 0.12500502E+03</rscale>
<asrwt>0</asrwt>
<pdfrwt beam="2">  1        4 0.72388736E-02 0.12500502E+03</pdfrwt>
<pdfrwt beam="1">  1       -4 0.12773126E-01 0.12500502E+03</pdfrwt>
<totfact> 0.10341667E+04</totfact>
</mgrwt>
</event>
<event>
 5    1  0.3232465E-002  0.1249991E+03  0.7818608E-02  0.1235071E+00
          4   -1    0    0  501    0  0.00000000000E+00  0.00000000000E+00  0.27426538427E+02  0.27455926684E+02  0.12700000000E+01 0.  1.
         -4   -1    0    0    0  501 -0.00000000000E+00 -0.00000000000E+00 -0.14231544100E+03  0.14232110753E+03  0.12700000000E+01 0.  1.
         25    2    1    2    0    0  0.00000000000E+00  0.00000000000E+00 -0.11488890257E+03  0.16977703421E+03  0.12499912564E+03 0.  0.
    9000005    1    3    3    0    0  0.60969348128E+02 -0.10889961491E+02 -0.46134199342E+02  0.77234817416E+02  0.10000000000E+01 0.  0.
    9000005    1    3    3    0    0 -0.60969348128E+02  0.10889961491E+02 -0.68754703232E+02  0.92542216793E+02  0.10000000000E+01 0.  0.
<mgrwt>
<rscale>  0 0.12499913E+03</rscale>
<asrwt>0</asrwt>
<pdfrwt beam="1">  1        4 0.42221641E-02 0.12499913E+03</pdfrwt>
<pdfrwt beam="2">  1       -4 0.21897379E-01 0.12499913E+03</pdfrwt>
<totfact> 0.95492085E+03</totfact>
</mgrwt>
</event>
<event>
 5    1  0.3232465E-002  0.1250042E+03  0.7818608E-02  0.1235063E+00
         -4   -1    0    0    0  501 -0.00000000000E+00  0.00000000000E+00  0.33037536657E+03  0.33037780757E+03  0.12700000000E+01 0.  1.
          4   -1    0    0  501    0  0.00000000000E+00 -0.00000000000E+00 -0.11787874252E+02  0.11856090392E+02  0.12700000000E+01 0.  1.
         25    2    1    2    0    0  0.00000000000E+00  0.00000000000E+00  0.31858749232E+03  0.34223389797E+03  0.12500420255E+03 0.  0.
    9000005    1    3    3    0    0  0.15076250851E+02 -0.59865983541E+02  0.13271001808E+03  0.14637000453E+03  0.10000000000E+01 0.  0.
    9000005    1    3    3    0    0 -0.15076250851E+02  0.59865983541E+02  0.18587747424E+03  0.19586389344E+03  0.10000000000E+01 0.  0.
<mgrwt>
<rscale>  0 0.12500420E+03</rscale>
<asrwt>0</asrwt>
<pdfrwt beam="2">  1        4 0.18189542E-02 0.12500420E+03</pdfrwt>
<pdfrwt beam="1">  1       -4 0.50832417E-01 0.12500420E+03</pdfrwt>
<totfact> 0.70580886E+03</totfact>
</mgrwt>
</event>
<event>
 5    1  0.3232465E-002  0.1249932E+03  0.7818608E-02  0.1235080E+00
          4   -1    0    0  501    0  0.00000000000E+00  0.00000000000E+00  0.43587875955E+03  0.43588060972E+03  0.12700000000E+01 0. -1.
         -4   -1    0    0    0  501 -0.00000000000E+00 -0.00000000000E+00 -0.89139357343E+01  0.90039519254E+01  0.12700000000E+01 0. -1.
         25    2    1    2    0    0  0.00000000000E+00  0.00000000000E+00  0.42696482382E+03  0.44488456165E+03  0.12499324946E+03 0.  0.
    9000005    1    3    3    0    0 -0.23979581913E+02 -0.45696644984E+02  0.33889926353E+03  0.34280740151E+03  0.10000000000E+01 0.  0.
    9000005    1    3    3    0    0  0.23979581913E+02  0.45696644984E+02  0.88065560291E+02  0.10207716013E+03  0.10000000000E+01 0.  0.
<mgrwt>
<rscale>  0 0.12499325E+03</rscale>
<asrwt>0</asrwt>
<pdfrwt beam="1">  1        4 0.67065337E-01 0.12499325E+03</pdfrwt>
<pdfrwt beam="2">  1       -4 0.13784414E-02 0.12499325E+03</pdfrwt>
<totfact> 0.60418505E+03</totfact>
</mgrwt>
</event>
<event>
 5    1  0.3232465E-002  0.1250134E+03  0.7818608E-02  0.1235048E+00
         -4   -1    0    0    0  501 -0.00000000000E+00  0.00000000000E+00  0.60834293345E+03  0.60834425910E+03  0.12700000000E+01 0. -1.
          4   -1    0    0  501    0  0.00000000000E+00 -0.00000000000E+00 -0.63583822103E+01  0.64839744241E+01  0.12700000000E+01 0. -1.
         25    2    1    2    0    0  0.00000000000E+00  0.00000000000E+00  0.60198455124E+03  0.61482823352E+03  0.12501342650E+03 0.  0.
    9000005    1    3    3    0    0  0.44371986084E+02 -0.85200157878E+01  0.51336216439E+03  0.51534762602E+03  0.10000000000E+01 0.  0.
    9000005    1    3    3    0    0 -0.44371986084E+02  0.85200157878E+01  0.88622386851E+02  0.99480607503E+02  0.10000000000E+01 0.  0.
<mgrwt>
<rscale>  0 0.12501343E+03</rscale>
<asrwt>0</asrwt>
<pdfrwt beam="2">  1        4 0.98797560E-03 0.12501343E+03</pdfrwt>
<pdfrwt beam="1">  1       -4 0.93600979E-01 0.12501343E+03</pdfrwt>
<totfact> 0.47930684E+03</totfact>
</mgrwt>
</event>
<event>
 5    1  0.3232465E-002  0.1250025E+03  0.7818608E-02  0.1235065E+00
          4   -1    0    0  501    0  0.00000000000E+00  0.00000000000E+00  0.14415693742E+03  0.14416253156E+03  0.12700000000E+01 0.  1.
         -4   -1    0    0    0  501 -0.00000000000E+00 -0.00000000000E+00 -0.27077290663E+02  0.27107057562E+02  0.12700000000E+01 0.  1.
         25    2    1    2    0    0  0.00000000000E+00  0.00000000000E+00  0.11707964676E+03  0.17126958912E+03  0.12500251387E+03 0.  0.
    9000005    1    3    3    0    0 -0.44368141345E+01 -0.48490465131E+02  0.11220966593E+03  0.12232342235E+03  0.10000000000E+01 0.  0.
    9000005    1    3    3    0    0  0.44368141345E+01  0.48490465131E+02  0.48699808282E+01  0.48946166770E+02  0.10000000000E+01 0.  0.
<mgrwt>
<rscale>  0 0.12500251E+03</rscale>
<asrwt>0</asrwt>
<pdfrwt beam="1">  1        4 0.22180710E-01 0.12500251E+03</pdfrwt>
<pdfrwt beam="2">  1       -4 0.41684572E-02 0.12500251E+03</pdfrwt>
<totfact> 0.95207159E+03</totfact>
</mgrwt>
</event>
<event>
 5    1  0.3232465E-002  0.1249995E+03  0.7818608E-02  0.1235070E+00
         -4   -1    0    0    0  501 -0.00000000000E+00  0.00000000000E+00  0.15098152488E+04  0.15098157830E+04  0.12700000000E+01 0.  1.
          4   -1    0    0  501    0  0.00000000000E+00 -0.00000000000E+00 -0.24307960392E+01  0.27425662041E+01  0.12700000000E+01 0.  1.
         25    2    1    2    0    0  0.00000000000E+00  0.00000000000E+00  0.15073844528E+04  0.15125583492E+04  0.12499948454E+03 0.  0.
    9000005    1    3    3    0    0  0.56515664734E+02  0.24684401230E+02  0.87582820245E+03  0.87799736915E+03  0.10000000000E+01 0.  0.
    9000005    1    3    3    0    0 -0.56515664734E+02 -0.24684401230E+02  0.63155625033E+03  0.63456098001E+03  0.10000000000E+01 0.  0.
<mgrwt>
<rscale>  0 0.12499948E+03</rscale>
<asrwt>0</asrwt>
<pdfrwt beam="2">  1        4 0.39799162E-03 0.12499948E+03</pdfrwt>
<pdfrwt beam="1">  1       -4 0.23230353E+00 0.12499948E+03</pdfrwt>
<totfact> 0.17685027E+03</totfact>
</mgrwt>
</event>
<event>
 5    1  0.3232465E-002  0.1250042E+03  0.7818608E-02  0.1235063E+00
         -4   -1    0    0    0  501 -0.00000000000E+00  0.00000000000E+00  0.96092413227E+02  0.96100805303E+02  0.12700000000E+01 0. -1.
          4   -1    0    0  501    0  0.00000000000E+00 -0.00000000000E+00 -0.40633645775E+02  0.40653487783E+02  0.12700000000E+01 0. -1.
         25    2    1    2    0    0  0.00000000000E+00  0.00000000000E+00  0.55458767452E+02  0.13675429309E+03  0.12500424709E+03 0.  0.
    9000005    1    3    3    0    0  0.58095829586E+01  0.48537549000E+02  0.70323268851E+02  0.85650493629E+02  0.10000000000E+01 0.  0.
    9000005    1    3    3    0    0 -0.58095829586E+01 -0.48537549000E+02 -0.14864501398E+02  0.51103799457E+02  0.10000000000E+01 0.  0.
<mgrwt>
<rscale>  0 0.12500425E+03</rscale>
<asrwt>0</asrwt>
<pdfrwt beam="2">  1        4 0.62535020E-02 0.12500425E+03</pdfrwt>
<pdfrwt beam="1">  1       -4 0.14785620E-01 0.12500425E+03</pdfrwt>
<totfact> 0.10200249E+04</totfact>
</mgrwt>
</event>
<event>
 5    1  0.3232465E-002  0.1250044E+03  0.7818608E-02  0.1235062E+00
         -4   -1    0    0    0  501 -0.00000000000E+00  0.00000000000E+00  0.22712183686E+01  0.26021784870E+01  0.12700000000E+01 0. -1.
          4   -1    0    0  501    0  0.00000000000E+00 -0.00000000000E+00 -0.16028734346E+04  0.16028739377E+04  0.12700000000E+01 0. -1.
         25    2    1    2    0    0  0.00000000000E+00  0.00000000000E+00 -0.16006022163E+04  0.16054761162E+04  0.12500442045E+03 0.  0.
    9000005    1    3    3    0    0  0.20656361970E+02 -0.11560389755E+02 -0.15431310780E+04  0.15433129468E+04  0.10000000000E+01 0.  0.
    9000005    1    3    3    0    0 -0.20656361970E+02  0.11560389755E+02 -0.57471138263E+02  0.62163169436E+02  0.10000000000E+01 0.  0.
<mgrwt>
<rscale>  0 0.12500442E+03</rscale>
<asrwt>0</asrwt>
<pdfrwt beam="2">  1        4 0.24662057E+00 0.12500442E+03</pdfrwt>
<pdfrwt beam="1">  1       -4 0.37491666E-03 0.12500442E+03</pdfrwt>
<totfact> 0.15946005E+03</totfact>
</mgrwt>
</event>
<event>
 5    1  0.3232465E-002  0.1249914E+03  0.7818608E-02  0.1235083E+00
         -4   -1    0    0    0  501 -0.00000000000E+00  0.00000000000E+00  0.25636852948E+02  0.25668290342E+02  0.12700000000E+01 0.  1.
          4   -1    0    0  501    0  0.00000000000E+00 -0.00000000000E+00 -0.15222005676E+03  0.15222535459E+03  0.12700000000E+01 0.  1.
         25    2    1    2    0    0  0.00000000000E+00  0.00000000000E+00 -0.12658320382E+03  0.17789364494E+03  0.12499136538E+03 0.  0.
    9000005    1    3    3    0    0 -0.38906293234E+02 -0.32653381923E+02 -0.11489160335E+02  0.52085927172E+02  0.10000000000E+01 0.  0.
    9000005    1    3    3    0    0  0.38906293234E+02  0.32653381923E+02 -0.11509404348E+03  0.12580771776E+03  0.10000000000E+01 0.  0.
<mgrwt>
<rscale>  0 0.12499137E+03</rscale>
<asrwt>0</asrwt>
<pdfrwt beam="2">  1        4 0.23421296E-01 0.12499137E+03</pdfrwt>
<pdfrwt beam="1">  1       -4 0.39469571E-02 0.12499137E+03</pdfrwt>
<totfact> 0.94015738E+03</totfact>
</mgrwt>
</event>
<event>
 5    1  0.3232465E-002  0.1249977E+03  0.7818608E-02  0.1235073E+00
          4   -1    0    0  501    0  0.00000000000E+00  0.00000000000E+00  0.13209788212E+03  0.13210398692E+03  0.12700000000E+01 0.  1.
         -4   -1    0    0    0  501 -0.00000000000E+00 -0.00000000000E+00 -0.29549337970E+02  0.29576617022E+02  0.12700000000E+01 0.  1.
         25    2    1    2    0    0  0.00000000000E+00  0.00000000000E+00  0.10254854415E+03  0.16168060395E+03  0.12499765512E+03 0.  0.
    9000005    1    3    3    0    0  0.54768032078E+02  0.22800026573E+02  0.25870693908E+02  0.64727670688E+02  0.10000000000E+01 0.  0.
    9000005    1    3    3    0    0 -0.54768032078E+02 -0.22800026573E+02  0.76677850244E+02  0.96952933259E+02  0.10000000000E+01 0.  0.
<mgrwt>
<rscale>  0 0.12499766E+03</rscale>
<asrwt>0</asrwt>
<pdfrwt beam="1">  1        4 0.20325319E-01 0.12499766E+03</pdfrwt>
<pdfrwt beam="2">  1       -4 0.45486201E-02 0.12499766E+03</pdfrwt>
<totfact> 0.97024866E+03</totfact>
</mgrwt>
</event>
<event>
 5    1  0.3232465E-002  0.1250008E+03  0.7818608E-02  0.1235068E+00
          4   -1    0    0  501    0  0.00000000000E+00  0.00000000000E+00  0.12235637026E+03  0.12236296108E+03  0.12700000000E+01 0. -1.
         -4   -1    0    0    0  501 -0.00000000000E+00 -0.00000000000E+00 -0.31905490375E+02  0.31930756585E+02  0.12700000000E+01 0. -1.
         25    2    1    2    0    0  0.00000000000E+00  0.00000000000E+00  0.90450879889E+02  0.15429371766E+03  0.12500075855E+03 0.  0.
    9000005    1    3    3    0    0 -0.30822878142E+02 -0.53390087583E+02  0.57858385071E+02  0.84552610793E+02  0.10000000000E+01 0.  0.
    9000005    1    3    3    0    0  0.30822878142E+02  0.53390087583E+02  0.32592494818E+02  0.69741106870E+02  0.10000000000E+01 0.  0.
<mgrwt>
<rscale>  0 0.12500076E+03</rscale>
<asrwt>0</asrwt>
<pdfrwt beam="1">  1        4 0.18826507E-01 0.12500076E+03</pdfrwt>
<pdfrwt beam="2">  1       -4 0.49109876E-02 0.12500076E+03</pdfrwt>
<totfact> 0.98452650E+03</totfact>
</mgrwt>
</event>
<event>
 5    1  0.3232465E-002  0.1250013E+03  0.7818608E-02  0.1235067E+00
         -4   -1    0    0    0  501 -0.00000000000E+00  0.00000000000E+00  0.33513077871E+03  0.33513318508E+03  0.12700000000E+01 0.  1.
          4   -1    0    0  501    0  0.00000000000E+00 -0.00000000000E+00 -0.11619096171E+02  0.11688297388E+02  0.12700000000E+01 0.  1.
         25    2    1    2    0    0  0.00000000000E+00  0.00000000000E+00  0.32351168254E+03  0.34682148247E+03  0.12500132783E+03 0.  0.
    9000005    1    3    3    0    0 -0.29759394012E+02  0.37721012089E+02  0.50883908790E+02  0.69990488345E+02  0.10000000000E+01 0.  0.
    9000005    1    3    3    0    0  0.29759394012E+02 -0.37721012089E+02  0.27262777375E+03  0.27683099412E+03  0.10000000000E+01 0.  0.
<mgrwt>
<rscale>  0 0.12500133E+03</rscale>
<asrwt>0</asrwt>
<pdfrwt beam="2">  1        4 0.17930619E-02 0.12500133E+03</pdfrwt>
<pdfrwt beam="1">  1       -4 0.51564080E-01 0.12500133E+03</pdfrwt>
<totfact> 0.70073598E+03</totfact>
</mgrwt>
</event>
<event>
 5    1  0.3232465E-002  0.1249990E+03  0.7818608E-02  0.1235071E+00
         -4   -1    0    0    0  501 -0.00000000000E+00  0.00000000000E+00  0.36002472813E+02  0.36024865700E+02  0.12700000000E+01 0.  1.
          4   -1    0    0  501    0  0.00000000000E+00 -0.00000000000E+00 -0.10843790998E+03  0.10844534670E+03  0.12700000000E+01 0.  1.
         25    2    1    2    0    0  0.00000000000E+00  0.00000000000E+00 -0.72435437168E+02  0.14447021240E+03  0.12499899885E+03 0.  0.
    9000005    1    3    3    0    0 -0.51873448641E+02 -0.10682543128E+02 -0.74554068473E+02  0.91456440602E+02  0.10000000000E+01 0.  0.
    9000005    1    3    3    0    0  0.51873448641E+02  0.10682543128E+02  0.21186313058E+01  0.53013771798E+02  0.10000000000E+01 0.  0.
<mgrwt>
<rscale>  0 0.12499900E+03</rscale>
<asrwt>0</asrwt>
<pdfrwt beam="2">  1        4 0.16685050E-01 0.12499900E+03</pdfrwt>
<pdfrwt beam="1">  1       -4 0.55411366E-02 0.12499900E+03</pdfrwt>
<totfact> 0.10041990E+04</totfact>
</mgrwt>
</event>
<event>
 5    1  0.3232465E-002  0.1250019E+03  0.7818608E-02  0.1235066E+00
          4   -1    0    0  501    0  0.00000000000E+00  0.00000000000E+00  0.40478046799E+03  0.40478246030E+03  0.12700000000E+01 0. -1.
         -4   -1    0    0    0  501 -0.00000000000E+00 -0.00000000000E+00 -0.96067711414E+01  0.96903535417E+01  0.12700000000E+01 0. -1.
         25    2    1    2    0    0  0.00000000000E+00  0.00000000000E+00  0.39517369685E+03  0.41447281384E+03  0.12500185092E+03 0.  0.
    9000005    1    3    3    0    0 -0.24966210212E+02  0.50596569291E+02  0.28668333891E+03  0.29218429336E+03  0.10000000000E+01 0.  0.
    9000005    1    3    3    0    0  0.24966210212E+02 -0.50596569291E+02  0.10849035794E+03  0.12228852048E+03  0.10000000000E+01 0.  0.
<mgrwt>
<rscale>  0 0.12500185E+03</rscale>
<asrwt>0</asrwt>
<pdfrwt beam="1">  1        4 0.62280479E-01 0.12500185E+03</pdfrwt>
<pdfrwt beam="2">  1       -4 0.14845480E-02 0.12500185E+03</pdfrwt>
<totfact> 0.63166538E+03</totfact>
</mgrwt>
</event>
<event>
 5    1  0.3232465E-002  0.1249916E+03  0.7818608E-02  0.1235082E+00
          4   -1    0    0  501    0  0.00000000000E+00  0.00000000000E+00  0.13371409059E+02  0.13431585171E+02  0.12700000000E+01 0. -1.
         -4   -1    0    0    0  501 -0.00000000000E+00 -0.00000000000E+00 -0.29137771064E+03  0.29138047834E+03  0.12700000000E+01 0. -1.
         25    2    1    2    0    0  0.00000000000E+00  0.00000000000E+00 -0.27800630158E+03  0.30481206351E+03  0.12499156109E+03 0.  0.
    9000005    1    3    3    0    0 -0.41922555518E+02 -0.45418113022E+02 -0.16140924958E+03  0.17284169492E+03  0.10000000000E+01 0.  0.
    9000005    1    3    3    0    0  0.41922555518E+02  0.45418113022E+02 -0.11659705200E+03  0.13197036859E+03  0.10000000000E+01 0.  0.
<mgrwt>
<rscale>  0 0.12499156E+03</rscale>
<asrwt>0</asrwt>
<pdfrwt beam="1">  1        4 0.20619819E-02 0.12499156E+03</pdfrwt>
<pdfrwt beam="2">  1       -4 0.44832177E-01 0.12499156E+03</pdfrwt>
<totfact> 0.75013209E+03</totfact>
</mgrwt>
</event>
<event>
 5    1  0.3232465E-002  0.1249996E+03  0.7818608E-02  0.1235070E+00
          4   -1    0    0  501    0  0.00000000000E+00  0.00000000000E+00  0.46101623757E+03  0.46101798685E+03  0.12700000000E+01 0.  1.
         -4   -1    0    0    0  501 -0.00000000000E+00 -0.00000000000E+00 -0.84237114246E+01  0.85189092122E+01  0.12700000000E+01 0.  1.
         25    2    1    2    0    0  0.00000000000E+00  0.00000000000E+00  0.45259252614E+03  0.46953689606E+03  0.12499960818E+03 0.  0.
    9000005    1    3    3    0    0 -0.32202939668E+02 -0.50464407374E+02  0.15893993157E+03  0.16984283200E+03  0.10000000000E+01 0.  0.
    9000005    1    3    3    0    0  0.32202939668E+02  0.50464407374E+02  0.29365259457E+03  0.29969406406E+03  0.10000000000E+01 0.  0.
<mgrwt>
<rscale>  0 0.12499961E+03</rscale>
<asrwt>0</asrwt>
<pdfrwt beam="1">  1        4 0.70933026E-01 0.12499961E+03</pdfrwt>
<pdfrwt beam="2">  1       -4 0.13034132E-02 0.12499961E+03</pdfrwt>
<totfact> 0.58308407E+03</totfact>
</mgrwt>
</event>
<event>
 5    1  0.3232465E-002  0.1249981E+03  0.7818608E-02  0.1235072E+00
          4   -1    0    0  501    0  0.00000000000E+00  0.00000000000E+00  0.11957346068E+02  0.12024600825E+02  0.12700000000E+01 0.  1.
         -4   -1    0    0    0  501 -0.00000000000E+00 -0.00000000000E+00 -0.32568747032E+03  0.32568994646E+03  0.12700000000E+01 0.  1.
         25    2    1    2    0    0  0.00000000000E+00  0.00000000000E+00 -0.31373012425E+03  0.33771454728E+03  0.12499809832E+03 0.  0.
    9000005    1    3    3    0    0 -0.24088562114E+02 -0.57534488025E+02 -0.14652223168E+03  0.15924898905E+03  0.10000000000E+01 0.  0.
    9000005    1    3    3    0    0  0.24088562114E+02  0.57534488025E+02 -0.16720789257E+03  0.17846555823E+03  0.10000000000E+01 0.  0.
<mgrwt>
<rscale>  0 0.12499810E+03</rscale>
<asrwt>0</asrwt>
<pdfrwt beam="1">  1        4 0.18449559E-02 0.12499810E+03</pdfrwt>
<pdfrwt beam="2">  1       -4 0.50111122E-01 0.12499810E+03</pdfrwt>
<totfact> 0.71100591E+03</totfact>
</mgrwt>
</event>
<event>
 5    1  0.3232465E-002  0.1249993E+03  0.7818608E-02  0.1235070E+00
         -4   -1    0    0    0  501 -0.00000000000E+00  0.00000000000E+00  0.13556444915E+03  0.13557039785E+03  0.12700000000E+01 0. -1.
          4   -1    0    0  501    0  0.00000000000E+00 -0.00000000000E+00 -0.28793795824E+02  0.28821789985E+02  0.12700000000E+01 0. -1.
         25    2    1    2    0    0  0.00000000000E+00  0.00000000000E+00  0.10677065332E+03  0.16439218783E+03  0.12499927603E+03 0.  0.
    9000005    1    3    3    0    0  0.33362555514E+02 -0.18977912744E+02 -0.11471244853E+02  0.40072568436E+02  0.10000000000E+01 0.  0.
    9000005    1    3    3    0    0 -0.33362555514E+02  0.18977912744E+02  0.11824189818E+03  0.12431961940E+03  0.10000000000E+01 0.  0.
<mgrwt>
<rscale>  0 0.12499928E+03</rscale>
<asrwt>0</asrwt>
<pdfrwt beam="2">  1        4 0.44324257E-02 0.12499928E+03</pdfrwt>
<pdfrwt beam="1">  1       -4 0.20858680E-01 0.12499928E+03</pdfrwt>
<totfact> 0.96504195E+03</totfact>
</mgrwt>
</event>
<event>
 5    1  0.3232465E-002  0.1250002E+03  0.7818608E-02  0.1235069E+00
         -4   -1    0    0    0  501 -0.00000000000E+00  0.00000000000E+00  0.63632798057E+02  0.63645470291E+02  0.12700000000E+01 0. -1.
          4   -1    0    0  501    0  0.00000000000E+00 -0.00000000000E+00 -0.61362227189E+02  0.61375368232E+02  0.12700000000E+01 0. -1.
         25    2    1    2    0    0  0.00000000000E+00  0.00000000000E+00  0.22705708681E+01  0.12502083852E+03  0.12500021829E+03 0.  0.
    9000005    1    3    3    0    0  0.36701816352E+02  0.48587754328E+02  0.15190021450E+02  0.62765674902E+02  0.10000000000E+01 0.  0.
    9000005    1    3    3    0    0 -0.36701816352E+02 -0.48587754328E+02 -0.12919450582E+02  0.62255163621E+02  0.10000000000E+01 0.  0.
<mgrwt>
<rscale>  0 0.12500022E+03</rscale>
<asrwt>0</asrwt>
<pdfrwt beam="2">  1        4 0.94423283E-02 0.12500022E+03</pdfrwt>
<pdfrwt beam="1">  1       -4 0.97916469E-02 0.12500022E+03</pdfrwt>
<totfact> 0.10452358E+04</totfact>
</mgrwt>
</event>
<event>
 5    1  0.3232465E-002  0.1249983E+03  0.7818608E-02  0.1235072E+00
          4   -1    0    0  501    0  0.00000000000E+00  0.00000000000E+00  0.16823544949E+04  0.16823549743E+04  0.12700000000E+01 0. -1.
         -4   -1    0    0    0  501 -0.00000000000E+00 -0.00000000000E+00 -0.21476476617E+01  0.24950532016E+01  0.12700000000E+01 0. -1.
         25    2    1    2    0    0  0.00000000000E+00  0.00000000000E+00  0.16802068473E+04  0.16848500275E+04  0.12499826208E+03 0.  0.
    9000005    1    3    3    0    0 -0.27524056727E+02  0.55654164656E+02  0.93558722362E+03  0.93764567548E+03  0.10000000000E+01 0.  0.
    9000005    1    3    3    0    0  0.27524056727E+02 -0.55654164656E+02  0.74461962367E+03  0.74720435203E+03  0.10000000000E+01 0.  0.
<mgrwt>
<rscale>  0 0.12499826E+03</rscale>
<asrwt>0</asrwt>
<pdfrwt beam="1">  1        4 0.25885060E+00 0.12499826E+03</pdfrwt>
<pdfrwt beam="2">  1       -4 0.35716761E-03 0.12499826E+03</pdfrwt>
<totfact> 0.14562795E+03</totfact>
</mgrwt>
</event>
<event>
 5    1  0.3232465E-002  0.1250012E+03  0.7818608E-02  0.1235067E+00
         -4   -1    0    0    0  501 -0.00000000000E+00  0.00000000000E+00  0.26885790582E+02  0.26915769267E+02  0.12700000000E+01 0.  1.
          4   -1    0    0  501    0  0.00000000000E+00 -0.00000000000E+00 -0.14517952148E+03  0.14518507622E+03  0.12700000000E+01 0.  1.
         25    2    1    2    0    0  0.00000000000E+00  0.00000000000E+00 -0.11829373090E+03  0.17210084549E+03  0.12500117699E+03 0.  0.
    9000005    1    3    3    0    0  0.55341085432E+02  0.26285274262E+02 -0.42185336774E+02  0.74391894844E+02  0.10000000000E+01 0.  0.
    9000005    1    3    3    0    0 -0.55341085432E+02 -0.26285274262E+02 -0.76108394126E+02  0.97708950645E+02  0.10000000000E+01 0.  0.
<mgrwt>
<rscale>  0 0.12500118E+03</rscale>
<asrwt>0</asrwt>
<pdfrwt beam="2">  1        4 0.22338044E-01 0.12500118E+03</pdfrwt>
<pdfrwt beam="1">  1       -4 0.41390089E-02 0.12500118E+03</pdfrwt>
<totfact> 0.95056001E+03</totfact>
</mgrwt>
</event>
<event>
 5    1  0.3232465E-002  0.1250020E+03  0.7818608E-02  0.1235066E+00
          4   -1    0    0  501    0  0.00000000000E+00  0.00000000000E+00  0.23839777844E+04  0.23839781226E+04  0.12700000000E+01 0. -1.
         -4   -1    0    0    0  501 -0.00000000000E+00 -0.00000000000E+00 -0.13921272447E+01  0.18843880347E+01  0.12700000000E+01 0. -1.
         25    2    1    2    0    0  0.00000000000E+00  0.00000000000E+00  0.23825856571E+04  0.23858625107E+04  0.12500202537E+03 0.  0.
    9000005    1    3    3    0    0 -0.94069989657E+01 -0.11238309082E+02  0.31778843810E+02  0.35009800548E+02  0.10000000000E+01 0.  0.
    9000005    1    3    3    0    0  0.94069989657E+01  0.11238309082E+02  0.23508068133E+04  0.23508527101E+04  0.10000000000E+01 0.  0.
<mgrwt>
<rscale>  0 0.12500203E+03</rscale>
<asrwt>0</asrwt>
<pdfrwt beam="1">  1        4 0.36680414E+00 0.12500203E+03</pdfrwt>
<pdfrwt beam="2">  1       -4 0.25206536E-03 0.12500203E+03</pdfrwt>
<totfact> 0.56288153E+02</totfact>
</mgrwt>
</event>
<event>
 5    1  0.3232465E-002  0.1250056E+03  0.7818608E-02  0.1235060E+00
         -4   -1    0    0    0  501 -0.00000000000E+00  0.00000000000E+00  0.11387541548E+03  0.11388249712E+03  0.12700000000E+01 0.  1.
          4   -1    0    0  501    0  0.00000000000E+00 -0.00000000000E+00 -0.34286026669E+02  0.34309539850E+02  0.12700000000E+01 0.  1.
         25    2    1    2    0    0  0.00000000000E+00  0.00000000000E+00  0.79589388812E+02  0.14819203697E+03  0.12500563592E+03 0.  0.
    9000005    1    3    3    0    0  0.88292759354E+01  0.52386550495E+02  0.77635908335E+00  0.53140469698E+02  0.10000000000E+01 0.  0.
    9000005    1    3    3    0    0 -0.88292759354E+01 -0.52386550495E+02  0.78813029729E+02  0.95051567275E+02  0.10000000000E+01 0.  0.
<mgrwt>
<rscale>  0 0.12500564E+03</rscale>
<asrwt>0</asrwt>
<pdfrwt beam="2">  1        4 0.52771268E-02 0.12500564E+03</pdfrwt>
<pdfrwt beam="1">  1       -4 0.17521648E-01 0.12500564E+03</pdfrwt>
<totfact> 0.99652673E+03</totfact>
</mgrwt>
</event>
<event>
 5    1  0.3232465E-002  0.1250027E+03  0.7818608E-02  0.1235065E+00
          4   -1    0    0  501    0  0.00000000000E+00  0.00000000000E+00  0.26855955572E+02  0.26885967524E+02  0.12700000000E+01 0. -1.
         -4   -1    0    0    0  501 -0.00000000000E+00 -0.00000000000E+00 -0.14534416846E+03  0.14534971690E+03  0.12700000000E+01 0. -1.
         25    2    1    2    0    0  0.00000000000E+00  0.00000000000E+00 -0.11848821288E+03  0.17223568443E+03  0.12500269756E+03 0.  0.
    9000005    1    3    3    0    0 -0.21165548540E+02  0.29198631557E+02 -0.12956711618E+03  0.13449601527E+03  0.10000000000E+01 0.  0.
    9000005    1    3    3    0    0  0.21165548540E+02 -0.29198631557E+02  0.11078903293E+02  0.37739669156E+02  0.10000000000E+01 0.  0.
<mgrwt>
<rscale>  0 0.12500270E+03</rscale>
<asrwt>0</asrwt>
<pdfrwt beam="1">  1        4 0.41344210E-02 0.12500270E+03</pdfrwt>
<pdfrwt beam="2">  1       -4 0.22363376E-01 0.12500270E+03</pdfrwt>
<totfact> 0.95027818E+03</totfact>
</mgrwt>
</event>
<event>
 5    1  0.3232465E-002  0.1249996E+03  0.7818608E-02  0.1235070E+00
         -4   -1    0    0    0  501 -0.00000000000E+00  0.00000000000E+00  0.20656295221E+03  0.20656685631E+03  0.12700000000E+01 0.  1.
          4   -1    0    0  501    0  0.00000000000E+00 -0.00000000000E+00 -0.18885178481E+02  0.18927833111E+02  0.12700000000E+01 0.  1.
         25    2    1    2    0    0  0.00000000000E+00  0.00000000000E+00  0.18767777373E+03  0.22549468942E+03  0.12499963282E+03 0.  0.
    9000005    1    3    3    0    0 -0.50242129815E+02  0.37053606848E+02  0.98936689948E+02  0.11699021329E+03  0.10000000000E+01 0.  0.
    9000005    1    3    3    0    0  0.50242129815E+02 -0.37053606848E+02  0.88741083781E+02  0.10850447613E+03  0.10000000000E+01 0.  0.
<mgrwt>
<rscale>  0 0.12499963E+03</rscale>
<asrwt>0</asrwt>
<pdfrwt beam="2">  1        4 0.29089934E-02 0.12499963E+03</pdfrwt>
<pdfrwt beam="1">  1       -4 0.31782499E-01 0.12499963E+03</pdfrwt>
<totfact> 0.86006930E+03</totfact>
</mgrwt>
</event>
<event>
 5    1  0.3232465E-002  0.1250002E+03  0.7818608E-02  0.1235069E+00
          4   -1    0    0  501    0  0.00000000000E+00  0.00000000000E+00  0.62668862710E+03  0.62668991394E+03  0.12700000000E+01 0.  1.
         -4   -1    0    0    0  501 -0.00000000000E+00 -0.00000000000E+00 -0.61671863109E+01  0.62965932848E+01  0.12700000000E+01 0.  1.
         25    2    1    2    0    0  0.00000000000E+00  0.00000000000E+00  0.62052144079E+03  0.63298650723E+03  0.12500023941E+03 0.  0.
    9000005    1    3    3    0    0 -0.13812581190E+02  0.35907735864E+02  0.55963376886E+03  0.56095553135E+03  0.10000000000E+01 0.  0.
    9000005    1    3    3    0    0  0.13812581190E+02 -0.35907735864E+02  0.60887671927E+02  0.72030975883E+02  0.10000000000E+01 0.  0.
<mgrwt>
<rscale>  0 0.12500024E+03</rscale>
<asrwt>0</asrwt>
<pdfrwt beam="1">  1        4 0.96423679E-01 0.12500024E+03</pdfrwt>
<pdfrwt beam="2">  1       -4 0.95885136E-03 0.12500024E+03</pdfrwt>
<totfact> 0.46849239E+03</totfact>
</mgrwt>
</event>
<event>
 5    1  0.3232465E-002  0.1249514E+03  0.7818608E-02  0.1235145E+00
         -4   -1    0    0    0  501 -0.00000000000E+00  0.00000000000E+00  0.29432463270E+01  0.32055575086E+01  0.12700000000E+01 0. -1.
          4   -1    0    0  501    0  0.00000000000E+00 -0.00000000000E+00 -0.12693228274E+04  0.12693234627E+04  0.12700000000E+01 0. -1.
         25    2    1    2    0    0  0.00000000000E+00  0.00000000000E+00 -0.12663795810E+04  0.12725290202E+04  0.12495144662E+03 0.  0.
    9000005    1    3    3    0    0  0.45721597341E+02 -0.38513029730E+02 -0.44860631249E+03  0.45257302342E+03  0.10000000000E+01 0.  0.
    9000005    1    3    3    0    0 -0.45721597341E+02  0.38513029730E+02 -0.81777326855E+03  0.81995599680E+03  0.10000000000E+01 0.  0.
<mgrwt>
<rscale>  0 0.12495145E+03</rscale>
<asrwt>0</asrwt>
<pdfrwt beam="2">  1        4 0.19530024E+00 0.12495145E+03</pdfrwt>
<pdfrwt beam="1">  1       -4 0.47303480E-03 0.12495145E+03</pdfrwt>
<totfact> 0.22910640E+03</totfact>
</mgrwt>
</event>
<event>
 5    1  0.3232465E-002  0.1250031E+03  0.7818608E-02  0.1235064E+00
         -4   -1    0    0    0  501 -0.00000000000E+00  0.00000000000E+00  0.82930329809E+02  0.82940053667E+02  0.12700000000E+01 0. -1.
          4   -1    0    0  501    0  0.00000000000E+00 -0.00000000000E+00 -0.47084059153E+02  0.47101183916E+02  0.12700000000E+01 0. -1.
         25    2    1    2    0    0  0.00000000000E+00  0.00000000000E+00  0.35846270657E+02  0.13004123758E+03  0.12500307337E+03 0.  0.
    9000005    1    3    3    0    0  0.17145308992E+01 -0.50473427408E+01  0.82698490777E+02  0.82876146518E+02  0.10000000000E+01 0.  0.
    9000005    1    3    3    0    0 -0.17145308992E+01  0.50473427408E+01 -0.46852220120E+02  0.47165091065E+02  0.10000000000E+01 0.  0.
<mgrwt>
<rscale>  0 0.12500307E+03</rscale>
<asrwt>0</asrwt>
<pdfrwt beam="2">  1        4 0.72457669E-02 0.12500307E+03</pdfrwt>
<pdfrwt beam="1">  1       -4 0.12760577E-01 0.12500307E+03</pdfrwt>
<totfact> 0.10342908E+04</totfact>
</mgrwt>
</event>
<event>
 5    1  0.3232465E-002  0.1249995E+03  0.7818608E-02  0.1235070E+00
         -4   -1    0    0    0  501 -0.00000000000E+00  0.00000000000E+00  0.30623297582E+03  0.30623560926E+03  0.12700000000E+01 0. -1.
          4   -1    0    0  501    0  0.00000000000E+00 -0.00000000000E+00 -0.12721410963E+02  0.12784646920E+02  0.12700000000E+01 0. -1.
         25    2    1    2    0    0  0.00000000000E+00  0.00000000000E+00  0.29351156486E+03  0.31902025618E+03  0.12499954060E+03 0.  0.
    9000005    1    3    3    0    0 -0.49437803965E+02  0.85909975625E+01  0.24181584627E+03  0.24696923939E+03  0.10000000000E+01 0.  0.
    9000005    1    3    3    0    0  0.49437803965E+02 -0.85909975625E+01  0.51695718594E+02  0.72051016794E+02  0.10000000000E+01 0.  0.
<mgrwt>
<rscale>  0 0.12499954E+03</rscale>
<asrwt>0</asrwt>
<pdfrwt beam="2">  1        4 0.19622069E-02 0.12499954E+03</pdfrwt>
<pdfrwt beam="1">  1       -4 0.47117835E-01 0.12499954E+03</pdfrwt>
<totfact> 0.73273547E+03</totfact>
</mgrwt>
</event>
<event>
 5    1  0.3232465E-002  0.1250045E+03  0.7818608E-02  0.1235062E+00
          4   -1    0    0  501    0  0.00000000000E+00  0.00000000000E+00  0.19871759569E+02  0.19912300931E+02  0.12700000000E+01 0. -1.
         -4   -1    0    0    0  501 -0.00000000000E+00 -0.00000000000E+00 -0.19634421138E+03  0.19634831867E+03  0.12700000000E+01 0. -1.
         25    2    1    2    0    0  0.00000000000E+00  0.00000000000E+00 -0.17647245181E+03  0.21626061960E+03  0.12500451728E+03 0.  0.
    9000005    1    3    3    0    0 -0.52468441071E+02 -0.32199083661E+02 -0.69618255419E+02  0.92937719923E+02  0.10000000000E+01 0.  0.
    9000005    1    3    3    0    0  0.52468441071E+02  0.32199083661E+02 -0.10685419639E+03  0.12332289967E+03  0.10000000000E+01 0.  0.
<mgrwt>
<rscale>  0 0.12500452E+03</rscale>
<asrwt>0</asrwt>
<pdfrwt beam="1">  1        4 0.30606284E-02 0.12500452E+03</pdfrwt>
<pdfrwt beam="2">  1       -4 0.30210235E-01 0.12500452E+03</pdfrwt>
<totfact> 0.87454711E+03</totfact>
</mgrwt>
</event>
<event>
 5    1  0.3232465E-002  0.1249976E+03  0.7818608E-02  0.1235073E+00
          4   -1    0    0  501    0  0.00000000000E+00  0.00000000000E+00  0.38037449784E+02  0.38058645353E+02  0.12700000000E+01 0. -1.
         -4   -1    0    0    0  501 -0.00000000000E+00 -0.00000000000E+00 -0.10263719389E+03  0.10264505087E+03  0.12700000000E+01 0. -1.
         25    2    1    2    0    0  0.00000000000E+00  0.00000000000E+00 -0.64599744101E+02  0.14070369623E+03  0.12499761275E+03 0.  0.
    9000005    1    3    3    0    0 -0.11660524725E+02 -0.60971255231E+02 -0.40388832036E+02  0.74065643550E+02  0.10000000000E+01 0.  0.
    9000005    1    3    3    0    0  0.11660524725E+02  0.60971255231E+02 -0.24210912065E+02  0.66638052675E+02  0.10000000000E+01 0.  0.
<mgrwt>
<rscale>  0 0.12499761E+03</rscale>
<asrwt>0</asrwt>
<pdfrwt beam="1">  1        4 0.58541502E-02 0.12499761E+03</pdfrwt>
<pdfrwt beam="2">  1       -4 0.15792572E-01 0.12499761E+03</pdfrwt>
<totfact> 0.10119566E+04</totfact>
</mgrwt>
</event>
<event>
 5    1  0.3232465E-002  0.1249997E+03  0.7818608E-02  0.1235070E+00
          4   -1    0    0  501    0  0.00000000000E+00  0.00000000000E+00  0.33682415960E+03  0.33682655386E+03  0.12700000000E+01 0. -1.
         -4   -1    0    0    0  501 -0.00000000000E+00 -0.00000000000E+00 -0.11560027422E+02  0.11629580130E+02  0.12700000000E+01 0. -1.
         25    2    1    2    0    0  0.00000000000E+00  0.00000000000E+00  0.32526413217E+03  0.34845613399E+03  0.12499968655E+03 0.  0.
    9000005    1    3    3    0    0  0.55797766501E+02  0.21654254908E+02  0.11253695530E+03  0.12746710874E+03  0.10000000000E+01 0.  0.
    9000005    1    3    3    0    0 -0.55797766501E+02 -0.21654254908E+02  0.21272717687E+03  0.22098902525E+03  0.10000000000E+01 0.  0.
<mgrwt>
<rscale>  0 0.12499969E+03</rscale>
<asrwt>0</asrwt>
<pdfrwt beam="1">  1        4 0.51824640E-01 0.12499969E+03</pdfrwt>
<pdfrwt beam="2">  1       -4 0.17840000E-02 0.12499969E+03</pdfrwt>
<totfact> 0.69895214E+03</totfact>
</mgrwt>
</event>
<event>
 5    1  0.3232465E-002  0.1249911E+03  0.7818608E-02  0.1235083E+00
          4   -1    0    0  501    0  0.00000000000E+00  0.00000000000E+00  0.21126979097E+02  0.21165116247E+02  0.12700000000E+01 0.  1.
         -4   -1    0    0    0  501 -0.00000000000E+00 -0.00000000000E+00 -0.18466070090E+03  0.18466506805E+03  0.12700000000E+01 0.  1.
         25    2    1    2    0    0  0.00000000000E+00  0.00000000000E+00 -0.16353372181E+03  0.20583018430E+03  0.12499114609E+03 0.  0.
    9000005    1    3    3    0    0 -0.98502746032E+00  0.46817375128E+02 -0.13632858124E+02  0.48782083941E+02  0.10000000000E+01 0.  0.
    9000005    1    3    3    0    0  0.98502746032E+00 -0.46817375128E+02 -0.14990086368E+03  0.15704810036E+03  0.10000000000E+01 0.  0.
<mgrwt>
<rscale>  0 0.12499115E+03</rscale>
<asrwt>0</asrwt>
<pdfrwt beam="1">  1        4 0.32535742E-02 0.12499115E+03</pdfrwt>
<pdfrwt beam="2">  1       -4 0.28412607E-01 0.12499115E+03</pdfrwt>
<totfact> 0.89179085E+03</totfact>
</mgrwt>
</event>
<event>
 5    1  0.3232465E-002  0.1249975E+03  0.7818608E-02  0.1235073E+00
         -4   -1    0    0    0  501 -0.00000000000E+00  0.00000000000E+00  0.17212872641E+03  0.17213341151E+03  0.12700000000E+01 0. -1.
          4   -1    0    0  501    0  0.00000000000E+00 -0.00000000000E+00 -0.22670113913E+02  0.22705659313E+02  0.12700000000E+01 0. -1.
         25    2    1    2    0    0  0.00000000000E+00  0.00000000000E+00  0.14945861250E+03  0.19483907082E+03  0.12499754664E+03 0.  0.
    9000005    1    3    3    0    0  0.11188510693E+02 -0.28986485738E+02  0.15924276683E+03  0.16224875319E+03  0.10000000000E+01 0.  0.
    9000005    1    3    3    0    0 -0.11188510693E+02  0.28986485738E+02 -0.97841543259E+01  0.32590317624E+02  0.10000000000E+01 0.  0.
<mgrwt>
<rscale>  0 0.12499755E+03</rscale>
<asrwt>0</asrwt>
<pdfrwt beam="2">  1        4 0.34908046E-02 0.12499755E+03</pdfrwt>
<pdfrwt beam="1">  1       -4 0.26484436E-01 0.12499755E+03</pdfrwt>
<totfact> 0.91017083E+03</totfact>
</mgrwt>
</event>
<event>
 5    1  0.3232465E-002  0.1250007E+03  0.7818608E-02  0.1235068E+00
         -4   -1    0    0    0  501 -0.00000000000E+00  0.00000000000E+00  0.18088191718E+03  0.18088637556E+03  0.12700000000E+01 0. -1.
          4   -1    0    0  501    0  0.00000000000E+00 -0.00000000000E+00 -0.21572433814E+02  0.21609784836E+02  0.12700000000E+01 0. -1.
         25    2    1    2    0    0  0.00000000000E+00  0.00000000000E+00  0.15930948337E+03  0.20249616039E+03  0.12500073393E+03 0.  0.
    9000005    1    3    3    0    0  0.47440674692E+02 -0.11127726298E+01  0.14552637754E+03  0.15307116789E+03  0.10000000000E+01 0.  0.
    9000005    1    3    3    0    0 -0.47440674692E+02  0.11127726298E+01  0.13783105826E+02  0.49424992508E+02  0.10000000000E+01 0.  0.
<mgrwt>
<rscale>  0 0.12500073E+03</rscale>
<asrwt>0</asrwt>
<pdfrwt beam="2">  1        4 0.33220520E-02 0.12500073E+03</pdfrwt>
<pdfrwt beam="1">  1       -4 0.27831204E-01 0.12500073E+03</pdfrwt>
<totfact> 0.89714736E+03</totfact>
</mgrwt>
</event>
<event>
 5    1  0.3232465E-002  0.1249981E+03  0.7818608E-02  0.1235072E+00
          4   -1    0    0  501    0  0.00000000000E+00  0.00000000000E+00  0.13449490758E+03  0.13450090359E+03  0.12700000000E+01 0. -1.
         -4   -1    0    0    0  501 -0.00000000000E+00 -0.00000000000E+00 -0.29022458839E+02  0.29050232650E+02  0.12700000000E+01 0. -1.
         25    2    1    2    0    0  0.00000000000E+00  0.00000000000E+00  0.10547244875E+03  0.16355113624E+03  0.12499814687E+03 0.  0.
    9000005    1    3    3    0    0  0.45248419328E+02 -0.89682500378E+00 -0.36464237248E+01  0.45414977185E+02  0.10000000000E+01 0.  0.
    9000005    1    3    3    0    0 -0.45248419328E+02  0.89682500378E+00  0.10911887247E+03  0.11813615905E+03  0.10000000000E+01 0.  0.
<mgrwt>
<rscale>  0 0.12499815E+03</rscale>
<asrwt>0</asrwt>
<pdfrwt beam="1">  1        4 0.20694122E-01 0.12499815E+03</pdfrwt>
<pdfrwt beam="2">  1       -4 0.44675913E-02 0.12499815E+03</pdfrwt>
<totfact> 0.96666514E+03</totfact>
</mgrwt>
</event>
<event>
 4    1  0.3232465E-002  0.1250991E+03  0.7818608E-02  0.1234914E+00
          4   -1    0    0  501    0  0.00000000000E+00  0.00000000000E+00  0.52431216895E+02  0.52446595744E+02  0.12700000000E+01 0.  1.
         -4   -1    0    0    0  501 -0.00000000000E+00 -0.00000000000E+00 -0.74588837146E+02  0.74599648302E+02  0.12700000000E+01 0.  1.
    9000005    1    1    2    0    0  0.14610857507E+01  0.23055016102E+02  0.47944448361E+02  0.53229114850E+02  0.10000000000E+01 0.  0.
    9000005    1    1    2    0    0 -0.14610857507E+01 -0.23055016102E+02 -0.70102068612E+02  0.73817129196E+02  0.10000000000E+01 0.  0.
<mgrwt>
<rscale>  0 0.12509911E+03</rscale>
<asrwt>0</asrwt>
<pdfrwt beam="1">  1        4 0.80683557E-02 0.12509911E+03</pdfrwt>
<pdfrwt beam="2">  1       -4 0.11477220E-01 0.12509911E+03</pdfrwt>
<totfact> 0.10384889E+04</totfact>
</mgrwt>
</event>
<event>
 5    1  0.3232465E-002  0.1249961E+03  0.7818608E-02  0.1235075E+00
         -4   -1    0    0    0  501 -0.00000000000E+00  0.00000000000E+00  0.78845589776E+02  0.78855817332E+02  0.12700000000E+01 0.  1.
          4   -1    0    0  501    0  0.00000000000E+00 -0.00000000000E+00 -0.49518340811E+02  0.49534624019E+02  0.12700000000E+01 0.  1.
         25    2    1    2    0    0  0.00000000000E+00  0.00000000000E+00  0.29327248965E+02  0.12839044135E+03  0.12499607153E+03 0.  0.
    9000005    1    3    3    0    0 -0.16206367969E+02 -0.22831926430E+02  0.72047182597E+02  0.77302909049E+02  0.10000000000E+01 0.  0.
    9000005    1    3    3    0    0  0.16206367969E+02  0.22831926430E+02 -0.42719933632E+02  0.51087532303E+02  0.10000000000E+01 0.  0.
<mgrwt>
<rscale>  0 0.12499607E+03</rscale>
<asrwt>0</asrwt>
<pdfrwt beam="2">  1        4 0.76202456E-02 0.12499607E+03</pdfrwt>
<pdfrwt beam="1">  1       -4 0.12132130E-01 0.12499607E+03</pdfrwt>
<totfact> 0.10379985E+04</totfact>
</mgrwt>
</event>
<event>
 5    1  0.3232465E-002  0.1250019E+03  0.7818608E-02  0.1235066E+00
         -4   -1    0    0    0  501 -0.00000000000E+00  0.00000000000E+00  0.14248598047E+03  0.14249164022E+03  0.12700000000E+01 0.  1.
          4   -1    0    0  501    0  0.00000000000E+00 -0.00000000000E+00 -0.27394883219E+02  0.27424305399E+02  0.12700000000E+01 0.  1.
         25    2    1    2    0    0  0.00000000000E+00  0.00000000000E+00  0.11509109725E+03  0.16991594562E+03  0.12500187161E+03 0.  0.
    9000005    1    3    3    0    0 -0.52819368347E+02 -0.22097868278E+02  0.23504047045E+02  0.61900255916E+02  0.10000000000E+01 0.  0.
    9000005    1    3    3    0    0  0.52819368347E+02  0.22097868278E+02  0.91587050210E+02  0.10801568970E+03  0.10000000000E+01 0.  0.
<mgrwt>
<rscale>  0 0.12500187E+03</rscale>
<asrwt>0</asrwt>
<pdfrwt beam="2">  1        4 0.42172959E-02 0.12500187E+03</pdfrwt>
<pdfrwt beam="1">  1       -4 0.21923619E-01 0.12500187E+03</pdfrwt>
<totfact> 0.95460294E+03</totfact>
</mgrwt>
</event>
<event>
 5    1  0.3232465E-002  0.1250019E+03  0.7818608E-02  0.1235066E+00
         -4   -1    0    0    0  501 -0.00000000000E+00  0.00000000000E+00  0.18778361940E+03  0.18778791392E+03  0.12700000000E+01 0. -1.
          4   -1    0    0  501    0  0.00000000000E+00 -0.00000000000E+00 -0.20778568529E+02  0.20817343974E+02  0.12700000000E+01 0. -1.
         25    2    1    2    0    0  0.00000000000E+00  0.00000000000E+00  0.16700505087E+03  0.20860525790E+03  0.12500186641E+03 0.  0.
    9000005    1    3    3    0    0 -0.35737266469E+02 -0.55079755741E+01 -0.15560325243E+01  0.36206508349E+02  0.10000000000E+01 0.  0.
    9000005    1    3    3    0    0  0.35737266469E+02  0.55079755741E+01  0.16856108340E+03  0.17239874955E+03  0.10000000000E+01 0.  0.
<mgrwt>
<rscale>  0 0.12500187E+03</rscale>
<asrwt>0</asrwt>
<pdfrwt beam="2">  1        4 0.32000161E-02 0.12500187E+03</pdfrwt>
<pdfrwt beam="1">  1       -4 0.28893099E-01 0.12500187E+03</pdfrwt>
<totfact> 0.88700467E+03</totfact>
</mgrwt>
</event>
<event>
 5    1  0.3232465E-002  0.1249977E+03  0.7818608E-02  0.1235073E+00
          4   -1    0    0  501    0  0.00000000000E+00  0.00000000000E+00  0.16500806074E+02  0.16549607279E+02  0.12700000000E+01 0.  1.
         -4   -1    0    0    0  501 -0.00000000000E+00 -0.00000000000E+00 -0.23632223796E+03  0.23632565043E+03  0.12700000000E+01 0.  1.
         25    2    1    2    0    0  0.00000000000E+00  0.00000000000E+00 -0.21982143188E+03  0.25287525771E+03  0.12499773617E+03 0.  0.
    9000005    1    3    3    0    0  0.53631440975E+02  0.23759621162E+02 -0.15350039116E+03  0.16432961128E+03  0.10000000000E+01 0.  0.
    9000005    1    3    3    0    0 -0.53631440975E+02 -0.23759621162E+02 -0.66321040726E+02  0.88545646430E+02  0.10000000000E+01 0.  0.
<mgrwt>
<rscale>  0 0.12499774E+03</rscale>
<asrwt>0</asrwt>
<pdfrwt beam="1">  1        4 0.25426022E-02 0.12499774E+03</pdfrwt>
<pdfrwt beam="2">  1       -4 0.36361281E-01 0.12499774E+03</pdfrwt>
<totfact> 0.81920563E+03</totfact>
</mgrwt>
</event>
<event>
 5    1  0.3232465E-002  0.1250021E+03  0.7818608E-02  0.1235066E+00
          4   -1    0    0  501    0  0.00000000000E+00  0.00000000000E+00  0.32061464936E+02  0.32086608326E+02  0.12700000000E+01 0.  1.
         -4   -1    0    0    0  501 -0.00000000000E+00 -0.00000000000E+00 -0.12176426777E+03  0.12177089063E+03  0.12700000000E+01 0.  1.
         25    2    1    2    0    0  0.00000000000E+00  0.00000000000E+00 -0.89702802829E+02  0.15385749895E+03  0.12500214858E+03 0.  0.
    9000005    1    3    3    0    0 -0.25133434727E+02 -0.19978562979E+02  0.21139833826E+02  0.38454194753E+02  0.10000000000E+01 0.  0.
    9000005    1    3    3    0    0  0.25133434727E+02  0.19978562979E+02 -0.11084263666E+03  0.11540330420E+03  0.10000000000E+01 0.  0.
<mgrwt>
<rscale>  0 0.12500215E+03</rscale>
<asrwt>0</asrwt>
<pdfrwt beam="1">  1        4 0.49349767E-02 0.12500215E+03</pdfrwt>
<pdfrwt beam="2">  1       -4 0.18735408E-01 0.12500215E+03</pdfrwt>
<totfact> 0.98535484E+03</totfact>
</mgrwt>
</event>
<event>
 5    1  0.3232465E-002  0.1250009E+03  0.7818608E-02  0.1235068E+00
         -4   -1    0    0    0  501 -0.00000000000E+00  0.00000000000E+00  0.25049670493E+02  0.25081843868E+02  0.12700000000E+01 0.  1.
          4   -1    0    0  501    0  0.00000000000E+00 -0.00000000000E+00 -0.15580765872E+03  0.15581283456E+03  0.12700000000E+01 0.  1.
         25    2    1    2    0    0  0.00000000000E+00  0.00000000000E+00 -0.13075798822E+03  0.18089467843E+03  0.12500093280E+03 0.  0.
    9000005    1    3    3    0    0 -0.57840652500E+02 -0.21986440886E+02 -0.78025071521E+02  0.99588435324E+02  0.10000000000E+01 0.  0.
    9000005    1    3    3    0    0  0.57840652500E+02  0.21986440886E+02 -0.52732916702E+02  0.81306243108E+02  0.10000000000E+01 0.  0.
<mgrwt>
<rscale>  0 0.12500093E+03</rscale>
<asrwt>0</asrwt>
<pdfrwt beam="2">  1        4 0.23973282E-01 0.12500093E+03</pdfrwt>
<pdfrwt beam="1">  1       -4 0.38566686E-02 0.12500093E+03</pdfrwt>
<totfact> 0.93454251E+03</totfact>
</mgrwt>
</event>
<event>
 5    1  0.3232465E-002  0.1250014E+03  0.7818608E-02  0.1235067E+00
         -4   -1    0    0    0  501 -0.00000000000E+00  0.00000000000E+00  0.20298642310E+02  0.20338332764E+02  0.12700000000E+01 0. -1.
          4   -1    0    0  501    0  0.00000000000E+00 -0.00000000000E+00 -0.19221362658E+03  0.19221782212E+03  0.12700000000E+01 0. -1.
         25    2    1    2    0    0  0.00000000000E+00  0.00000000000E+00 -0.17191498427E+03  0.21255615489E+03  0.12500142865E+03 0.  0.
    9000005    1    3    3    0    0  0.41095224288E+02 -0.40516411445E+02 -0.45184666006E+02  0.73301098885E+02  0.10000000000E+01 0.  0.
    9000005    1    3    3    0    0 -0.41095224288E+02  0.40516411445E+02 -0.12673031826E+03  0.13925505600E+03  0.10000000000E+01 0.  0.
<mgrwt>
<rscale>  0 0.12500143E+03</rscale>
<asrwt>0</asrwt>
<pdfrwt beam="2">  1        4 0.29574702E-01 0.12500143E+03</pdfrwt>
<pdfrwt beam="1">  1       -4 0.31262440E-02 0.12500143E+03</pdfrwt>
<totfact> 0.88057310E+03</totfact>
</mgrwt>
</event>
<event>
 5    1  0.3232465E-002  0.1249991E+03  0.7818608E-02  0.1235071E+00
         -4   -1    0    0    0  501 -0.00000000000E+00  0.00000000000E+00  0.37768954889E+03  0.37769168410E+03  0.12700000000E+01 0. -1.
          4   -1    0    0  501    0  0.00000000000E+00 -0.00000000000E+00 -0.10301180665E+02  0.10379172563E+02  0.12700000000E+01 0. -1.
         25    2    1    2    0    0  0.00000000000E+00  0.00000000000E+00  0.36738836823E+03  0.38807085667E+03  0.12499910674E+03 0.  0.
    9000005    1    3    3    0    0 -0.38546143174E+02 -0.28315365088E+02  0.30856001106E+03  0.31224644991E+03  0.10000000000E+01 0.  0.
    9000005    1    3    3    0    0  0.38546143174E+02  0.28315365088E+02  0.58828357163E+02  0.75824406757E+02  0.10000000000E+01 0.  0.
<mgrwt>
<rscale>  0 0.12499911E+03</rscale>
<asrwt>0</asrwt>
<pdfrwt beam="2">  1        4 0.15909608E-02 0.12499911E+03</pdfrwt>
<pdfrwt beam="1">  1       -4 0.58112242E-01 0.12499911E+03</pdfrwt>
<totfact> 0.65731077E+03</totfact>
</mgrwt>
</event>
<event>
 5    1  0.3232465E-002  0.1250004E+03  0.7818608E-02  0.1235069E+00
          4   -1    0    0  501    0  0.00000000000E+00  0.00000000000E+00  0.26447356272E+02  0.26477831365E+02  0.12700000000E+01 0.  1.
         -4   -1    0    0    0  501 -0.00000000000E+00 -0.00000000000E+00 -0.14758182955E+03  0.14758729388E+03  0.12700000000E+01 0.  1.
         25    2    1    2    0    0  0.00000000000E+00  0.00000000000E+00 -0.12113447328E+03  0.17406512524E+03  0.12500042883E+03 0.  0.
    9000005    1    3    3    0    0 -0.35819103433E+02  0.41090943614E+02 -0.18014461081E+02  0.57419462083E+02  0.10000000000E+01 0.  0.
    9000005    1    3    3    0    0  0.35819103433E+02 -0.41090943614E+02 -0.10312001220E+03  0.11664566316E+03  0.10000000000E+01 0.  0.
<mgrwt>
<rscale>  0 0.12500043E+03</rscale>
<asrwt>0</asrwt>
<pdfrwt beam="1">  1        4 0.40715887E-02 0.12500043E+03</pdfrwt>
<pdfrwt beam="2">  1       -4 0.22707661E-01 0.12500043E+03</pdfrwt>
<totfact> 0.94695429E+03</totfact>
</mgrwt>
</event>
<event>
 5    1  0.3232465E-002  0.1250008E+03  0.7818608E-02  0.1235068E+00
          4   -1    0    0  501    0  0.00000000000E+00  0.00000000000E+00  0.54535416477E+01  0.55994657338E+01  0.12700000000E+01 0.  1.
         -4   -1    0    0    0  501 -0.00000000000E+00 -0.00000000000E+00 -0.70668326006E+03  0.70668440124E+03  0.12700000000E+01 0.  1.
         25    2    1    2    0    0  0.00000000000E+00  0.00000000000E+00 -0.70122971841E+03  0.71228386697E+03  0.12500075664E+03 0.  0.
    9000005    1    3    3    0    0  0.41094807314E+02 -0.43405094232E+02 -0.24670803773E+03  0.25384767337E+03  0.10000000000E+01 0.  0.
    9000005    1    3    3    0    0 -0.41094807314E+02  0.43405094232E+02 -0.45452168068E+03  0.45843619360E+03  0.10000000000E+01 0.  0.
<mgrwt>
<rscale>  0 0.12500076E+03</rscale>
<asrwt>0</asrwt>
<pdfrwt beam="1">  1        4 0.85031968E-03 0.12500076E+03</pdfrwt>
<pdfrwt beam="2">  1       -4 0.10873174E+00 0.12500076E+03</pdfrwt>
<totfact> 0.42445454E+03</totfact>
</mgrwt>
</event>
<event>
 5    1  0.3232465E-002  0.1249992E+03  0.7818608E-02  0.1235071E+00
          4   -1    0    0  501    0  0.00000000000E+00  0.00000000000E+00  0.22983464326E+01  0.26258896253E+01  0.12700000000E+01 0. -1.
         -4   -1    0    0    0  501 -0.00000000000E+00 -0.00000000000E+00 -0.15861928794E+04  0.15861933878E+04  0.12700000000E+01 0. -1.
         25    2    1    2    0    0  0.00000000000E+00  0.00000000000E+00 -0.15838945330E+04  0.15888192775E+04  0.12499921925E+03 0.  0.
    9000005    1    3    3    0    0 -0.15172856341E+02  0.24301687598E+02 -0.14978640471E+04  0.14981383419E+04  0.10000000000E+01 0.  0.
    9000005    1    3    3    0    0  0.15172856341E+02 -0.24301687598E+02 -0.86030485845E+02  0.90680935617E+02  0.10000000000E+01 0.  0.
<mgrwt>
<rscale>  0 0.12499922E+03</rscale>
<asrwt>0</asrwt>
<pdfrwt beam="1">  1        4 0.37882777E-03 0.12499922E+03</pdfrwt>
<pdfrwt beam="2">  1       -4 0.24405409E+00 0.12499922E+03</pdfrwt>
<totfact> 0.16249357E+03</totfact>
</mgrwt>
</event>
<event>
 5    1  0.3232465E-002  0.1250284E+03  0.7818608E-02  0.1235025E+00
          4   -1    0    0  501    0  0.00000000000E+00  0.00000000000E+00  0.18828613153E+04  0.18828617436E+04  0.12700000000E+01 0.  1.
         -4   -1    0    0    0  501 -0.00000000000E+00 -0.00000000000E+00 -0.18808379493E+01  0.22694605948E+01  0.12700000000E+01 0.  1.
         25    2    1    2    0    0  0.00000000000E+00  0.00000000000E+00  0.18809804773E+04  0.18851312042E+04  0.12502840035E+03 0.  0.
    9000005    1    3    3    0    0  0.20027380651E+01  0.61995020833E+02  0.10569219666E+04  0.10587409678E+04  0.10000000000E+01 0.  0.
    9000005    1    3    3    0    0 -0.20027380651E+01 -0.61995020833E+02  0.82405851079E+03  0.82639023637E+03  0.10000000000E+01 0.  0.
<mgrwt>
<rscale>  0 0.12502840E+03</rscale>
<asrwt>0</asrwt>
<pdfrwt beam="1">  1        4 0.28970164E+00 0.12502840E+03</pdfrwt>
<pdfrwt beam="2">  1       -4 0.31928587E-03 0.12502840E+03</pdfrwt>
<totfact> 0.11428795E+03</totfact>
</mgrwt>
</event>
<event>
 5    1  0.3232465E-002  0.1250054E+03  0.7818608E-02  0.1235061E+00
          4   -1    0    0  501    0  0.00000000000E+00  0.00000000000E+00  0.98253629698E+01  0.99071013666E+01  0.12700000000E+01 0. -1.
         -4   -1    0    0    0  501 -0.00000000000E+00 -0.00000000000E+00 -0.39587265027E+03  0.39587468741E+03  0.12700000000E+01 0. -1.
         25    2    1    2    0    0  0.00000000000E+00  0.00000000000E+00 -0.38604728730E+03  0.40578178878E+03  0.12500540817E+03 0.  0.
    9000005    1    3    3    0    0 -0.49976898411E+02  0.26921149813E+01 -0.31451030227E+03  0.31846925769E+03  0.10000000000E+01 0.  0.
    9000005    1    3    3    0    0  0.49976898411E+02 -0.26921149813E+01 -0.71536985025E+02  0.87312531084E+02  0.10000000000E+01 0.  0.
<mgrwt>
<rscale>  0 0.12500541E+03</rscale>
<asrwt>0</asrwt>
<pdfrwt beam="1">  1        4 0.15180389E-02 0.12500541E+03</pdfrwt>
<pdfrwt beam="2">  1       -4 0.60909916E-01 0.12500541E+03</pdfrwt>
<totfact> 0.63986685E+03</totfact>
</mgrwt>
</event>
<event>
 5    1  0.3232465E-002  0.1250011E+03  0.7818608E-02  0.1235068E+00
         -4   -1    0    0    0  501 -0.00000000000E+00  0.00000000000E+00  0.23424390413E+02  0.23458792941E+02  0.12700000000E+01 0. -1.
          4   -1    0    0  501    0  0.00000000000E+00 -0.00000000000E+00 -0.16660374362E+03  0.16660858408E+03  0.12700000000E+01 0. -1.
         25    2    1    2    0    0  0.00000000000E+00  0.00000000000E+00 -0.14317935321E+03  0.19006737702E+03  0.12500112248E+03 0.  0.
    9000005    1    3    3    0    0  0.35721033532E+02  0.48709078344E+02 -0.95953864732E+02  0.11338743628E+03  0.10000000000E+01 0.  0.
    9000005    1    3    3    0    0 -0.35721033532E+02 -0.48709078344E+02 -0.47225488478E+02  0.76679940739E+02  0.10000000000E+01 0.  0.
<mgrwt>
<rscale>  0 0.12500112E+03</rscale>
<asrwt>0</asrwt>
<pdfrwt beam="2">  1        4 0.25634363E-01 0.12500112E+03</pdfrwt>
<pdfrwt beam="1">  1       -4 0.36067712E-02 0.12500112E+03</pdfrwt>
<totfact> 0.91833284E+03</totfact>
</mgrwt>
</event>
<event>
 5    1  0.3232465E-002  0.1250007E+03  0.7818608E-02  0.1235068E+00
         -4   -1    0    0    0  501 -0.00000000000E+00  0.00000000000E+00  0.93501345921E+02  0.93509970533E+02  0.12700000000E+01 0. -1.
          4   -1    0    0  501    0  0.00000000000E+00 -0.00000000000E+00 -0.41757712043E+02  0.41777020179E+02  0.12700000000E+01 0. -1.
         25    2    1    2    0    0  0.00000000000E+00  0.00000000000E+00  0.51743633878E+02  0.13528699071E+03  0.12500066483E+03 0.  0.
    9000005    1    3    3    0    0  0.48628529151E+02 -0.53397937363E+01 -0.16213051364E+02  0.51547165577E+02  0.10000000000E+01 0.  0.
    9000005    1    3    3    0    0 -0.48628529151E+02  0.53397937363E+01  0.67956685242E+02  0.83739825135E+02  0.10000000000E+01 0.  0.
<mgrwt>
<rscale>  0 0.12500066E+03</rscale>
<asrwt>0</asrwt>
<pdfrwt beam="2">  1        4 0.64264121E-02 0.12500066E+03</pdfrwt>
<pdfrwt beam="1">  1       -4 0.14386971E-01 0.12500066E+03</pdfrwt>
<totfact> 0.10231872E+04</totfact>
</mgrwt>
</event>
<event>
 5    1  0.3232465E-002  0.1249939E+03  0.7818608E-02  0.1235079E+00
          4   -1    0    0  501    0  0.00000000000E+00  0.00000000000E+00  0.41480970313E+02  0.41500407205E+02  0.12700000000E+01 0.  1.
         -4   -1    0    0    0  501 -0.00000000000E+00 -0.00000000000E+00 -0.94114758319E+02  0.94123326723E+02  0.12700000000E+01 0.  1.
         25    2    1    2    0    0  0.00000000000E+00  0.00000000000E+00 -0.52633788005E+02  0.13562373393E+03  0.12499392611E+03 0.  0.
    9000005    1    3    3    0    0  0.10204324358E+02 -0.61346138516E+02 -0.19681839037E+02  0.65236889367E+02  0.10000000000E+01 0.  0.
    9000005    1    3    3    0    0 -0.10204324358E+02  0.61346138516E+02 -0.32951948968E+02  0.70386844560E+02  0.10000000000E+01 0.  0.
<mgrwt>
<rscale>  0 0.12499393E+03</rscale>
<asrwt>0</asrwt>
<pdfrwt beam="1">  1        4 0.63838420E-02 0.12499393E+03</pdfrwt>
<pdfrwt beam="2">  1       -4 0.14481348E-01 0.12499393E+03</pdfrwt>
<totfact> 0.10226342E+04</totfact>
</mgrwt>
</event>
<event>
 5    1  0.3232465E-002  0.1250035E+03  0.7818608E-02  0.1235064E+00
         -4   -1    0    0    0  501 -0.00000000000E+00  0.00000000000E+00  0.22075301723E+03  0.22075667038E+03  0.12700000000E+01 0.  1.
          4   -1    0    0  501    0  0.00000000000E+00 -0.00000000000E+00 -0.17669508570E+02  0.17715090548E+02  0.12700000000E+01 0.  1.
         25    2    1    2    0    0  0.00000000000E+00  0.00000000000E+00  0.20308350866E+03  0.23847176092E+03  0.12500347703E+03 0.  0.
    9000005    1    3    3    0    0  0.62648865284E+01  0.33772040200E+02  0.19435913228E+01  0.34417685130E+02  0.10000000000E+01 0.  0.
    9000005    1    3    3    0    0 -0.62648865284E+01 -0.33772040200E+02  0.20113991734E+03  0.20405407579E+03  0.10000000000E+01 0.  0.
<mgrwt>
<rscale>  0 0.12500348E+03</rscale>
<asrwt>0</asrwt>
<pdfrwt beam="2">  1        4 0.27221732E-02 0.12500348E+03</pdfrwt>
<pdfrwt beam="1">  1       -4 0.33965790E-01 0.12500348E+03</pdfrwt>
<totfact> 0.84018984E+03</totfact>
</mgrwt>
</event>
<event>
 5    1  0.3232465E-002  0.1250013E+03  0.7818608E-02  0.1235067E+00
          4   -1    0    0  501    0  0.00000000000E+00  0.00000000000E+00  0.66702700723E+02  0.66714789843E+02  0.12700000000E+01 0.  1.
         -4   -1    0    0    0  501 -0.00000000000E+00 -0.00000000000E+00 -0.58539034102E+02  0.58552808759E+02  0.12700000000E+01 0.  1.
         25    2    1    2    0    0  0.00000000000E+00  0.00000000000E+00  0.81636666214E+01  0.12526759860E+03  0.12500130322E+03 0.  0.
    9000005    1    3    3    0    0  0.20173763040E+02  0.45666470091E+02  0.41750795053E+02  0.65088678687E+02  0.10000000000E+01 0.  0.
    9000005    1    3    3    0    0 -0.20173763040E+02 -0.45666470091E+02 -0.33587128431E+02  0.60178919914E+02  0.10000000000E+01 0.  0.
<mgrwt>
<rscale>  0 0.12500130E+03</rscale>
<asrwt>0</asrwt>
<pdfrwt beam="1">  1        4 0.10263943E-01 0.12500130E+03</pdfrwt>
<pdfrwt beam="2">  1       -4 0.90079948E-02 0.12500130E+03</pdfrwt>
<totfact> 0.10446745E+04</totfact>
</mgrwt>
</event>
<event>
 5    1  0.3232465E-002  0.1250016E+03  0.7818608E-02  0.1235067E+00
         -4   -1    0    0    0  501 -0.00000000000E+00  0.00000000000E+00  0.23681199647E+02  0.23715229636E+02  0.12700000000E+01 0. -1.
          4   -1    0    0  501    0  0.00000000000E+00 -0.00000000000E+00 -0.16480072338E+03  0.16480561680E+03  0.12700000000E+01 0. -1.
         25    2    1    2    0    0  0.00000000000E+00  0.00000000000E+00 -0.14111952374E+03  0.18852084643E+03  0.12500155823E+03 0.  0.
    9000005    1    3    3    0    0 -0.52214697196E+01  0.34816262166E+02 -0.14842916053E+03  0.15255048853E+03  0.10000000000E+01 0.  0.
    9000005    1    3    3    0    0  0.52214697196E+01 -0.34816262166E+02  0.73096367914E+01  0.35970357898E+02  0.10000000000E+01 0.  0.
<mgrwt>
<rscale>  0 0.12500156E+03</rscale>
<asrwt>0</asrwt>
<pdfrwt beam="2">  1        4 0.25356951E-01 0.12500156E+03</pdfrwt>
<pdfrwt beam="1">  1       -4 0.36462557E-02 0.12500156E+03</pdfrwt>
<totfact> 0.92102106E+03</totfact>
</mgrwt>
</event>
<event>
 5    1  0.3232465E-002  0.1250026E+03  0.7818608E-02  0.1235065E+00
         -4   -1    0    0    0  501 -0.00000000000E+00  0.00000000000E+00  0.96567872799E+02  0.96576223559E+02  0.12700000000E+01 0. -1.
          4   -1    0    0  501    0  0.00000000000E+00 -0.00000000000E+00 -0.40432437020E+02  0.40452377723E+02  0.12700000000E+01 0. -1.
         25    2    1    2    0    0  0.00000000000E+00  0.00000000000E+00  0.56135435778E+02  0.13702860128E+03  0.12500260165E+03 0.  0.
    9000005    1    3    3    0    0 -0.17821983357E+02  0.34226127715E+02 -0.25817934357E+02  0.46439386770E+02  0.10000000000E+01 0.  0.
    9000005    1    3    3    0    0  0.17821983357E+02 -0.34226127715E+02  0.81953370136E+02  0.90589214511E+02  0.10000000000E+01 0.  0.
<mgrwt>
<rscale>  0 0.12500260E+03</rscale>
<asrwt>0</asrwt>
<pdfrwt beam="2">  1        4 0.62225512E-02 0.12500260E+03</pdfrwt>
<pdfrwt beam="1">  1       -4 0.14858772E-01 0.12500260E+03</pdfrwt>
<totfact> 0.10194890E+04</totfact>
</mgrwt>
</event>
<event>
 5    1  0.3232465E-002  0.1249966E+03  0.7818608E-02  0.1235075E+00
          4   -1    0    0  501    0  0.00000000000E+00  0.00000000000E+00  0.73659942267E+03  0.73660051749E+03  0.12700000000E+01 0.  1.
         -4   -1    0    0    0  501 -0.00000000000E+00 -0.00000000000E+00 -0.52256438599E+01  0.53777554566E+01  0.12700000000E+01 0.  1.
         25    2    1    2    0    0  0.00000000000E+00  0.00000000000E+00  0.73137377881E+03  0.74197827295E+03  0.12499661277E+03 0.  0.
    9000005    1    3    3    0    0  0.50406299352E+02  0.36929599149E+02  0.36965998339E+03  0.37490544625E+03  0.10000000000E+01 0.  0.
    9000005    1    3    3    0    0 -0.50406299352E+02 -0.36929599149E+02  0.36171379542E+03  0.36707282670E+03  0.10000000000E+01 0.  0.
<mgrwt>
<rscale>  0 0.12499661E+03</rscale>
<asrwt>0</asrwt>
<pdfrwt beam="1">  1        4 0.11333480E+00 0.12499661E+03</pdfrwt>
<pdfrwt beam="2">  1       -4 0.81573012E-03 0.12499661E+03</pdfrwt>
<totfact> 0.40963810E+03</totfact>
</mgrwt>
</event>
<event>
 5    1  0.3232465E-002  0.1249958E+03  0.7818608E-02  0.1235076E+00
         -4   -1    0    0    0  501 -0.00000000000E+00  0.00000000000E+00  0.23833894529E+01  0.27006379402E+01  0.12700000000E+01 0.  1.
          4   -1    0    0  501    0  0.00000000000E+00 -0.00000000000E+00 -0.15362551566E+04  0.15362556815E+04  0.12700000000E+01 0.  1.
         25    2    1    2    0    0  0.00000000000E+00  0.00000000000E+00 -0.15338717671E+04  0.15389563195E+04  0.12499582086E+03 0.  0.
    9000005    1    3    3    0    0 -0.32327932957E+02 -0.27720482647E+02 -0.13299981889E+04  0.13306801655E+04  0.10000000000E+01 0.  0.
    9000005    1    3    3    0    0  0.32327932957E+02  0.27720482647E+02 -0.20387357829E+03  0.20827615402E+03  0.10000000000E+01 0.  0.
<mgrwt>
<rscale>  0 0.12499582E+03</rscale>
<asrwt>0</asrwt>
<pdfrwt beam="2">  1        4 0.23637065E+00 0.12499582E+03</pdfrwt>
<pdfrwt beam="1">  1       -4 0.39112064E-03 0.12499582E+03</pdfrwt>
<totfact> 0.17178878E+03</totfact>
</mgrwt>
</event>
<event>
 5    1  0.3232465E-002  0.1249982E+03  0.7818608E-02  0.1235072E+00
         -4   -1    0    0    0  501 -0.00000000000E+00  0.00000000000E+00  0.68020991560E+02  0.68032846426E+02  0.12700000000E+01 0. -1.
          4   -1    0    0  501    0  0.00000000000E+00 -0.00000000000E+00 -0.57401619780E+02  0.57415667316E+02  0.12700000000E+01 0. -1.
         25    2    1    2    0    0  0.00000000000E+00  0.00000000000E+00  0.10619371780E+02  0.12544851374E+03  0.12499823416E+03 0.  0.
    9000005    1    3    3    0    0  0.34495856992E+02 -0.48115072117E+02 -0.14765253071E+02  0.61024888469E+02  0.10000000000E+01 0.  0.
    9000005    1    3    3    0    0 -0.34495856992E+02  0.48115072117E+02  0.25384624850E+02  0.64423625272E+02  0.10000000000E+01 0.  0.
<mgrwt>
<rscale>  0 0.12499823E+03</rscale>
<asrwt>0</asrwt>
<pdfrwt beam="2">  1        4 0.88330109E-02 0.12499823E+03</pdfrwt>
<pdfrwt beam="1">  1       -4 0.10466760E-01 0.12499823E+03</pdfrwt>
<totfact> 0.10443509E+04</totfact>
</mgrwt>
</event>
<event>
 5    1  0.3232465E-002  0.1249909E+03  0.7818608E-02  0.1235083E+00
          4   -1    0    0  501    0  0.00000000000E+00  0.00000000000E+00  0.23826224430E+04  0.23826227815E+04  0.12700000000E+01 0.  1.
         -4   -1    0    0    0  501 -0.00000000000E+00 -0.00000000000E+00 -0.13928649492E+01  0.18849330934E+01  0.12700000000E+01 0.  1.
         25    2    1    2    0    0  0.00000000000E+00  0.00000000000E+00  0.23812295781E+04  0.23845077146E+04  0.12499094942E+03 0.  0.
    9000005    1    3    3    0    0  0.32241686572E+02 -0.32540432760E+02  0.20014124556E+04  0.20019368681E+04  0.10000000000E+01 0.  0.
    9000005    1    3    3    0    0 -0.32241686572E+02  0.32540432760E+02  0.37981712241E+03  0.38257084650E+03  0.10000000000E+01 0.  0.
<mgrwt>
<rscale>  0 0.12499095E+03</rscale>
<asrwt>0</asrwt>
<pdfrwt beam="1">  1        4 0.36659390E+00 0.12499095E+03</pdfrwt>
<pdfrwt beam="2">  1       -4 0.25216522E-03 0.12499095E+03</pdfrwt>
<totfact> 0.56424587E+02</totfact>
</mgrwt>
</event>
<event>
 5    1  0.3232465E-002  0.1250015E+03  0.7818608E-02  0.1235067E+00
          4   -1    0    0  501    0  0.00000000000E+00  0.00000000000E+00  0.80888085200E+02  0.80898054534E+02  0.12700000000E+01 0. -1.
         -4   -1    0    0    0  501 -0.00000000000E+00 -0.00000000000E+00 -0.48271884069E+02  0.48288587591E+02  0.12700000000E+01 0. -1.
         25    2    1    2    0    0  0.00000000000E+00  0.00000000000E+00  0.32616201132E+02  0.12918664213E+03  0.12500148770E+03 0.  0.
    9000005    1    3    3    0    0 -0.11248964500E+02 -0.57297922583E+02 -0.67028520853E+01  0.58783665764E+02  0.10000000000E+01 0.  0.
    9000005    1    3    3    0    0  0.11248964500E+02  0.57297922583E+02  0.39319053217E+02  0.70402976361E+02  0.10000000000E+01 0.  0.
<mgrwt>
<rscale>  0 0.12500149E+03</rscale>
<asrwt>0</asrwt>
<pdfrwt beam="1">  1        4 0.12446373E-01 0.12500149E+03</pdfrwt>
<pdfrwt beam="2">  1       -4 0.74284955E-02 0.12500149E+03</pdfrwt>
<totfact> 0.10361590E+04</totfact>
</mgrwt>
</event>
<event>
 5    1  0.3232465E-002  0.1249997E+03  0.7818608E-02  0.1235070E+00
         -4   -1    0    0    0  501 -0.00000000000E+00  0.00000000000E+00  0.12220084034E+04  0.12220090634E+04  0.12700000000E+01 0.  1.
          4   -1    0    0  501    0  0.00000000000E+00 -0.00000000000E+00 -0.30697338795E+01  0.33220725595E+01  0.12700000000E+01 0.  1.
         25    2    1    2    0    0  0.00000000000E+00  0.00000000000E+00  0.12189386696E+04  0.12253311359E+04  0.12499965019E+03 0.  0.
    9000005    1    3    3    0    0 -0.55751389977E+02 -0.26665157978E+02  0.51857362227E+03  0.52224405200E+03  0.10000000000E+01 0.  0.
    9000005    1    3    3    0    0  0.55751389977E+02  0.26665157978E+02  0.70036504729E+03  0.70308708394E+03  0.10000000000E+01 0.  0.
<mgrwt>
<rscale>  0 0.12499965E+03</rscale>
<asrwt>0</asrwt>
<pdfrwt beam="2">  1        4 0.49172865E-03 0.12499965E+03</pdfrwt>
<pdfrwt beam="1">  1       -4 0.18802058E+00 0.12499965E+03</pdfrwt>
<totfact> 0.24059391E+03</totfact>
</mgrwt>
</event>
<event>
 5    1  0.3232465E-002  0.1249962E+03  0.7818608E-02  0.1235075E+00
          4   -1    0    0  501    0  0.00000000000E+00  0.00000000000E+00  0.47045894190E+02  0.47063032840E+02  0.12700000000E+01 0.  1.
         -4   -1    0    0    0  501 -0.00000000000E+00 -0.00000000000E+00 -0.82988404781E+02  0.82998121835E+02  0.12700000000E+01 0.  1.
         25    2    1    2    0    0  0.00000000000E+00  0.00000000000E+00 -0.35942510591E+02  0.13006115468E+03  0.12499615949E+03 0.  0.
    9000005    1    3    3    0    0  0.22140474948E+02  0.52960465885E+02  0.77276889232E+01  0.57928652269E+02  0.10000000000E+01 0.  0.
    9000005    1    3    3    0    0 -0.22140474948E+02 -0.52960465885E+02 -0.43670199514E+02  0.72132502406E+02  0.10000000000E+01 0.  0.
<mgrwt>
<rscale>  0 0.12499616E+03</rscale>
<asrwt>0</asrwt>
<pdfrwt beam="1">  1        4 0.72398957E-02 0.12499616E+03</pdfrwt>
<pdfrwt beam="2">  1       -4 0.12769513E-01 0.12499616E+03</pdfrwt>
<totfact> 0.10344096E+04</totfact>
</mgrwt>
</event>
<event>
 5    1  0.3232465E-002  0.1250001E+03  0.7818608E-02  0.1235069E+00
          4   -1    0    0  501    0  0.00000000000E+00  0.00000000000E+00  0.11376415633E+02  0.11447084024E+02  0.12700000000E+01 0. -1.
         -4   -1    0    0    0  501 -0.00000000000E+00 -0.00000000000E+00 -0.34222936483E+03  0.34223172129E+03  0.12700000000E+01 0. -1.
         25    2    1    2    0    0  0.00000000000E+00  0.00000000000E+00 -0.33085294920E+03  0.35367880531E+03  0.12500009332E+03 0.  0.
    9000005    1    3    3    0    0  0.20284557765E+02 -0.57977294830E+02 -0.19798652396E+03  0.20729807927E+03  0.10000000000E+01 0.  0.
    9000005    1    3    3    0    0 -0.20284557765E+02  0.57977294830E+02 -0.13286642524E+03  0.14638072604E+03  0.10000000000E+01 0.  0.
<mgrwt>
<rscale>  0 0.12500009E+03</rscale>
<asrwt>0</asrwt>
<pdfrwt beam="1">  1        4 0.17558353E-02 0.12500009E+03</pdfrwt>
<pdfrwt beam="2">  1       -4 0.52656281E-01 0.12500009E+03</pdfrwt>
<totfact> 0.69321590E+03</totfact>
</mgrwt>
</event>
<event>
 5    1  0.3232465E-002  0.1250033E+03  0.7818608E-02  0.1235064E+00
          4   -1    0    0  501    0  0.00000000000E+00  0.00000000000E+00  0.62543704211E+02  0.62556597066E+02  0.12700000000E+01 0.  1.
         -4   -1    0    0    0  501 -0.00000000000E+00 -0.00000000000E+00 -0.62433794266E+02  0.62446709813E+02  0.12700000000E+01 0.  1.
         25    2    1    2    0    0  0.00000000000E+00  0.00000000000E+00  0.10990994524E+00  0.12500330688E+03  0.12500325856E+03 0.  0.
    9000005    1    3    3    0    0 -0.11474804317E+02  0.11526909457E+02  0.60394955815E+02  0.62554707765E+02  0.10000000000E+01 0.  0.
    9000005    1    3    3    0    0  0.11474804317E+02 -0.11526909457E+02 -0.60285045869E+02  0.62448599113E+02  0.10000000000E+01 0.  0.
<mgrwt>
<rscale>  0 0.12500326E+03</rscale>
<asrwt>0</asrwt>
<pdfrwt beam="1">  1        4 0.96240936E-02 0.12500326E+03</pdfrwt>
<pdfrwt beam="2">  1       -4 0.96071844E-02 0.12500326E+03</pdfrwt>
<totfact> 0.10452021E+04</totfact>
</mgrwt>
</event>
<event>
 5    1  0.3232465E-002  0.1250124E+03  0.7818608E-02  0.1235050E+00
          4   -1    0    0  501    0  0.00000000000E+00  0.00000000000E+00  0.20446128162E+02  0.20485532866E+02  0.12700000000E+01 0. -1.
         -4   -1    0    0    0  501 -0.00000000000E+00 -0.00000000000E+00 -0.19086312335E+03  0.19086734858E+03  0.12700000000E+01 0. -1.
         25    2    1    2    0    0  0.00000000000E+00  0.00000000000E+00 -0.17041699518E+03  0.21135288144E+03  0.12501235238E+03 0.  0.
    9000005    1    3    3    0    0 -0.50198541130E+02 -0.29410678666E+02 -0.46613353849E+02  0.74556598020E+02  0.10000000000E+01 0.  0.
    9000005    1    3    3    0    0  0.50198541130E+02  0.29410678666E+02 -0.12380364133E+03  0.13679628343E+03  0.10000000000E+01 0.  0.
<mgrwt>
<rscale>  0 0.12501235E+03</rscale>
<asrwt>0</asrwt>
<pdfrwt beam="1">  1        4 0.31489145E-02 0.12501235E+03</pdfrwt>
<pdfrwt beam="2">  1       -4 0.29366912E-01 0.12501235E+03</pdfrwt>
<totfact> 0.88231049E+03</totfact>
</mgrwt>
</event>
<event>
 5    1  0.3232465E-002  0.1249981E+03  0.7818608E-02  0.1235072E+00
          4   -1    0    0  501    0  0.00000000000E+00  0.00000000000E+00  0.14005101501E+02  0.14062566197E+02  0.12700000000E+01 0.  1.
         -4   -1    0    0    0  501 -0.00000000000E+00 -0.00000000000E+00 -0.27827766197E+03  0.27828055996E+03  0.12700000000E+01 0.  1.
         25    2    1    2    0    0  0.00000000000E+00  0.00000000000E+00 -0.26427256047E+03  0.29234312616E+03  0.12499806876E+03 0.  0.
    9000005    1    3    3    0    0 -0.36376002334E+02  0.22223831248E+02 -0.25266084014E+02  0.49562962205E+02  0.10000000000E+01 0.  0.
    9000005    1    3    3    0    0  0.36376002334E+02 -0.22223831248E+02 -0.23900647646E+03  0.24278016396E+03  0.10000000000E+01 0.  0.
<mgrwt>
<rscale>  0 0.12499807E+03</rscale>
<asrwt>0</asrwt>
<pdfrwt beam="1">  1        4 0.21592745E-02 0.12499807E+03</pdfrwt>
<pdfrwt beam="2">  1       -4 0.42816587E-01 0.12499807E+03</pdfrwt>
<totfact> 0.76572738E+03</totfact>
</mgrwt>
</event>
<event>
 5    1  0.3232465E-002  0.1249973E+03  0.7818608E-02  0.1235073E+00
         -4   -1    0    0    0  501 -0.00000000000E+00  0.00000000000E+00  0.14083008683E+03  0.14083581312E+03  0.12700000000E+01 0. -1.
          4   -1    0    0  501    0  0.00000000000E+00 -0.00000000000E+00 -0.27715304970E+02  0.27744387353E+02  0.12700000000E+01 0. -1.
         25    2    1    2    0    0  0.00000000000E+00  0.00000000000E+00  0.11311478186E+03  0.16858020047E+03  0.12499732043E+03 0.  0.
    9000005    1    3    3    0    0  0.40309941924E+02  0.44260834398E+02  0.32387587874E+02  0.68072525499E+02  0.10000000000E+01 0.  0.
    9000005    1    3    3    0    0 -0.40309941924E+02 -0.44260834398E+02  0.80727193985E+02  0.10050767497E+03  0.10000000000E+01 0.  0.
<mgrwt>
<rscale>  0 0.12499732E+03</rscale>
<asrwt>0</asrwt>
<pdfrwt beam="2">  1        4 0.42665706E-02 0.12499732E+03</pdfrwt>
<pdfrwt beam="1">  1       -4 0.21668845E-01 0.12499732E+03</pdfrwt>
<totfact> 0.95719382E+03</totfact>
</mgrwt>
</event>
<event>
 5    1  0.3232465E-002  0.1249985E+03  0.7818608E-02  0.1235072E+00
          4   -1    0    0  501    0  0.00000000000E+00  0.00000000000E+00  0.32306170528E+02  0.32331123615E+02  0.12700000000E+01 0. -1.
         -4   -1    0    0    0  501 -0.00000000000E+00 -0.00000000000E+00 -0.12083558732E+03  0.12084226108E+03  0.12700000000E+01 0. -1.
         25    2    1    2    0    0  0.00000000000E+00  0.00000000000E+00 -0.88529416793E+02  0.15317338470E+03  0.12499851256E+03 0.  0.
    9000005    1    3    3    0    0  0.30684597073E+02  0.50078369512E+02 -0.18103905586E+02  0.61466568051E+02  0.10000000000E+01 0.  0.
    9000005    1    3    3    0    0 -0.30684597073E+02 -0.50078369512E+02 -0.70425511208E+02  0.91706816646E+02  0.10000000000E+01 0.  0.
<mgrwt>
<rscale>  0 0.12499851E+03</rscale>
<asrwt>0</asrwt>
<pdfrwt beam="1">  1        4 0.49726130E-02 0.12499851E+03</pdfrwt>
<pdfrwt beam="2">  1       -4 0.18592523E-01 0.12499851E+03</pdfrwt>
<totfact> 0.98678153E+03</totfact>
</mgrwt>
</event>
<event>
 5    1  0.3232465E-002  0.1249964E+03  0.7818608E-02  0.1235075E+00
          4   -1    0    0  501    0  0.00000000000E+00  0.00000000000E+00  0.20815735506E+02  0.20854441845E+02  0.12700000000E+01 0.  1.
         -4   -1    0    0    0  501 -0.00000000000E+00 -0.00000000000E+00 -0.18743269371E+03  0.18743699627E+03  0.12700000000E+01 0.  1.
         25    2    1    2    0    0  0.00000000000E+00  0.00000000000E+00 -0.16661695821E+03  0.20829143812E+03  0.12499644968E+03 0.  0.
    9000005    1    3    3    0    0 -0.28838619235E+02 -0.15016644358E+02  0.56184412332E+01  0.33011095847E+02  0.10000000000E+01 0.  0.
    9000005    1    3    3    0    0  0.28838619235E+02  0.15016644358E+02 -0.17223539944E+03  0.17528034227E+03  0.10000000000E+01 0.  0.
<mgrwt>
<rscale>  0 0.12499645E+03</rscale>
<asrwt>0</asrwt>
<pdfrwt beam="1">  1        4 0.32057293E-02 0.12499645E+03</pdfrwt>
<pdfrwt beam="2">  1       -4 0.28839106E-01 0.12499645E+03</pdfrwt>
<totfact> 0.88762720E+03</totfact>
</mgrwt>
</event>
<event>
 5    1  0.3232465E-002  0.1250013E+03  0.7818608E-02  0.1235067E+00
         -4   -1    0    0    0  501 -0.00000000000E+00  0.00000000000E+00  0.64545508123E+03  0.64545633065E+03  0.12700000000E+01 0. -1.
          4   -1    0    0  501    0  0.00000000000E+00 -0.00000000000E+00 -0.59841633605E+01  0.61174431853E+01  0.12700000000E+01 0. -1.
         25    2    1    2    0    0  0.00000000000E+00  0.00000000000E+00  0.63947091787E+03  0.65157377384E+03  0.12500131183E+03 0.  0.
    9000005    1    3    3    0    0 -0.60777829791E+02 -0.63969700799E+01  0.25167919161E+03  0.25899475151E+03  0.10000000000E+01 0.  0.
    9000005    1    3    3    0    0  0.60777829791E+02  0.63969700799E+01  0.38779172625E+03  0.39257902233E+03  0.10000000000E+01 0.  0.
<mgrwt>
<rscale>  0 0.12500131E+03</rscale>
<asrwt>0</asrwt>
<pdfrwt beam="2">  1        4 0.93098911E-03 0.12500131E+03</pdfrwt>
<pdfrwt beam="1">  1       -4 0.99311110E-01 0.12500131E+03</pdfrwt>
<totfact> 0.45764460E+03</totfact>
</mgrwt>
</event>
<event>
 5    1  0.3232465E-002  0.1249929E+03  0.7818608E-02  0.1235080E+00
         -4   -1    0    0    0  501 -0.00000000000E+00  0.00000000000E+00  0.11817470939E+03  0.11818153341E+03  0.12700000000E+01 0. -1.
          4   -1    0    0  501    0  0.00000000000E+00 -0.00000000000E+00 -0.33031160781E+02  0.33055566589E+02  0.12700000000E+01 0. -1.
         25    2    1    2    0    0  0.00000000000E+00  0.00000000000E+00  0.85143548605E+02  0.15123710000E+03  0.12499294599E+03 0.  0.
    9000005    1    3    3    0    0  0.61561633396E+02  0.69647213848E+00  0.55518364292E+02  0.82907228596E+02  0.10000000000E+01 0.  0.
    9000005    1    3    3    0    0 -0.61561633396E+02 -0.69647213848E+00  0.29625184312E+02  0.68329871399E+02  0.10000000000E+01 0.  0.
<mgrwt>
<rscale>  0 0.12499295E+03</rscale>
<asrwt>0</asrwt>
<pdfrwt beam="2">  1        4 0.50841194E-02 0.12499295E+03</pdfrwt>
<pdfrwt beam="1">  1       -4 0.18183127E-01 0.12499295E+03</pdfrwt>
<totfact> 0.99073396E+03</totfact>
</mgrwt>
</event>
<event>
 5    1  0.3232465E-002  0.1250146E+03  0.7818608E-02  0.1235046E+00
         -4   -1    0    0    0  501 -0.00000000000E+00  0.00000000000E+00  0.18240205563E+03  0.18240647685E+03  0.12700000000E+01 0.  1.
          4   -1    0    0  501    0  0.00000000000E+00 -0.00000000000E+00 -0.21397094539E+02  0.21434751100E+02  0.12700000000E+01 0.  1.
         25    2    1    2    0    0  0.00000000000E+00  0.00000000000E+00  0.16100496109E+03  0.20384122795E+03  0.12501459402E+03 0.  0.
    9000005    1    3    3    0    0  0.22128543915E+02  0.24241859062E+02 -0.62204852994E+01  0.33422067918E+02  0.10000000000E+01 0.  0.
    9000005    1    3    3    0    0 -0.22128543915E+02 -0.24241859062E+02  0.16722544639E+03  0.17041916003E+03  0.10000000000E+01 0.  0.
<mgrwt>
<rscale>  0 0.12501459E+03</rscale>
<asrwt>0</asrwt>
<pdfrwt beam="2">  1        4 0.32950974E-02 0.12501459E+03</pdfrwt>
<pdfrwt beam="1">  1       -4 0.28065092E-01 0.12501459E+03</pdfrwt>
<totfact> 0.89462461E+03</totfact>
</mgrwt>
</event>
<event>
 5    1  0.3232465E-002  0.1250200E+03  0.7818608E-02  0.1235038E+00
          4   -1    0    0  501    0  0.00000000000E+00  0.00000000000E+00  0.44944026236E+02  0.44961966086E+02  0.12700000000E+01 0.  1.
         -4   -1    0    0    0  501 -0.00000000000E+00 -0.00000000000E+00 -0.86901522391E+02  0.86910801940E+02  0.12700000000E+01 0.  1.
         25    2    1    2    0    0  0.00000000000E+00  0.00000000000E+00 -0.41957496155E+02  0.13187276803E+03  0.12501998026E+03 0.  0.
    9000005    1    3    3    0    0  0.62392385402E+02 -0.19148904252E+01 -0.17639416938E+02  0.64873920734E+02  0.10000000000E+01 0.  0.
    9000005    1    3    3    0    0 -0.62392385402E+02  0.19148904252E+01 -0.24318079217E+02  0.66998847291E+02  0.10000000000E+01 0.  0.
<mgrwt>
<rscale>  0 0.12501998E+03</rscale>
<asrwt>0</asrwt>
<pdfrwt beam="1">  1        4 0.69165594E-02 0.12501998E+03</pdfrwt>
<pdfrwt beam="2">  1       -4 0.13371559E-01 0.12501998E+03</pdfrwt>
<totfact> 0.10299772E+04</totfact>
</mgrwt>
</event>
<event>
 5    1  0.3232465E-002  0.1249955E+03  0.7818608E-02  0.1235076E+00
         -4   -1    0    0    0  501 -0.00000000000E+00  0.00000000000E+00  0.66242003292E+02  0.66254176473E+02  0.12700000000E+01 0. -1.
          4   -1    0    0  501    0  0.00000000000E+00 -0.00000000000E+00 -0.58940714543E+02  0.58954395348E+02  0.12700000000E+01 0. -1.
         25    2    1    2    0    0  0.00000000000E+00  0.00000000000E+00  0.73012887485E+01  0.12520857182E+03  0.12499551048E+03 0.  0.
    9000005    1    3    3    0    0  0.40165539241E+02 -0.47767126935E+02  0.68183838807E+01  0.62789006337E+02  0.10000000000E+01 0.  0.
    9000005    1    3    3    0    0 -0.40165539241E+02  0.47767126935E+02  0.48290486777E+00  0.62419565484E+02  0.10000000000E+01 0.  0.
<mgrwt>
<rscale>  0 0.12499551E+03</rscale>
<asrwt>0</asrwt>
<pdfrwt beam="2">  1        4 0.90697910E-02 0.12499551E+03</pdfrwt>
<pdfrwt beam="1">  1       -4 0.10193066E-01 0.12499551E+03</pdfrwt>
<totfact> 0.10449394E+04</totfact>
</mgrwt>
</event>
<event>
 5    1  0.3232465E-002  0.1249999E+03  0.7818608E-02  0.1235069E+00
          4   -1    0    0  501    0  0.00000000000E+00  0.00000000000E+00  0.43768880320E+01  0.45574169049E+01  0.12700000000E+01 0. -1.
         -4   -1    0    0    0  501 -0.00000000000E+00 -0.00000000000E+00 -0.87425620270E+03  0.87425712514E+03  0.12700000000E+01 0. -1.
         25    2    1    2    0    0  0.00000000000E+00  0.00000000000E+00 -0.86987931467E+03  0.87881454205E+03  0.12499990889E+03 0.  0.
    9000005    1    3    3    0    0 -0.25035049074E+02 -0.53302780910E+01 -0.83574590349E+03  0.83613837416E+03  0.10000000000E+01 0.  0.
    9000005    1    3    3    0    0  0.25035049074E+02  0.53302780910E+01 -0.34133411185E+02  0.42676167890E+02  0.10000000000E+01 0.  0.
<mgrwt>
<rscale>  0 0.12499991E+03</rscale>
<asrwt>0</asrwt>
<pdfrwt beam="1">  1        4 0.68732588E-03 0.12499991E+03</pdfrwt>
<pdfrwt beam="2">  1       -4 0.13451478E+00 0.12499991E+03</pdfrwt>
<totfact> 0.34976435E+03</totfact>
</mgrwt>
</event>
<event>
 5    1  0.3232465E-002  0.1249993E+03  0.7818608E-02  0.1235070E+00
         -4   -1    0    0    0  501 -0.00000000000E+00  0.00000000000E+00  0.34568470350E+03  0.34568703640E+03  0.12700000000E+01 0.  1.
          4   -1    0    0  501    0  0.00000000000E+00 -0.00000000000E+00 -0.11261857060E+02  0.11333239803E+02  0.12700000000E+01 0.  1.
         25    2    1    2    0    0  0.00000000000E+00  0.00000000000E+00  0.33442284644E+03  0.35702027620E+03  0.12499934959E+03 0.  0.
    9000005    1    3    3    0    0 -0.24839242750E+02 -0.83146539572E+01  0.32926236007E+03  0.33030413744E+03  0.10000000000E+01 0.  0.
    9000005    1    3    3    0    0  0.24839242750E+02  0.83146539572E+01  0.51604863714E+01  0.26716138763E+02  0.10000000000E+01 0.  0.
<mgrwt>
<rscale>  0 0.12499935E+03</rscale>
<asrwt>0</asrwt>
<pdfrwt beam="2">  1        4 0.17382641E-02 0.12499935E+03</pdfrwt>
<pdfrwt beam="1">  1       -4 0.53187925E-01 0.12499935E+03</pdfrwt>
<totfact> 0.68960078E+03</totfact>
</mgrwt>
</event>
<event>
 5    1  0.3232465E-002  0.1249965E+03  0.7818608E-02  0.1235075E+00
         -4   -1    0    0    0  501 -0.00000000000E+00  0.00000000000E+00  0.27362800664E+02  0.27392257303E+02  0.12700000000E+01 0. -1.
          4   -1    0    0  501    0  0.00000000000E+00 -0.00000000000E+00 -0.14264067111E+03  0.14264632472E+03  0.12700000000E+01 0. -1.
         25    2    1    2    0    0  0.00000000000E+00  0.00000000000E+00 -0.11527787045E+03  0.17003858202E+03  0.12499652779E+03 0.  0.
    9000005    1    3    3    0    0 -0.50388322675E+02 -0.34498595551E+02 -0.75680680037E+02  0.97250714588E+02  0.10000000000E+01 0.  0.
    9000005    1    3    3    0    0  0.50388322675E+02  0.34498595551E+02 -0.39597190412E+02  0.72787867433E+02  0.10000000000E+01 0.  0.
<mgrwt>
<rscale>  0 0.12499653E+03</rscale>
<asrwt>0</asrwt>
<pdfrwt beam="2">  1        4 0.21947419E-01 0.12499653E+03</pdfrwt>
<pdfrwt beam="1">  1       -4 0.42123625E-02 0.12499653E+03</pdfrwt>
<totfact> 0.95448884E+03</totfact>
</mgrwt>
</event>
<event>
 5    1  0.3232465E-002  0.1249966E+03  0.7818608E-02  0.1235075E+00
         -4   -1    0    0    0  501 -0.00000000000E+00  0.00000000000E+00  0.68813008005E+02  0.68824726448E+02  0.12700000000E+01 0.  1.
          4   -1    0    0  501    0  0.00000000000E+00 -0.00000000000E+00 -0.56739369726E+02  0.56753581181E+02  0.12700000000E+01 0.  1.
         25    2    1    2    0    0  0.00000000000E+00  0.00000000000E+00  0.12073638279E+02  0.12557830763E+03  0.12499655438E+03 0.  0.
    9000005    1    3    3    0    0  0.12569864451E+01  0.18251804122E+02 -0.53993484201E+02  0.57017582418E+02  0.10000000000E+01 0.  0.
    9000005    1    3    3    0    0 -0.12569864451E+01 -0.18251804122E+02  0.66067122481E+02  0.68560725211E+02  0.10000000000E+01 0.  0.
<mgrwt>
<rscale>  0 0.12499655E+03</rscale>
<asrwt>0</asrwt>
<pdfrwt beam="2">  1        4 0.87311284E-02 0.12499655E+03</pdfrwt>
<pdfrwt beam="1">  1       -4 0.10588611E-01 0.12499655E+03</pdfrwt>
<totfact> 0.10441037E+04</totfact>
</mgrwt>
</event>
<event>
 5    1  0.3232465E-002  0.1250032E+03  0.7818608E-02  0.1235064E+00
          4   -1    0    0  501    0  0.00000000000E+00  0.00000000000E+00  0.24625072750E+02  0.24657800144E+02  0.12700000000E+01 0.  1.
         -4   -1    0    0    0  501 -0.00000000000E+00 -0.00000000000E+00 -0.15849654826E+03  0.15850163630E+03  0.12700000000E+01 0.  1.
         25    2    1    2    0    0  0.00000000000E+00  0.00000000000E+00 -0.13387147551E+03  0.18315943645E+03  0.12500322877E+03 0.  0.
    9000005    1    3    3    0    0 -0.39100677210E+02 -0.16331969623E+02 -0.13423873966E+03  0.14077157176E+03  0.10000000000E+01 0.  0.
    9000005    1    3    3    0    0  0.39100677210E+02  0.16331969623E+02  0.36726414671E+00  0.42387864690E+02  0.10000000000E+01 0.  0.
<mgrwt>
<rscale>  0 0.12500323E+03</rscale>
<asrwt>0</asrwt>
<pdfrwt beam="1">  1        4 0.37913817E-02 0.12500323E+03</pdfrwt>
<pdfrwt beam="2">  1       -4 0.24386993E-01 0.12500323E+03</pdfrwt>
<totfact> 0.93044632E+03</totfact>
</mgrwt>
</event>
<event>
 4    1  0.3232465E-002  0.1249115E+03  0.7818608E-02  0.1235208E+00
          4   -1    0    0  501    0  0.00000000000E+00  0.00000000000E+00  0.43572572964E+02  0.43591077237E+02  0.12700000000E+01 0.  1.
         -4   -1    0    0    0  501 -0.00000000000E+00 -0.00000000000E+00 -0.89480418607E+02  0.89489430739E+02  0.12700000000E+01 0.  1.
    9000005    1    1    2    0    0 -0.23353144527E+02 -0.57408378658E+02 -0.14796038996E+02  0.63726086255E+02  0.10000000000E+01 0.  0.
    9000005    1    1    2    0    0  0.23353144527E+02  0.57408378658E+02 -0.31111806647E+02  0.69354421721E+02  0.10000000000E+01 0.  0.
<mgrwt>
<rscale>  0 0.12491153E+03</rscale>
<asrwt>0</asrwt>
<pdfrwt beam="1">  1        4 0.67055894E-02 0.12491153E+03</pdfrwt>
<pdfrwt beam="2">  1       -4 0.13768335E-01 0.12491153E+03</pdfrwt>
<totfact> 0.10299227E+04</totfact>
</mgrwt>
</event>
<event>
 5    1  0.3232465E-002  0.1249996E+03  0.7818608E-02  0.1235070E+00
          4   -1    0    0  501    0  0.00000000000E+00  0.00000000000E+00  0.17453939996E+01  0.21585412235E+01  0.12700000000E+01 0.  1.
         -4   -1    0    0    0  501 -0.00000000000E+00 -0.00000000000E+00 -0.20007610821E+04  0.20007614852E+04  0.12700000000E+01 0.  1.
         25    2    1    2    0    0  0.00000000000E+00  0.00000000000E+00 -0.19990156881E+04  0.20029200264E+04  0.12499964345E+03 0.  0.
    9000005    1    3    3    0    0  0.10848010406E+02  0.61249483949E+02 -0.90330186591E+03  0.90544157160E+03  0.10000000000E+01 0.  0.
    9000005    1    3    3    0    0 -0.10848010406E+02 -0.61249483949E+02 -0.10957138222E+04  0.10974784548E+04  0.10000000000E+01 0.  0.
<mgrwt>
<rscale>  0 0.12499964E+03</rscale>
<asrwt>0</asrwt>
<pdfrwt beam="1">  1        4 0.30033532E-03 0.12499964E+03</pdfrwt>
<pdfrwt beam="2">  1       -4 0.30783957E+00 0.12499964E+03</pdfrwt>
<totfact> 0.98233497E+02</totfact>
</mgrwt>
</event>
<event>
 5    1  0.3232465E-002  0.1249996E+03  0.7818608E-02  0.1235070E+00
          4   -1    0    0  501    0  0.00000000000E+00  0.00000000000E+00  0.42853487292E+03  0.42853675479E+03  0.12700000000E+01 0. -1.
         -4   -1    0    0    0  501 -0.00000000000E+00 -0.00000000000E+00 -0.90691516192E+01  0.91576422234E+01  0.12700000000E+01 0. -1.
         25    2    1    2    0    0  0.00000000000E+00  0.00000000000E+00  0.41946572130E+03  0.43769439702E+03  0.12499957533E+03 0.  0.
    9000005    1    3    3    0    0 -0.40153058589E+02 -0.47875141278E+02  0.21310272897E+03  0.22207672179E+03  0.10000000000E+01 0.  0.
    9000005    1    3    3    0    0  0.40153058589E+02  0.47875141278E+02  0.20636299233E+03  0.21561767523E+03  0.10000000000E+01 0.  0.
<mgrwt>
<rscale>  0 0.12499958E+03</rscale>
<asrwt>0</asrwt>
<pdfrwt beam="1">  1        4 0.65935402E-01 0.12499958E+03</pdfrwt>
<pdfrwt beam="2">  1       -4 0.14022057E-02 0.12499958E+03</pdfrwt>
<totfact> 0.61045246E+03</totfact>
</mgrwt>
</event>
<event>
 5    1  0.3232465E-002  0.1249971E+03  0.7818608E-02  0.1235074E+00
          4   -1    0    0  501    0  0.00000000000E+00  0.00000000000E+00  0.45852396618E+03  0.45852572497E+03  0.12700000000E+01 0. -1.
         -4   -1    0    0    0  501 -0.00000000000E+00 -0.00000000000E+00 -0.84696661618E+01  0.85643531508E+01  0.12700000000E+01 0. -1.
         25    2    1    2    0    0  0.00000000000E+00  0.00000000000E+00  0.45005430002E+03  0.46709007812E+03  0.12499707243E+03 0.  0.
    9000005    1    3    3    0    0  0.58314526659E+02  0.85601773935E+01  0.30262387391E+03  0.30831164382E+03  0.10000000000E+01 0.  0.
    9000005    1    3    3    0    0 -0.58314526659E+02 -0.85601773935E+01  0.14743042611E+03  0.15877843430E+03  0.10000000000E+01 0.  0.
<mgrwt>
<rscale>  0 0.12499707E+03</rscale>
<asrwt>0</asrwt>
<pdfrwt beam="1">  1        4 0.70549587E-01 0.12499707E+03</pdfrwt>
<pdfrwt beam="2">  1       -4 0.13104441E-02 0.12499707E+03</pdfrwt>
<totfact> 0.58515113E+03</totfact>
</mgrwt>
</event>
<event>
 5    1  0.3232465E-002  0.1249990E+03  0.7818608E-02  0.1235071E+00
          4   -1    0    0  501    0  0.00000000000E+00  0.00000000000E+00  0.16550674018E+03  0.16551161272E+03  0.12700000000E+01 0. -1.
         -4   -1    0    0    0  501 -0.00000000000E+00 -0.00000000000E+00 -0.23579088396E+02  0.23613265542E+02  0.12700000000E+01 0. -1.
         25    2    1    2    0    0  0.00000000000E+00  0.00000000000E+00  0.14192765178E+03  0.18912487826E+03  0.12499904494E+03 0.  0.
    9000005    1    3    3    0    0 -0.59780310928E+01 -0.73777587782E+01 -0.22488582326E+02  0.24431629404E+02  0.10000000000E+01 0.  0.
    9000005    1    3    3    0    0  0.59780310928E+01  0.73777587782E+01  0.16441623411E+03  0.16469324886E+03  0.10000000000E+01 0.  0.
<mgrwt>
<rscale>  0 0.12499904E+03</rscale>
<asrwt>0</asrwt>
<pdfrwt beam="1">  1        4 0.25465579E-01 0.12499904E+03</pdfrwt>
<pdfrwt beam="2">  1       -4 0.36305560E-02 0.12499904E+03</pdfrwt>
<totfact> 0.92001774E+03</totfact>
</mgrwt>
</event>
<event>
 5    1  0.3232465E-002  0.1250107E+03  0.7818608E-02  0.1235053E+00
         -4   -1    0    0    0  501 -0.00000000000E+00  0.00000000000E+00  0.23483948888E+02  0.23518264294E+02  0.12700000000E+01 0. -1.
          4   -1    0    0  501    0  0.00000000000E+00 -0.00000000000E+00 -0.16620732368E+03  0.16621217568E+03  0.12700000000E+01 0. -1.
         25    2    1    2    0    0  0.00000000000E+00  0.00000000000E+00 -0.14272337479E+03  0.18973043997E+03  0.12501071211E+03 0.  0.
    9000005    1    3    3    0    0 -0.38135205312E+02 -0.82964583736E+01  0.27237881342E+01  0.39134947649E+02  0.10000000000E+01 0.  0.
    9000005    1    3    3    0    0  0.38135205312E+02  0.82964583736E+01 -0.14544716292E+03  0.15059549233E+03  0.10000000000E+01 0.  0.
<mgrwt>
<rscale>  0 0.12501071E+03</rscale>
<asrwt>0</asrwt>
<pdfrwt beam="2">  1        4 0.25573370E-01 0.12501071E+03</pdfrwt>
<pdfrwt beam="1">  1       -4 0.36159282E-02 0.12501071E+03</pdfrwt>
<totfact> 0.91872191E+03</totfact>
</mgrwt>
</event>
<event>
 5    1  0.3232465E-002  0.1250030E+03  0.7818608E-02  0.1235065E+00
          4   -1    0    0  501    0  0.00000000000E+00  0.00000000000E+00  0.18425906666E+04  0.18425911043E+04  0.12700000000E+01 0. -1.
         -4   -1    0    0    0  501 -0.00000000000E+00 -0.00000000000E+00 -0.19294093702E+01  0.23098745675E+01  0.12700000000E+01 0. -1.
         25    2    1    2    0    0  0.00000000000E+00  0.00000000000E+00  0.18406612573E+04  0.18449009789E+04  0.12500303138E+03 0.  0.
    9000005    1    3    3    0    0 -0.45371914763E+02  0.19771837965E+02  0.35718752208E+03  0.36060152822E+03  0.10000000000E+01 0.  0.
    9000005    1    3    3    0    0  0.45371914763E+02 -0.19771837965E+02  0.14834737352E+04  0.14842994506E+04  0.10000000000E+01 0.  0.
<mgrwt>
<rscale>  0 0.12500303E+03</rscale>
<asrwt>0</asrwt>
<pdfrwt beam="1">  1        4 0.28350513E+00 0.12500303E+03</pdfrwt>
<pdfrwt beam="2">  1       -4 0.32613204E-03 0.12500303E+03</pdfrwt>
<totfact> 0.12023501E+03</totfact>
</mgrwt>
</event>
<event>
 5    1  0.3232465E-002  0.1249813E+03  0.7818608E-02  0.1235099E+00
          4   -1    0    0  501    0  0.00000000000E+00  0.00000000000E+00  0.18114355688E+02  0.18158821052E+02  0.12700000000E+01 0. -1.
         -4   -1    0    0    0  501 -0.00000000000E+00 -0.00000000000E+00 -0.21526858780E+03  0.21527233402E+03  0.12700000000E+01 0. -1.
         25    2    1    2    0    0  0.00000000000E+00  0.00000000000E+00 -0.19715423211E+03  0.23343115507E+03  0.12498125026E+03 0.  0.
    9000005    1    3    3    0    0 -0.62011853515E+02  0.63217583001E+01 -0.90512584723E+02  0.10990433384E+03  0.10000000000E+01 0.  0.
    9000005    1    3    3    0    0  0.62011853515E+02 -0.63217583001E+01 -0.10664164739E+03  0.12352682122E+03  0.10000000000E+01 0.  0.
<mgrwt>
<rscale>  0 0.12498125E+03</rscale>
<asrwt>0</asrwt>
<pdfrwt beam="1">  1        4 0.27905327E-02 0.12498125E+03</pdfrwt>
<pdfrwt beam="2">  1       -4 0.33121951E-01 0.12498125E+03</pdfrwt>
<totfact> 0.84820979E+03</totfact>
</mgrwt>
</event>
<event>
 5    1  0.3232465E-002  0.1249970E+03  0.7818608E-02  0.1235074E+00
         -4   -1    0    0    0  501 -0.00000000000E+00  0.00000000000E+00  0.47229890064E+02  0.47246961971E+02  0.12700000000E+01 0. -1.
          4   -1    0    0  501    0  0.00000000000E+00 -0.00000000000E+00 -0.82666347499E+02  0.82676102405E+02  0.12700000000E+01 0. -1.
         25    2    1    2    0    0  0.00000000000E+00  0.00000000000E+00 -0.35436457435E+02  0.12992306438E+03  0.12499704053E+03 0.  0.
    9000005    1    3    3    0    0  0.23297116130E+02  0.30819713761E+02  0.33334164374E+02  0.51037014909E+02  0.10000000000E+01 0.  0.
    9000005    1    3    3    0    0 -0.23297116130E+02 -0.30819713761E+02 -0.68770621809E+02  0.78886049466E+02  0.10000000000E+01 0.  0.
<mgrwt>
<rscale>  0 0.12499704E+03</rscale>
<asrwt>0</asrwt>
<pdfrwt beam="2">  1        4 0.12719963E-01 0.12499704E+03</pdfrwt>
<pdfrwt beam="1">  1       -4 0.72682005E-02 0.12499704E+03</pdfrwt>
<totfact> 0.10346845E+04</totfact>
</mgrwt>
</event>
<event>
 5    1  0.3232465E-002  0.1249995E+03  0.7818608E-02  0.1235070E+00
         -4   -1    0    0    0  501 -0.00000000000E+00  0.00000000000E+00  0.47983354687E+02  0.48000158615E+02  0.12700000000E+01 0. -1.
          4   -1    0    0  501    0  0.00000000000E+00 -0.00000000000E+00 -0.81371839844E+02  0.81381749918E+02  0.12700000000E+01 0. -1.
         25    2    1    2    0    0  0.00000000000E+00  0.00000000000E+00 -0.33388485157E+02  0.12938190853E+03  0.12499954926E+03 0.  0.
    9000005    1    3    3    0    0 -0.78716010633E+01 -0.48956068611E+02 -0.56061376102E+02  0.74850094506E+02  0.10000000000E+01 0.  0.
    9000005    1    3    3    0    0  0.78716010633E+01  0.48956068611E+02  0.22672890944E+02  0.54531814026E+02  0.10000000000E+01 0.  0.
<mgrwt>
<rscale>  0 0.12499955E+03</rscale>
<asrwt>0</asrwt>
<pdfrwt beam="2">  1        4 0.12520799E-01 0.12499955E+03</pdfrwt>
<pdfrwt beam="1">  1       -4 0.73841095E-02 0.12499955E+03</pdfrwt>
<totfact> 0.10357853E+04</totfact>
</mgrwt>
</event>
<event>
 5    1  0.3232465E-002  0.1249985E+03  0.7818608E-02  0.1235072E+00
         -4   -1    0    0    0  501 -0.00000000000E+00  0.00000000000E+00  0.37688279446E+03  0.37688493424E+03  0.12700000000E+01 0. -1.
          4   -1    0    0  501    0  0.00000000000E+00 -0.00000000000E+00 -0.10323294321E+02  0.10401120403E+02  0.12700000000E+01 0. -1.
         25    2    1    2    0    0  0.00000000000E+00  0.00000000000E+00  0.36655950014E+03  0.38728605465E+03  0.12499848392E+03 0.  0.
    9000005    1    3    3    0    0 -0.62321485237E+02  0.22180259743E+01  0.19577644930E+03  0.20547093533E+03  0.10000000000E+01 0.  0.
    9000005    1    3    3    0    0  0.62321485237E+02 -0.22180259743E+01  0.17078305084E+03  0.18181511932E+03  0.10000000000E+01 0.  0.
<mgrwt>
<rscale>  0 0.12499848E+03</rscale>
<asrwt>0</asrwt>
<pdfrwt beam="2">  1        4 0.15943505E-02 0.12499848E+03</pdfrwt>
<pdfrwt beam="1">  1       -4 0.57988113E-01 0.12499848E+03</pdfrwt>
<totfact> 0.65810611E+03</totfact>
</mgrwt>
</event>
<event>
 5    1  0.3232465E-002  0.1249939E+03  0.7818608E-02  0.1235079E+00
          4   -1    0    0  501    0  0.00000000000E+00  0.00000000000E+00  0.65956713653E+02  0.65968939479E+02  0.12700000000E+01 0.  1.
         -4   -1    0    0    0  501 -0.00000000000E+00 -0.00000000000E+00 -0.59194162448E+02  0.59207784691E+02  0.12700000000E+01 0.  1.
         25    2    1    2    0    0  0.00000000000E+00  0.00000000000E+00  0.67625512047E+01  0.12517672417E+03  0.12499392055E+03 0.  0.
    9000005    1    3    3    0    0 -0.50513541679E+02 -0.35738375832E+02 -0.53504577073E+01  0.62116638655E+02  0.10000000000E+01 0.  0.
    9000005    1    3    3    0    0  0.50513541679E+02  0.35738375832E+02  0.12113008912E+02  0.63060085514E+02  0.10000000000E+01 0.  0.
<mgrwt>
<rscale>  0 0.12499392E+03</rscale>
<asrwt>0</asrwt>
<pdfrwt beam="1">  1        4 0.10149175E-01 0.12499392E+03</pdfrwt>
<pdfrwt beam="2">  1       -4 0.91087825E-02 0.12499392E+03</pdfrwt>
<totfact> 0.10450461E+04</totfact>
</mgrwt>
</event>
<event>
 5    1  0.3232465E-002  0.1250015E+03  0.7818608E-02  0.1235067E+00
          4   -1    0    0  501    0  0.00000000000E+00  0.00000000000E+00  0.18784162879E+02  0.18827046371E+02  0.12700000000E+01 0.  1.
         -4   -1    0    0    0  501 -0.00000000000E+00 -0.00000000000E+00 -0.20767748432E+03  0.20768136747E+03  0.12700000000E+01 0.  1.
         25    2    1    2    0    0  0.00000000000E+00  0.00000000000E+00 -0.18889332144E+03  0.22650841384E+03  0.12500149861E+03 0.  0.
    9000005    1    3    3    0    0  0.27751325879E+02 -0.52793550670E+02 -0.12825229232E+03  0.14144591039E+03  0.10000000000E+01 0.  0.
    9000005    1    3    3    0    0 -0.27751325879E+02  0.52793550670E+02 -0.60641029119E+02  0.85062503449E+02  0.10000000000E+01 0.  0.
<mgrwt>
<rscale>  0 0.12500150E+03</rscale>
<asrwt>0</asrwt>
<pdfrwt beam="1">  1        4 0.28934688E-02 0.12500150E+03</pdfrwt>
<pdfrwt beam="2">  1       -4 0.31953978E-01 0.12500150E+03</pdfrwt>
<totfact> 0.85845762E+03</totfact>
</mgrwt>
</event>
<event>
 5    1  0.3232465E-002  0.1250006E+03  0.7818608E-02  0.1235068E+00
          4   -1    0    0  501    0  0.00000000000E+00  0.00000000000E+00  0.57325900912E+01  0.58715831897E+01  0.12700000000E+01 0. -1.
         -4   -1    0    0    0  501 -0.00000000000E+00 -0.00000000000E+00 -0.67311579715E+03  0.67311699523E+03  0.12700000000E+01 0. -1.
         25    2    1    2    0    0  0.00000000000E+00  0.00000000000E+00 -0.66738320705E+03  0.67898857842E+03  0.12500057826E+03 0.  0.
    9000005    1    3    3    0    0  0.22472437150E+02 -0.37473428796E+02 -0.57637086049E+03  0.57802563708E+03  0.10000000000E+01 0.  0.
    9000005    1    3    3    0    0 -0.22472437150E+02  0.37473428796E+02 -0.91012346565E+02  0.10096294134E+03  0.10000000000E+01 0.  0.
<mgrwt>
<rscale>  0 0.12500058E+03</rscale>
<asrwt>0</asrwt>
<pdfrwt beam="1">  1        4 0.89272141E-03 0.12500058E+03</pdfrwt>
<pdfrwt beam="2">  1       -4 0.10356700E+00 0.12500058E+03</pdfrwt>
<totfact> 0.44218776E+03</totfact>
</mgrwt>
</event>
<event>
 5    1  0.3232465E-002  0.1249947E+03  0.7818608E-02  0.1235078E+00
         -4   -1    0    0    0  501 -0.00000000000E+00  0.00000000000E+00  0.55333976341E+02  0.55348548650E+02  0.12700000000E+01 0.  1.
          4   -1    0    0  501    0  0.00000000000E+00 -0.00000000000E+00 -0.70558458693E+02  0.70569887298E+02  0.12700000000E+01 0.  1.
         25    2    1    2    0    0  0.00000000000E+00  0.00000000000E+00 -0.15224482352E+02  0.12591843595E+03  0.12499467048E+03 0.  0.
    9000005    1    3    3    0    0 -0.39418748947E+02 -0.35907838232E+02 -0.40436884921E+02  0.66927963342E+02  0.10000000000E+01 0.  0.
    9000005    1    3    3    0    0  0.39418748947E+02  0.35907838232E+02  0.25212402569E+02  0.58990472606E+02  0.10000000000E+01 0.  0.
<mgrwt>
<rscale>  0 0.12499467E+03</rscale>
<asrwt>0</asrwt>
<pdfrwt beam="2">  1        4 0.10857148E-01 0.12499467E+03</pdfrwt>
<pdfrwt beam="1">  1       -4 0.85149195E-02 0.12499467E+03</pdfrwt>
<totfact> 0.10434000E+04</totfact>
</mgrwt>
</event>
<event>
 5    1  0.3232465E-002  0.1249999E+03  0.7818608E-02  0.1235070E+00
         -4   -1    0    0    0  501 -0.00000000000E+00  0.00000000000E+00  0.17075322890E+02  0.17122486729E+02  0.12700000000E+01 0.  1.
          4   -1    0    0  501    0  0.00000000000E+00 -0.00000000000E+00 -0.22840084121E+03  0.22840437204E+03  0.12700000000E+01 0.  1.
         25    2    1    2    0    0  0.00000000000E+00  0.00000000000E+00 -0.21132551832E+03  0.24552685877E+03  0.12499985473E+03 0.  0.
    9000005    1    3    3    0    0  0.55906872075E+02 -0.75523626277E+01 -0.52861314103E+02  0.77317107131E+02  0.10000000000E+01 0.  0.
    9000005    1    3    3    0    0 -0.55906872075E+02  0.75523626277E+01 -0.15846420422E+03  0.16820975163E+03  0.10000000000E+01 0.  0.
<mgrwt>
<rscale>  0 0.12499985E+03</rscale>
<asrwt>0</asrwt>
<pdfrwt beam="2">  1        4 0.35142488E-01 0.12499985E+03</pdfrwt>
<pdfrwt beam="1">  1       -4 0.26308725E-02 0.12499985E+03</pdfrwt>
<totfact> 0.82981334E+03</totfact>
</mgrwt>
</event>
<event>
 5    1  0.3232465E-002  0.1250015E+03  0.7818608E-02  0.1235067E+00
         -4   -1    0    0    0  501 -0.00000000000E+00  0.00000000000E+00  0.45040414941E+03  0.45040593991E+03  0.12700000000E+01 0.  1.
          4   -1    0    0  501    0  0.00000000000E+00 -0.00000000000E+00 -0.86246697364E+01  0.87176733170E+01  0.12700000000E+01 0.  1.
         25    2    1    2    0    0  0.00000000000E+00  0.00000000000E+00  0.44177947967E+03  0.45912361323E+03  0.12500153424E+03 0.  0.
    9000005    1    3    3    0    0 -0.34910091250E+02  0.62741775492E+01  0.31910940020E+02  0.47721985164E+02  0.10000000000E+01 0.  0.
    9000005    1    3    3    0    0  0.34910091250E+02 -0.62741775492E+01  0.40986853965E+03  0.41140162806E+03  0.10000000000E+01 0.  0.
<mgrwt>
<rscale>  0 0.12500153E+03</rscale>
<asrwt>0</asrwt>
<pdfrwt beam="2">  1        4 0.13341642E-02 0.12500153E+03</pdfrwt>
<pdfrwt beam="1">  1       -4 0.69300234E-01 0.12500153E+03</pdfrwt>
<totfact> 0.59179487E+03</totfact>
</mgrwt>
</event>
<event>
 5    1  0.3232465E-002  0.1250003E+03  0.7818608E-02  0.1235069E+00
         -4   -1    0    0    0  501 -0.00000000000E+00  0.00000000000E+00  0.83987363273E+03  0.83987459293E+03  0.12700000000E+01 0. -1.
          4   -1    0    0  501    0  0.00000000000E+00 -0.00000000000E+00 -0.45633444693E+01  0.47367723974E+01  0.12700000000E+01 0. -1.
         25    2    1    2    0    0  0.00000000000E+00  0.00000000000E+00  0.83531028826E+03  0.84461136533E+03  0.12500032309E+03 0.  0.
    9000005    1    3    3    0    0  0.55580623892E+02 -0.26633675423E+02  0.34785570131E+03  0.35327488922E+03  0.10000000000E+01 0.  0.
    9000005    1    3    3    0    0 -0.55580623892E+02  0.26633675423E+02  0.48745458695E+03  0.49133647611E+03  0.10000000000E+01 0.  0.
<mgrwt>
<rscale>  0 0.12500032E+03</rscale>
<asrwt>0</asrwt>
<pdfrwt beam="2">  1        4 0.71546716E-03 0.12500032E+03</pdfrwt>
<pdfrwt beam="1">  1       -4 0.12922480E+00 0.12500032E+03</pdfrwt>
<totfact> 0.36348579E+03</totfact>
</mgrwt>
</event>
<event>
 5    1  0.3232465E-002  0.1249989E+03  0.7818608E-02  0.1235071E+00
          4   -1    0    0  501    0  0.00000000000E+00  0.00000000000E+00  0.67154035888E+03  0.67154155977E+03  0.12700000000E+01 0.  1.
         -4   -1    0    0    0  501 -0.00000000000E+00 -0.00000000000E+00 -0.57462090273E+01  0.58848804734E+01  0.12700000000E+01 0.  1.
         25    2    1    2    0    0  0.00000000000E+00  0.00000000000E+00  0.66579414985E+03  0.67742644025E+03  0.12499892787E+03 0.  0.
    9000005    1    3    3    0    0  0.36076566042E+01 -0.42835215293E+01  0.67020421295E+03  0.67022835721E+03  0.10000000000E+01 0.  0.
    9000005    1    3    3    0    0 -0.36076566042E+01  0.42835215293E+01 -0.44100631033E+01  0.71980830393E+01  0.10000000000E+01 0.  0.
<mgrwt>
<rscale>  0 0.12499893E+03</rscale>
<asrwt>0</asrwt>
<pdfrwt beam="1">  1        4 0.10332468E+00 0.12499893E+03</pdfrwt>
<pdfrwt beam="2">  1       -4 0.89479136E-03 0.12499893E+03</pdfrwt>
<totfact> 0.44306445E+03</totfact>
</mgrwt>
</event>
<event>
 5    1  0.3232465E-002  0.1249983E+03  0.7818608E-02  0.1235072E+00
          4   -1    0    0  501    0  0.00000000000E+00  0.00000000000E+00  0.29763094873E+02  0.29790178187E+02  0.12700000000E+01 0.  1.
         -4   -1    0    0    0  501 -0.00000000000E+00 -0.00000000000E+00 -0.13115143764E+03  0.13115758649E+03  0.12700000000E+01 0.  1.
         25    2    1    2    0    0  0.00000000000E+00  0.00000000000E+00 -0.10138834277E+03  0.16094776468E+03  0.12499834762E+03 0.  0.
    9000005    1    3    3    0    0 -0.60002014457E+02  0.11073589671E+02 -0.68078218949E+02  0.91424887325E+02  0.10000000000E+01 0.  0.
    9000005    1    3    3    0    0  0.60002014457E+02 -0.11073589671E+02 -0.33310123816E+02  0.69522877355E+02  0.10000000000E+01 0.  0.
<mgrwt>
<rscale>  0 0.12499835E+03</rscale>
<asrwt>0</asrwt>
<pdfrwt beam="1">  1        4 0.45814941E-02 0.12499835E+03</pdfrwt>
<pdfrwt beam="2">  1       -4 0.20179700E-01 0.12499835E+03</pdfrwt>
<totfact> 0.97163983E+03</totfact>
</mgrwt>
</event>
<event>
 5    1  0.3232465E-002  0.1249991E+03  0.7818608E-02  0.1235071E+00
         -4   -1    0    0    0  501 -0.00000000000E+00  0.00000000000E+00  0.38376004281E+03  0.38376214425E+03  0.12700000000E+01 0.  1.
          4   -1    0    0  501    0  0.00000000000E+00 -0.00000000000E+00 -0.10136989714E+02  0.10216235141E+02  0.12700000000E+01 0.  1.
         25    2    1    2    0    0  0.00000000000E+00  0.00000000000E+00  0.37362305309E+03  0.39397837939E+03  0.12499911048E+03 0.  0.
    9000005    1    3    3    0    0  0.18987029392E+02 -0.57551117462E+01  0.37761806831E-01  0.19865296934E+02  0.10000000000E+01 0.  0.
    9000005    1    3    3    0    0 -0.18987029392E+02  0.57551117462E+01  0.37358529129E+03  0.37411308245E+03  0.10000000000E+01 0.  0.
<mgrwt>
<rscale>  0 0.12499911E+03</rscale>
<asrwt>0</asrwt>
<pdfrwt beam="2">  1        4 0.15657944E-02 0.12499911E+03</pdfrwt>
<pdfrwt beam="1">  1       -4 0.59046262E-01 0.12499911E+03</pdfrwt>
<totfact> 0.65143968E+03</totfact>
</mgrwt>
</event>
<event>
 5    1  0.3232465E-002  0.1250097E+03  0.7818608E-02  0.1235054E+00
         -4   -1    0    0    0  501 -0.00000000000E+00  0.00000000000E+00  0.11000211529E+02  0.11073281071E+02  0.12700000000E+01 0.  1.
          4   -1    0    0  501    0  0.00000000000E+00 -0.00000000000E+00 -0.35391220102E+03  0.35391447969E+03  0.12700000000E+01 0.  1.
         25    2    1    2    0    0  0.00000000000E+00  0.00000000000E+00 -0.34291198949E+03  0.36498776076E+03  0.12500973148E+03 0.  0.
    9000005    1    3    3    0    0 -0.10680539957E+02  0.59772965036E+02 -0.12825102667E+03  0.14190210402E+03  0.10000000000E+01 0.  0.
    9000005    1    3    3    0    0  0.10680539957E+02 -0.59772965036E+02 -0.21466096283E+03  0.22308565674E+03  0.10000000000E+01 0.  0.
<mgrwt>
<rscale>  0 0.12500973E+03</rscale>
<asrwt>0</asrwt>
<pdfrwt beam="2">  1        4 0.54453818E-01 0.12500973E+03</pdfrwt>
<pdfrwt beam="1">  1       -4 0.16981365E-02 0.12500973E+03</pdfrwt>
<totfact> 0.68091941E+03</totfact>
</mgrwt>
</event>
<event>
 5    1  0.3232465E-002  0.1249922E+03  0.7818608E-02  0.1235081E+00
          4   -1    0    0  501    0  0.00000000000E+00  0.00000000000E+00  0.19283425576E+03  0.19283843780E+03  0.12700000000E+01 0. -1.
         -4   -1    0    0    0  501 -0.00000000000E+00 -0.00000000000E+00 -0.20230192942E+02  0.20270017427E+02  0.12700000000E+01 0. -1.
         25    2    1    2    0    0  0.00000000000E+00  0.00000000000E+00  0.17260406281E+03  0.21310845523E+03  0.12499220451E+03 0.  0.
    9000005    1    3    3    0    0  0.53548926053E+02 -0.98978552905E+01  0.13855629264E+03  0.14887679890E+03  0.10000000000E+01 0.  0.
    9000005    1    3    3    0    0 -0.53548926053E+02  0.98978552905E+01  0.34047770177E+02  0.64231656329E+02  0.10000000000E+01 0.  0.
<mgrwt>
<rscale>  0 0.12499220E+03</rscale>
<asrwt>0</asrwt>
<pdfrwt beam="1">  1        4 0.29670194E-01 0.12499220E+03</pdfrwt>
<pdfrwt beam="2">  1       -4 0.31157224E-02 0.12499220E+03</pdfrwt>
<totfact> 0.87986060E+03</totfact>
</mgrwt>
</event>
<event>
 5    1  0.3232465E-002  0.1249991E+03  0.7818608E-02  0.1235071E+00
          4   -1    0    0  501    0  0.00000000000E+00  0.00000000000E+00  0.81685764671E+03  0.81685863397E+03  0.12700000000E+01 0.  1.
         -4   -1    0    0    0  501 -0.00000000000E+00 -0.00000000000E+00 -0.46966465751E+01  0.48653251742E+01  0.12700000000E+01 0.  1.
         25    2    1    2    0    0  0.00000000000E+00  0.00000000000E+00  0.81216100014E+03  0.82172395915E+03  0.12499909955E+03 0.  0.
    9000005    1    3    3    0    0  0.46546139984E+02  0.41313751165E+02  0.44316565771E+03  0.44751555208E+03  0.10000000000E+01 0.  0.
    9000005    1    3    3    0    0 -0.46546139984E+02 -0.41313751165E+02  0.36899534243E+03  0.37420840706E+03  0.10000000000E+01 0.  0.
<mgrwt>
<rscale>  0 0.12499910E+03</rscale>
<asrwt>0</asrwt>
<pdfrwt beam="1">  1        4 0.12568342E+00 0.12499910E+03</pdfrwt>
<pdfrwt beam="2">  1       -4 0.73561244E-03 0.12499910E+03</pdfrwt>
<totfact> 0.37313862E+03</totfact>
</mgrwt>
</event>
<event>
 5    1  0.3232465E-002  0.1249996E+03  0.7818608E-02  0.1235070E+00
         -4   -1    0    0    0  501 -0.00000000000E+00  0.00000000000E+00  0.17361172183E+04  0.17361176829E+04  0.12700000000E+01 0.  1.
          4   -1    0    0  501    0  0.00000000000E+00 -0.00000000000E+00 -0.20702643800E+01  0.24287640073E+01  0.12700000000E+01 0.  1.
         25    2    1    2    0    0  0.00000000000E+00  0.00000000000E+00  0.17340469540E+04  0.17385464469E+04  0.12499963742E+03 0.  0.
    9000005    1    3    3    0    0 -0.60489769673E+02 -0.15031151639E+02  0.92965703217E+03  0.93174467813E+03  0.10000000000E+01 0.  0.
    9000005    1    3    3    0    0  0.60489769673E+02  0.15031151639E+02  0.80438992179E+03  0.80680176873E+03  0.10000000000E+01 0.  0.
<mgrwt>
<rscale>  0 0.12499964E+03</rscale>
<asrwt>0</asrwt>
<pdfrwt beam="2">  1        4 0.34611591E-03 0.12499964E+03</pdfrwt>
<pdfrwt beam="1">  1       -4 0.26712174E+00 0.12499964E+03</pdfrwt>
<totfact> 0.13674637E+03</totfact>
</mgrwt>
</event>
<event>
 5    1  0.3232465E-002  0.1250005E+03  0.7818608E-02  0.1235069E+00
         -4   -1    0    0    0  501 -0.00000000000E+00  0.00000000000E+00  0.80959328379E+02  0.80969288940E+02  0.12700000000E+01 0.  1.
          4   -1    0    0  501    0  0.00000000000E+00 -0.00000000000E+00 -0.48228597061E+02  0.48245315570E+02  0.12700000000E+01 0.  1.
         25    2    1    2    0    0  0.00000000000E+00  0.00000000000E+00  0.32730731318E+02  0.12921460451E+03  0.12500045298E+03 0.  0.
    9000005    1    3    3    0    0 -0.13875828531E+02 -0.50651790834E+02 -0.18645869194E+02  0.55738774387E+02  0.10000000000E+01 0.  0.
    9000005    1    3    3    0    0  0.13875828531E+02  0.50651790834E+02  0.51376600512E+02  0.73475830123E+02  0.10000000000E+01 0.  0.
<mgrwt>
<rscale>  0 0.12500045E+03</rscale>
<asrwt>0</asrwt>
<pdfrwt beam="2">  1        4 0.74218364E-02 0.12500045E+03</pdfrwt>
<pdfrwt beam="1">  1       -4 0.12457333E-01 0.12500045E+03</pdfrwt>
<totfact> 0.10361232E+04</totfact>
</mgrwt>
</event>
<event>
 5    1  0.3232465E-002  0.1249992E+03  0.7818608E-02  0.1235070E+00
          4   -1    0    0  501    0  0.00000000000E+00  0.00000000000E+00  0.11321282760E+02  0.11392293155E+02  0.12700000000E+01 0.  1.
         -4   -1    0    0    0  501 -0.00000000000E+00 -0.00000000000E+00 -0.34388095324E+03  0.34388329837E+03  0.12700000000E+01 0.  1.
         25    2    1    2    0    0  0.00000000000E+00  0.00000000000E+00 -0.33255967048E+03  0.35527559153E+03  0.12499924603E+03 0.  0.
    9000005    1    3    3    0    0  0.42836569464E+02  0.74024231408E+01 -0.29387740738E+03  0.29707692290E+03  0.10000000000E+01 0.  0.
    9000005    1    3    3    0    0 -0.42836569464E+02 -0.74024231408E+01 -0.38682263102E+02  0.58198668632E+02  0.10000000000E+01 0.  0.
<mgrwt>
<rscale>  0 0.12499925E+03</rscale>
<asrwt>0</asrwt>
<pdfrwt beam="1">  1        4 0.17473788E-02 0.12499925E+03</pdfrwt>
<pdfrwt beam="2">  1       -4 0.52910397E-01 0.12499925E+03</pdfrwt>
<totfact> 0.69149206E+03</totfact>
</mgrwt>
</event>
<event>
 5    1  0.3232465E-002  0.1250021E+03  0.7818608E-02  0.1235066E+00
         -4   -1    0    0    0  501 -0.00000000000E+00  0.00000000000E+00  0.70036304370E+02  0.70047818166E+02  0.12700000000E+01 0. -1.
          4   -1    0    0  501    0  0.00000000000E+00 -0.00000000000E+00 -0.55753159657E+02  0.55767622432E+02  0.12700000000E+01 0. -1.
         25    2    1    2    0    0  0.00000000000E+00  0.00000000000E+00  0.14283144713E+02  0.12581544060E+03  0.12500206746E+03 0.  0.
    9000005    1    3    3    0    0 -0.19794047789E+02  0.26787618673E+02  0.60362838727E+02  0.68949642068E+02  0.10000000000E+01 0.  0.
    9000005    1    3    3    0    0  0.19794047789E+02 -0.26787618673E+02 -0.46079694014E+02  0.56865798530E+02  0.10000000000E+01 0.  0.
<mgrwt>
<rscale>  0 0.12500207E+03</rscale>
<asrwt>0</asrwt>
<pdfrwt beam="2">  1        4 0.85794074E-02 0.12500207E+03</pdfrwt>
<pdfrwt beam="1">  1       -4 0.10776814E-01 0.12500207E+03</pdfrwt>
<totfact> 0.10434519E+04</totfact>
</mgrwt>
</event>
<event>
 5    1  0.3232465E-002  0.1250009E+03  0.7818608E-02  0.1235068E+00
          4   -1    0    0  501    0  0.00000000000E+00  0.00000000000E+00  0.82666133299E+02  0.82675888229E+02  0.12700000000E+01 0. -1.
         -4   -1    0    0    0  501 -0.00000000000E+00 -0.00000000000E+00 -0.47232894413E+02  0.47249965234E+02  0.12700000000E+01 0. -1.
         25    2    1    2    0    0  0.00000000000E+00  0.00000000000E+00  0.35433238885E+02  0.12992585346E+03  0.12500085192E+03 0.  0.
    9000005    1    3    3    0    0 -0.56275155484E+02  0.18413888526E+01 -0.10462797870E+02  0.57277866379E+02  0.10000000000E+01 0.  0.
    9000005    1    3    3    0    0  0.56275155484E+02 -0.18413888526E+01  0.45896036756E+02  0.72647987085E+02  0.10000000000E+01 0.  0.
<mgrwt>
<rscale>  0 0.12500085E+03</rscale>
<asrwt>0</asrwt>
<pdfrwt beam="1">  1        4 0.12719930E-01 0.12500085E+03</pdfrwt>
<pdfrwt beam="2">  1       -4 0.72686628E-02 0.12500085E+03</pdfrwt>
<totfact> 0.10345895E+04</totfact>
</mgrwt>
</event>
<event>
 5    1  0.3232465E-002  0.1249952E+03  0.7818608E-02  0.1235077E+00
         -4   -1    0    0    0  501 -0.00000000000E+00  0.00000000000E+00  0.66218755801E+02  0.66230933255E+02  0.12700000000E+01 0. -1.
          4   -1    0    0  501    0  0.00000000000E+00 -0.00000000000E+00 -0.58961127200E+02  0.58974803270E+02  0.12700000000E+01 0. -1.
         25    2    1    2    0    0  0.00000000000E+00  0.00000000000E+00  0.72576286014E+01  0.12520573652E+03  0.12499521305E+03 0.  0.
    9000005    1    3    3    0    0  0.11384609853E+02 -0.44049510374E+02 -0.39280024727E+02  0.60115630648E+02  0.10000000000E+01 0.  0.
    9000005    1    3    3    0    0 -0.11384609853E+02  0.44049510374E+02  0.46537653328E+02  0.65090105876E+02  0.10000000000E+01 0.  0.
<mgrwt>
<rscale>  0 0.12499521E+03</rscale>
<asrwt>0</asrwt>
<pdfrwt beam="2">  1        4 0.90729314E-02 0.12499521E+03</pdfrwt>
<pdfrwt beam="1">  1       -4 0.10189490E-01 0.12499521E+03</pdfrwt>
<totfact> 0.10449526E+04</totfact>
</mgrwt>
</event>
<event>
 5    1  0.3232465E-002  0.1250043E+03  0.7818608E-02  0.1235062E+00
          4   -1    0    0  501    0  0.00000000000E+00  0.00000000000E+00  0.31042008461E+03  0.31042268253E+03  0.12700000000E+01 0.  1.
         -4   -1    0    0    0  501 -0.00000000000E+00 -0.00000000000E+00 -0.12549930684E+02  0.12614026327E+02  0.12700000000E+01 0.  1.
         25    2    1    2    0    0  0.00000000000E+00  0.00000000000E+00  0.29787015393E+03  0.32303670886E+03  0.12500434660E+03 0.  0.
    9000005    1    3    3    0    0 -0.43087909114E+02 -0.44920760871E+02  0.16334163621E+03  0.17480255373E+03  0.10000000000E+01 0.  0.
    9000005    1    3    3    0    0  0.43087909114E+02  0.44920760871E+02  0.13452851771E+03  0.14823415513E+03  0.10000000000E+01 0.  0.
<mgrwt>
<rscale>  0 0.12500435E+03</rscale>
<asrwt>0</asrwt>
<pdfrwt beam="1">  1        4 0.47762069E-01 0.12500435E+03</pdfrwt>
<pdfrwt beam="2">  1       -4 0.19358887E-02 0.12500435E+03</pdfrwt>
<totfact> 0.72789382E+03</totfact>
</mgrwt>
</event>
<event>
 5    1  0.3232465E-002  0.1249953E+03  0.7818608E-02  0.1235077E+00
         -4   -1    0    0    0  501 -0.00000000000E+00  0.00000000000E+00  0.55787703943E+01  0.57215014735E+01  0.12700000000E+01 0.  1.
          4   -1    0    0  501    0  0.00000000000E+00 -0.00000000000E+00 -0.69115981350E+03  0.69116098031E+03  0.12700000000E+01 0.  1.
         25    2    1    2    0    0  0.00000000000E+00  0.00000000000E+00 -0.68558104311E+03  0.69688248178E+03  0.12499530689E+03 0.  0.
    9000005    1    3    3    0    0 -0.11117192827E+02  0.58330741751E+02 -0.45131357313E+03  0.45520435927E+03  0.10000000000E+01 0.  0.
    9000005    1    3    3    0    0  0.11117192827E+02 -0.58330741751E+02 -0.23426746998E+03  0.24167812251E+03  0.10000000000E+01 0.  0.
<mgrwt>
<rscale>  0 0.12499531E+03</rscale>
<asrwt>0</asrwt>
<pdfrwt beam="2">  1        4 0.10634328E+00 0.12499531E+03</pdfrwt>
<pdfrwt beam="1">  1       -4 0.86934198E-03 0.12499531E+03</pdfrwt>
<totfact> 0.43256233E+03</totfact>
</mgrwt>
</event>
<event>
 5    1  0.3232465E-002  0.1249995E+03  0.7818608E-02  0.1235070E+00
          4   -1    0    0  501    0  0.00000000000E+00  0.00000000000E+00  0.21453890481E+03  0.21454266377E+03  0.12700000000E+01 0.  1.
         -4   -1    0    0    0  501 -0.00000000000E+00 -0.00000000000E+00 -0.18181437281E+02  0.18225738987E+02  0.12700000000E+01 0.  1.
         25    2    1    2    0    0  0.00000000000E+00  0.00000000000E+00  0.19635746753E+03  0.23276840275E+03  0.12499949707E+03 0.  0.
    9000005    1    3    3    0    0 -0.46406650202E+02 -0.30275033165E+02  0.44367174472E+02  0.70990147110E+02  0.10000000000E+01 0.  0.
    9000005    1    3    3    0    0  0.46406650202E+02  0.30275033165E+02  0.15199029305E+03  0.16177825564E+03  0.10000000000E+01 0.  0.
<mgrwt>
<rscale>  0 0.12499950E+03</rscale>
<asrwt>0</asrwt>
<pdfrwt beam="1">  1        4 0.33009684E-01 0.12499950E+03</pdfrwt>
<pdfrwt beam="2">  1       -4 0.28008410E-02 0.12499950E+03</pdfrwt>
<totfact> 0.84887261E+03</totfact>
</mgrwt>
</event>
<event>
 5    1  0.3232465E-002  0.1249984E+03  0.7818608E-02  0.1235072E+00
         -4   -1    0    0    0  501 -0.00000000000E+00  0.00000000000E+00  0.10092873485E+02  0.10172462592E+02  0.12700000000E+01 0.  1.
          4   -1    0    0  501    0  0.00000000000E+00 -0.00000000000E+00 -0.38541984200E+03  0.38542193439E+03  0.12700000000E+01 0.  1.
         25    2    1    2    0    0  0.00000000000E+00  0.00000000000E+00 -0.37532696851E+03  0.39559439698E+03  0.12499837450E+03 0.  0.
    9000005    1    3    3    0    0 -0.34971090071E+02 -0.11170803490E+02 -0.27617871501E+02  0.45951178631E+02  0.10000000000E+01 0.  0.
    9000005    1    3    3    0    0  0.34971090071E+02  0.11170803490E+02 -0.34770909701E+03  0.34964321835E+03  0.10000000000E+01 0.  0.
<mgrwt>
<rscale>  0 0.12499837E+03</rscale>
<asrwt>0</asrwt>
<pdfrwt beam="2">  1        4 0.59301632E-01 0.12499837E+03</pdfrwt>
<pdfrwt beam="1">  1       -4 0.15590333E-02 0.12499837E+03</pdfrwt>
<totfact> 0.64985878E+03</totfact>
</mgrwt>
</event>
<event>
 5    1  0.3232465E-002  0.1249852E+03  0.7818608E-02  0.1235092E+00
         -4   -1    0    0    0  501 -0.00000000000E+00  0.00000000000E+00  0.15884233747E+03  0.15884741444E+03  0.12700000000E+01 0.  1.
          4   -1    0    0  501    0  0.00000000000E+00 -0.00000000000E+00 -0.24564297367E+02  0.24597105625E+02  0.12700000000E+01 0.  1.
         25    2    1    2    0    0  0.00000000000E+00  0.00000000000E+00  0.13427804011E+03  0.18344452006E+03  0.12498519867E+03 0.  0.
    9000005    1    3    3    0    0  0.12745813945E+01  0.62329607106E+02  0.60960505902E+02  0.87199700456E+02  0.10000000000E+01 0.  0.
    9000005    1    3    3    0    0 -0.12745813945E+01 -0.62329607106E+02  0.73317534204E+02  0.96244819609E+02  0.10000000000E+01 0.  0.
<mgrwt>
<rscale>  0 0.12498520E+03</rscale>
<asrwt>0</asrwt>
<pdfrwt beam="2">  1        4 0.37820370E-02 0.12498520E+03</pdfrwt>
<pdfrwt beam="1">  1       -4 0.24440196E-01 0.12498520E+03</pdfrwt>
<totfact> 0.93031488E+03</totfact>
</mgrwt>
</event>
<event>
 5    1  0.3232465E-002  0.1250000E+03  0.7818608E-02  0.1235069E+00
          4   -1    0    0  501    0  0.00000000000E+00  0.00000000000E+00  0.14076699272E+02  0.14133872873E+02  0.12700000000E+01 0.  1.
         -4   -1    0    0    0  501 -0.00000000000E+00 -0.00000000000E+00 -0.27687674589E+03  0.27687965854E+03  0.12700000000E+01 0.  1.
         25    2    1    2    0    0  0.00000000000E+00  0.00000000000E+00 -0.26280004662E+03  0.29101353142E+03  0.12500004386E+03 0.  0.
    9000005    1    3    3    0    0 -0.32837036296E+02 -0.50117059203E+02 -0.17273702235E+03  0.18283618205E+03  0.10000000000E+01 0.  0.
    9000005    1    3    3    0    0  0.32837036296E+02  0.50117059203E+02 -0.90063024271E+02  0.10817734937E+03  0.10000000000E+01 0.  0.
<mgrwt>
<rscale>  0 0.12500004E+03</rscale>
<asrwt>0</asrwt>
<pdfrwt beam="1">  1        4 0.21702683E-02 0.12500004E+03</pdfrwt>
<pdfrwt beam="2">  1       -4 0.42601041E-01 0.12500004E+03</pdfrwt>
<totfact> 0.76740018E+03</totfact>
</mgrwt>
</event>
<event>
 5    1  0.3232465E-002  0.1250001E+03  0.7818608E-02  0.1235069E+00
          4   -1    0    0  501    0  0.00000000000E+00  0.00000000000E+00  0.11483451058E+02  0.11553464770E+02  0.12700000000E+01 0.  1.
         -4   -1    0    0    0  501 -0.00000000000E+00 -0.00000000000E+00 -0.33905866691E+03  0.33906104540E+03  0.12700000000E+01 0.  1.
         25    2    1    2    0    0  0.00000000000E+00  0.00000000000E+00 -0.32757521585E+03  0.35061451017E+03  0.12500005080E+03 0.  0.
    9000005    1    3    3    0    0  0.29812962159E+02  0.53255202151E+02 -0.12612188138E+03  0.14011658800E+03  0.10000000000E+01 0.  0.
    9000005    1    3    3    0    0 -0.29812962159E+02 -0.53255202151E+02 -0.20145333447E+03  0.21049792217E+03  0.10000000000E+01 0.  0.
<mgrwt>
<rscale>  0 0.12500005E+03</rscale>
<asrwt>0</asrwt>
<pdfrwt beam="1">  1        4 0.17722537E-02 0.12500005E+03</pdfrwt>
<pdfrwt beam="2">  1       -4 0.52168433E-01 0.12500005E+03</pdfrwt>
<totfact> 0.69656930E+03</totfact>
</mgrwt>
</event>
<event>
 5    1  0.3232465E-002  0.1250043E+03  0.7818608E-02  0.1235063E+00
          4   -1    0    0  501    0  0.00000000000E+00  0.00000000000E+00  0.20910188150E+03  0.20910573820E+03  0.12700000000E+01 0. -1.
         -4   -1    0    0    0  501 -0.00000000000E+00 -0.00000000000E+00 -0.18656757174E+02  0.18699932840E+02  0.12700000000E+01 0. -1.
         25    2    1    2    0    0  0.00000000000E+00  0.00000000000E+00  0.19044512433E+03  0.22780567104E+03  0.12500431343E+03 0.  0.
    9000005    1    3    3    0    0 -0.40939137681E+02  0.37703713167E+02  0.14702237338E+03  0.15720738296E+03  0.10000000000E+01 0.  0.
    9000005    1    3    3    0    0  0.40939137681E+02 -0.37703713167E+02  0.43422750947E+02  0.70598288085E+02  0.10000000000E+01 0.  0.
<mgrwt>
<rscale>  0 0.12500431E+03</rscale>
<asrwt>0</asrwt>
<pdfrwt beam="1">  1        4 0.32173138E-01 0.12500431E+03</pdfrwt>
<pdfrwt beam="2">  1       -4 0.28738882E-02 0.12500431E+03</pdfrwt>
<totfact> 0.85639436E+03</totfact>
</mgrwt>
</event>
<event>
 5    1  0.3232465E-002  0.1249993E+03  0.7818608E-02  0.1235070E+00
          4   -1    0    0  501    0  0.00000000000E+00  0.00000000000E+00  0.11610957179E+03  0.11611651718E+03  0.12700000000E+01 0. -1.
         -4   -1    0    0    0  501 -0.00000000000E+00 -0.00000000000E+00 -0.33622483081E+02  0.33646459970E+02  0.12700000000E+01 0. -1.
         25    2    1    2    0    0  0.00000000000E+00  0.00000000000E+00  0.82487088713E+02  0.14976297715E+03  0.12499931808E+03 0.  0.
    9000005    1    3    3    0    0  0.56485802111E+02  0.17604758449E+02  0.65344153412E+02  0.88155724405E+02  0.10000000000E+01 0.  0.
    9000005    1    3    3    0    0 -0.56485802111E+02 -0.17604758449E+02  0.17142935301E+02  0.61607252746E+02  0.10000000000E+01 0.  0.
<mgrwt>
<rscale>  0 0.12499932E+03</rscale>
<asrwt>0</asrwt>
<pdfrwt beam="1">  1        4 0.17865389E-01 0.12499932E+03</pdfrwt>
<pdfrwt beam="2">  1       -4 0.51750684E-02 0.12499932E+03</pdfrwt>
<totfact> 0.99352491E+03</totfact>
</mgrwt>
</event>
<event>
 5    1  0.3232465E-002  0.1250069E+03  0.7818608E-02  0.1235059E+00
          4   -1    0    0  501    0  0.00000000000E+00  0.00000000000E+00  0.11689967193E+02  0.11758751335E+02  0.12700000000E+01 0.  1.
         -4   -1    0    0    0  501 -0.00000000000E+00 -0.00000000000E+00 -0.33314045143E+03  0.33314287217E+03  0.12700000000E+01 0.  1.
         25    2    1    2    0    0  0.00000000000E+00  0.00000000000E+00 -0.32145048423E+03  0.34490162350E+03  0.12500686414E+03 0.  0.
    9000005    1    3    3    0    0  0.47156009187E+02 -0.19460865847E+02 -0.61121039355E+02  0.79619067777E+02  0.10000000000E+01 0.  0.
    9000005    1    3    3    0    0 -0.47156009187E+02  0.19460865847E+02 -0.26032944488E+03  0.26528255573E+03  0.10000000000E+01 0.  0.
<mgrwt>
<rscale>  0 0.12500686E+03</rscale>
<asrwt>0</asrwt>
<pdfrwt beam="1">  1        4 0.18039340E-02 0.12500686E+03</pdfrwt>
<pdfrwt beam="2">  1       -4 0.51257847E-01 0.12500686E+03</pdfrwt>
<totfact> 0.70278429E+03</totfact>
</mgrwt>
</event>
<event>
 5    1  0.3232465E-002  0.1250005E+03  0.7818608E-02  0.1235068E+00
         -4   -1    0    0    0  501 -0.00000000000E+00  0.00000000000E+00  0.13909513438E+03  0.13910093209E+03  0.12700000000E+01 0. -1.
          4   -1    0    0  501    0  0.00000000000E+00 -0.00000000000E+00 -0.28062785034E+02  0.28091507682E+02  0.12700000000E+01 0. -1.
         25    2    1    2    0    0  0.00000000000E+00  0.00000000000E+00  0.11103234935E+03  0.16719243977E+03  0.12500051726E+03 0.  0.
    9000005    1    3    3    0    0  0.61661315149E+02 -0.68421287398E+01  0.65556576194E+02  0.90264041533E+02  0.10000000000E+01 0.  0.
    9000005    1    3    3    0    0 -0.61661315149E+02  0.68421287398E+01  0.45475773151E+02  0.76928398237E+02  0.10000000000E+01 0.  0.
<mgrwt>
<rscale>  0 0.12500052E+03</rscale>
<asrwt>0</asrwt>
<pdfrwt beam="2">  1        4 0.43200069E-02 0.12500052E+03</pdfrwt>
<pdfrwt beam="1">  1       -4 0.21401907E-01 0.12500052E+03</pdfrwt>
<totfact> 0.95972667E+03</totfact>
</mgrwt>
</event>
<event>
 5    1  0.3232465E-002  0.1250567E+03  0.7818608E-02  0.1234981E+00
          4   -1    0    0  501    0  0.00000000000E+00  0.00000000000E+00  0.27716712707E+03  0.27717003667E+03  0.12700000000E+01 0.  1.
         -4   -1    0    0    0  501 -0.00000000000E+00 -0.00000000000E+00 -0.14074690161E+02  0.14131871890E+02  0.12700000000E+01 0.  1.
         25    2    1    2    0    0  0.00000000000E+00  0.00000000000E+00  0.26309243691E+03  0.29130190856E+03  0.12505667344E+03 0.  0.
    9000005    1    3    3    0    0  0.23188901410E+02  0.54808624024E+02  0.86917102426E+02  0.10534369041E+03  0.10000000000E+01 0.  0.
    9000005    1    3    3    0    0 -0.23188901410E+02 -0.54808624024E+02  0.17617533448E+03  0.18595821815E+03  0.10000000000E+01 0.  0.
<mgrwt>
<rscale>  0 0.12505667E+03</rscale>
<asrwt>0</asrwt>
<pdfrwt beam="1">  1        4 0.42645712E-01 0.12505667E+03</pdfrwt>
<pdfrwt beam="2">  1       -4 0.21699597E-02 0.12505667E+03</pdfrwt>
<totfact> 0.76606557E+03</totfact>
</mgrwt>
</event>
<event>
 5    1  0.3232465E-002  0.1249992E+03  0.7818608E-02  0.1235070E+00
         -4   -1    0    0    0  501 -0.00000000000E+00  0.00000000000E+00  0.98254237183E+01  0.99071616139E+01  0.12700000000E+01 0. -1.
          4   -1    0    0  501    0  0.00000000000E+00 -0.00000000000E+00 -0.39583102999E+03  0.39583306735E+03  0.12700000000E+01 0. -1.
         25    2    1    2    0    0  0.00000000000E+00  0.00000000000E+00 -0.38600560628E+03  0.40574022896E+03  0.12499922128E+03 0.  0.
    9000005    1    3    3    0    0 -0.31122879568E+02 -0.44361903119E+02 -0.29402355226E+03  0.29897735928E+03  0.10000000000E+01 0.  0.
    9000005    1    3    3    0    0  0.31122879568E+02  0.44361903119E+02 -0.91982054019E+02  0.10676286968E+03  0.10000000000E+01 0.  0.
<mgrwt>
<rscale>  0 0.12499922E+03</rscale>
<asrwt>0</asrwt>
<pdfrwt beam="2">  1        4 0.60903514E-01 0.12499922E+03</pdfrwt>
<pdfrwt beam="1">  1       -4 0.15180482E-02 0.12499922E+03</pdfrwt>
<totfact> 0.63999410E+03</totfact>
</mgrwt>
</event>
<event>
 5    1  0.3232465E-002  0.1249995E+03  0.7818608E-02  0.1235070E+00
         -4   -1    0    0    0  501 -0.00000000000E+00  0.00000000000E+00  0.32627004680E+02  0.32651712579E+02  0.12700000000E+01 0.  1.
          4   -1    0    0  501    0  0.00000000000E+00 -0.00000000000E+00 -0.11965014572E+03  0.11965688559E+03  0.12700000000E+01 0.  1.
         25    2    1    2    0    0  0.00000000000E+00  0.00000000000E+00 -0.87023141038E+02  0.15230859817E+03  0.12499952801E+03 0.  0.
    9000005    1    3    3    0    0 -0.46300615837E+02 -0.40738945537E+02 -0.31216951249E+02  0.69129637318E+02  0.10000000000E+01 0.  0.
    9000005    1    3    3    0    0  0.46300615837E+02  0.40738945537E+02 -0.55806189789E+02  0.83178960856E+02  0.10000000000E+01 0.  0.
<mgrwt>
<rscale>  0 0.12499953E+03</rscale>
<asrwt>0</asrwt>
<pdfrwt beam="2">  1        4 0.18410134E-01 0.12499953E+03</pdfrwt>
<pdfrwt beam="1">  1       -4 0.50219583E-02 0.12499953E+03</pdfrwt>
<totfact> 0.98846539E+03</totfact>
</mgrwt>
</event>
<event>
 5    1  0.3232465E-002  0.1249736E+03  0.7818608E-02  0.1235110E+00
          4   -1    0    0  501    0  0.00000000000E+00  0.00000000000E+00  0.57249688864E+03  0.57249829729E+03  0.12700000000E+01 0. -1.
         -4   -1    0    0    0  501 -0.00000000000E+00 -0.00000000000E+00 -0.67597530534E+01  0.68780201616E+01  0.12700000000E+01 0. -1.
         25    2    1    2    0    0  0.00000000000E+00  0.00000000000E+00  0.56573713558E+03  0.57937631745E+03  0.12497363980E+03 0.  0.
    9000005    1    3    3    0    0 -0.72517229823E+01 -0.61429513702E+02  0.24207450034E+03  0.24985443033E+03  0.10000000000E+01 0.  0.
    9000005    1    3    3    0    0  0.72517229823E+01  0.61429513702E+02  0.32366263524E+03  0.32952188712E+03  0.10000000000E+01 0.  0.
<mgrwt>
<rscale>  0 0.12497364E+03</rscale>
<asrwt>0</asrwt>
<pdfrwt beam="1">  1        4 0.88085663E-01 0.12497364E+03</pdfrwt>
<pdfrwt beam="2">  1       -4 0.10491677E-02 0.12497364E+03</pdfrwt>
<totfact> 0.50224896E+03</totfact>
</mgrwt>
</event>
<event>
 5    1  0.3232465E-002  0.1249990E+03  0.7818608E-02  0.1235071E+00
          4   -1    0    0  501    0  0.00000000000E+00  0.00000000000E+00  0.56603167764E+01  0.58010418038E+01  0.12700000000E+01 0.  1.
         -4   -1    0    0    0  501 -0.00000000000E+00 -0.00000000000E+00 -0.68148555913E+03  0.68148674250E+03  0.12700000000E+01 0.  1.
         25    2    1    2    0    0  0.00000000000E+00  0.00000000000E+00 -0.67582524236E+03  0.68728778431E+03  0.12499896100E+03 0.  0.
    9000005    1    3    3    0    0 -0.25932951254E+02 -0.63316830802E+01 -0.64858518732E+03  0.64913508100E+03  0.10000000000E+01 0.  0.
    9000005    1    3    3    0    0  0.25932951254E+02  0.63316830802E+01 -0.27240055038E+02  0.38152703310E+02  0.10000000000E+01 0.  0.
<mgrwt>
<rscale>  0 0.12499896E+03</rscale>
<asrwt>0</asrwt>
<pdfrwt beam="1">  1        4 0.88173454E-03 0.12499896E+03</pdfrwt>
<pdfrwt beam="2">  1       -4 0.10485478E+00 0.12499896E+03</pdfrwt>
<totfact> 0.43767319E+03</totfact>
</mgrwt>
</event>
<event>
 5    1  0.3232465E-002  0.1249980E+03  0.7818608E-02  0.1235072E+00
         -4   -1    0    0    0  501 -0.00000000000E+00  0.00000000000E+00  0.32379154681E+03  0.32379403745E+03  0.12700000000E+01 0. -1.
          4   -1    0    0  501    0  0.00000000000E+00 -0.00000000000E+00 -0.12027735714E+02  0.12094599059E+02  0.12700000000E+01 0. -1.
         25    2    1    2    0    0  0.00000000000E+00  0.00000000000E+00  0.31176381110E+03  0.33588863651E+03  0.12499800888E+03 0.  0.
    9000005    1    3    3    0    0  0.46730683702E+02  0.41088061224E+02  0.17135112314E+03  0.18230247661E+03  0.10000000000E+01 0.  0.
    9000005    1    3    3    0    0 -0.46730683702E+02 -0.41088061224E+02  0.14041268795E+03  0.15358615990E+03  0.10000000000E+01 0.  0.
<mgrwt>
<rscale>  0 0.12499801E+03</rscale>
<asrwt>0</asrwt>
<pdfrwt beam="2">  1        4 0.18557558E-02 0.12499801E+03</pdfrwt>
<pdfrwt beam="1">  1       -4 0.49819419E-01 0.12499801E+03</pdfrwt>
<totfact> 0.71308539E+03</totfact>
</mgrwt>
</event>
<event>
 5    1  0.3232465E-002  0.1250156E+03  0.7818608E-02  0.1235045E+00
         -4   -1    0    0    0  501 -0.00000000000E+00  0.00000000000E+00  0.13265010201E+02  0.13325666799E+02  0.12700000000E+01 0. -1.
          4   -1    0    0  501    0  0.00000000000E+00 -0.00000000000E+00 -0.29381718653E+03  0.29381993125E+03  0.12700000000E+01 0. -1.
         25    2    1    2    0    0  0.00000000000E+00  0.00000000000E+00 -0.28055217633E+03  0.30714559805E+03  0.12501557806E+03 0.  0.
    9000005    1    3    3    0    0 -0.17928792742E+02  0.36568091910E+02 -0.25675183231E+03  0.25996378661E+03  0.10000000000E+01 0.  0.
    9000005    1    3    3    0    0  0.17928792742E+02 -0.36568091910E+02 -0.23800344020E+02  0.47181811439E+02  0.10000000000E+01 0.  0.
<mgrwt>
<rscale>  0 0.12501558E+03</rscale>
<asrwt>0</asrwt>
<pdfrwt beam="2">  1        4 0.45207516E-01 0.12501558E+03</pdfrwt>
<pdfrwt beam="1">  1       -4 0.20456480E-02 0.12501558E+03</pdfrwt>
<totfact> 0.74685345E+03</totfact>
</mgrwt>
</event>
<event>
 5    1  0.3232465E-002  0.1250036E+03  0.7818608E-02  0.1235064E+00
          4   -1    0    0  501    0  0.00000000000E+00  0.00000000000E+00  0.12413160557E+02  0.12477958768E+02  0.12700000000E+01 0.  1.
         -4   -1    0    0    0  501 -0.00000000000E+00 -0.00000000000E+00 -0.31381919077E+03  0.31382176056E+03  0.12700000000E+01 0.  1.
         25    2    1    2    0    0  0.00000000000E+00  0.00000000000E+00 -0.30140603022E+03  0.32629971932E+03  0.12500364706E+03 0.  0.
    9000005    1    3    3    0    0  0.60528338074E+02  0.12515997807E+02 -0.12661609193E+03  0.14090054878E+03  0.10000000000E+01 0.  0.
    9000005    1    3    3    0    0 -0.60528338074E+02 -0.12515997807E+02 -0.17478993829E+03  0.18539917055E+03  0.10000000000E+01 0.  0.
<mgrwt>
<rscale>  0 0.12500365E+03</rscale>
<asrwt>0</asrwt>
<pdfrwt beam="1">  1        4 0.19148994E-02 0.12500365E+03</pdfrwt>
<pdfrwt beam="2">  1       -4 0.48285051E-01 0.12500365E+03</pdfrwt>
<totfact> 0.72407220E+03</totfact>
</mgrwt>
</event>
<event>
 5    1  0.3232465E-002  0.1249973E+03  0.7818608E-02  0.1235073E+00
          4   -1    0    0  501    0  0.00000000000E+00  0.00000000000E+00  0.80996382622E+03  0.80996482188E+03  0.12700000000E+01 0. -1.
         -4   -1    0    0    0  501 -0.00000000000E+00 -0.00000000000E+00 -0.47379093396E+01  0.49051692031E+01  0.12700000000E+01 0. -1.
         25    2    1    2    0    0  0.00000000000E+00  0.00000000000E+00  0.80522591688E+03  0.81486999108E+03  0.12499730059E+03 0.  0.
    9000005    1    3    3    0    0  0.55381816817E+01 -0.44000024132E+02  0.11559421789E+03  0.12381315273E+03  0.10000000000E+01 0.  0.
    9000005    1    3    3    0    0 -0.55381816817E+01  0.44000024132E+02  0.68963169899E+03  0.69105683835E+03  0.10000000000E+01 0.  0.
<mgrwt>
<rscale>  0 0.12499730E+03</rscale>
<asrwt>0</asrwt>
<pdfrwt beam="1">  1        4 0.12462279E+00 0.12499730E+03</pdfrwt>
<pdfrwt beam="2">  1       -4 0.74185167E-03 0.12499730E+03</pdfrwt>
<totfact> 0.37611660E+03</totfact>
</mgrwt>
</event>
<event>
 5    1  0.3232465E-002  0.1250017E+03  0.7818608E-02  0.1235067E+00
         -4   -1    0    0    0  501 -0.00000000000E+00  0.00000000000E+00  0.53249787932E+02  0.53264930440E+02  0.12700000000E+01 0. -1.
          4   -1    0    0  501    0  0.00000000000E+00 -0.00000000000E+00 -0.73328037790E+02  0.73339034805E+02  0.12700000000E+01 0. -1.
         25    2    1    2    0    0  0.00000000000E+00  0.00000000000E+00 -0.20078249858E+02  0.12660396524E+03  0.12500171158E+03 0.  0.
    9000005    1    3    3    0    0  0.19137540929E+02 -0.54884698087E+02 -0.33285035987E+02  0.66988574977E+02  0.10000000000E+01 0.  0.
    9000005    1    3    3    0    0 -0.19137540929E+02  0.54884698087E+02  0.13206786128E+02  0.59615390267E+02  0.10000000000E+01 0.  0.
<mgrwt>
<rscale>  0 0.12500171E+03</rscale>
<asrwt>0</asrwt>
<pdfrwt beam="2">  1        4 0.11283247E-01 0.12500171E+03</pdfrwt>
<pdfrwt beam="1">  1       -4 0.81942858E-02 0.12500171E+03</pdfrwt>
<totfact> 0.10417359E+04</totfact>
</mgrwt>
</event>
<event>
 5    1  0.3232465E-002  0.1249992E+03  0.7818608E-02  0.1235071E+00
          4   -1    0    0  501    0  0.00000000000E+00  0.00000000000E+00  0.25979047510E+02  0.26010071310E+02  0.12700000000E+01 0.  1.
         -4   -1    0    0    0  501 -0.00000000000E+00 -0.00000000000E+00 -0.15023612945E+03  0.15024149724E+03  0.12700000000E+01 0.  1.
         25    2    1    2    0    0  0.00000000000E+00  0.00000000000E+00 -0.12425708194E+03  0.17625156855E+03  0.12499917201E+03 0.  0.
    9000005    1    3    3    0    0  0.58031551874E+02  0.22289030600E+02 -0.53129071122E+02  0.81781172016E+02  0.10000000000E+01 0.  0.
    9000005    1    3    3    0    0 -0.58031551874E+02 -0.22289030600E+02 -0.71128010822E+02  0.94470396535E+02  0.10000000000E+01 0.  0.
<mgrwt>
<rscale>  0 0.12499917E+03</rscale>
<asrwt>0</asrwt>
<pdfrwt beam="1">  1        4 0.39995760E-02 0.12499917E+03</pdfrwt>
<pdfrwt beam="2">  1       -4 0.23116049E-01 0.12499917E+03</pdfrwt>
<totfact> 0.94297869E+03</totfact>
</mgrwt>
</event>
<event>
 5    1  0.3232465E-002  0.1250008E+03  0.7818608E-02  0.1235068E+00
         -4   -1    0    0    0  501 -0.00000000000E+00  0.00000000000E+00  0.21956334822E+03  0.21956702116E+03  0.12700000000E+01 0. -1.
          4   -1    0    0  501    0  0.00000000000E+00 -0.00000000000E+00 -0.17764721319E+02  0.17810059616E+02  0.12700000000E+01 0. -1.
         25    2    1    2    0    0  0.00000000000E+00  0.00000000000E+00  0.20179862690E+03  0.23737708078E+03  0.12500077063E+03 0.  0.
    9000005    1    3    3    0    0 -0.22469594355E+02  0.11611771715E+01 -0.98155597848E+01  0.24567788195E+02  0.10000000000E+01 0.  0.
    9000005    1    3    3    0    0  0.22469594355E+02 -0.11611771715E+01  0.21161418668E+03  0.21280929258E+03  0.10000000000E+01 0.  0.
<mgrwt>
<rscale>  0 0.12500077E+03</rscale>
<asrwt>0</asrwt>
<pdfrwt beam="2">  1        4 0.27368044E-02 0.12500077E+03</pdfrwt>
<pdfrwt beam="1">  1       -4 0.33782744E-01 0.12500077E+03</pdfrwt>
<totfact> 0.84188117E+03</totfact>
</mgrwt>
</event>
<event>
 5    1  0.3232465E-002  0.1249981E+03  0.7818608E-02  0.1235072E+00
         -4   -1    0    0    0  501 -0.00000000000E+00  0.00000000000E+00  0.21123008773E+03  0.21123390557E+03  0.12700000000E+01 0.  1.
          4   -1    0    0  501    0  0.00000000000E+00 -0.00000000000E+00 -0.18466522336E+02  0.18510141738E+02  0.12700000000E+01 0.  1.
         25    2    1    2    0    0  0.00000000000E+00  0.00000000000E+00  0.19276356540E+03  0.22974404731E+03  0.12499814051E+03 0.  0.
    9000005    1    3    3    0    0  0.25131803564E+01  0.11139415197E+02  0.20930512578E+03  0.20961879287E+03  0.10000000000E+01 0.  0.
    9000005    1    3    3    0    0 -0.25131803564E+01 -0.11139415197E+02 -0.16541560383E+02  0.20125254442E+02  0.10000000000E+01 0.  0.
<mgrwt>
<rscale>  0 0.12499814E+03</rscale>
<asrwt>0</asrwt>
<pdfrwt beam="2">  1        4 0.28446522E-02 0.12499814E+03</pdfrwt>
<pdfrwt beam="1">  1       -4 0.32500588E-01 0.12499814E+03</pdfrwt>
<totfact> 0.85352452E+03</totfact>
</mgrwt>
</event>
<event>
 5    1  0.3232465E-002  0.1249986E+03  0.7818608E-02  0.1235071E+00
         -4   -1    0    0    0  501 -0.00000000000E+00  0.00000000000E+00  0.69453620760E+02  0.69465231135E+02  0.12700000000E+01 0.  1.
          4   -1    0    0  501    0  0.00000000000E+00 -0.00000000000E+00 -0.56217826183E+02  0.56232169447E+02  0.12700000000E+01 0.  1.
         25    2    1    2    0    0  0.00000000000E+00  0.00000000000E+00  0.13235794577E+02  0.12569740058E+03  0.12499860101E+03 0.  0.
    9000005    1    3    3    0    0  0.60588402372E+02 -0.35864101154E+01  0.21578762584E+02  0.64424062540E+02  0.10000000000E+01 0.  0.
    9000005    1    3    3    0    0 -0.60588402372E+02  0.35864101154E+01 -0.83429680071E+01  0.61273338041E+02  0.10000000000E+01 0.  0.
<mgrwt>
<rscale>  0 0.12499860E+03</rscale>
<asrwt>0</asrwt>
<pdfrwt beam="2">  1        4 0.86508928E-02 0.12499860E+03</pdfrwt>
<pdfrwt beam="1">  1       -4 0.10687169E-01 0.12499860E+03</pdfrwt>
<totfact> 0.10437931E+04</totfact>
</mgrwt>
</event>
<event>
 5    1  0.3232465E-002  0.1249994E+03  0.7818608E-02  0.1235070E+00
          4   -1    0    0  501    0  0.00000000000E+00  0.00000000000E+00  0.34873837421E+03  0.34874068668E+03  0.12700000000E+01 0. -1.
         -4   -1    0    0    0  501 -0.00000000000E+00 -0.00000000000E+00 -0.11162626973E+02  0.11234640223E+02  0.12700000000E+01 0. -1.
         25    2    1    2    0    0  0.00000000000E+00  0.00000000000E+00  0.33757574724E+03  0.35997532691E+03  0.12499940343E+03 0.  0.
    9000005    1    3    3    0    0  0.54237640454E+02 -0.88525166856E+01  0.83110359362E+02  0.99641459879E+02  0.10000000000E+01 0.  0.
    9000005    1    3    3    0    0 -0.54237640454E+02  0.88525166856E+01  0.25446538788E+03  0.26033386703E+03  0.10000000000E+01 0.  0.
<mgrwt>
<rscale>  0 0.12499940E+03</rscale>
<asrwt>0</asrwt>
<pdfrwt beam="1">  1        4 0.53657778E-01 0.12499940E+03</pdfrwt>
<pdfrwt beam="2">  1       -4 0.17230445E-02 0.12499940E+03</pdfrwt>
<totfact> 0.68641813E+03</totfact>
</mgrwt>
</event>
<event>
 5    1  0.3232465E-002  0.1249999E+03  0.7818608E-02  0.1235069E+00
          4   -1    0    0  501    0  0.00000000000E+00  0.00000000000E+00  0.41486037896E+03  0.41486232286E+03  0.12700000000E+01 0.  1.
         -4   -1    0    0    0  501 -0.00000000000E+00 -0.00000000000E+00 -0.93710060689E+01  0.94566724985E+01  0.12700000000E+01 0.  1.
         25    2    1    2    0    0  0.00000000000E+00  0.00000000000E+00  0.40548937289E+03  0.42431899536E+03  0.12499991319E+03 0.  0.
    9000005    1    3    3    0    0  0.75103335661E+01  0.20732459694E+02  0.42574413601E+01  0.22480342572E+02  0.10000000000E+01 0.  0.
    9000005    1    3    3    0    0 -0.75103335661E+01 -0.20732459694E+02  0.40123193153E+03  0.40183865279E+03  0.10000000000E+01 0.  0.
<mgrwt>
<rscale>  0 0.12499991E+03</rscale>
<asrwt>0</asrwt>
<pdfrwt beam="1">  1        4 0.63831408E-01 0.12499991E+03</pdfrwt>
<pdfrwt beam="2">  1       -4 0.14484326E-02 0.12499991E+03</pdfrwt>
<totfact> 0.62254457E+03</totfact>
</mgrwt>
</event>
<event>
 5    1  0.3232465E-002  0.1250000E+03  0.7818608E-02  0.1235069E+00
         -4   -1    0    0    0  501 -0.00000000000E+00  0.00000000000E+00  0.42552550702E+02  0.42571498344E+02  0.12700000000E+01 0. -1.
          4   -1    0    0  501    0  0.00000000000E+00 -0.00000000000E+00 -0.91754524076E+02  0.91763312867E+02  0.12700000000E+01 0. -1.
         25    2    1    2    0    0  0.00000000000E+00  0.00000000000E+00 -0.49201973374E+02  0.13433481121E+03  0.12500002928E+03 0.  0.
    9000005    1    3    3    0    0  0.39536380153E+02 -0.48380363216E+02 -0.25902603186E+02  0.67644140562E+02  0.10000000000E+01 0.  0.
    9000005    1    3    3    0    0 -0.39536380153E+02  0.48380363216E+02 -0.23299370188E+02  0.66690670649E+02  0.10000000000E+01 0.  0.
<mgrwt>
<rscale>  0 0.12500003E+03</rscale>
<asrwt>0</asrwt>
<pdfrwt beam="2">  1        4 0.14118214E-01 0.12500003E+03</pdfrwt>
<pdfrwt beam="1">  1       -4 0.65486799E-02 0.12500003E+03</pdfrwt>
<totfact> 0.10252104E+04</totfact>
</mgrwt>
</event>
<event>
 5    1  0.3232465E-002  0.1250006E+03  0.7818608E-02  0.1235068E+00
         -4   -1    0    0    0  501 -0.00000000000E+00  0.00000000000E+00  0.23519628639E+03  0.23519971520E+03  0.12700000000E+01 0.  1.
          4   -1    0    0  501    0  0.00000000000E+00 -0.00000000000E+00 -0.16580800283E+02  0.16629366736E+02  0.12700000000E+01 0.  1.
         25    2    1    2    0    0  0.00000000000E+00  0.00000000000E+00  0.21861548610E+03  0.25182908194E+03  0.12500062298E+03 0.  0.
    9000005    1    3    3    0    0  0.61484796045E+02  0.10818982522E+02  0.11495530502E+03  0.13081724917E+03  0.10000000000E+01 0.  0.
    9000005    1    3    3    0    0 -0.61484796045E+02 -0.10818982522E+02  0.10366018108E+03  0.12101183277E+03  0.10000000000E+01 0.  0.
<mgrwt>
<rscale>  0 0.12500062E+03</rscale>
<asrwt>0</asrwt>
<pdfrwt beam="2">  1        4 0.25548920E-02 0.12500062E+03</pdfrwt>
<pdfrwt beam="1">  1       -4 0.36188044E-01 0.12500062E+03</pdfrwt>
<totfact> 0.82065446E+03</totfact>
</mgrwt>
</event>
<event>
 5    1  0.3232465E-002  0.1249989E+03  0.7818608E-02  0.1235071E+00
         -4   -1    0    0    0  501 -0.00000000000E+00  0.00000000000E+00  0.24367397962E+02  0.24400470967E+02  0.12700000000E+01 0.  1.
          4   -1    0    0  501    0  0.00000000000E+00 -0.00000000000E+00 -0.16015924546E+03  0.16016428068E+03  0.12700000000E+01 0.  1.
         25    2    1    2    0    0  0.00000000000E+00  0.00000000000E+00 -0.13579184750E+03  0.18456475165E+03  0.12499888681E+03 0.  0.
    9000005    1    3    3    0    0 -0.32649971107E+02 -0.18267256640E+02  0.60113144263E+01  0.37905793483E+02  0.10000000000E+01 0.  0.
    9000005    1    3    3    0    0  0.32649971107E+02  0.18267256640E+02 -0.14180316192E+03  0.14665895817E+03  0.10000000000E+01 0.  0.
<mgrwt>
<rscale>  0 0.12499889E+03</rscale>
<asrwt>0</asrwt>
<pdfrwt beam="2">  1        4 0.24642815E-01 0.12499889E+03</pdfrwt>
<pdfrwt beam="1">  1       -4 0.37517620E-02 0.12499889E+03</pdfrwt>
<totfact> 0.92804042E+03</totfact>
</mgrwt>
</event>
<event>
 5    1  0.3232465E-002  0.1250001E+03  0.7818608E-02  0.1235069E+00
         -4   -1    0    0    0  501 -0.00000000000E+00  0.00000000000E+00  0.47846488794E+02  0.47863340772E+02  0.12700000000E+01 0.  1.
          4   -1    0    0  501    0  0.00000000000E+00 -0.00000000000E+00 -0.81605212544E+02  0.81615094280E+02  0.12700000000E+01 0.  1.
         25    2    1    2    0    0  0.00000000000E+00  0.00000000000E+00 -0.33758723750E+02  0.12947843505E+03  0.12500005486E+03 0.  0.
    9000005    1    3    3    0    0  0.97371686931E+01 -0.56662712446E+02  0.84884203787E+01  0.58125112614E+02  0.10000000000E+01 0.  0.
    9000005    1    3    3    0    0 -0.97371686931E+01  0.56662712446E+02 -0.42247144129E+02  0.71353322438E+02  0.10000000000E+01 0.  0.
<mgrwt>
<rscale>  0 0.12500005E+03</rscale>
<asrwt>0</asrwt>
<pdfrwt beam="2">  1        4 0.12556705E-01 0.12500005E+03</pdfrwt>
<pdfrwt beam="1">  1       -4 0.73630547E-02 0.12500005E+03</pdfrwt>
<totfact> 0.10355665E+04</totfact>
</mgrwt>
</event>
<event>
 5    1  0.3232465E-002  0.1250012E+03  0.7818608E-02  0.1235067E+00
          4   -1    0    0  501    0  0.00000000000E+00  0.00000000000E+00  0.44291749120E+01  0.46076556296E+01  0.12700000000E+01 0. -1.
         -4   -1    0    0    0  501 -0.00000000000E+00 -0.00000000000E+00 -0.86435491019E+03  0.86435584319E+03  0.12700000000E+01 0. -1.
         25    2    1    2    0    0  0.00000000000E+00  0.00000000000E+00 -0.85992573527E+03  0.86896349882E+03  0.12500116840E+03 0.  0.
    9000005    1    3    3    0    0 -0.70493361272E+01  0.60433785560E+02 -0.52910300933E+03  0.53259077166E+03  0.10000000000E+01 0.  0.
    9000005    1    3    3    0    0  0.70493361272E+01 -0.60433785560E+02 -0.33082272594E+03  0.33637272716E+03  0.10000000000E+01 0.  0.
<mgrwt>
<rscale>  0 0.12500117E+03</rscale>
<asrwt>0</asrwt>
<pdfrwt beam="1">  1        4 0.69521327E-03 0.12500117E+03</pdfrwt>
<pdfrwt beam="2">  1       -4 0.13299135E+00 0.12500117E+03</pdfrwt>
<totfact> 0.35362771E+03</totfact>
</mgrwt>
</event>
<event>
 5    1  0.3232465E-002  0.1250009E+03  0.7818608E-02  0.1235068E+00
         -4   -1    0    0    0  501 -0.00000000000E+00  0.00000000000E+00  0.14253446460E+02  0.14309913906E+02  0.12700000000E+01 0.  1.
          4   -1    0    0  501    0  0.00000000000E+00 -0.00000000000E+00 -0.27346082867E+03  0.27346377770E+03  0.12700000000E+01 0.  1.
         25    2    1    2    0    0  0.00000000000E+00  0.00000000000E+00 -0.25920738221E+03  0.28777369161E+03  0.12500092236E+03 0.  0.
    9000005    1    3    3    0    0 -0.51094669248E+02  0.17019172116E+02 -0.20258619925E+03  0.20962463016E+03  0.10000000000E+01 0.  0.
    9000005    1    3    3    0    0  0.51094669248E+02 -0.17019172116E+02 -0.56621182960E+02  0.78149061446E+02  0.10000000000E+01 0.  0.
<mgrwt>
<rscale>  0 0.12500092E+03</rscale>
<asrwt>0</asrwt>
<pdfrwt beam="2">  1        4 0.42075463E-01 0.12500092E+03</pdfrwt>
<pdfrwt beam="1">  1       -4 0.21974086E-02 0.12500092E+03</pdfrwt>
<totfact> 0.77156953E+03</totfact>
</mgrwt>
</event>
<event>
 5    1  0.3232465E-002  0.1249966E+03  0.7818608E-02  0.1235075E+00
          4   -1    0    0  501    0  0.00000000000E+00  0.00000000000E+00  0.77464215784E+02  0.77474625698E+02  0.12700000000E+01 0.  1.
         -4   -1    0    0    0  501 -0.00000000000E+00 -0.00000000000E+00 -0.50401942144E+02  0.50417939980E+02  0.12700000000E+01 0.  1.
         25    2    1    2    0    0  0.00000000000E+00  0.00000000000E+00  0.27062273641E+02  0.12789256568E+03  0.12499656676E+03 0.  0.
    9000005    1    3    3    0    0 -0.48264334458E+02  0.38733834116E+02  0.22408534832E+02  0.65824754609E+02  0.10000000000E+01 0.  0.
    9000005    1    3    3    0    0  0.48264334458E+02 -0.38733834116E+02  0.46537388082E+01  0.62067811069E+02  0.10000000000E+01 0.  0.
<mgrwt>
<rscale>  0 0.12499657E+03</rscale>
<asrwt>0</asrwt>
<pdfrwt beam="1">  1        4 0.11919603E-01 0.12499657E+03</pdfrwt>
<pdfrwt beam="2">  1       -4 0.77561764E-02 0.12499657E+03</pdfrwt>
<totfact> 0.10390614E+04</totfact>
</mgrwt>
</event>
<event>
 5    1  0.3232465E-002  0.1250011E+03  0.7818608E-02  0.1235068E+00
          4   -1    0    0  501    0  0.00000000000E+00  0.00000000000E+00  0.16455770286E+02  0.16504704654E+02  0.12700000000E+01 0. -1.
         -4   -1    0    0    0  501 -0.00000000000E+00 -0.00000000000E+00 -0.23697993557E+03  0.23698333857E+03  0.12700000000E+01 0. -1.
         25    2    1    2    0    0  0.00000000000E+00  0.00000000000E+00 -0.22052416528E+03  0.25348804323E+03  0.12500112234E+03 0.  0.
    9000005    1    3    3    0    0  0.53207217414E+02 -0.32713066422E+02 -0.10612228985E+03  0.12314257226E+03  0.10000000000E+01 0.  0.
    9000005    1    3    3    0    0 -0.53207217414E+02  0.32713066422E+02 -0.11440187543E+03  0.13034547097E+03  0.10000000000E+01 0.  0.
<mgrwt>
<rscale>  0 0.12500112E+03</rscale>
<asrwt>0</asrwt>
<pdfrwt beam="1">  1        4 0.25356831E-02 0.12500112E+03</pdfrwt>
<pdfrwt beam="2">  1       -4 0.36462475E-01 0.12500112E+03</pdfrwt>
<totfact> 0.81826652E+03</totfact>
</mgrwt>
</event>
<event>
 5    1  0.3232465E-002  0.1250111E+03  0.7818608E-02  0.1235052E+00
          4   -1    0    0  501    0  0.00000000000E+00  0.00000000000E+00  0.31133951304E+02  0.31159843129E+02  0.12700000000E+01 0. -1.
         -4   -1    0    0    0  501 -0.00000000000E+00 -0.00000000000E+00 -0.12540696231E+03  0.12541339281E+03  0.12700000000E+01 0. -1.
         25    2    1    2    0    0  0.00000000000E+00  0.00000000000E+00 -0.94273011005E+02  0.15657323594E+03  0.12501110994E+03 0.  0.
    9000005    1    3    3    0    0 -0.34084264031E+02 -0.51768202386E+02 -0.57176678593E+02  0.84331823220E+02  0.10000000000E+01 0.  0.
    9000005    1    3    3    0    0  0.34084264031E+02  0.51768202386E+02 -0.37096332413E+02  0.72241412716E+02  0.10000000000E+01 0.  0.
<mgrwt>
<rscale>  0 0.12501111E+03</rscale>
<asrwt>0</asrwt>
<pdfrwt beam="1">  1        4 0.47923251E-02 0.12501111E+03</pdfrwt>
<pdfrwt beam="2">  1       -4 0.19295865E-01 0.12501111E+03</pdfrwt>
<totfact> 0.97983056E+03</totfact>
</mgrwt>
</event>
<event>
 5    1  0.3232465E-002  0.1249908E+03  0.7818608E-02  0.1235084E+00
         -4   -1    0    0    0  501 -0.00000000000E+00  0.00000000000E+00  0.78420702931E+01  0.79442410891E+01  0.12700000000E+01 0.  1.
          4   -1    0    0  501    0  0.00000000000E+00 -0.00000000000E+00 -0.49471477543E+03  0.49471640555E+03  0.12700000000E+01 0.  1.
         25    2    1    2    0    0  0.00000000000E+00  0.00000000000E+00 -0.48687270513E+03  0.50266064664E+03  0.12499077838E+03 0.  0.
    9000005    1    3    3    0    0 -0.35257512146E+02  0.48044486731E+02 -0.16784464747E+03  0.17811285903E+03  0.10000000000E+01 0.  0.
    9000005    1    3    3    0    0  0.35257512146E+02 -0.48044486731E+02 -0.31902805766E+03  0.32454778761E+03  0.10000000000E+01 0.  0.
<mgrwt>
<rscale>  0 0.12499078E+03</rscale>
<asrwt>0</asrwt>
<pdfrwt beam="2">  1        4 0.76117926E-01 0.12499078E+03</pdfrwt>
<pdfrwt beam="1">  1       -4 0.12144574E-02 0.12499078E+03</pdfrwt>
<totfact> 0.55669819E+03</totfact>
</mgrwt>
</event>
<event>
 5    1  0.3232465E-002  0.1249952E+03  0.7818608E-02  0.1235077E+00
          4   -1    0    0  501    0  0.00000000000E+00  0.00000000000E+00  0.18732240139E+03  0.18732670648E+03  0.12700000000E+01 0. -1.
         -4   -1    0    0    0  501 -0.00000000000E+00 -0.00000000000E+00 -0.20827580252E+02  0.20866264619E+02  0.12700000000E+01 0. -1.
         25    2    1    2    0    0  0.00000000000E+00  0.00000000000E+00  0.16649482113E+03  0.20819297110E+03  0.12499515091E+03 0.  0.
    9000005    1    3    3    0    0  0.31621857379E+02 -0.43991211764E+02  0.13511656193E+03  0.14557696893E+03  0.10000000000E+01 0.  0.
    9000005    1    3    3    0    0 -0.31621857379E+02  0.43991211764E+02  0.31378259208E+02  0.62616002168E+02  0.10000000000E+01 0.  0.
<mgrwt>
<rscale>  0 0.12499515E+03</rscale>
<asrwt>0</asrwt>
<pdfrwt beam="1">  1        4 0.28822136E-01 0.12499515E+03</pdfrwt>
<pdfrwt beam="2">  1       -4 0.32075502E-02 0.12499515E+03</pdfrwt>
<totfact> 0.88781472E+03</totfact>
</mgrwt>
</event>
<event>
 5    1  0.3232465E-002  0.1249932E+03  0.7818608E-02  0.1235080E+00
         -4   -1    0    0    0  501 -0.00000000000E+00  0.00000000000E+00  0.52733398800E+03  0.52733551730E+03  0.12700000000E+01 0.  1.
          4   -1    0    0  501    0  0.00000000000E+00 -0.00000000000E+00 -0.73507495159E+01  0.74596527027E+01  0.12700000000E+01 0.  1.
         25    2    1    2    0    0  0.00000000000E+00  0.00000000000E+00  0.51998323848E+03  0.53479517000E+03  0.12499322201E+03 0.  0.
    9000005    1    3    3    0    0 -0.55140590150E+02  0.10180877094E+02  0.14198529590E+03  0.15265961874E+03  0.10000000000E+01 0.  0.
    9000005    1    3    3    0    0  0.55140590150E+02 -0.10180877094E+02  0.37799794258E+03  0.38213555126E+03  0.10000000000E+01 0.  0.
<mgrwt>
<rscale>  0 0.12499322E+03</rscale>
<asrwt>0</asrwt>
<pdfrwt beam="2">  1        4 0.11393791E-02 0.12499322E+03</pdfrwt>
<pdfrwt beam="1">  1       -4 0.81136816E-01 0.12499322E+03</pdfrwt>
<totfact> 0.53270188E+03</totfact>
</mgrwt>
</event>
<event>
 5    1  0.3232465E-002  0.1250002E+03  0.7818608E-02  0.1235069E+00
          4   -1    0    0  501    0  0.00000000000E+00  0.00000000000E+00  0.48677167044E+01  0.50306625721E+01  0.12700000000E+01 0. -1.
         -4   -1    0    0    0  501 -0.00000000000E+00 -0.00000000000E+00 -0.78910985729E+03  0.78911087926E+03  0.12700000000E+01 0. -1.
         25    2    1    2    0    0  0.00000000000E+00  0.00000000000E+00 -0.78424214059E+03  0.79414154184E+03  0.12500021360E+03 0.  0.
    9000005    1    3    3    0    0  0.53236296248E+02 -0.30582877123E+02 -0.31807306466E+03  0.32394581348E+03  0.10000000000E+01 0.  0.
    9000005    1    3    3    0    0 -0.53236296248E+02  0.30582877123E+02 -0.46616907593E+03  0.47019572836E+03  0.10000000000E+01 0.  0.
<mgrwt>
<rscale>  0 0.12500021E+03</rscale>
<asrwt>0</asrwt>
<pdfrwt beam="1">  1        4 0.76149303E-03 0.12500021E+03</pdfrwt>
<pdfrwt beam="2">  1       -4 0.12141403E+00 0.12500021E+03</pdfrwt>
<totfact> 0.38527453E+03</totfact>
</mgrwt>
</event>
<event>
 5    1  0.3232465E-002  0.1249919E+03  0.7818608E-02  0.1235082E+00
         -4   -1    0    0    0  501 -0.00000000000E+00  0.00000000000E+00  0.21523044934E+02  0.21560481517E+02  0.12700000000E+01 0. -1.
          4   -1    0    0  501    0  0.00000000000E+00 -0.00000000000E+00 -0.18127070670E+03  0.18127515552E+03  0.12700000000E+01 0. -1.
         25    2    1    2    0    0  0.00000000000E+00  0.00000000000E+00 -0.15974766177E+03  0.20283563704E+03  0.12499192058E+03 0.  0.
    9000005    1    3    3    0    0 -0.55796901883E+02  0.15907478055E+02 -0.11752825660E+03  0.13107338867E+03  0.10000000000E+01 0.  0.
    9000005    1    3    3    0    0  0.55796901883E+02 -0.15907478055E+02 -0.42219405169E+02  0.71762248367E+02  0.10000000000E+01 0.  0.
<mgrwt>
<rscale>  0 0.12499192E+03</rscale>
<asrwt>0</asrwt>
<pdfrwt beam="2">  1        4 0.27891022E-01 0.12499192E+03</pdfrwt>
<pdfrwt beam="1">  1       -4 0.33144598E-02 0.12499192E+03</pdfrwt>
<totfact> 0.89675655E+03</totfact>
</mgrwt>
</event>
<event>
 5    1  0.3232465E-002  0.1250005E+03  0.7818608E-02  0.1235068E+00
          4   -1    0    0  501    0  0.00000000000E+00  0.00000000000E+00  0.47697506218E+02  0.47714410815E+02  0.12700000000E+01 0.  1.
         -4   -1    0    0    0  501 -0.00000000000E+00 -0.00000000000E+00 -0.81860690482E+02  0.81870541382E+02  0.12700000000E+01 0.  1.
         25    2    1    2    0    0  0.00000000000E+00  0.00000000000E+00 -0.34163184264E+02  0.12958495220E+03  0.12500054671E+03 0.  0.
    9000005    1    3    3    0    0  0.59447238325E+02  0.85633871665E+00  0.28747858159E+01  0.59531267868E+02  0.10000000000E+01 0.  0.
    9000005    1    3    3    0    0 -0.59447238325E+02 -0.85633871665E+00 -0.37037970080E+02  0.70053684329E+02  0.10000000000E+01 0.  0.
<mgrwt>
<rscale>  0 0.12500055E+03</rscale>
<asrwt>0</asrwt>
<pdfrwt beam="1">  1        4 0.73401360E-02 0.12500055E+03</pdfrwt>
<pdfrwt beam="2">  1       -4 0.12596011E-01 0.12500055E+03</pdfrwt>
<totfact> 0.10353266E+04</totfact>
</mgrwt>
</event>
<event>
 5    1  0.3232465E-002  0.1249992E+03  0.7818608E-02  0.1235071E+00
         -4   -1    0    0    0  501 -0.00000000000E+00  0.00000000000E+00  0.26860157294E+01  0.29711244502E+01  0.12700000000E+01 0.  1.
          4   -1    0    0  501    0  0.00000000000E+00 -0.00000000000E+00 -0.13806946810E+04  0.13806952651E+04  0.12700000000E+01 0.  1.
         25    2    1    2    0    0  0.00000000000E+00  0.00000000000E+00 -0.13780086653E+04  0.13836663895E+04  0.12499918393E+03 0.  0.
    9000005    1    3    3    0    0 -0.30713750475E+02  0.29898680339E+02 -0.11923803174E+04  0.11931509070E+04  0.10000000000E+01 0.  0.
    9000005    1    3    3    0    0  0.30713750475E+02 -0.29898680339E+02 -0.18562834790E+03  0.19051548256E+03  0.10000000000E+01 0.  0.
<mgrwt>
<rscale>  0 0.12499918E+03</rscale>
<asrwt>0</asrwt>
<pdfrwt beam="2">  1        4 0.21243600E+00 0.12499918E+03</pdfrwt>
<pdfrwt beam="1">  1       -4 0.43521066E-03 0.12499918E+03</pdfrwt>
<totfact> 0.20334605E+03</totfact>
</mgrwt>
</event>
<event>
 5    1  0.3232465E-002  0.1250073E+03  0.7818608E-02  0.1235058E+00
          4   -1    0    0  501    0  0.00000000000E+00  0.00000000000E+00  0.16116829190E+01  0.20519312443E+01  0.12700000000E+01 0. -1.
         -4   -1    0    0    0  501 -0.00000000000E+00 -0.00000000000E+00 -0.21322651758E+04  0.21322655540E+04  0.12700000000E+01 0. -1.
         25    2    1    2    0    0  0.00000000000E+00  0.00000000000E+00 -0.21306534929E+04  0.21343174853E+04  0.12500728438E+03 0.  0.
    9000005    1    3    3    0    0  0.47481603294E+02  0.72930160527E+01 -0.17478446789E+04  0.17485049935E+04  0.10000000000E+01 0.  0.
    9000005    1    3    3    0    0 -0.47481603294E+02 -0.72930160527E+01 -0.38280881399E+03  0.38581249177E+03  0.10000000000E+01 0.  0.
<mgrwt>
<rscale>  0 0.12500728E+03</rscale>
<asrwt>0</asrwt>
<pdfrwt beam="1">  1        4 0.28184727E-03 0.12500728E+03</pdfrwt>
<pdfrwt beam="2">  1       -4 0.32807270E+00 0.12500728E+03</pdfrwt>
<totfact> 0.82072122E+02</totfact>
</mgrwt>
</event>
<event>
 5    1  0.3232465E-002  0.1250001E+03  0.7818608E-02  0.1235069E+00
          4   -1    0    0  501    0  0.00000000000E+00  0.00000000000E+00  0.37965906297E+03  0.37966118711E+03  0.12700000000E+01 0.  1.
         -4   -1    0    0    0  501 -0.00000000000E+00 -0.00000000000E+00 -0.10247494809E+02  0.10325892206E+02  0.12700000000E+01 0.  1.
         25    2    1    2    0    0  0.00000000000E+00  0.00000000000E+00  0.36941156816E+03  0.38998707931E+03  0.12500006136E+03 0.  0.
    9000005    1    3    3    0    0  0.47862044378E+02 -0.96845233322E+01  0.30636923491E+03  0.31023809145E+03  0.10000000000E+01 0.  0.
    9000005    1    3    3    0    0 -0.47862044378E+02  0.96845233322E+01  0.63042333252E+02  0.79748987869E+02  0.10000000000E+01 0.  0.
<mgrwt>
<rscale>  0 0.12500006E+03</rscale>
<asrwt>0</asrwt>
<pdfrwt beam="1">  1        4 0.58415279E-01 0.12500006E+03</pdfrwt>
<pdfrwt beam="2">  1       -4 0.15827317E-02 0.12500006E+03</pdfrwt>
<totfact> 0.65538335E+03</totfact>
</mgrwt>
</event>
<event>
 5    1  0.3232465E-002  0.1249998E+03  0.7818608E-02  0.1235070E+00
          4   -1    0    0  501    0  0.00000000000E+00  0.00000000000E+00  0.28554633353E+03  0.28554915775E+03  0.12700000000E+01 0.  1.
         -4   -1    0    0    0  501 -0.00000000000E+00 -0.00000000000E+00 -0.13647504502E+02  0.13706468514E+02  0.12700000000E+01 0.  1.
         25    2    1    2    0    0  0.00000000000E+00  0.00000000000E+00  0.27189882903E+03  0.29925562626E+03  0.12499982650E+03 0.  0.
    9000005    1    3    3    0    0 -0.46190775085E+02 -0.11447857440E+01  0.23668000222E+03  0.24114999832E+03  0.10000000000E+01 0.  0.
    9000005    1    3    3    0    0  0.46190775085E+02  0.11447857440E+01  0.35218826802E+02  0.58105627943E+02  0.10000000000E+01 0.  0.
<mgrwt>
<rscale>  0 0.12499983E+03</rscale>
<asrwt>0</asrwt>
<pdfrwt beam="1">  1        4 0.43934954E-01 0.12499983E+03</pdfrwt>
<pdfrwt beam="2">  1       -4 0.21043692E-02 0.12499983E+03</pdfrwt>
<totfact> 0.75692600E+03</totfact>
</mgrwt>
</event>
<event>
 5    1  0.3232465E-002  0.1250022E+03  0.7818608E-02  0.1235066E+00
          4   -1    0    0  501    0  0.00000000000E+00  0.00000000000E+00  0.14988795951E+04  0.14988801332E+04  0.12700000000E+01 0.  1.
         -4   -1    0    0    0  501 -0.00000000000E+00 -0.00000000000E+00 -0.24509163882E+01  0.27604150307E+01  0.12700000000E+01 0.  1.
         25    2    1    2    0    0  0.00000000000E+00  0.00000000000E+00  0.14964286787E+04  0.15016405482E+04  0.12500218168E+03 0.  0.
    9000005    1    3    3    0    0  0.28638064465E+02  0.55478547996E+02  0.71558355635E+03  0.71830274547E+03  0.10000000000E+01 0.  0.
    9000005    1    3    3    0    0 -0.28638064465E+02 -0.55478547996E+02  0.78084512239E+03  0.78333780273E+03  0.10000000000E+01 0.  0.
<mgrwt>
<rscale>  0 0.12500218E+03</rscale>
<asrwt>0</asrwt>
<pdfrwt beam="1">  1        4 0.23061982E+00 0.12500218E+03</pdfrwt>
<pdfrwt beam="2">  1       -4 0.40091459E-03 0.12500218E+03</pdfrwt>
<totfact> 0.17897468E+03</totfact>
</mgrwt>
</event>
<event>
 5    1  0.3232465E-002  0.1250013E+03  0.7818608E-02  0.1235067E+00
          4   -1    0    0  501    0  0.00000000000E+00  0.00000000000E+00  0.17390484994E+04  0.17390489631E+04  0.12700000000E+01 0. -1.
         -4   -1    0    0    0  501 -0.00000000000E+00 -0.00000000000E+00 -0.20662360430E+01  0.24253311909E+01  0.12700000000E+01 0. -1.
         25    2    1    2    0    0  0.00000000000E+00  0.00000000000E+00  0.17369822634E+04  0.17414742943E+04  0.12500133826E+03 0.  0.
    9000005    1    3    3    0    0  0.31023487374E+02  0.53247812566E+02  0.72401296529E+03  0.72663165374E+03  0.10000000000E+01 0.  0.
    9000005    1    3    3    0    0 -0.31023487374E+02 -0.53247812566E+02  0.10129692981E+04  0.10148426406E+04  0.10000000000E+01 0.  0.
<mgrwt>
<rscale>  0 0.12500134E+03</rscale>
<asrwt>0</asrwt>
<pdfrwt beam="1">  1        4 0.26757497E+00 0.12500134E+03</pdfrwt>
<pdfrwt beam="2">  1       -4 0.34553905E-03 0.12500134E+03</pdfrwt>
<totfact> 0.13626526E+03</totfact>
</mgrwt>
</event>
<event>
 5    1  0.3232465E-002  0.1249998E+03  0.7818608E-02  0.1235070E+00
          4   -1    0    0  501    0  0.00000000000E+00  0.00000000000E+00  0.11615641873E+03  0.11616336132E+03  0.12700000000E+01 0.  1.
         -4   -1    0    0    0  501 -0.00000000000E+00 -0.00000000000E+00 -0.33609154524E+02  0.33633140915E+02  0.12700000000E+01 0.  1.
         25    2    1    2    0    0  0.00000000000E+00  0.00000000000E+00  0.82547264210E+02  0.14979650224E+03  0.12499976501E+03 0.  0.
    9000005    1    3    3    0    0 -0.52818882291E+02  0.25480540170E+02  0.15400316432E+02  0.60640432057E+02  0.10000000000E+01 0.  0.
    9000005    1    3    3    0    0  0.52818882291E+02 -0.25480540170E+02  0.67146947778E+02  0.89156070179E+02  0.10000000000E+01 0.  0.
<mgrwt>
<rscale>  0 0.12499977E+03</rscale>
<asrwt>0</asrwt>
<pdfrwt beam="1">  1        4 0.17872598E-01 0.12499977E+03</pdfrwt>
<pdfrwt beam="2">  1       -4 0.51730182E-02 0.12499977E+03</pdfrwt>
<totfact> 0.99344802E+03</totfact>
</mgrwt>
</event>
<event>
 5    1  0.3232465E-002  0.1250031E+03  0.7818608E-02  0.1235065E+00
          4   -1    0    0  501    0  0.00000000000E+00  0.00000000000E+00  0.18058696686E+02  0.18103298760E+02  0.12700000000E+01 0. -1.
         -4   -1    0    0    0  501 -0.00000000000E+00 -0.00000000000E+00 -0.21600580416E+03  0.21600953759E+03  0.12700000000E+01 0. -1.
         25    2    1    2    0    0  0.00000000000E+00  0.00000000000E+00 -0.19794710747E+03  0.23411283635E+03  0.12500305111E+03 0.  0.
    9000005    1    3    3    0    0 -0.53860719378E+02 -0.24177501325E+02 -0.13735168057E+03  0.14950589560E+03  0.10000000000E+01 0.  0.
    9000005    1    3    3    0    0  0.53860719378E+02  0.24177501325E+02 -0.60595426896E+02  0.84606940749E+02  0.10000000000E+01 0.  0.
<mgrwt>
<rscale>  0 0.12500305E+03</rscale>
<asrwt>0</asrwt>
<pdfrwt beam="1">  1        4 0.27819793E-02 0.12500305E+03</pdfrwt>
<pdfrwt beam="2">  1       -4 0.33235378E-01 0.12500305E+03</pdfrwt>
<totfact> 0.84676281E+03</totfact>
</mgrwt>
</event>
<event>
 5    1  0.3232465E-002  0.1249966E+03  0.7818608E-02  0.1235075E+00
         -4   -1    0    0    0  501 -0.00000000000E+00  0.00000000000E+00  0.30525177833E+03  0.30525442024E+03  0.12700000000E+01 0. -1.
          4   -1    0    0  501    0  0.00000000000E+00 -0.00000000000E+00 -0.12761901498E+02  0.12824937811E+02  0.12700000000E+01 0. -1.
         25    2    1    2    0    0  0.00000000000E+00  0.00000000000E+00  0.29248987683E+03  0.31807935805E+03  0.12499659982E+03 0.  0.
    9000005    1    3    3    0    0  0.11172555214E+02  0.31234803111E+02  0.28100855004E+03  0.28296155942E+03  0.10000000000E+01 0.  0.
    9000005    1    3    3    0    0 -0.11172555214E+02 -0.31234803111E+02  0.11481326794E+02  0.35117798626E+02  0.10000000000E+01 0.  0.
<mgrwt>
<rscale>  0 0.12499660E+03</rscale>
<asrwt>0</asrwt>
<pdfrwt beam="2">  1        4 0.19684216E-02 0.12499660E+03</pdfrwt>
<pdfrwt beam="1">  1       -4 0.46966864E-01 0.12499660E+03</pdfrwt>
<totfact> 0.73390674E+03</totfact>
</mgrwt>
</event>
<event>
 5    1  0.3232465E-002  0.1249995E+03  0.7818608E-02  0.1235070E+00
         -4   -1    0    0    0  501 -0.00000000000E+00  0.00000000000E+00  0.50848245445E+01  0.52410247708E+01  0.12700000000E+01 0. -1.
          4   -1    0    0  501    0  0.00000000000E+00 -0.00000000000E+00 -0.75643416850E+03  0.75643523462E+03  0.12700000000E+01 0. -1.
         25    2    1    2    0    0  0.00000000000E+00  0.00000000000E+00 -0.75134934395E+03  0.76167625939E+03  0.12499954983E+03 0.  0.
    9000005    1    3    3    0    0 -0.49420680080E+02 -0.37897979279E+02 -0.34427048579E+03  0.34985972595E+03  0.10000000000E+01 0.  0.
    9000005    1    3    3    0    0  0.49420680080E+02  0.37897979279E+02 -0.40707885816E+03  0.41181653344E+03  0.10000000000E+01 0.  0.
<mgrwt>
<rscale>  0 0.12499955E+03</rscale>
<asrwt>0</asrwt>
<pdfrwt beam="2">  1        4 0.11638650E+00 0.12499955E+03</pdfrwt>
<pdfrwt beam="1">  1       -4 0.79437871E-03 0.12499955E+03</pdfrwt>
<totfact> 0.40022213E+03</totfact>
</mgrwt>
</event>
<event>
 5    1  0.3232465E-002  0.1249708E+03  0.7818608E-02  0.1235115E+00
          4   -1    0    0  501    0  0.00000000000E+00  0.00000000000E+00  0.11939078583E+03  0.11939754035E+03  0.12700000000E+01 0. -1.
         -4   -1    0    0    0  501 -0.00000000000E+00 -0.00000000000E+00 -0.32682914009E+02  0.32707579674E+02  0.12700000000E+01 0. -1.
         25    2    1    2    0    0  0.00000000000E+00  0.00000000000E+00  0.86707871822E+02  0.15210512002E+03  0.12497084660E+03 0.  0.
    9000005    1    3    3    0    0  0.71484826991E+01 -0.14727970721E+02 -0.30031870473E+02  0.34218813109E+02  0.10000000000E+01 0.  0.
    9000005    1    3    3    0    0 -0.71484826991E+01  0.14727970721E+02  0.11673974230E+03  0.11788630691E+03  0.10000000000E+01 0.  0.
<mgrwt>
<rscale>  0 0.12497085E+03</rscale>
<asrwt>0</asrwt>
<pdfrwt beam="1">  1        4 0.18370230E-01 0.12497085E+03</pdfrwt>
<pdfrwt beam="2">  1       -4 0.50305576E-02 0.12497085E+03</pdfrwt>
<totfact> 0.98950611E+03</totfact>
</mgrwt>
</event>
<event>
 5    1  0.3232465E-002  0.1249942E+03  0.7818608E-02  0.1235078E+00
         -4   -1    0    0    0  501 -0.00000000000E+00  0.00000000000E+00  0.66408376907E+03  0.66408498345E+03  0.12700000000E+01 0. -1.
          4   -1    0    0  501    0  0.00000000000E+00 -0.00000000000E+00 -0.58118314413E+01  0.59489734158E+01  0.12700000000E+01 0. -1.
         25    2    1    2    0    0  0.00000000000E+00  0.00000000000E+00  0.65827193763E+03  0.67003395686E+03  0.12499423780E+03 0.  0.
    9000005    1    3    3    0    0  0.57183219201E+02 -0.21445560704E+02  0.40006056257E+03  0.40469653613E+03  0.10000000000E+01 0.  0.
    9000005    1    3    3    0    0 -0.57183219201E+02  0.21445560704E+02  0.25821137505E+03  0.26533742073E+03  0.10000000000E+01 0.  0.
<mgrwt>
<rscale>  0 0.12499424E+03</rscale>
<asrwt>0</asrwt>
<pdfrwt beam="2">  1        4 0.90477116E-03 0.12499424E+03</pdfrwt>
<pdfrwt beam="1">  1       -4 0.10217733E+00 0.12499424E+03</pdfrwt>
<totfact> 0.44722108E+03</totfact>
</mgrwt>
</event>
<event>
 5    1  0.3232465E-002  0.1250055E+03  0.7818608E-02  0.1235061E+00
          4   -1    0    0  501    0  0.00000000000E+00  0.00000000000E+00  0.21221486709E+03  0.21221866721E+03  0.12700000000E+01 0. -1.
         -4   -1    0    0    0  501 -0.00000000000E+00 -0.00000000000E+00 -0.18382805341E+02  0.18426622920E+02  0.12700000000E+01 0. -1.
         25    2    1    2    0    0  0.00000000000E+00  0.00000000000E+00  0.19383206175E+03  0.23064529013E+03  0.12500552667E+03 0.  0.
    9000005    1    3    3    0    0  0.31690975584E+02  0.53602951340E+02  0.10667947206E+03  0.12352774621E+03  0.10000000000E+01 0.  0.
    9000005    1    3    3    0    0 -0.31690975584E+02 -0.53602951340E+02  0.87152589691E+02  0.10711754392E+03  0.10000000000E+01 0.  0.
<mgrwt>
<rscale>  0 0.12500553E+03</rscale>
<asrwt>0</asrwt>
<pdfrwt beam="1">  1        4 0.32652105E-01 0.12500553E+03</pdfrwt>
<pdfrwt beam="2">  1       -4 0.28317867E-02 0.12500553E+03</pdfrwt>
<totfact> 0.85200103E+03</totfact>
</mgrwt>
</event>
<event>
 5    1  0.3232465E-002  0.1249988E+03  0.7818608E-02  0.1235071E+00
         -4   -1    0    0    0  501 -0.00000000000E+00  0.00000000000E+00  0.38542118317E+02  0.38563036503E+02  0.12700000000E+01 0. -1.
          4   -1    0    0  501    0  0.00000000000E+00 -0.00000000000E+00 -0.10129577190E+03  0.10130373292E+03  0.12700000000E+01 0. -1.
         25    2    1    2    0    0  0.00000000000E+00  0.00000000000E+00 -0.62753653578E+02  0.13986676942E+03  0.12499876860E+03 0.  0.
    9000005    1    3    3    0    0 -0.58579582890E+02 -0.56827254613E+00 -0.55719544664E+02  0.80855167570E+02  0.10000000000E+01 0.  0.
    9000005    1    3    3    0    0  0.58579582890E+02  0.56827254613E+00 -0.70341089138E+01  0.59011601854E+02  0.10000000000E+01 0.  0.
<mgrwt>
<rscale>  0 0.12499877E+03</rscale>
<asrwt>0</asrwt>
<pdfrwt beam="2">  1        4 0.15586186E-01 0.12499877E+03</pdfrwt>
<pdfrwt beam="1">  1       -4 0.59317782E-02 0.12499877E+03</pdfrwt>
<totfact> 0.10136629E+04</totfact>
</mgrwt>
</event>
<event>
 5    1  0.3232465E-002  0.1249992E+03  0.7818608E-02  0.1235071E+00
         -4   -1    0    0    0  501 -0.00000000000E+00  0.00000000000E+00  0.11865518419E+03  0.11866198058E+03  0.12700000000E+01 0.  1.
          4   -1    0    0  501    0  0.00000000000E+00 -0.00000000000E+00 -0.32900591533E+02  0.32925094127E+02  0.12700000000E+01 0.  1.
         25    2    1    2    0    0  0.00000000000E+00  0.00000000000E+00  0.85754592652E+02  0.15158707470E+03  0.12499916422E+03 0.  0.
    9000005    1    3    3    0    0 -0.35804703190E+02  0.41597214347E+02  0.79114502899E+02  0.96293351696E+02  0.10000000000E+01 0.  0.
    9000005    1    3    3    0    0  0.35804703190E+02 -0.41597214347E+02  0.66400897531E+01  0.55293723006E+02  0.10000000000E+01 0.  0.
<mgrwt>
<rscale>  0 0.12499916E+03</rscale>
<asrwt>0</asrwt>
<pdfrwt beam="2">  1        4 0.50640370E-02 0.12499916E+03</pdfrwt>
<pdfrwt beam="1">  1       -4 0.18257052E-01 0.12499916E+03</pdfrwt>
<totfact> 0.98990136E+03</totfact>
</mgrwt>
</event>
<event>
 5    1  0.3232465E-002  0.1250107E+03  0.7818608E-02  0.1235053E+00
          4   -1    0    0  501    0  0.00000000000E+00  0.00000000000E+00  0.28462992510E+02  0.28491311704E+02  0.12700000000E+01 0. -1.
         -4   -1    0    0    0  501 -0.00000000000E+00 -0.00000000000E+00 -0.13716365801E+03  0.13716953735E+03  0.12700000000E+01 0. -1.
         25    2    1    2    0    0  0.00000000000E+00  0.00000000000E+00 -0.10870066550E+03  0.16566084906E+03  0.12501072846E+03 0.  0.
    9000005    1    3    3    0    0 -0.88563424398E+01 -0.44553177681E+02  0.25318638200E+01  0.45506381720E+02  0.10000000000E+01 0.  0.
    9000005    1    3    3    0    0  0.88563424398E+01  0.44553177681E+02 -0.11123252932E+03  0.12015446734E+03  0.10000000000E+01 0.  0.
<mgrwt>
<rscale>  0 0.12501073E+03</rscale>
<asrwt>0</asrwt>
<pdfrwt beam="1">  1        4 0.43815526E-02 0.12501073E+03</pdfrwt>
<pdfrwt beam="2">  1       -4 0.21104732E-01 0.12501073E+03</pdfrwt>
<totfact> 0.96239189E+03</totfact>
</mgrwt>
</event>
<event>
 5    1  0.3232465E-002  0.1250025E+03  0.7818608E-02  0.1235065E+00
          4   -1    0    0  501    0  0.00000000000E+00  0.00000000000E+00  0.66243802769E+02  0.66255975619E+02  0.12700000000E+01 0.  1.
         -4   -1    0    0    0  501 -0.00000000000E+00 -0.00000000000E+00 -0.58945745784E+02  0.58959425421E+02  0.12700000000E+01 0.  1.
         25    2    1    2    0    0  0.00000000000E+00  0.00000000000E+00  0.72980569852E+01  0.12521540104E+03  0.12500254006E+03 0.  0.
    9000005    1    3    3    0    0 -0.26578770587E+02  0.54917723992E+02  0.17200602151E+02  0.63397540715E+02  0.10000000000E+01 0.  0.
    9000005    1    3    3    0    0  0.26578770587E+02 -0.54917723992E+02 -0.99025451661E+01  0.61817860325E+02  0.10000000000E+01 0.  0.
<mgrwt>
<rscale>  0 0.12500254E+03</rscale>
<asrwt>0</asrwt>
<pdfrwt beam="1">  1        4 0.10193343E-01 0.12500254E+03</pdfrwt>
<pdfrwt beam="2">  1       -4 0.90705650E-02 0.12500254E+03</pdfrwt>
<totfact> 0.10447586E+04</totfact>
</mgrwt>
</event>
<event>
 5    1  0.3232465E-002  0.1249916E+03  0.7818608E-02  0.1235082E+00
          4   -1    0    0  501    0  0.00000000000E+00  0.00000000000E+00  0.77125649569E+03  0.77125754132E+03  0.12700000000E+01 0. -1.
         -4   -1    0    0    0  501 -0.00000000000E+00 -0.00000000000E+00 -0.49834203631E+01  0.51427014803E+01  0.12700000000E+01 0. -1.
         25    2    1    2    0    0  0.00000000000E+00  0.00000000000E+00  0.76627307533E+03  0.77640024280E+03  0.12499164392E+03 0.  0.
    9000005    1    3    3    0    0  0.28551365478E+02  0.45729234776E+02  0.18686669647E+03  0.19449037414E+03  0.10000000000E+01 0.  0.
    9000005    1    3    3    0    0 -0.28551365478E+02 -0.45729234776E+02  0.57940637885E+03  0.58190986866E+03  0.10000000000E+01 0.  0.
<mgrwt>
<rscale>  0 0.12499164E+03</rscale>
<asrwt>0</asrwt>
<pdfrwt beam="1">  1        4 0.11866709E+00 0.12499164E+03</pdfrwt>
<pdfrwt beam="2">  1       -4 0.77901345E-03 0.12499164E+03</pdfrwt>
<totfact> 0.39347435E+03</totfact>
</mgrwt>
</event>
<event>
 5    1  0.3232465E-002  0.1250013E+03  0.7818608E-02  0.1235067E+00
         -4   -1    0    0    0  501 -0.00000000000E+00  0.00000000000E+00  0.18154081189E+02  0.18198449490E+02  0.12700000000E+01 0.  1.
          4   -1    0    0  501    0  0.00000000000E+00 -0.00000000000E+00 -0.21486748600E+03  0.21487123921E+03  0.12700000000E+01 0.  1.
         25    2    1    2    0    0  0.00000000000E+00  0.00000000000E+00 -0.19671340481E+03  0.23306968870E+03  0.12500126463E+03 0.  0.
    9000005    1    3    3    0    0 -0.31381742978E+02  0.46568931822E+02 -0.47231275894E+02  0.73384416779E+02  0.10000000000E+01 0.  0.
    9000005    1    3    3    0    0  0.31381742978E+02 -0.46568931822E+02 -0.14948212892E+03  0.15968527192E+03  0.10000000000E+01 0.  0.
<mgrwt>
<rscale>  0 0.12500126E+03</rscale>
<asrwt>0</asrwt>
<pdfrwt beam="2">  1        4 0.33060236E-01 0.12500126E+03</pdfrwt>
<pdfrwt beam="1">  1       -4 0.27966374E-02 0.12500126E+03</pdfrwt>
<totfact> 0.84838069E+03</totfact>
</mgrwt>
</event>
<event>
 5    1  0.3232465E-002  0.1250043E+03  0.7818608E-02  0.1235063E+00
          4   -1    0    0  501    0  0.00000000000E+00  0.00000000000E+00  0.20270630911E+02  0.20310376105E+02  0.12700000000E+01 0.  1.
         -4   -1    0    0    0  501 -0.00000000000E+00 -0.00000000000E+00 -0.19248749584E+03  0.19249168542E+03  0.12700000000E+01 0.  1.
         25    2    1    2    0    0  0.00000000000E+00  0.00000000000E+00 -0.17221686493E+03  0.21280206152E+03  0.12500427522E+03 0.  0.
    9000005    1    3    3    0    0 -0.21795296090E+02  0.24124584189E+02 -0.17696536356E+03  0.17992990411E+03  0.10000000000E+01 0.  0.
    9000005    1    3    3    0    0  0.21795296090E+02 -0.24124584189E+02  0.47484986258E+01  0.32872157415E+02  0.10000000000E+01 0.  0.
<mgrwt>
<rscale>  0 0.12500428E+03</rscale>
<asrwt>0</asrwt>
<pdfrwt beam="1">  1        4 0.31219383E-02 0.12500428E+03</pdfrwt>
<pdfrwt beam="2">  1       -4 0.29616839E-01 0.12500428E+03</pdfrwt>
<totfact> 0.88011893E+03</totfact>
</mgrwt>
</event>
<event>
 5    1  0.3232465E-002  0.1250011E+03  0.7818608E-02  0.1235068E+00
         -4   -1    0    0    0  501 -0.00000000000E+00  0.00000000000E+00  0.17047925048E+02  0.17095164475E+02  0.12700000000E+01 0. -1.
          4   -1    0    0  501    0  0.00000000000E+00 -0.00000000000E+00 -0.22877149530E+03  0.22877502040E+03  0.12700000000E+01 0. -1.
         25    2    1    2    0    0  0.00000000000E+00  0.00000000000E+00 -0.21172357025E+03  0.24587018488E+03  0.12500111045E+03 0.  0.
    9000005    1    3    3    0    0 -0.39814190208E+02 -0.89032214398E+01 -0.12750671536E+02  0.42755312168E+02  0.10000000000E+01 0.  0.
    9000005    1    3    3    0    0  0.39814190208E+02  0.89032214398E+01 -0.19897289871E+03  0.20311487271E+03  0.10000000000E+01 0.  0.
<mgrwt>
<rscale>  0 0.12500111E+03</rscale>
<asrwt>0</asrwt>
<pdfrwt beam="2">  1        4 0.35199517E-01 0.12500111E+03</pdfrwt>
<pdfrwt beam="1">  1       -4 0.26266628E-02 0.12500111E+03</pdfrwt>
<totfact> 0.82928751E+03</totfact>
</mgrwt>
</event>
<event>
 5    1  0.3232465E-002  0.1250105E+03  0.7818608E-02  0.1235053E+00
          4   -1    0    0  501    0  0.00000000000E+00  0.00000000000E+00  0.15160911326E+04  0.15160916646E+04  0.12700000000E+01 0. -1.
         -4   -1    0    0    0  501 -0.00000000000E+00 -0.00000000000E+00 -0.24199230963E+01  0.27329339165E+01  0.12700000000E+01 0. -1.
         25    2    1    2    0    0  0.00000000000E+00  0.00000000000E+00  0.15136712095E+04  0.15188245985E+04  0.12501052099E+03 0.  0.
    9000005    1    3    3    0    0 -0.46737247658E+02  0.31112240194E+02  0.42331578945E+03  0.42702412040E+03  0.10000000000E+01 0.  0.
    9000005    1    3    3    0    0  0.46737247658E+02 -0.31112240194E+02  0.10903554201E+04  0.10918004781E+04  0.10000000000E+01 0.  0.
<mgrwt>
<rscale>  0 0.12501052E+03</rscale>
<asrwt>0</asrwt>
<pdfrwt beam="1">  1        4 0.23326971E+00 0.12501052E+03</pdfrwt>
<pdfrwt beam="2">  1       -4 0.39641317E-03 0.12501052E+03</pdfrwt>
<totfact> 0.17559169E+03</totfact>
</mgrwt>
</event>
<event>
 5    1  0.3232465E-002  0.1250062E+03  0.7818608E-02  0.1235060E+00
         -4   -1    0    0    0  501 -0.00000000000E+00  0.00000000000E+00  0.16538525179E+01  0.20852165717E+01  0.12700000000E+01 0. -1.
          4   -1    0    0  501    0  0.00000000000E+00 -0.00000000000E+00 -0.20892002246E+04  0.20892006107E+04  0.12700000000E+01 0. -1.
         25    2    1    2    0    0  0.00000000000E+00  0.00000000000E+00 -0.20875463721E+04  0.20912858272E+04  0.12500622134E+03 0.  0.
    9000005    1    3    3    0    0  0.58730796905E+02 -0.19970355156E+02 -0.91689678946E+03  0.91899338633E+03  0.10000000000E+01 0.  0.
    9000005    1    3    3    0    0 -0.58730796905E+02  0.19970355156E+02 -0.11706495827E+04  0.11722924409E+04  0.10000000000E+01 0.  0.
<mgrwt>
<rscale>  0 0.12500622E+03</rscale>
<asrwt>0</asrwt>
<pdfrwt beam="2">  1        4 0.32144676E+00 0.12500622E+03</pdfrwt>
<pdfrwt beam="1">  1       -4 0.28765206E-03 0.12500622E+03</pdfrwt>
<totfact> 0.87153685E+02</totfact>
</mgrwt>
</event>
<event>
 5    1  0.3232465E-002  0.1249940E+03  0.7818608E-02  0.1235079E+00
          4   -1    0    0  501    0  0.00000000000E+00  0.00000000000E+00  0.64085416653E+02  0.64097999404E+02  0.12700000000E+01 0. -1.
         -4   -1    0    0    0  501 -0.00000000000E+00 -0.00000000000E+00 -0.60922747030E+02  0.60935982848E+02  0.12700000000E+01 0. -1.
         25    2    1    2    0    0  0.00000000000E+00  0.00000000000E+00  0.31626696231E+01  0.12503398225E+03  0.12499397681E+03 0.  0.
    9000005    1    3    3    0    0  0.39484827532E+02  0.12797431594E+02  0.48308678951E+02  0.63698935020E+02  0.10000000000E+01 0.  0.
    9000005    1    3    3    0    0 -0.39484827532E+02 -0.12797431594E+02 -0.45146009328E+02  0.61335047232E+02  0.10000000000E+01 0.  0.
<mgrwt>
<rscale>  0 0.12499398E+03</rscale>
<asrwt>0</asrwt>
<pdfrwt beam="1">  1        4 0.98612810E-02 0.12499398E+03</pdfrwt>
<pdfrwt beam="2">  1       -4 0.93747163E-02 0.12499398E+03</pdfrwt>
<totfact> 0.10453547E+04</totfact>
</mgrwt>
</event>
<event>
 5    1  0.3232465E-002  0.1249992E+03  0.7818608E-02  0.1235071E+00
         -4   -1    0    0    0  501 -0.00000000000E+00  0.00000000000E+00  0.99836760513E+03  0.99836841290E+03  0.12700000000E+01 0.  1.
          4   -1    0    0  501    0  0.00000000000E+00 -0.00000000000E+00 -0.38086978871E+01  0.40148573568E+01  0.12700000000E+01 0.  1.
         25    2    1    2    0    0  0.00000000000E+00  0.00000000000E+00  0.99455890724E+03  0.10023832703E+04  0.12499920204E+03 0.  0.
    9000005    1    3    3    0    0  0.45188112364E+02 -0.42404556853E+02  0.43258341999E+03  0.43700060320E+03  0.10000000000E+01 0.  0.
    9000005    1    3    3    0    0 -0.45188112364E+02  0.42404556853E+02  0.56197548725E+03  0.56538266706E+03  0.10000000000E+01 0.  0.
<mgrwt>
<rscale>  0 0.12499920E+03</rscale>
<asrwt>0</asrwt>
<pdfrwt beam="2">  1        4 0.60187415E-03 0.12499920E+03</pdfrwt>
<pdfrwt beam="1">  1       -4 0.15361092E+00 0.12499920E+03</pdfrwt>
<totfact> 0.30526456E+03</totfact>
</mgrwt>
</event>
<event>
 5    1  0.3232465E-002  0.1250008E+03  0.7818608E-02  0.1235068E+00
          4   -1    0    0  501    0  0.00000000000E+00  0.00000000000E+00  0.16746863698E+02  0.16794949947E+02  0.12700000000E+01 0.  1.
         -4   -1    0    0    0  501 -0.00000000000E+00 -0.00000000000E+00 -0.23287122782E+03  0.23287469087E+03  0.12700000000E+01 0.  1.
         25    2    1    2    0    0  0.00000000000E+00  0.00000000000E+00 -0.21612436412E+03  0.24966964081E+03  0.12500075510E+03 0.  0.
    9000005    1    3    3    0    0  0.16021061662E+02 -0.90885279470E+01  0.11211623131E+02  0.21586483045E+02  0.10000000000E+01 0.  0.
    9000005    1    3    3    0    0 -0.16021061662E+02  0.90885279470E+01 -0.22733598725E+03  0.22808315777E+03  0.10000000000E+01 0.  0.
<mgrwt>
<rscale>  0 0.12500076E+03</rscale>
<asrwt>0</asrwt>
<pdfrwt beam="1">  1        4 0.25804061E-02 0.12500076E+03</pdfrwt>
<pdfrwt beam="2">  1       -4 0.35830306E-01 0.12500076E+03</pdfrwt>
<totfact> 0.82376614E+03</totfact>
</mgrwt>
</event>
<event>
 5    1  0.3232465E-002  0.1249989E+03  0.7818608E-02  0.1235071E+00
          4   -1    0    0  501    0  0.00000000000E+00  0.00000000000E+00  0.17015776945E+03  0.17016250880E+03  0.12700000000E+01 0.  1.
         -4   -1    0    0    0  501 -0.00000000000E+00 -0.00000000000E+00 -0.22933606184E+02  0.22968743818E+02  0.12700000000E+01 0.  1.
         25    2    1    2    0    0  0.00000000000E+00  0.00000000000E+00  0.14722416326E+03  0.19313125262E+03  0.12499890596E+03 0.  0.
    9000005    1    3    3    0    0  0.12822456979E+02  0.44186066945E+02  0.13895124071E+03  0.14637373812E+03  0.10000000000E+01 0.  0.
    9000005    1    3    3    0    0 -0.12822456979E+02 -0.44186066945E+02  0.82729225480E+01  0.46757514504E+02  0.10000000000E+01 0.  0.
<mgrwt>
<rscale>  0 0.12499891E+03</rscale>
<asrwt>0</asrwt>
<pdfrwt beam="1">  1        4 0.26181185E-01 0.12499891E+03</pdfrwt>
<pdfrwt beam="2">  1       -4 0.35313146E-02 0.12499891E+03</pdfrwt>
<totfact> 0.91307561E+03</totfact>
</mgrwt>
</event>
<event>
 5    1  0.3232465E-002  0.1250002E+03  0.7818608E-02  0.1235069E+00
         -4   -1    0    0    0  501 -0.00000000000E+00  0.00000000000E+00  0.12771236322E+04  0.12771242636E+04  0.12700000000E+01 0.  1.
          4   -1    0    0  501    0  0.00000000000E+00 -0.00000000000E+00 -0.29261496016E+01  0.31898670021E+01  0.12700000000E+01 0.  1.
         25    2    1    2    0    0  0.00000000000E+00  0.00000000000E+00  0.12741974826E+04  0.12803141306E+04  0.12500019403E+03 0.  0.
    9000005    1    3    3    0    0  0.59399928431E+02 -0.49243646534E+01  0.44475204548E+03  0.44872929793E+03  0.10000000000E+01 0.  0.
    9000005    1    3    3    0    0 -0.59399928431E+02  0.49243646534E+01  0.82944543711E+03  0.83158483271E+03  0.10000000000E+01 0.  0.
<mgrwt>
<rscale>  0 0.12500019E+03</rscale>
<asrwt>0</asrwt>
<pdfrwt beam="2">  1        4 0.47051133E-03 0.12500019E+03</pdfrwt>
<pdfrwt beam="1">  1       -4 0.19650092E+00 0.12500019E+03</pdfrwt>
<totfact> 0.22697858E+03</totfact>
</mgrwt>
</event>
<event>
 5    1  0.3232465E-002  0.1250019E+03  0.7818608E-02  0.1235066E+00
          4   -1    0    0  501    0  0.00000000000E+00  0.00000000000E+00  0.37402068168E+03  0.37402283784E+03  0.12700000000E+01 0.  1.
         -4   -1    0    0    0  501 -0.00000000000E+00 -0.00000000000E+00 -0.10403451254E+02  0.10480682134E+02  0.12700000000E+01 0.  1.
         25    2    1    2    0    0  0.00000000000E+00  0.00000000000E+00  0.36361723043E+03  0.38450351997E+03  0.12500186642E+03 0.  0.
    9000005    1    3    3    0    0  0.18489908586E+00 -0.33251325315E+02  0.19052182784E+02  0.38336281662E+02  0.10000000000E+01 0.  0.
    9000005    1    3    3    0    0 -0.18489908586E+00  0.33251325315E+02  0.34456504764E+03  0.34616723831E+03  0.10000000000E+01 0.  0.
<mgrwt>
<rscale>  0 0.12500187E+03</rscale>
<asrwt>0</asrwt>
<pdfrwt beam="1">  1        4 0.57547751E-01 0.12500187E+03</pdfrwt>
<pdfrwt beam="2">  1       -4 0.16066376E-02 0.12500187E+03</pdfrwt>
<totfact> 0.66085662E+03</totfact>
</mgrwt>
</event>
<event>
 5    1  0.3232465E-002  0.1250071E+03  0.7818608E-02  0.1235058E+00
          4   -1    0    0  501    0  0.00000000000E+00  0.00000000000E+00  0.22825432811E+02  0.22860736712E+02  0.12700000000E+01 0. -1.
         -4   -1    0    0    0  501 -0.00000000000E+00 -0.00000000000E+00 -0.17098540111E+03  0.17099011753E+03  0.12700000000E+01 0. -1.
         25    2    1    2    0    0  0.00000000000E+00  0.00000000000E+00 -0.14815996830E+03  0.19385085424E+03  0.12500710973E+03 0.  0.
    9000005    1    3    3    0    0  0.55798385116E+02 -0.28146314480E+02 -0.74296921572E+02  0.97091232124E+02  0.10000000000E+01 0.  0.
    9000005    1    3    3    0    0 -0.55798385116E+02  0.28146314480E+02 -0.73863046727E+02  0.96759622116E+02  0.10000000000E+01 0.  0.
<mgrwt>
<rscale>  0 0.12500711E+03</rscale>
<asrwt>0</asrwt>
<pdfrwt beam="1">  1        4 0.35146836E-02 0.12500711E+03</pdfrwt>
<pdfrwt beam="2">  1       -4 0.26308524E-01 0.12500711E+03</pdfrwt>
<totfact> 0.91167049E+03</totfact>
</mgrwt>
</event>
<event>
 5    1  0.3232465E-002  0.1249944E+03  0.7818608E-02  0.1235078E+00
         -4   -1    0    0    0  501 -0.00000000000E+00  0.00000000000E+00  0.15919486311E+03  0.15919992883E+03  0.12700000000E+01 0. -1.
          4   -1    0    0  501    0  0.00000000000E+00 -0.00000000000E+00 -0.24513451515E+02  0.24546327733E+02  0.12700000000E+01 0. -1.
         25    2    1    2    0    0  0.00000000000E+00  0.00000000000E+00  0.13468141159E+03  0.18374625657E+03  0.12499441657E+03 0.  0.
    9000005    1    3    3    0    0 -0.12015046535E+02  0.61323076596E+02  0.67132932128E+02  0.91720835378E+02  0.10000000000E+01 0.  0.
    9000005    1    3    3    0    0  0.12015046535E+02 -0.61323076596E+02  0.67548479467E+02  0.92025421187E+02  0.10000000000E+01 0.  0.
<mgrwt>
<rscale>  0 0.12499442E+03</rscale>
<asrwt>0</asrwt>
<pdfrwt beam="2">  1        4 0.37742190E-02 0.12499442E+03</pdfrwt>
<pdfrwt beam="1">  1       -4 0.24494435E-01 0.12499442E+03</pdfrwt>
<totfact> 0.92958611E+03</totfact>
</mgrwt>
</event>
<event>
 5    1  0.3232465E-002  0.1250085E+03  0.7818608E-02  0.1235056E+00
         -4   -1    0    0    0  501 -0.00000000000E+00  0.00000000000E+00  0.32059947240E+02  0.32085091819E+02  0.12700000000E+01 0.  1.
          4   -1    0    0  501    0  0.00000000000E+00 -0.00000000000E+00 -0.12178244423E+03  0.12178906611E+03  0.12700000000E+01 0.  1.
         25    2    1    2    0    0  0.00000000000E+00  0.00000000000E+00 -0.89722496991E+02  0.15387415793E+03  0.12500851975E+03 0.  0.
    9000005    1    3    3    0    0 -0.58465307440E+02  0.20961003495E+02 -0.53409350081E+02  0.81921392307E+02  0.10000000000E+01 0.  0.
    9000005    1    3    3    0    0  0.58465307440E+02 -0.20961003495E+02 -0.36313146910E+02  0.71952765618E+02  0.10000000000E+01 0.  0.
<mgrwt>
<rscale>  0 0.12500852E+03</rscale>
<asrwt>0</asrwt>
<pdfrwt beam="2">  1        4 0.18738204E-01 0.12500852E+03</pdfrwt>
<pdfrwt beam="1">  1       -4 0.49347432E-02 0.12500852E+03</pdfrwt>
<totfact> 0.98518090E+03</totfact>
</mgrwt>
</event>
<event>
 5    1  0.3232465E-002  0.1250102E+03  0.7818608E-02  0.1235053E+00
         -4   -1    0    0    0  501 -0.00000000000E+00  0.00000000000E+00  0.21097566547E+02  0.21135756769E+02  0.12700000000E+01 0.  1.
          4   -1    0    0  501    0  0.00000000000E+00 -0.00000000000E+00 -0.18497420815E+03  0.18497856789E+03  0.12700000000E+01 0.  1.
         25    2    1    2    0    0  0.00000000000E+00  0.00000000000E+00 -0.16387664160E+03  0.20611432466E+03  0.12501024425E+03 0.  0.
    9000005    1    3    3    0    0  0.18778633561E+02 -0.57095915154E+02 -0.11017579030E+03  0.12550810879E+03  0.10000000000E+01 0.  0.
    9000005    1    3    3    0    0 -0.18778633561E+02  0.57095915154E+02 -0.53700851305E+02  0.80606215868E+02  0.10000000000E+01 0.  0.
<mgrwt>
<rscale>  0 0.12501024E+03</rscale>
<asrwt>0</asrwt>
<pdfrwt beam="2">  1        4 0.28460842E-01 0.12501024E+03</pdfrwt>
<pdfrwt beam="1">  1       -4 0.32490527E-02 0.12501024E+03</pdfrwt>
<totfact> 0.89094007E+03</totfact>
</mgrwt>
</event>
<event>
 5    1  0.3232465E-002  0.1250110E+03  0.7818608E-02  0.1235052E+00
          4   -1    0    0  501    0  0.00000000000E+00  0.00000000000E+00  0.51465437836E+01  0.53009256660E+01  0.12700000000E+01 0.  1.
         -4   -1    0    0    0  501 -0.00000000000E+00 -0.00000000000E+00 -0.74776601067E+03  0.74776708915E+03  0.12700000000E+01 0.  1.
         25    2    1    2    0    0  0.00000000000E+00  0.00000000000E+00 -0.74261946688E+03  0.75306801481E+03  0.12501104886E+03 0.  0.
    9000005    1    3    3    0    0 -0.53501214243E+02 -0.28778337885E+02 -0.45971462945E+03  0.46371231727E+03  0.10000000000E+01 0.  0.
    9000005    1    3    3    0    0  0.53501214243E+02  0.28778337885E+02 -0.28290483743E+03  0.28935569754E+03  0.10000000000E+01 0.  0.
<mgrwt>
<rscale>  0 0.12501105E+03</rscale>
<asrwt>0</asrwt>
<pdfrwt beam="1">  1        4 0.80373505E-03 0.12501105E+03</pdfrwt>
<pdfrwt beam="2">  1       -4 0.11505280E+00 0.12501105E+03</pdfrwt>
<totfact> 0.40418082E+03</totfact>
</mgrwt>
</event>
<event>
 5    1  0.3232465E-002  0.1249992E+03  0.7818608E-02  0.1235070E+00
         -4   -1    0    0    0  501 -0.00000000000E+00  0.00000000000E+00  0.27271091363E+03  0.27271387078E+03  0.12700000000E+01 0. -1.
          4   -1    0    0  501    0  0.00000000000E+00 -0.00000000000E+00 -0.14292410142E+02  0.14348724252E+02  0.12700000000E+01 0. -1.
         25    2    1    2    0    0  0.00000000000E+00  0.00000000000E+00  0.25841850349E+03  0.28706259503E+03  0.12499924207E+03 0.  0.
    9000005    1    3    3    0    0 -0.29709523521E+02 -0.54812349161E+02  0.13899391937E+03  0.15233961740E+03  0.10000000000E+01 0.  0.
    9000005    1    3    3    0    0  0.29709523521E+02  0.54812349161E+02  0.11942458412E+03  0.13472297762E+03  0.10000000000E+01 0.  0.
<mgrwt>
<rscale>  0 0.12499924E+03</rscale>
<asrwt>0</asrwt>
<pdfrwt beam="2">  1        4 0.22033918E-02 0.12499924E+03</pdfrwt>
<pdfrwt beam="1">  1       -4 0.41960081E-01 0.12499924E+03</pdfrwt>
<totfact> 0.77252182E+03</totfact>
</mgrwt>
</event>
<event>
 5    1  0.3232465E-002  0.1250013E+03  0.7818608E-02  0.1235067E+00
         -4   -1    0    0    0  501 -0.00000000000E+00  0.00000000000E+00  0.17062265955E+03  0.17062738600E+03  0.12700000000E+01 0. -1.
          4   -1    0    0  501    0  0.00000000000E+00 -0.00000000000E+00 -0.22871908771E+02  0.22907141044E+02  0.12700000000E+01 0. -1.
         25    2    1    2    0    0  0.00000000000E+00  0.00000000000E+00  0.14775075078E+03  0.19353452704E+03  0.12500131520E+03 0.  0.
    9000005    1    3    3    0    0 -0.44915692188E+02  0.32430890385E+02  0.29105487426E+02  0.62588429076E+02  0.10000000000E+01 0.  0.
    9000005    1    3    3    0    0  0.44915692188E+02 -0.32430890385E+02  0.11864526336E+03  0.13094609797E+03  0.10000000000E+01 0.  0.
<mgrwt>
<rscale>  0 0.12500132E+03</rscale>
<asrwt>0</asrwt>
<pdfrwt beam="2">  1        4 0.35218289E-02 0.12500132E+03</pdfrwt>
<pdfrwt beam="1">  1       -4 0.26252714E-01 0.12500132E+03</pdfrwt>
<totfact> 0.91233242E+03</totfact>
</mgrwt>
</event>
<event>
 5    1  0.3232465E-002  0.1250037E+03  0.7818608E-02  0.1235064E+00
         -4   -1    0    0    0  501 -0.00000000000E+00  0.00000000000E+00  0.21902704520E+02  0.21939493278E+02  0.12700000000E+01 0. -1.
          4   -1    0    0  501    0  0.00000000000E+00 -0.00000000000E+00 -0.17816731885E+03  0.17817184516E+03  0.12700000000E+01 0. -1.
         25    2    1    2    0    0  0.00000000000E+00  0.00000000000E+00 -0.15626461433E+03  0.20011133843E+03  0.12500367226E+03 0.  0.
    9000005    1    3    3    0    0  0.55410917698E+02  0.16573180540E+02 -0.11603004240E+03  0.12964956942E+03  0.10000000000E+01 0.  0.
    9000005    1    3    3    0    0 -0.55410917698E+02 -0.16573180540E+02 -0.40234571932E+02  0.70461769009E+02  0.10000000000E+01 0.  0.
<mgrwt>
<rscale>  0 0.12500367E+03</rscale>
<asrwt>0</asrwt>
<pdfrwt beam="2">  1        4 0.27413534E-01 0.12500367E+03</pdfrwt>
<pdfrwt beam="1">  1       -4 0.33728251E-02 0.12500367E+03</pdfrwt>
<totfact> 0.90109327E+03</totfact>
</mgrwt>
</event>
<event>
 5    1  0.3232465E-002  0.1250019E+03  0.7818608E-02  0.1235066E+00
          4   -1    0    0  501    0  0.00000000000E+00  0.00000000000E+00  0.13187411657E+03  0.13188023173E+03  0.12700000000E+01 0.  1.
         -4   -1    0    0    0  501 -0.00000000000E+00 -0.00000000000E+00 -0.29601530029E+02  0.29628761028E+02  0.12700000000E+01 0.  1.
         25    2    1    2    0    0  0.00000000000E+00  0.00000000000E+00  0.10227258654E+03  0.16150899276E+03  0.12500189112E+03 0.  0.
    9000005    1    3    3    0    0  0.37338935493E+02 -0.23940527397E+02 -0.57437103854E+01  0.44736284656E+02  0.10000000000E+01 0.  0.
    9000005    1    3    3    0    0 -0.37338935493E+02  0.23940527397E+02  0.10801629693E+03  0.11677270810E+03  0.10000000000E+01 0.  0.
<mgrwt>
<rscale>  0 0.12500189E+03</rscale>
<asrwt>0</asrwt>
<pdfrwt beam="1">  1        4 0.20290891E-01 0.12500189E+03</pdfrwt>
<pdfrwt beam="2">  1       -4 0.45566466E-02 0.12500189E+03</pdfrwt>
<totfact> 0.97048525E+03</totfact>
</mgrwt>
</event>
<event>
 5    1  0.3232465E-002  0.1249913E+03  0.7818608E-02  0.1235083E+00
         -4   -1    0    0    0  501 -0.00000000000E+00  0.00000000000E+00  0.37042780162E+03  0.37042997869E+03  0.12700000000E+01 0. -1.
          4   -1    0    0  501    0  0.00000000000E+00 -0.00000000000E+00 -0.10503314227E+02  0.10579816149E+02  0.12700000000E+01 0. -1.
         25    2    1    2    0    0  0.00000000000E+00  0.00000000000E+00  0.35992448739E+03  0.38100979484E+03  0.12499130825E+03 0.  0.
    9000005    1    3    3    0    0  0.40095060671E+02 -0.25267289875E+02  0.30410878195E+03  0.30778109280E+03  0.10000000000E+01 0.  0.
    9000005    1    3    3    0    0 -0.40095060671E+02  0.25267289875E+02  0.55815705440E+02  0.73228702034E+02  0.10000000000E+01 0.  0.
<mgrwt>
<rscale>  0 0.12499131E+03</rscale>
<asrwt>0</asrwt>
<pdfrwt beam="2">  1        4 0.16219471E-02 0.12499131E+03</pdfrwt>
<pdfrwt beam="1">  1       -4 0.56994931E-01 0.12499131E+03</pdfrwt>
<totfact> 0.66455391E+03</totfact>
</mgrwt>
</event>
<event>
 5    1  0.3232465E-002  0.1249990E+03  0.7818608E-02  0.1235071E+00
          4   -1    0    0  501    0  0.00000000000E+00  0.00000000000E+00  0.28639466384E+03  0.28639747970E+03  0.12700000000E+01 0. -1.
         -4   -1    0    0    0  501 -0.00000000000E+00 -0.00000000000E+00 -0.13606720765E+02  0.13665860748E+02  0.12700000000E+01 0. -1.
         25    2    1    2    0    0  0.00000000000E+00  0.00000000000E+00  0.27278794308E+03  0.30006334045E+03  0.12499898556E+03 0.  0.
    9000005    1    3    3    0    0 -0.16965533111E+02 -0.44576290484E+02  0.39467643096E+02  0.61915828659E+02  0.10000000000E+01 0.  0.
    9000005    1    3    3    0    0  0.16965533111E+02  0.44576290484E+02  0.23332029998E+03  0.23814751179E+03  0.10000000000E+01 0.  0.
<mgrwt>
<rscale>  0 0.12499899E+03</rscale>
<asrwt>0</asrwt>
<pdfrwt beam="1">  1        4 0.44065484E-01 0.12499899E+03</pdfrwt>
<pdfrwt beam="2">  1       -4 0.20981074E-02 0.12499899E+03</pdfrwt>
<totfact> 0.75592594E+03</totfact>
</mgrwt>
</event>
<event>
 5    1  0.3232465E-002  0.1250027E+03  0.7818608E-02  0.1235065E+00
          4   -1    0    0  501    0  0.00000000000E+00  0.00000000000E+00  0.36971832362E+02  0.36993638483E+02  0.12700000000E+01 0. -1.
         -4   -1    0    0    0  501 -0.00000000000E+00 -0.00000000000E+00 -0.10560261302E+03  0.10561024939E+03  0.12700000000E+01 0. -1.
         25    2    1    2    0    0  0.00000000000E+00  0.00000000000E+00 -0.68630780657E+02  0.14260388787E+03  0.12500273910E+03 0.  0.
    9000005    1    3    3    0    0  0.54367090017E+02  0.29599229148E+02 -0.44097518477E+02  0.76009775549E+02  0.10000000000E+01 0.  0.
    9000005    1    3    3    0    0 -0.54367090017E+02 -0.29599229148E+02 -0.24533262180E+02  0.66594112325E+02  0.10000000000E+01 0.  0.
<mgrwt>
<rscale>  0 0.12500274E+03</rscale>
<asrwt>0</asrwt>
<pdfrwt beam="1">  1        4 0.56902391E-02 0.12500274E+03</pdfrwt>
<pdfrwt beam="2">  1       -4 0.16248821E-01 0.12500274E+03</pdfrwt>
<totfact> 0.10079279E+04</totfact>
</mgrwt>
</event>
<event>
 5    1  0.3232465E-002  0.1250036E+03  0.7818608E-02  0.1235064E+00
          4   -1    0    0  501    0  0.00000000000E+00  0.00000000000E+00  0.82139461264E+02  0.82149278736E+02  0.12700000000E+01 0.  1.
         -4   -1    0    0    0  501 -0.00000000000E+00 -0.00000000000E+00 -0.47537918498E+02  0.47554879824E+02  0.12700000000E+01 0.  1.
         25    2    1    2    0    0  0.00000000000E+00  0.00000000000E+00  0.34601542767E+02  0.12970415856E+03  0.12500360789E+03 0.  0.
    9000005    1    3    3    0    0 -0.21351240192E+02 -0.43705331118E+02 -0.23410372981E+02  0.53991452925E+02  0.10000000000E+01 0.  0.
    9000005    1    3    3    0    0  0.21351240192E+02  0.43705331118E+02  0.58011915748E+02  0.75712705635E+02  0.10000000000E+01 0.  0.
<mgrwt>
<rscale>  0 0.12500361E+03</rscale>
<asrwt>0</asrwt>
<pdfrwt beam="1">  1        4 0.12638900E-01 0.12500361E+03</pdfrwt>
<pdfrwt beam="2">  1       -4 0.73155860E-02 0.12500361E+03</pdfrwt>
<totfact> 0.10349997E+04</totfact>
</mgrwt>
</event>
<event>
 5    1  0.3232465E-002  0.1250105E+03  0.7818608E-02  0.1235053E+00
          4   -1    0    0  501    0  0.00000000000E+00  0.00000000000E+00  0.37000544597E+02  0.37022333807E+02  0.12700000000E+01 0. -1.
         -4   -1    0    0    0  501 -0.00000000000E+00 -0.00000000000E+00 -0.10553386591E+03  0.10554150726E+03  0.12700000000E+01 0. -1.
         25    2    1    2    0    0  0.00000000000E+00  0.00000000000E+00 -0.68533321316E+02  0.14256384107E+03  0.12501053015E+03 0.  0.
    9000005    1    3    3    0    0 -0.42359750804E+02  0.94245839221E+00 -0.86659641570E+02  0.96468285944E+02  0.10000000000E+01 0.  0.
    9000005    1    3    3    0    0  0.42359750804E+02 -0.94245839221E+00  0.18126320254E+02  0.46095555122E+02  0.10000000000E+01 0.  0.
<mgrwt>
<rscale>  0 0.12501053E+03</rscale>
<asrwt>0</asrwt>
<pdfrwt beam="1">  1        4 0.56946554E-02 0.12501053E+03</pdfrwt>
<pdfrwt beam="2">  1       -4 0.16238243E-01 0.12501053E+03</pdfrwt>
<totfact> 0.10078332E+04</totfact>
</mgrwt>
</event>
<event>
 5    1  0.3232465E-002  0.1250039E+03  0.7818608E-02  0.1235063E+00
         -4   -1    0    0    0  501 -0.00000000000E+00  0.00000000000E+00  0.65422109510E+02  0.65434435222E+02  0.12700000000E+01 0. -1.
          4   -1    0    0  501    0  0.00000000000E+00 -0.00000000000E+00 -0.59687382252E+02  0.59700891954E+02  0.12700000000E+01 0. -1.
         25    2    1    2    0    0  0.00000000000E+00  0.00000000000E+00  0.57347272583E+01  0.12513532718E+03  0.12500385198E+03 0.  0.
    9000005    1    3    3    0    0 -0.45983507821E+02  0.31741824414E+02  0.30887236183E+02  0.63851764014E+02  0.10000000000E+01 0.  0.
    9000005    1    3    3    0    0  0.45983507821E+02 -0.31741824414E+02 -0.25152508925E+02  0.61283563162E+02  0.10000000000E+01 0.  0.
<mgrwt>
<rscale>  0 0.12500385E+03</rscale>
<asrwt>0</asrwt>
<pdfrwt beam="2">  1        4 0.91846616E-02 0.12500385E+03</pdfrwt>
<pdfrwt beam="1">  1       -4 0.10066927E-01 0.12500385E+03</pdfrwt>
<totfact> 0.10449014E+04</totfact>
</mgrwt>
</event>
<event>
 5    1  0.3232465E-002  0.1249998E+03  0.7818608E-02  0.1235070E+00
         -4   -1    0    0    0  501 -0.00000000000E+00  0.00000000000E+00  0.16380310637E+03  0.16380802958E+03  0.12700000000E+01 0.  1.
          4   -1    0    0  501    0  0.00000000000E+00 -0.00000000000E+00 -0.23824949578E+02  0.23858774537E+02  0.12700000000E+01 0.  1.
         25    2    1    2    0    0  0.00000000000E+00  0.00000000000E+00  0.13997815679E+03  0.18766680412E+03  0.12499977996E+03 0.  0.
    9000005    1    3    3    0    0  0.10926766375E+02  0.26300041722E+02  0.15350107745E+03  0.15612388414E+03  0.10000000000E+01 0.  0.
    9000005    1    3    3    0    0 -0.10926766375E+02 -0.26300041722E+02 -0.13522920663E+02  0.31542919986E+02  0.10000000000E+01 0.  0.
<mgrwt>
<rscale>  0 0.12499978E+03</rscale>
<asrwt>0</asrwt>
<pdfrwt beam="2">  1        4 0.36683574E-02 0.12499978E+03</pdfrwt>
<pdfrwt beam="1">  1       -4 0.25203459E-01 0.12499978E+03</pdfrwt>
<totfact> 0.92255329E+03</totfact>
</mgrwt>
</event>
<event>
 5    1  0.3232465E-002  0.1250023E+03  0.7818608E-02  0.1235066E+00
          4   -1    0    0  501    0  0.00000000000E+00  0.00000000000E+00  0.13479951084E+03  0.13480549330E+03  0.12700000000E+01 0. -1.
         -4   -1    0    0    0  501 -0.00000000000E+00 -0.00000000000E+00 -0.28958740590E+02  0.28986575454E+02  0.12700000000E+01 0. -1.
         25    2    1    2    0    0  0.00000000000E+00  0.00000000000E+00  0.10584077025E+03  0.16379206875E+03  0.12500229253E+03 0.  0.
    9000005    1    3    3    0    0 -0.43557641219E+02 -0.40131351591E+02  0.26792878508E+02  0.65012705126E+02  0.10000000000E+01 0.  0.
    9000005    1    3    3    0    0  0.43557641219E+02  0.40131351591E+02  0.79047891742E+02  0.98779363624E+02  0.10000000000E+01 0.  0.
<mgrwt>
<rscale>  0 0.12500229E+03</rscale>
<asrwt>0</asrwt>
<pdfrwt beam="1">  1        4 0.20740987E-01 0.12500229E+03</pdfrwt>
<pdfrwt beam="2">  1       -4 0.44577922E-02 0.12500229E+03</pdfrwt>
<totfact> 0.96611669E+03</totfact>
</mgrwt>
</event>
<event>
 5    1  0.3232465E-002  0.1249980E+03  0.7818608E-02  0.1235072E+00
          4   -1    0    0  501    0  0.00000000000E+00  0.00000000000E+00  0.35473238599E+01  0.37678119071E+01  0.12700000000E+01 0.  1.
         -4   -1    0    0    0  501 -0.00000000000E+00 -0.00000000000E+00 -0.10677366225E+04  0.10677373777E+04  0.12700000000E+01 0.  1.
         25    2    1    2    0    0  0.00000000000E+00  0.00000000000E+00 -0.10641892986E+04  0.10715051897E+04  0.12499803280E+03 0.  0.
    9000005    1    3    3    0    0  0.58928183134E+02  0.15342856968E+02 -0.41171949027E+03  0.41619931847E+03  0.10000000000E+01 0.  0.
    9000005    1    3    3    0    0 -0.58928183134E+02 -0.15342856968E+02 -0.65246980833E+03  0.65530587118E+03  0.10000000000E+01 0.  0.
<mgrwt>
<rscale>  0 0.12499803E+03</rscale>
<asrwt>0</asrwt>
<pdfrwt beam="1">  1        4 0.56276170E-03 0.12499803E+03</pdfrwt>
<pdfrwt beam="2">  1       -4 0.16428394E+00 0.12499803E+03</pdfrwt>
<totfact> 0.28333947E+03</totfact>
</mgrwt>
</event>
<event>
 5    1  0.3232465E-002  0.1249996E+03  0.7818608E-02  0.1235070E+00
          4   -1    0    0  501    0  0.00000000000E+00  0.00000000000E+00  0.37057281887E+02  0.37079037756E+02  0.12700000000E+01 0.  1.
         -4   -1    0    0    0  501 -0.00000000000E+00 -0.00000000000E+00 -0.10535393535E+03  0.10536158974E+03  0.12700000000E+01 0.  1.
         25    2    1    2    0    0  0.00000000000E+00  0.00000000000E+00 -0.68296653462E+02  0.14244062750E+03  0.12499959795E+03 0.  0.
    9000005    1    3    3    0    0 -0.12921618255E+02 -0.57749427502E+02 -0.57031591424E+02  0.82192256420E+02  0.10000000000E+01 0.  0.
    9000005    1    3    3    0    0  0.12921618255E+02  0.57749427502E+02 -0.11265062038E+02  0.60248371080E+02  0.10000000000E+01 0.  0.
<mgrwt>
<rscale>  0 0.12499960E+03</rscale>
<asrwt>0</asrwt>
<pdfrwt beam="1">  1        4 0.57033826E-02 0.12499960E+03</pdfrwt>
<pdfrwt beam="2">  1       -4 0.16210560E-01 0.12499960E+03</pdfrwt>
<totfact> 0.10083342E+04</totfact>
</mgrwt>
</event>
<event>
 5    1  0.3232465E-002  0.1250007E+03  0.7818608E-02  0.1235068E+00
          4   -1    0    0  501    0  0.00000000000E+00  0.00000000000E+00  0.62914443895E+02  0.62927260791E+02  0.12700000000E+01 0.  1.
         -4   -1    0    0    0  501 -0.00000000000E+00 -0.00000000000E+00 -0.62063338851E+02  0.62076331475E+02  0.12700000000E+01 0.  1.
         25    2    1    2    0    0  0.00000000000E+00  0.00000000000E+00  0.85110504383E+00  0.12500359227E+03  0.12500069480E+03 0.  0.
    9000005    1    3    3    0    0  0.51446034227E+02 -0.88403592386E+01 -0.33932878190E+02  0.62267861786E+02  0.10000000000E+01 0.  0.
    9000005    1    3    3    0    0 -0.51446034227E+02  0.88403592386E+01  0.34783983233E+02  0.62735730479E+02  0.10000000000E+01 0.  0.
<mgrwt>
<rscale>  0 0.12500069E+03</rscale>
<asrwt>0</asrwt>
<pdfrwt beam="1">  1        4 0.96811305E-02 0.12500069E+03</pdfrwt>
<pdfrwt beam="2">  1       -4 0.95501914E-02 0.12500069E+03</pdfrwt>
<totfact> 0.10452620E+04</totfact>
</mgrwt>
</event>
<event>
 5    1  0.3232465E-002  0.1250600E+03  0.7818608E-02  0.1234976E+00
          4   -1    0    0  501    0  0.00000000000E+00  0.00000000000E+00  0.47183154487E+02  0.47200243297E+02  0.12700000000E+01 0.  1.
         -4   -1    0    0    0  501 -0.00000000000E+00 -0.00000000000E+00 -0.82831591685E+02  0.82841327132E+02  0.12700000000E+01 0.  1.
         25    2    1    2    0    0  0.00000000000E+00  0.00000000000E+00 -0.35648437198E+02  0.13004157043E+03  0.12505998147E+03 0.  0.
    9000005    1    3    3    0    0 -0.12126753113E+02 -0.37882385253E+02  0.32334863219E+02  0.51270621539E+02  0.10000000000E+01 0.  0.
    9000005    1    3    3    0    0  0.12126753113E+02  0.37882385253E+02 -0.67983300418E+02  0.78770948891E+02  0.10000000000E+01 0.  0.
<mgrwt>
<rscale>  0 0.12505998E+03</rscale>
<asrwt>0</asrwt>
<pdfrwt beam="1">  1        4 0.72610103E-02 0.12505998E+03</pdfrwt>
<pdfrwt beam="2">  1       -4 0.12745385E-01 0.12505998E+03</pdfrwt>
<totfact> 0.10329626E+04</totfact>
</mgrwt>
</event>
<event>
 5    1  0.3232465E-002  0.1250049E+03  0.7818608E-02  0.1235062E+00
          4   -1    0    0  501    0  0.00000000000E+00  0.00000000000E+00  0.83294164355E+03  0.83294261175E+03  0.12700000000E+01 0.  1.
         -4   -1    0    0    0  501 -0.00000000000E+00 -0.00000000000E+00 -0.46031123916E+01  0.47750961969E+01  0.12700000000E+01 0.  1.
         25    2    1    2    0    0  0.00000000000E+00  0.00000000000E+00  0.82833853116E+03  0.83771770794E+03  0.12500494389E+03 0.  0.
    9000005    1    3    3    0    0 -0.40671335501E+02  0.27650680239E+02  0.15576312982E+03  0.16334586086E+03  0.10000000000E+01 0.  0.
    9000005    1    3    3    0    0  0.40671335501E+02 -0.27650680239E+02  0.67257540134E+03  0.67437184708E+03  0.10000000000E+01 0.  0.
<mgrwt>
<rscale>  0 0.12500494E+03</rscale>
<asrwt>0</asrwt>
<pdfrwt beam="1">  1        4 0.12815801E+00 0.12500494E+03</pdfrwt>
<pdfrwt beam="2">  1       -4 0.72147606E-03 0.12500494E+03</pdfrwt>
<totfact> 0.36631354E+03</totfact>
</mgrwt>
</event>
<event>
 5    1  0.3232465E-002  0.1250009E+03  0.7818608E-02  0.1235068E+00
         -4   -1    0    0    0  501 -0.00000000000E+00  0.00000000000E+00  0.11170710081E+03  0.11171431990E+03  0.12700000000E+01 0. -1.
          4   -1    0    0  501    0  0.00000000000E+00 -0.00000000000E+00 -0.34949295223E+02  0.34972362467E+02  0.12700000000E+01 0. -1.
         25    2    1    2    0    0  0.00000000000E+00  0.00000000000E+00  0.76757805584E+02  0.14668668237E+03  0.12500088826E+03 0.  0.
    9000005    1    3    3    0    0  0.46000754659E+02  0.16642326824E+02 -0.72554734136E+01  0.49463909730E+02  0.10000000000E+01 0.  0.
    9000005    1    3    3    0    0 -0.46000754659E+02 -0.16642326824E+02  0.84013278997E+02  0.97222772637E+02  0.10000000000E+01 0.  0.
<mgrwt>
<rscale>  0 0.12500089E+03</rscale>
<asrwt>0</asrwt>
<pdfrwt beam="2">  1        4 0.53791444E-02 0.12500089E+03</pdfrwt>
<pdfrwt beam="1">  1       -4 0.17188037E-01 0.12500089E+03</pdfrwt>
<totfact> 0.99966308E+03</totfact>
</mgrwt>
</event>
<event>
 5    1  0.3232465E-002  0.1250014E+03  0.7818608E-02  0.1235067E+00
         -4   -1    0    0    0  501 -0.00000000000E+00  0.00000000000E+00  0.65799554740E+02  0.65811809761E+02  0.12700000000E+01 0.  1.
          4   -1    0    0  501    0  0.00000000000E+00 -0.00000000000E+00 -0.59342665346E+02  0.59356253507E+02  0.12700000000E+01 0.  1.
         25    2    1    2    0    0  0.00000000000E+00  0.00000000000E+00  0.64568893943E+01  0.12516806327E+03  0.12500141056E+03 0.  0.
    9000005    1    3    3    0    0  0.31820099479E+02 -0.28829599737E+02 -0.42237746554E+02  0.60238623705E+02  0.10000000000E+01 0.  0.
    9000005    1    3    3    0    0 -0.31820099479E+02  0.28829599737E+02  0.48694635948E+02  0.64929439563E+02  0.10000000000E+01 0.  0.
<mgrwt>
<rscale>  0 0.12500141E+03</rscale>
<asrwt>0</asrwt>
<pdfrwt beam="2">  1        4 0.91316288E-02 0.12500141E+03</pdfrwt>
<pdfrwt beam="1">  1       -4 0.10124996E-01 0.12500141E+03</pdfrwt>
<totfact> 0.10448880E+04</totfact>
</mgrwt>
</event>
<event>
 5    1  0.3232465E-002  0.1250068E+03  0.7818608E-02  0.1235059E+00
         -4   -1    0    0    0  501 -0.00000000000E+00  0.00000000000E+00  0.63216886437E+02  0.63229642027E+02  0.12700000000E+01 0.  1.
          4   -1    0    0  501    0  0.00000000000E+00 -0.00000000000E+00 -0.61772454615E+02  0.61785508407E+02  0.12700000000E+01 0.  1.
         25    2    1    2    0    0  0.00000000000E+00  0.00000000000E+00  0.14444318224E+01  0.12501515043E+03  0.12500680563E+03 0.  0.
    9000005    1    3    3    0    0 -0.16725821508E+02  0.41531342673E+02 -0.42881954231E+02  0.62003770272E+02  0.10000000000E+01 0.  0.
    9000005    1    3    3    0    0  0.16725821508E+02 -0.41531342673E+02  0.44326386053E+02  0.63011380162E+02  0.10000000000E+01 0.  0.
<mgrwt>
<rscale>  0 0.12500681E+03</rscale>
<asrwt>0</asrwt>
<pdfrwt beam="2">  1        4 0.95054399E-02 0.12500681E+03</pdfrwt>
<pdfrwt beam="1">  1       -4 0.97276601E-02 0.12500681E+03</pdfrwt>
<totfact> 0.10450926E+04</totfact>
</mgrwt>
</event>
<event>
 5    1  0.3232465E-002  0.1249978E+03  0.7818608E-02  0.1235073E+00
          4   -1    0    0  501    0  0.00000000000E+00  0.00000000000E+00  0.17398278410E+02  0.17444569116E+02  0.12700000000E+01 0.  1.
         -4   -1    0    0    0  501 -0.00000000000E+00 -0.00000000000E+00 -0.22416497220E+03  0.22416856974E+03  0.12700000000E+01 0.  1.
         25    2    1    2    0    0  0.00000000000E+00  0.00000000000E+00 -0.20676669379E+03  0.24161313886E+03  0.12499777282E+03 0.  0.
    9000005    1    3    3    0    0  0.41309820957E+02  0.37072169175E+02 -0.15887803021E+03  0.16829758025E+03  0.10000000000E+01 0.  0.
    9000005    1    3    3    0    0 -0.41309820957E+02 -0.37072169175E+02 -0.47888663579E+02  0.73315558609E+02  0.10000000000E+01 0.  0.
<mgrwt>
<rscale>  0 0.12499777E+03</rscale>
<asrwt>0</asrwt>
<pdfrwt beam="1">  1        4 0.26804959E-02 0.12499777E+03</pdfrwt>
<pdfrwt beam="2">  1       -4 0.34490754E-01 0.12499777E+03</pdfrwt>
<totfact> 0.83561853E+03</totfact>
</mgrwt>
</event>
<event>
 4    1  0.3232465E-002  0.1250809E+03  0.7818608E-02  0.1234943E+00
         -4   -1    0    0    0  501 -0.00000000000E+00  0.00000000000E+00  0.72171786033E+02  0.72182959202E+02  0.12700000000E+01 0.  1.
          4   -1    0    0  501    0  0.00000000000E+00 -0.00000000000E+00 -0.54171590460E+02  0.54186475370E+02  0.12700000000E+01 0.  1.
    9000005    1    1    2    0    0 -0.52855743534E+02  0.25893809983E+02 -0.12338272234E+02  0.60145257350E+02  0.10000000000E+01 0.  0.
    9000005    1    1    2    0    0  0.52855743534E+02 -0.25893809983E+02  0.30338467807E+02  0.66224177222E+02  0.10000000000E+01 0.  0.
<mgrwt>
<rscale>  0 0.12508088E+03</rscale>
<asrwt>0</asrwt>
<pdfrwt beam="2">  1        4 0.83360954E-02 0.12508088E+03</pdfrwt>
<pdfrwt beam="1">  1       -4 0.11105356E-01 0.12508088E+03</pdfrwt>
<totfact> 0.10403873E+04</totfact>
</mgrwt>
</event>
<event>
 5    1  0.3232465E-002  0.1250028E+03  0.7818608E-02  0.1235065E+00
          4   -1    0    0  501    0  0.00000000000E+00  0.00000000000E+00  0.21339227391E+03  0.21339605306E+03  0.12700000000E+01 0. -1.
         -4   -1    0    0    0  501 -0.00000000000E+00 -0.00000000000E+00 -0.18280335102E+02  0.18324397710E+02  0.12700000000E+01 0. -1.
         25    2    1    2    0    0  0.00000000000E+00  0.00000000000E+00  0.19511193880E+03  0.23172045077E+03  0.12500279454E+03 0.  0.
    9000005    1    3    3    0    0 -0.26364770231E+02 -0.54398865081E+02  0.12692954270E+03  0.14059319486E+03  0.10000000000E+01 0.  0.
    9000005    1    3    3    0    0  0.26364770231E+02  0.54398865081E+02  0.68182396107E+02  0.91127255914E+02  0.10000000000E+01 0.  0.
<mgrwt>
<rscale>  0 0.12500279E+03</rscale>
<asrwt>0</asrwt>
<pdfrwt beam="1">  1        4 0.32833258E-01 0.12500279E+03</pdfrwt>
<pdfrwt beam="2">  1       -4 0.28160396E-02 0.12500279E+03</pdfrwt>
<totfact> 0.85040818E+03</totfact>
</mgrwt>
</event>
<event>
 5    1  0.3232465E-002  0.1249995E+03  0.7818608E-02  0.1235070E+00
         -4   -1    0    0    0  501 -0.00000000000E+00  0.00000000000E+00  0.56411113215E+03  0.56411256175E+03  0.12700000000E+01 0. -1.
          4   -1    0    0  501    0  0.00000000000E+00 -0.00000000000E+00 -0.68648747350E+01  0.69813612660E+01  0.12700000000E+01 0. -1.
         25    2    1    2    0    0  0.00000000000E+00  0.00000000000E+00  0.55724625742E+03  0.57109392301E+03  0.12499950998E+03 0.  0.
    9000005    1    3    3    0    0  0.14033170337E+02  0.89973181024E+01  0.55378815094E+03  0.55403988821E+03  0.10000000000E+01 0.  0.
    9000005    1    3    3    0    0 -0.14033170337E+02 -0.89973181024E+01  0.34581064791E+01  0.17054034806E+02  0.10000000000E+01 0.  0.
<mgrwt>
<rscale>  0 0.12499951E+03</rscale>
<asrwt>0</asrwt>
<pdfrwt beam="2">  1        4 0.10652053E-02 0.12499951E+03</pdfrwt>
<pdfrwt beam="1">  1       -4 0.86795376E-01 0.12499951E+03</pdfrwt>
<totfact> 0.50745160E+03</totfact>
</mgrwt>
</event>
<event>
 5    1  0.3232465E-002  0.1249978E+03  0.7818608E-02  0.1235073E+00
         -4   -1    0    0    0  501 -0.00000000000E+00  0.00000000000E+00  0.16030665193E+03  0.16031168252E+03  0.12700000000E+01 0.  1.
          4   -1    0    0  501    0  0.00000000000E+00 -0.00000000000E+00 -0.24344529440E+02  0.24377633471E+02  0.12700000000E+01 0.  1.
         25    2    1    2    0    0  0.00000000000E+00  0.00000000000E+00  0.13596212249E+03  0.18468931599E+03  0.12499777874E+03 0.  0.
    9000005    1    3    3    0    0 -0.40077650910E+02 -0.21098991074E+02  0.43656694117E+01  0.45513125538E+02  0.10000000000E+01 0.  0.
    9000005    1    3    3    0    0  0.40077650910E+02  0.21098991074E+02  0.13159645307E+03  0.13917619045E+03  0.10000000000E+01 0.  0.
<mgrwt>
<rscale>  0 0.12499778E+03</rscale>
<asrwt>0</asrwt>
<pdfrwt beam="2">  1        4 0.37482457E-02 0.12499778E+03</pdfrwt>
<pdfrwt beam="1">  1       -4 0.24665495E-01 0.12499778E+03</pdfrwt>
<totfact> 0.92784276E+03</totfact>
</mgrwt>
</event>
<event>
 5    1  0.3232465E-002  0.1250002E+03  0.7818608E-02  0.1235069E+00
         -4   -1    0    0    0  501 -0.00000000000E+00  0.00000000000E+00  0.72405958254E+02  0.72417095293E+02  0.12700000000E+01 0.  1.
          4   -1    0    0  501    0  0.00000000000E+00 -0.00000000000E+00 -0.53926673648E+02  0.53941626141E+02  0.12700000000E+01 0.  1.
         25    2    1    2    0    0  0.00000000000E+00  0.00000000000E+00  0.18479284607E+02  0.12635872143E+03  0.12500017009E+03 0.  0.
    9000005    1    3    3    0    0 -0.94782859265E+01  0.57793913773E+02 -0.12798361184E+02  0.59956421026E+02  0.10000000000E+01 0.  0.
    9000005    1    3    3    0    0  0.94782859265E+01 -0.57793913773E+02  0.31277645790E+02  0.66402300408E+02  0.10000000000E+01 0.  0.
<mgrwt>
<rscale>  0 0.12500017E+03</rscale>
<asrwt>0</asrwt>
<pdfrwt beam="2">  1        4 0.82984183E-02 0.12500017E+03</pdfrwt>
<pdfrwt beam="1">  1       -4 0.11141385E-01 0.12500017E+03</pdfrwt>
<totfact> 0.10423071E+04</totfact>
</mgrwt>
</event>
<event>
 5    1  0.3232465E-002  0.1250007E+03  0.7818608E-02  0.1235068E+00
          4   -1    0    0  501    0  0.00000000000E+00  0.00000000000E+00  0.42193628852E+02  0.42212737600E+02  0.12700000000E+01 0.  1.
         -4   -1    0    0    0  501 -0.00000000000E+00 -0.00000000000E+00 -0.92535708728E+02  0.92544423332E+02  0.12700000000E+01 0.  1.
         25    2    1    2    0    0  0.00000000000E+00  0.00000000000E+00 -0.50342079876E+02  0.13475716093E+03  0.12500066966E+03 0.  0.
    9000005    1    3    3    0    0  0.58107220594E+02 -0.57918881781E+01 -0.11787183377E+01  0.58415618037E+02  0.10000000000E+01 0.  0.
    9000005    1    3    3    0    0 -0.58107220594E+02  0.57918881781E+01 -0.49163361538E+02  0.76341542894E+02  0.10000000000E+01 0.  0.
<mgrwt>
<rscale>  0 0.12500067E+03</rscale>
<asrwt>0</asrwt>
<pdfrwt beam="1">  1        4 0.64934678E-02 0.12500067E+03</pdfrwt>
<pdfrwt beam="2">  1       -4 0.14238403E-01 0.12500067E+03</pdfrwt>
<totfact> 0.10243037E+04</totfact>
</mgrwt>
</event>
<event>
 5    1  0.3232465E-002  0.1249997E+03  0.7818608E-02  0.1235070E+00
          4   -1    0    0  501    0  0.00000000000E+00  0.00000000000E+00  0.23787208215E+04  0.23787211605E+04  0.12700000000E+01 0. -1.
         -4   -1    0    0    0  501 -0.00000000000E+00 -0.00000000000E+00 -0.13962194656E+01  0.18874132552E+01  0.12700000000E+01 0. -1.
         25    2    1    2    0    0  0.00000000000E+00  0.00000000000E+00  0.23773246020E+04  0.23806085737E+04  0.12499967250E+03 0.  0.
    9000005    1    3    3    0    0  0.58180128204E+01  0.31757624984E+02  0.22076692943E+04  0.22079055933E+04  0.10000000000E+01 0.  0.
    9000005    1    3    3    0    0 -0.58180128204E+01 -0.31757624984E+02  0.16965530769E+03  0.17270298042E+03  0.10000000000E+01 0.  0.
<mgrwt>
<rscale>  0 0.12499967E+03</rscale>
<asrwt>0</asrwt>
<pdfrwt beam="1">  1        4 0.36599541E+00 0.12499967E+03</pdfrwt>
<pdfrwt beam="2">  1       -4 0.25261283E-03 0.12499967E+03</pdfrwt>
<totfact> 0.56763638E+02</totfact>
</mgrwt>
</event>
<event>
 5    1  0.3232465E-002  0.1249989E+03  0.7818608E-02  0.1235071E+00
         -4   -1    0    0    0  501 -0.00000000000E+00  0.00000000000E+00  0.50200681600E+02  0.50216743554E+02  0.12700000000E+01 0. -1.
          4   -1    0    0  501    0  0.00000000000E+00 -0.00000000000E+00 -0.77777662708E+02  0.77788030675E+02  0.12700000000E+01 0. -1.
         25    2    1    2    0    0  0.00000000000E+00  0.00000000000E+00 -0.27576981108E+02  0.12800477423E+03  0.12499892935E+03 0.  0.
    9000005    1    3    3    0    0  0.41853070125E+02  0.84057775413E+01 -0.60524164332E+02  0.74070986513E+02  0.10000000000E+01 0.  0.
    9000005    1    3    3    0    0 -0.41853070125E+02 -0.84057775413E+01  0.32947183224E+02  0.53933787715E+02  0.10000000000E+01 0.  0.
<mgrwt>
<rscale>  0 0.12499893E+03</rscale>
<asrwt>0</asrwt>
<pdfrwt beam="2">  1        4 0.11967827E-01 0.12499893E+03</pdfrwt>
<pdfrwt beam="1">  1       -4 0.77252148E-02 0.12499893E+03</pdfrwt>
<totfact> 0.10387636E+04</totfact>
</mgrwt>
</event>
<event>
 5    1  0.3232465E-002  0.1249950E+03  0.7818608E-02  0.1235077E+00
          4   -1    0    0  501    0  0.00000000000E+00  0.00000000000E+00  0.73427906009E+00  0.14669920716E+01  0.12700000000E+01 0.  1.
         -4   -1    0    0    0  501 -0.00000000000E+00 -0.00000000000E+00 -0.35480716326E+04  0.35480718599E+04  0.12700000000E+01 0.  1.
         25    2    1    2    0    0  0.00000000000E+00  0.00000000000E+00 -0.35473373536E+04  0.35495388520E+04  0.12499504703E+03 0.  0.
    9000005    1    3    3    0    0 -0.59792053613E+01  0.25421948670E+02 -0.33858114226E+04  0.33859122870E+04  0.10000000000E+01 0.  0.
    9000005    1    3    3    0    0  0.59792053613E+01 -0.25421948670E+02 -0.16152593099E+03  0.16362656494E+03  0.10000000000E+01 0.  0.
<mgrwt>
<rscale>  0 0.12499505E+03</rscale>
<asrwt>0</asrwt>
<pdfrwt beam="1">  1        4 0.16934887E-03 0.12499505E+03</pdfrwt>
<pdfrwt beam="2">  1       -4 0.54590440E+00 0.12499505E+03</pdfrwt>
<totfact> 0.51051730E+01</totfact>
</mgrwt>
</event>
<event>
 5    1  0.3232465E-002  0.1250041E+03  0.7818608E-02  0.1235063E+00
         -4   -1    0    0    0  501 -0.00000000000E+00  0.00000000000E+00  0.28915699371E+03  0.28915978267E+03  0.12700000000E+01 0.  1.
          4   -1    0    0  501    0  0.00000000000E+00 -0.00000000000E+00 -0.13477284822E+02  0.13536990292E+02  0.12700000000E+01 0.  1.
         25    2    1    2    0    0  0.00000000000E+00  0.00000000000E+00  0.27567970889E+03  0.30269677296E+03  0.12500413780E+03 0.  0.
    9000005    1    3    3    0    0  0.29419728736E+02  0.47319997016E+02  0.20636454414E+03  0.21375693587E+03  0.10000000000E+01 0.  0.
    9000005    1    3    3    0    0 -0.29419728736E+02 -0.47319997016E+02  0.69315164751E+02  0.88939837087E+02  0.10000000000E+01 0.  0.
<mgrwt>
<rscale>  0 0.12500414E+03</rscale>
<asrwt>0</asrwt>
<pdfrwt beam="2">  1        4 0.20782357E-02 0.12500414E+03</pdfrwt>
<pdfrwt beam="1">  1       -4 0.44490500E-01 0.12500414E+03</pdfrwt>
<totfact> 0.75254887E+03</totfact>
</mgrwt>
</event>
<event>
 5    1  0.3232465E-002  0.1250000E+03  0.7818608E-02  0.1235069E+00
          4   -1    0    0  501    0  0.00000000000E+00  0.00000000000E+00  0.58585423714E+02  0.58599187466E+02  0.12700000000E+01 0.  1.
         -4   -1    0    0    0  501 -0.00000000000E+00 -0.00000000000E+00 -0.66648512427E+02  0.66660611374E+02  0.12700000000E+01 0.  1.
         25    2    1    2    0    0  0.00000000000E+00  0.00000000000E+00 -0.80630887133E+01  0.12525979884E+03  0.12500001522E+03 0.  0.
    9000005    1    3    3    0    0  0.51783608700E+01  0.62260203032E+02 -0.54846091700E+01  0.62723434541E+02  0.10000000000E+01 0.  0.
    9000005    1    3    3    0    0 -0.51783608700E+01 -0.62260203032E+02 -0.25784795433E+01  0.62536364299E+02  0.10000000000E+01 0.  0.
<mgrwt>
<rscale>  0 0.12500002E+03</rscale>
<asrwt>0</asrwt>
<pdfrwt beam="1">  1        4 0.90151316E-02 0.12500002E+03</pdfrwt>
<pdfrwt beam="2">  1       -4 0.10255607E-01 0.12500002E+03</pdfrwt>
<totfact> 0.10447219E+04</totfact>
</mgrwt>
</event>
<event>
 5    1  0.3232465E-002  0.1250003E+03  0.7818608E-02  0.1235069E+00
         -4   -1    0    0    0  501 -0.00000000000E+00  0.00000000000E+00  0.15954096115E+03  0.15954601588E+03  0.12700000000E+01 0.  1.
          4   -1    0    0  501    0  0.00000000000E+00 -0.00000000000E+00 -0.24462520043E+02  0.24495464618E+02  0.12700000000E+01 0.  1.
         25    2    1    2    0    0  0.00000000000E+00  0.00000000000E+00  0.13507844111E+03  0.18404148050E+03  0.12500032517E+03 0.  0.
    9000005    1    3    3    0    0 -0.16250573711E+02  0.45312081679E+02  0.88672829890E+01  0.48958090237E+02  0.10000000000E+01 0.  0.
    9000005    1    3    3    0    0  0.16250573711E+02 -0.45312081679E+02  0.12621115812E+03  0.13508339026E+03  0.10000000000E+01 0.  0.
<mgrwt>
<rscale>  0 0.12500033E+03</rscale>
<asrwt>0</asrwt>
<pdfrwt beam="2">  1        4 0.37663878E-02 0.12500033E+03</pdfrwt>
<pdfrwt beam="1">  1       -4 0.24547685E-01 0.12500033E+03</pdfrwt>
<totfact> 0.92893864E+03</totfact>
</mgrwt>
</event>
<event>
 5    1  0.3232465E-002  0.1250053E+03  0.7818608E-02  0.1235061E+00
          4   -1    0    0  501    0  0.00000000000E+00  0.00000000000E+00  0.37478053651E+03  0.37478268830E+03  0.12700000000E+01 0.  1.
         -4   -1    0    0    0  501 -0.00000000000E+00 -0.00000000000E+00 -0.10382769895E+02  0.10460153473E+02  0.12700000000E+01 0.  1.
         25    2    1    2    0    0  0.00000000000E+00  0.00000000000E+00  0.36439776662E+03  0.38524284177E+03  0.12500525917E+03 0.  0.
    9000005    1    3    3    0    0  0.18630255550E+02  0.56443159763E+02  0.24169160639E+03  0.24889505681E+03  0.10000000000E+01 0.  0.
    9000005    1    3    3    0    0 -0.18630255550E+02 -0.56443159763E+02  0.12270616023E+03  0.13634778496E+03  0.10000000000E+01 0.  0.
<mgrwt>
<rscale>  0 0.12500526E+03</rscale>
<asrwt>0</asrwt>
<pdfrwt beam="1">  1        4 0.57664669E-01 0.12500526E+03</pdfrwt>
<pdfrwt beam="2">  1       -4 0.16034671E-02 0.12500526E+03</pdfrwt>
<totfact> 0.66006137E+03</totfact>
</mgrwt>
</event>
<event>
 5    1  0.3232465E-002  0.1249999E+03  0.7818608E-02  0.1235069E+00
          4   -1    0    0  501    0  0.00000000000E+00  0.00000000000E+00  0.46669283240E+03  0.46669456041E+03  0.12700000000E+01 0. -1.
         -4   -1    0    0    0  501 -0.00000000000E+00 -0.00000000000E+00 -0.83201197215E+01  0.84164893026E+01  0.12700000000E+01 0. -1.
         25    2    1    2    0    0  0.00000000000E+00  0.00000000000E+00  0.45837271268E+03  0.47511104971E+03  0.12499986331E+03 0.  0.
    9000005    1    3    3    0    0  0.33829519227E+02  0.34383770389E+02  0.78172660973E+02  0.91862097521E+02  0.10000000000E+01 0.  0.
    9000005    1    3    3    0    0 -0.33829519227E+02 -0.34383770389E+02  0.38020005171E+03  0.38324895219E+03  0.10000000000E+01 0.  0.
<mgrwt>
<rscale>  0 0.12499986E+03</rscale>
<asrwt>0</asrwt>
<pdfrwt beam="1">  1        4 0.71806462E-01 0.12499986E+03</pdfrwt>
<pdfrwt beam="2">  1       -4 0.12875641E-02 0.12499986E+03</pdfrwt>
<totfact> 0.57848674E+03</totfact>
</mgrwt>
</event>
<event>
 5    1  0.3232465E-002  0.1250000E+03  0.7818608E-02  0.1235069E+00
         -4   -1    0    0    0  501 -0.00000000000E+00  0.00000000000E+00  0.34648269665E+01  0.36902474047E+01  0.12700000000E+01 0. -1.
          4   -1    0    0  501    0  0.00000000000E+00 -0.00000000000E+00 -0.10916572986E+04  0.10916580373E+04  0.12700000000E+01 0. -1.
         25    2    1    2    0    0  0.00000000000E+00  0.00000000000E+00 -0.10881924716E+04  0.10953482847E+04  0.12500003828E+03 0.  0.
    9000005    1    3    3    0    0  0.41269068979E+02  0.46919188463E+02 -0.55145954130E+03  0.55498934404E+03  0.10000000000E+01 0.  0.
    9000005    1    3    3    0    0 -0.41269068979E+02 -0.46919188463E+02 -0.53673293032E+03  0.54035894070E+03  0.10000000000E+01 0.  0.
<mgrwt>
<rscale>  0 0.12500004E+03</rscale>
<asrwt>0</asrwt>
<pdfrwt beam="2">  1        4 0.16796441E+00 0.12500004E+03</pdfrwt>
<pdfrwt beam="1">  1       -4 0.55044803E-03 0.12500004E+03</pdfrwt>
<totfact> 0.27619956E+03</totfact>
</mgrwt>
</event>
<event>
 5    1  0.3232465E-002  0.1250010E+03  0.7818608E-02  0.1235068E+00
          4   -1    0    0  501    0  0.00000000000E+00  0.00000000000E+00  0.29224850896E+02  0.29252432547E+02  0.12700000000E+01 0.  1.
         -4   -1    0    0    0  501 -0.00000000000E+00 -0.00000000000E+00 -0.13357047360E+03  0.13357651110E+03  0.12700000000E+01 0.  1.
         25    2    1    2    0    0  0.00000000000E+00  0.00000000000E+00 -0.10434562270E+03  0.16282894364E+03  0.12500102364E+03 0.  0.
    9000005    1    3    3    0    0 -0.15156563792E+02  0.45743048193E+02 -0.34280333784E+00  0.48200263465E+02  0.10000000000E+01 0.  0.
    9000005    1    3    3    0    0  0.15156563792E+02 -0.45743048193E+02 -0.10400281936E+03  0.11462868018E+03  0.10000000000E+01 0.  0.
<mgrwt>
<rscale>  0 0.12500102E+03</rscale>
<asrwt>0</asrwt>
<pdfrwt beam="1">  1        4 0.44987171E-02 0.12500102E+03</pdfrwt>
<pdfrwt beam="2">  1       -4 0.20551889E-01 0.12500102E+03</pdfrwt>
<totfact> 0.96797917E+03</totfact>
</mgrwt>
</event>
<event>
 5    1  0.3232465E-002  0.1249951E+03  0.7818608E-02  0.1235077E+00
         -4   -1    0    0    0  501 -0.00000000000E+00  0.00000000000E+00  0.19611862221E+04  0.19611866333E+04  0.12700000000E+01 0. -1.
          4   -1    0    0  501    0  0.00000000000E+00 -0.00000000000E+00 -0.17887107535E+01  0.21937151501E+01  0.12700000000E+01 0. -1.
         25    2    1    2    0    0  0.00000000000E+00  0.00000000000E+00  0.19593975113E+04  0.19633803485E+04  0.12499514082E+03 0.  0.
    9000005    1    3    3    0    0  0.16627063980E+02  0.56814521492E+02  0.66531126056E+03  0.66794043337E+03  0.10000000000E+01 0.  0.
    9000005    1    3    3    0    0 -0.16627063980E+02 -0.56814521492E+02  0.12940862508E+04  0.12954399151E+04  0.10000000000E+01 0.  0.
<mgrwt>
<rscale>  0 0.12499514E+03</rscale>
<asrwt>0</asrwt>
<pdfrwt beam="2">  1        4 0.30637089E-03 0.12499514E+03</pdfrwt>
<pdfrwt beam="1">  1       -4 0.30175332E+00 0.12499514E+03</pdfrwt>
<totfact> 0.10347893E+03</totfact>
</mgrwt>
</event>
<event>
 5    1  0.3232465E-002  0.1249964E+03  0.7818608E-02  0.1235075E+00
         -4   -1    0    0    0  501 -0.00000000000E+00  0.00000000000E+00  0.25150292740E+03  0.25150613390E+03  0.12700000000E+01 0.  1.
          4   -1    0    0  501    0  0.00000000000E+00 -0.00000000000E+00 -0.15501450914E+02  0.15553388069E+02  0.12700000000E+01 0.  1.
         25    2    1    2    0    0  0.00000000000E+00  0.00000000000E+00  0.23600147648E+03  0.26705952197E+03  0.12499636544E+03 0.  0.
    9000005    1    3    3    0    0  0.41960435185E+02  0.34667696969E+02  0.18359265571E+03  0.19149357839E+03  0.10000000000E+01 0.  0.
    9000005    1    3    3    0    0 -0.41960435185E+02 -0.34667696969E+02  0.52408820772E+02  0.75565943578E+02  0.10000000000E+01 0.  0.
<mgrwt>
<rscale>  0 0.12499637E+03</rscale>
<asrwt>0</asrwt>
<pdfrwt beam="2">  1        4 0.23890803E-02 0.12499637E+03</pdfrwt>
<pdfrwt beam="1">  1       -4 0.38697002E-01 0.12499637E+03</pdfrwt>
<totfact> 0.79931913E+03</totfact>
</mgrwt>
</event>
<event>
 5    1  0.3232465E-002  0.1250047E+03  0.7818608E-02  0.1235062E+00
         -4   -1    0    0    0  501 -0.00000000000E+00  0.00000000000E+00  0.36428783154E+03  0.36429004530E+03  0.12700000000E+01 0.  1.
          4   -1    0    0  501    0  0.00000000000E+00 -0.00000000000E+00 -0.10683926205E+02  0.10759143979E+02  0.12700000000E+01 0.  1.
         25    2    1    2    0    0  0.00000000000E+00  0.00000000000E+00  0.35360390533E+03  0.37504918928E+03  0.12500468997E+03 0.  0.
    9000005    1    3    3    0    0 -0.42689342609E+02 -0.10844655242E+00  0.31373943557E+03  0.31663200275E+03  0.10000000000E+01 0.  0.
    9000005    1    3    3    0    0  0.42689342609E+02  0.10844655242E+00  0.39864469766E+02  0.58417186535E+02  0.10000000000E+01 0.  0.
<mgrwt>
<rscale>  0 0.12500469E+03</rscale>
<asrwt>0</asrwt>
<pdfrwt beam="2">  1        4 0.16496371E-02 0.12500469E+03</pdfrwt>
<pdfrwt beam="1">  1       -4 0.56050243E-01 0.12500469E+03</pdfrwt>
<totfact> 0.67047030E+03</totfact>
</mgrwt>
</event>
<event>
 5    1  0.3232465E-002  0.1250133E+03  0.7818608E-02  0.1235048E+00
         -4   -1    0    0    0  501 -0.00000000000E+00  0.00000000000E+00  0.82723322308E+02  0.82733070496E+02  0.12700000000E+01 0.  1.
          4   -1    0    0  501    0  0.00000000000E+00 -0.00000000000E+00 -0.47209639727E+02  0.47226718954E+02  0.12700000000E+01 0.  1.
         25    2    1    2    0    0  0.00000000000E+00  0.00000000000E+00  0.35513682581E+02  0.12995978945E+03  0.12501330019E+03 0.  0.
    9000005    1    3    3    0    0 -0.10280431034E+02 -0.30491705897E+02 -0.37941581185E+02  0.49759370712E+02  0.10000000000E+01 0.  0.
    9000005    1    3    3    0    0  0.10280431034E+02  0.30491705897E+02  0.73455263766E+02  0.80200418738E+02  0.10000000000E+01 0.  0.
<mgrwt>
<rscale>  0 0.12501330E+03</rscale>
<asrwt>0</asrwt>
<pdfrwt beam="2">  1        4 0.72650852E-02 0.12501330E+03</pdfrwt>
<pdfrwt beam="1">  1       -4 0.12728729E-01 0.12501330E+03</pdfrwt>
<totfact> 0.10342263E+04</totfact>
</mgrwt>
</event>
<event>
 5    1  0.3232465E-002  0.1250506E+03  0.7818608E-02  0.1234990E+00
          4   -1    0    0  501    0  0.00000000000E+00  0.00000000000E+00  0.73476036644E+02  0.73487011512E+02  0.12700000000E+01 0.  1.
         -4   -1    0    0    0  501 -0.00000000000E+00 -0.00000000000E+00 -0.53184094885E+02  0.53199256092E+02  0.12700000000E+01 0.  1.
         25    2    1    2    0    0  0.00000000000E+00  0.00000000000E+00  0.20291941760E+02  0.12668626760E+03  0.12505057976E+03 0.  0.
    9000005    1    3    3    0    0  0.18356937953E+02 -0.57889638022E+00  0.70686304821E+02  0.73040166903E+02  0.10000000000E+01 0.  0.
    9000005    1    3    3    0    0 -0.18356937953E+02  0.57889638022E+00 -0.50394363061E+02  0.53646100701E+02  0.10000000000E+01 0.  0.
<mgrwt>
<rscale>  0 0.12505058E+03</rscale>
<asrwt>0</asrwt>
<pdfrwt beam="1">  1        4 0.11306016E-01 0.12505058E+03</pdfrwt>
<pdfrwt beam="2">  1       -4 0.81841790E-02 0.12505058E+03</pdfrwt>
<totfact> 0.10404086E+04</totfact>
</mgrwt>
</event>
<event>
 4    1  0.3232465E-002  0.1249123E+03  0.7818608E-02  0.1235206E+00
         -4   -1    0    0    0  501 -0.00000000000E+00  0.00000000000E+00  0.31499958984E+03  0.31500214999E+03  0.12700000000E+01 0.  1.
          4   -1    0    0  501    0  0.00000000000E+00 -0.00000000000E+00 -0.12348240871E+02  0.12413377969E+02  0.12700000000E+01 0.  1.
    9000005    1    1    2    0    0 -0.51793350672E+02 -0.17505794134E+02  0.23042957825E+03  0.23682861849E+03  0.10000000000E+01 0.  0.
    9000005    1    1    2    0    0  0.51793350672E+02  0.17505794134E+02  0.72221770714E+02  0.90586909469E+02  0.10000000000E+01 0.  0.
<mgrwt>
<rscale>  0 0.12491232E+03</rscale>
<asrwt>0</asrwt>
<pdfrwt beam="2">  1        4 0.19049368E-02 0.12491232E+03</pdfrwt>
<pdfrwt beam="1">  1       -4 0.48466684E-01 0.12491232E+03</pdfrwt>
<totfact> 0.72423341E+03</totfact>
</mgrwt>
</event>
<event>
 5    1  0.3232465E-002  0.1250001E+03  0.7818608E-02  0.1235069E+00
          4   -1    0    0  501    0  0.00000000000E+00  0.00000000000E+00  0.18993120976E+02  0.19035533731E+02  0.12700000000E+01 0.  1.
         -4   -1    0    0    0  501 -0.00000000000E+00 -0.00000000000E+00 -0.20539309672E+03  0.20539702305E+03  0.12700000000E+01 0.  1.
         25    2    1    2    0    0  0.00000000000E+00  0.00000000000E+00 -0.18639997574E+03  0.22443255678E+03  0.12500008635E+03 0.  0.
    9000005    1    3    3    0    0  0.33213724530E+01 -0.31933344145E+02 -0.18946214702E+03  0.19216574913E+03  0.10000000000E+01 0.  0.
    9000005    1    3    3    0    0 -0.33213724530E+01  0.31933344145E+02  0.30621712841E+01  0.32266807654E+02  0.10000000000E+01 0.  0.
<mgrwt>
<rscale>  0 0.12500009E+03</rscale>
<asrwt>0</asrwt>
<pdfrwt beam="1">  1        4 0.29255833E-02 0.12500009E+03</pdfrwt>
<pdfrwt beam="2">  1       -4 0.31602501E-01 0.12500009E+03</pdfrwt>
<totfact> 0.86171613E+03</totfact>
</mgrwt>
</event>
<event>
 5    1  0.3232465E-002  0.1249989E+03  0.7818608E-02  0.1235071E+00
          4   -1    0    0  501    0  0.00000000000E+00  0.00000000000E+00  0.80807449169E+02  0.80817428450E+02  0.12700000000E+01 0.  1.
         -4   -1    0    0    0  501 -0.00000000000E+00 -0.00000000000E+00 -0.48318087732E+02  0.48334775288E+02  0.12700000000E+01 0.  1.
         25    2    1    2    0    0  0.00000000000E+00  0.00000000000E+00  0.32489361437E+02  0.12915220374E+03  0.12499893249E+03 0.  0.
    9000005    1    3    3    0    0 -0.47752020303E+02  0.15298445349E+02 -0.22289061907E+02  0.54882603380E+02  0.10000000000E+01 0.  0.
    9000005    1    3    3    0    0  0.47752020303E+02 -0.15298445349E+02  0.54778423344E+02  0.74269600357E+02  0.10000000000E+01 0.  0.
<mgrwt>
<rscale>  0 0.12499893E+03</rscale>
<asrwt>0</asrwt>
<pdfrwt beam="1">  1        4 0.12433967E-01 0.12499893E+03</pdfrwt>
<pdfrwt beam="2">  1       -4 0.74356033E-02 0.12499893E+03</pdfrwt>
<totfact> 0.10362927E+04</totfact>
</mgrwt>
</event>
<event>
 5    1  0.3232465E-002  0.1249849E+03  0.7818608E-02  0.1235093E+00
         -4   -1    0    0    0  501 -0.00000000000E+00  0.00000000000E+00  0.43037356857E+02  0.43056091152E+02  0.12700000000E+01 0. -1.
          4   -1    0    0  501    0  0.00000000000E+00 -0.00000000000E+00 -0.90699345422E+02  0.90708236450E+02  0.12700000000E+01 0. -1.
         25    2    1    2    0    0  0.00000000000E+00  0.00000000000E+00 -0.47661988565E+02  0.13376432760E+03  0.12498491983E+03 0.  0.
    9000005    1    3    3    0    0  0.19647738548E+02 -0.22017999990E+02  0.35114875019E+02  0.45878975590E+02  0.10000000000E+01 0.  0.
    9000005    1    3    3    0    0 -0.19647738548E+02  0.22017999990E+02 -0.82776863583E+02  0.87885352012E+02  0.10000000000E+01 0.  0.
<mgrwt>
<rscale>  0 0.12498492E+03</rscale>
<asrwt>0</asrwt>
<pdfrwt beam="2">  1        4 0.13955870E-01 0.12498492E+03</pdfrwt>
<pdfrwt beam="1">  1       -4 0.66232569E-02 0.12498492E+03</pdfrwt>
<totfact> 0.10267674E+04</totfact>
</mgrwt>
</event>
<event>
 5    1  0.3232465E-002  0.1250045E+03  0.7818608E-02  0.1235062E+00
          4   -1    0    0  501    0  0.00000000000E+00  0.00000000000E+00  0.71693771149E+02  0.71705018804E+02  0.12700000000E+01 0. -1.
         -4   -1    0    0    0  501 -0.00000000000E+00 -0.00000000000E+00 -0.54466167568E+02  0.54480971995E+02  0.12700000000E+01 0. -1.
         25    2    1    2    0    0  0.00000000000E+00  0.00000000000E+00  0.17227603582E+02  0.12618599080E+03  0.12500445571E+03 0.  0.
    9000005    1    3    3    0    0  0.12191234853E+02  0.23322281503E+02 -0.48605060474E+02  0.55281162483E+02  0.10000000000E+01 0.  0.
    9000005    1    3    3    0    0 -0.12191234853E+02 -0.23322281503E+02  0.65832664056E+02  0.70904828316E+02  0.10000000000E+01 0.  0.
<mgrwt>
<rscale>  0 0.12500446E+03</rscale>
<asrwt>0</asrwt>
<pdfrwt beam="1">  1        4 0.11031815E-01 0.12500446E+03</pdfrwt>
<pdfrwt beam="2">  1       -4 0.83814144E-02 0.12500446E+03</pdfrwt>
<totfact> 0.10425837E+04</totfact>
</mgrwt>
</event>
<event>
 5    1  0.3232465E-002  0.1249991E+03  0.7818608E-02  0.1235071E+00
         -4   -1    0    0    0  501 -0.00000000000E+00  0.00000000000E+00  0.10332222849E+03  0.10333003339E+03  0.12700000000E+01 0. -1.
          4   -1    0    0  501    0  0.00000000000E+00 -0.00000000000E+00 -0.37786029930E+02  0.37807366450E+02  0.12700000000E+01 0. -1.
         25    2    1    2    0    0  0.00000000000E+00  0.00000000000E+00  0.65536198561E+02  0.14113739984E+03  0.12499908924E+03 0.  0.
    9000005    1    3    3    0    0 -0.87338972773E+01 -0.55027433161E+02  0.81428501021E+00  0.55731162037E+02  0.10000000000E+01 0.  0.
    9000005    1    3    3    0    0  0.87338972773E+01  0.55027433161E+02  0.64721913551E+02  0.85406237802E+02  0.10000000000E+01 0.  0.
<mgrwt>
<rscale>  0 0.12499909E+03</rscale>
<asrwt>0</asrwt>
<pdfrwt beam="2">  1        4 0.58154771E-02 0.12499909E+03</pdfrwt>
<pdfrwt beam="1">  1       -4 0.15897969E-01 0.12499909E+03</pdfrwt>
<totfact> 0.10110274E+04</totfact>
</mgrwt>
</event>
<event>
 5    1  0.3232465E-002  0.1249983E+03  0.7818608E-02  0.1235072E+00
         -4   -1    0    0    0  501 -0.00000000000E+00  0.00000000000E+00  0.58308633071E+03  0.58308771378E+03  0.12700000000E+01 0. -1.
          4   -1    0    0  501    0  0.00000000000E+00 -0.00000000000E+00 -0.66374914749E+01  0.67578985698E+01  0.12700000000E+01 0. -1.
         25    2    1    2    0    0  0.00000000000E+00  0.00000000000E+00  0.57644883923E+03  0.58984561234E+03  0.12499832860E+03 0.  0.
    9000005    1    3    3    0    0  0.61375368814E+02  0.11042283581E+02  0.26918606002E+03  0.27631685224E+03  0.10000000000E+01 0.  0.
    9000005    1    3    3    0    0 -0.61375368814E+02 -0.11042283581E+02  0.30726277921E+03  0.31352876011E+03  0.10000000000E+01 0.  0.
<mgrwt>
<rscale>  0 0.12499833E+03</rscale>
<asrwt>0</asrwt>
<pdfrwt beam="2">  1        4 0.10305210E-02 0.12499833E+03</pdfrwt>
<pdfrwt beam="1">  1       -4 0.89714959E-01 0.12499833E+03</pdfrwt>
<totfact> 0.49516737E+03</totfact>
</mgrwt>
</event>
<event>
 5    1  0.3232465E-002  0.1249941E+03  0.7818608E-02  0.1235079E+00
          4   -1    0    0  501    0  0.00000000000E+00  0.00000000000E+00  0.16962491115E+03  0.16962966539E+03  0.12700000000E+01 0. -1.
         -4   -1    0    0    0  501 -0.00000000000E+00 -0.00000000000E+00 -0.23003970008E+02  0.23039000328E+02  0.12700000000E+01 0. -1.
         25    2    1    2    0    0  0.00000000000E+00  0.00000000000E+00  0.14662094114E+03  0.19266866572E+03  0.12499405734E+03 0.  0.
    9000005    1    3    3    0    0 -0.29974494202E+02  0.73745008475E+01  0.15705987778E+03  0.16006766936E+03  0.10000000000E+01 0.  0.
    9000005    1    3    3    0    0  0.29974494202E+02 -0.73745008475E+01 -0.10438936644E+02  0.32600996360E+02  0.10000000000E+01 0.  0.
<mgrwt>
<rscale>  0 0.12499406E+03</rscale>
<asrwt>0</asrwt>
<pdfrwt beam="1">  1        4 0.26099200E-01 0.12499406E+03</pdfrwt>
<pdfrwt beam="2">  1       -4 0.35421328E-02 0.12499406E+03</pdfrwt>
<totfact> 0.91397201E+03</totfact>
</mgrwt>
</event>
<event>
 5    1  0.3232465E-002  0.1249995E+03  0.7818608E-02  0.1235070E+00
          4   -1    0    0  501    0  0.00000000000E+00  0.00000000000E+00  0.27049098943E+02  0.27078896832E+02  0.12700000000E+01 0.  1.
         -4   -1    0    0    0  501 -0.00000000000E+00 -0.00000000000E+00 -0.14429997529E+03  0.14430556389E+03  0.12700000000E+01 0.  1.
         25    2    1    2    0    0  0.00000000000E+00  0.00000000000E+00 -0.11725087635E+03  0.17138446072E+03  0.12499946149E+03 0.  0.
    9000005    1    3    3    0    0 -0.41127325342E+02 -0.34932925414E+01 -0.12295760867E+03  0.12970440822E+03  0.10000000000E+01 0.  0.
    9000005    1    3    3    0    0  0.41127325342E+02  0.34932925414E+01  0.57067323201E+01  0.41680052499E+02  0.10000000000E+01 0.  0.
<mgrwt>
<rscale>  0 0.12499946E+03</rscale>
<asrwt>0</asrwt>
<pdfrwt beam="1">  1        4 0.41641219E-02 0.12499946E+03</pdfrwt>
<pdfrwt beam="2">  1       -4 0.22202718E-01 0.12499946E+03</pdfrwt>
<totfact> 0.95192370E+03</totfact>
</mgrwt>
</event>
<event>
 5    1  0.3232465E-002  0.1250036E+03  0.7818608E-02  0.1235064E+00
          4   -1    0    0  501    0  0.00000000000E+00  0.00000000000E+00  0.10280038962E+03  0.10280823413E+03  0.12700000000E+01 0. -1.
         -4   -1    0    0    0  501 -0.00000000000E+00 -0.00000000000E+00 -0.37980649797E+02  0.38001877046E+02  0.12700000000E+01 0. -1.
         25    2    1    2    0    0  0.00000000000E+00  0.00000000000E+00  0.64819739821E+02  0.14081011118E+03  0.12500355491E+03 0.  0.
    9000005    1    3    3    0    0 -0.50951264624E+02 -0.33690605678E+02  0.47285133829E+02  0.77252651468E+02  0.10000000000E+01 0.  0.
    9000005    1    3    3    0    0  0.50951264624E+02  0.33690605678E+02  0.17534605992E+02  0.63557459711E+02  0.10000000000E+01 0.  0.
<mgrwt>
<rscale>  0 0.12500355E+03</rscale>
<asrwt>0</asrwt>
<pdfrwt beam="1">  1        4 0.15817681E-01 0.12500355E+03</pdfrwt>
<pdfrwt beam="2">  1       -4 0.58454132E-02 0.12500355E+03</pdfrwt>
<totfact> 0.10116013E+04</totfact>
</mgrwt>
</event>
<event>
 5    1  0.3232465E-002  0.1250442E+03  0.7818608E-02  0.1235000E+00
         -4   -1    0    0    0  501 -0.00000000000E+00  0.00000000000E+00  0.76266164788E+02  0.76276738207E+02  0.12700000000E+01 0. -1.
          4   -1    0    0  501    0  0.00000000000E+00 -0.00000000000E+00 -0.51232915477E+02  0.51248653917E+02  0.12700000000E+01 0. -1.
         25    2    1    2    0    0  0.00000000000E+00  0.00000000000E+00  0.25033249311E+02  0.12752539212E+03  0.12504424043E+03 0.  0.
    9000005    1    3    3    0    0  0.16041517751E+02 -0.57758169850E+02  0.30607804175E+02  0.67313996707E+02  0.10000000000E+01 0.  0.
    9000005    1    3    3    0    0 -0.16041517751E+02  0.57758169850E+02 -0.55745548646E+01  0.60211395417E+02  0.10000000000E+01 0.  0.
<mgrwt>
<rscale>  0 0.12504424E+03</rscale>
<asrwt>0</asrwt>
<pdfrwt beam="2">  1        4 0.78840110E-02 0.12504424E+03</pdfrwt>
<pdfrwt beam="1">  1       -4 0.11735280E-01 0.12504424E+03</pdfrwt>
<totfact> 0.10387373E+04</totfact>
</mgrwt>
</event>
<event>
 5    1  0.3232465E-002  0.1250022E+03  0.7818608E-02  0.1235066E+00
          4   -1    0    0  501    0  0.00000000000E+00  0.00000000000E+00  0.39084841973E+02  0.39105469848E+02  0.12700000000E+01 0.  1.
         -4   -1    0    0    0  501 -0.00000000000E+00 -0.00000000000E+00 -0.99895388971E+02  0.99903461590E+02  0.12700000000E+01 0.  1.
         25    2    1    2    0    0  0.00000000000E+00  0.00000000000E+00 -0.60810546999E+02  0.13900893144E+03  0.12500224155E+03 0.  0.
    9000005    1    3    3    0    0  0.49258924946E+02 -0.17356331082E+00 -0.73171112202E+02  0.88212717178E+02  0.10000000000E+01 0.  0.
    9000005    1    3    3    0    0 -0.49258924946E+02  0.17356331082E+00  0.12360565204E+02  0.50796214260E+02  0.10000000000E+01 0.  0.
<mgrwt>
<rscale>  0 0.12500224E+03</rscale>
<asrwt>0</asrwt>
<pdfrwt beam="1">  1        4 0.60152604E-02 0.12500224E+03</pdfrwt>
<pdfrwt beam="2">  1       -4 0.15370729E-01 0.12500224E+03</pdfrwt>
<totfact> 0.10153655E+04</totfact>
</mgrwt>
</event>
<event>
 5    1  0.3232465E-002  0.1249993E+03  0.7818608E-02  0.1235070E+00
          4   -1    0    0  501    0  0.00000000000E+00  0.00000000000E+00  0.39985813948E+02  0.40005977267E+02  0.12700000000E+01 0.  1.
         -4   -1    0    0    0  501 -0.00000000000E+00 -0.00000000000E+00 -0.97640924668E+02  0.97649183663E+02  0.12700000000E+01 0.  1.
         25    2    1    2    0    0  0.00000000000E+00  0.00000000000E+00 -0.57655110720E+02  0.13765516093E+03  0.12499932615E+03 0.  0.
    9000005    1    3    3    0    0 -0.26112848596E+02 -0.50302475867E+02  0.16240799762E+00  0.56685503583E+02  0.10000000000E+01 0.  0.
    9000005    1    3    3    0    0  0.26112848596E+02  0.50302475867E+02 -0.57817518718E+02  0.80969657347E+02  0.10000000000E+01 0.  0.
<mgrwt>
<rscale>  0 0.12499933E+03</rscale>
<asrwt>0</asrwt>
<pdfrwt beam="1">  1        4 0.61538501E-02 0.12499933E+03</pdfrwt>
<pdfrwt beam="2">  1       -4 0.15023867E-01 0.12499933E+03</pdfrwt>
<totfact> 0.10182560E+04</totfact>
</mgrwt>
</event>
<event>
 5    1  0.3232465E-002  0.1250000E+03  0.7818608E-02  0.1235069E+00
          4   -1    0    0  501    0  0.00000000000E+00  0.00000000000E+00  0.78107519209E+01  0.79133270859E+01  0.12700000000E+01 0. -1.
         -4   -1    0    0    0  501 -0.00000000000E+00 -0.00000000000E+00 -0.49674618943E+03  0.49674781290E+03  0.12700000000E+01 0. -1.
         25    2    1    2    0    0  0.00000000000E+00  0.00000000000E+00 -0.48893543751E+03  0.50466113998E+03  0.12500001661E+03 0.  0.
    9000005    1    3    3    0    0  0.49331594014E+02  0.31500983346E+02 -0.33285879489E+03  0.33796729939E+03  0.10000000000E+01 0.  0.
    9000005    1    3    3    0    0 -0.49331594014E+02 -0.31500983346E+02 -0.15607664262E+03  0.16669384059E+03  0.10000000000E+01 0.  0.
<mgrwt>
<rscale>  0 0.12500002E+03</rscale>
<asrwt>0</asrwt>
<pdfrwt beam="1">  1        4 0.12096698E-02 0.12500002E+03</pdfrwt>
<pdfrwt beam="2">  1       -4 0.76430482E-01 0.12500002E+03</pdfrwt>
<totfact> 0.55504515E+03</totfact>
</mgrwt>
</event>
<event>
 5    1  0.3232465E-002  0.1249982E+03  0.7818608E-02  0.1235072E+00
         -4   -1    0    0    0  501 -0.00000000000E+00  0.00000000000E+00  0.72361154659E+03  0.72361266106E+03  0.12700000000E+01 0. -1.
          4   -1    0    0  501    0  0.00000000000E+00 -0.00000000000E+00 -0.53222794783E+01  0.54717052959E+01  0.12700000000E+01 0. -1.
         25    2    1    2    0    0  0.00000000000E+00  0.00000000000E+00  0.71828926711E+03  0.72908436636E+03  0.12499816810E+03 0.  0.
    9000005    1    3    3    0    0  0.44424265042E+02  0.18169227007E+02  0.59256434292E+03  0.59450579193E+03  0.10000000000E+01 0.  0.
    9000005    1    3    3    0    0 -0.44424265042E+02 -0.18169227007E+02  0.12572492419E+03  0.13457857444E+03  0.10000000000E+01 0.  0.
<mgrwt>
<rscale>  0 0.12499817E+03</rscale>
<asrwt>0</asrwt>
<pdfrwt beam="2">  1        4 0.83039298E-03 0.12499817E+03</pdfrwt>
<pdfrwt beam="1">  1       -4 0.11133634E+00 0.12499817E+03</pdfrwt>
<totfact> 0.41596759E+03</totfact>
</mgrwt>
</event>
<event>
 5    1  0.3232465E-002  0.1249712E+03  0.7818608E-02  0.1235114E+00
          4   -1    0    0  501    0  0.00000000000E+00  0.00000000000E+00  0.12241064379E+02  0.12306768753E+02  0.12700000000E+01 0.  1.
         -4   -1    0    0    0  501 -0.00000000000E+00 -0.00000000000E+00 -0.31804251333E+03  0.31804504898E+03  0.12700000000E+01 0.  1.
         25    2    1    2    0    0  0.00000000000E+00  0.00000000000E+00 -0.30580144895E+03  0.33035181774E+03  0.12497118589E+03 0.  0.
    9000005    1    3    3    0    0 -0.38123488434E+02  0.12646899305E+02 -0.26399567610E+02  0.48075790190E+02  0.10000000000E+01 0.  0.
    9000005    1    3    3    0    0  0.38123488434E+02 -0.12646899305E+02 -0.27940188134E+03  0.28227602754E+03  0.10000000000E+01 0.  0.
<mgrwt>
<rscale>  0 0.12497119E+03</rscale>
<asrwt>0</asrwt>
<pdfrwt beam="1">  1        4 0.18884901E-02 0.12497119E+03</pdfrwt>
<pdfrwt beam="2">  1       -4 0.48934861E-01 0.12497119E+03</pdfrwt>
<totfact> 0.71987543E+03</totfact>
</mgrwt>
</event>
<event>
 5    1  0.3232465E-002  0.1250081E+03  0.7818608E-02  0.1235057E+00
         -4   -1    0    0    0  501 -0.00000000000E+00  0.00000000000E+00  0.70258644779E+02  0.70270122144E+02  0.12700000000E+01 0. -1.
          4   -1    0    0  501    0  0.00000000000E+00 -0.00000000000E+00 -0.55582101317E+02  0.55596608591E+02  0.12700000000E+01 0. -1.
         25    2    1    2    0    0  0.00000000000E+00  0.00000000000E+00  0.14676543462E+02  0.12586673073E+03  0.12500813165E+03 0.  0.
    9000005    1    3    3    0    0  0.40438246308E+02 -0.47631617463E+02  0.60118405250E+01  0.62778698402E+02  0.10000000000E+01 0.  0.
    9000005    1    3    3    0    0 -0.40438246308E+02  0.47631617463E+02  0.86647029372E+01  0.63088032332E+02  0.10000000000E+01 0.  0.
<mgrwt>
<rscale>  0 0.12500813E+03</rscale>
<asrwt>0</asrwt>
<pdfrwt beam="2">  1        4 0.85530914E-02 0.12500813E+03</pdfrwt>
<pdfrwt beam="1">  1       -4 0.10811021E-01 0.12500813E+03</pdfrwt>
<totfact> 0.10431966E+04</totfact>
</mgrwt>
</event>
<event>
 5    1  0.3232465E-002  0.1250010E+03  0.7818608E-02  0.1235068E+00
         -4   -1    0    0    0  501 -0.00000000000E+00  0.00000000000E+00  0.64901305998E+01  0.66132212425E+01  0.12700000000E+01 0.  1.
          4   -1    0    0  501    0  0.00000000000E+00 -0.00000000000E+00 -0.59610681571E+03  0.59610816857E+03  0.12700000000E+01 0.  1.
         25    2    1    2    0    0  0.00000000000E+00  0.00000000000E+00 -0.58961668511E+03  0.60272138981E+03  0.12500095350E+03 0.  0.
    9000005    1    3    3    0    0 -0.31574184856E+02 -0.33525943333E+02 -0.91128355017E+02  0.10210923129E+03  0.10000000000E+01 0.  0.
    9000005    1    3    3    0    0  0.31574184856E+02  0.33525943333E+02 -0.49848833009E+03  0.50061215852E+03  0.10000000000E+01 0.  0.
<mgrwt>
<rscale>  0 0.12500095E+03</rscale>
<asrwt>0</asrwt>
<pdfrwt beam="2">  1        4 0.91718270E-01 0.12500095E+03</pdfrwt>
<pdfrwt beam="1">  1       -4 0.10080547E-02 0.12500095E+03</pdfrwt>
<totfact> 0.48695277E+03</totfact>
</mgrwt>
</event>
<event>
 5    1  0.3232465E-002  0.1249883E+03  0.7818608E-02  0.1235088E+00
         -4   -1    0    0    0  501 -0.00000000000E+00  0.00000000000E+00  0.43870089853E+01  0.45671378168E+01  0.12700000000E+01 0.  1.
          4   -1    0    0  501    0  0.00000000000E+00 -0.00000000000E+00 -0.87215710187E+03  0.87215802653E+03  0.12700000000E+01 0.  1.
         25    2    1    2    0    0  0.00000000000E+00  0.00000000000E+00 -0.86777009288E+03  0.87672516434E+03  0.12498831824E+03 0.  0.
    9000005    1    3    3    0    0  0.55583179564E+02 -0.33428395587E+00 -0.63412516339E+03  0.63655740074E+03  0.10000000000E+01 0.  0.
    9000005    1    3    3    0    0 -0.55583179564E+02  0.33428395587E+00 -0.23364492949E+03  0.24016776360E+03  0.10000000000E+01 0.  0.
<mgrwt>
<rscale>  0 0.12498832E+03</rscale>
<asrwt>0</asrwt>
<pdfrwt beam="2">  1        4 0.13419181E+00 0.12498832E+03</pdfrwt>
<pdfrwt beam="1">  1       -4 0.68885234E-03 0.12498832E+03</pdfrwt>
<totfact> 0.35066936E+03</totfact>
</mgrwt>
</event>
<event>
 5    1  0.3232465E-002  0.1250004E+03  0.7818608E-02  0.1235069E+00
         -4   -1    0    0    0  501 -0.00000000000E+00  0.00000000000E+00  0.24894515565E+01  0.27946858593E+01  0.12700000000E+01 0.  1.
          4   -1    0    0  501    0  0.00000000000E+00 -0.00000000000E+00 -0.14781854240E+04  0.14781859696E+04  0.12700000000E+01 0.  1.
         25    2    1    2    0    0  0.00000000000E+00  0.00000000000E+00 -0.14756959724E+04  0.14809806554E+04  0.12500039465E+03 0.  0.
    9000005    1    3    3    0    0 -0.19666526018E+02  0.40016817147E+02 -0.12566083843E+04  0.12573995982E+04  0.10000000000E+01 0.  0.
    9000005    1    3    3    0    0  0.19666526018E+02 -0.40016817147E+02 -0.21908758810E+03  0.22358105724E+03  0.10000000000E+01 0.  0.
<mgrwt>
<rscale>  0 0.12500039E+03</rscale>
<asrwt>0</asrwt>
<pdfrwt beam="2">  1        4 0.22743600E+00 0.12500039E+03</pdfrwt>
<pdfrwt beam="1">  1       -4 0.40651526E-03 0.12500039E+03</pdfrwt>
<totfact> 0.18306911E+03</totfact>
</mgrwt>
</event>
<event>
 5    1  0.3232465E-002  0.1249993E+03  0.7818608E-02  0.1235070E+00
         -4   -1    0    0    0  501 -0.00000000000E+00  0.00000000000E+00  0.59055714391E+03  0.59055850949E+03  0.12700000000E+01 0.  1.
          4   -1    0    0  501    0  0.00000000000E+00 -0.00000000000E+00 -0.65520938287E+01  0.66740417694E+01  0.12700000000E+01 0.  1.
         25    2    1    2    0    0  0.00000000000E+00  0.00000000000E+00  0.58400505008E+03  0.59723255125E+03  0.12499928702E+03 0.  0.
    9000005    1    3    3    0    0  0.50603909748E+02 -0.27447404534E+02  0.40816414112E+03  0.41220514528E+03  0.10000000000E+01 0.  0.
    9000005    1    3    3    0    0 -0.50603909748E+02  0.27447404534E+02  0.17584090896E+03  0.18502740597E+03  0.10000000000E+01 0.  0.
<mgrwt>
<rscale>  0 0.12499929E+03</rscale>
<asrwt>0</asrwt>
<pdfrwt beam="2">  1        4 0.10175003E-02 0.12499929E+03</pdfrwt>
<pdfrwt beam="1">  1       -4 0.90864413E-01 0.12499929E+03</pdfrwt>
<totfact> 0.49043541E+03</totfact>
</mgrwt>
</event>
<event>
 5    1  0.3232465E-002  0.1250028E+03  0.7818608E-02  0.1235065E+00
         -4   -1    0    0    0  501 -0.00000000000E+00  0.00000000000E+00  0.12208409269E+04  0.12208415874E+04  0.12700000000E+01 0. -1.
          4   -1    0    0  501    0  0.00000000000E+00 -0.00000000000E+00 -0.30730769633E+01  0.33251619543E+01  0.12700000000E+01 0. -1.
         25    2    1    2    0    0  0.00000000000E+00  0.00000000000E+00  0.12177678499E+04  0.12241667494E+04  0.12500277619E+03 0.  0.
    9000005    1    3    3    0    0 -0.42578921384E+01  0.50381517134E+02  0.96857225551E+03  0.96989156150E+03  0.10000000000E+01 0.  0.
    9000005    1    3    3    0    0  0.42578921384E+01 -0.50381517134E+02  0.24919559438E+03  0.25427518788E+03  0.10000000000E+01 0.  0.
<mgrwt>
<rscale>  0 0.12500278E+03</rscale>
<asrwt>0</asrwt>
<pdfrwt beam="2">  1        4 0.49222272E-03 0.12500278E+03</pdfrwt>
<pdfrwt beam="1">  1       -4 0.18784125E+00 0.12500278E+03</pdfrwt>
<totfact> 0.24087334E+03</totfact>
</mgrwt>
</event>
<event>
 5    1  0.3232465E-002  0.1250004E+03  0.7818608E-02  0.1235069E+00
          4   -1    0    0  501    0  0.00000000000E+00  0.00000000000E+00  0.20800849056E+02  0.20839583044E+02  0.12700000000E+01 0. -1.
         -4   -1    0    0    0  501 -0.00000000000E+00 -0.00000000000E+00 -0.18757832920E+03  0.18758262842E+03  0.12700000000E+01 0. -1.
         25    2    1    2    0    0  0.00000000000E+00  0.00000000000E+00 -0.16677748014E+03  0.20842221146E+03  0.12500036139E+03 0.  0.
    9000005    1    3    3    0    0 -0.30875636091E+02 -0.13112105518E+02 -0.17130278905E+03  0.17455909530E+03  0.10000000000E+01 0.  0.
    9000005    1    3    3    0    0  0.30875636091E+02  0.13112105518E+02  0.45253089153E+01  0.33863116158E+02  0.10000000000E+01 0.  0.
<mgrwt>
<rscale>  0 0.12500036E+03</rscale>
<asrwt>0</asrwt>
<pdfrwt beam="1">  1        4 0.32034410E-02 0.12500036E+03</pdfrwt>
<pdfrwt beam="2">  1       -4 0.28861514E-01 0.12500036E+03</pdfrwt>
<totfact> 0.88733488E+03</totfact>
</mgrwt>
</event>
<event>
 5    1  0.3232465E-002  0.1249989E+03  0.7818608E-02  0.1235071E+00
         -4   -1    0    0    0  501 -0.00000000000E+00  0.00000000000E+00  0.27525845736E+02  0.27555128080E+02  0.12700000000E+01 0. -1.
          4   -1    0    0  501    0  0.00000000000E+00 -0.00000000000E+00 -0.14180211975E+03  0.14180780679E+03  0.12700000000E+01 0. -1.
         25    2    1    2    0    0  0.00000000000E+00  0.00000000000E+00 -0.11427627402E+03  0.16936293487E+03  0.12499894761E+03 0.  0.
    9000005    1    3    3    0    0 -0.38428374865E+01 -0.43205359867E+02  0.38136651204E+01  0.43554730659E+02  0.10000000000E+01 0.  0.
    9000005    1    3    3    0    0  0.38428374865E+01  0.43205359867E+02 -0.11808993914E+03  0.12580820421E+03  0.10000000000E+01 0.  0.
<mgrwt>
<rscale>  0 0.12499895E+03</rscale>
<asrwt>0</asrwt>
<pdfrwt beam="2">  1        4 0.21818400E-01 0.12499895E+03</pdfrwt>
<pdfrwt beam="1">  1       -4 0.42374355E-02 0.12499895E+03</pdfrwt>
<totfact> 0.95569701E+03</totfact>
</mgrwt>
</event>
<event>
 5    1  0.3232465E-002  0.1250005E+03  0.7818608E-02  0.1235069E+00
         -4   -1    0    0    0  501 -0.00000000000E+00  0.00000000000E+00  0.30388167334E+03  0.30388432715E+03  0.12700000000E+01 0. -1.
          4   -1    0    0  501    0  0.00000000000E+00 -0.00000000000E+00 -0.12820523683E+02  0.12883273167E+02  0.12700000000E+01 0. -1.
         25    2    1    2    0    0  0.00000000000E+00  0.00000000000E+00  0.29106114965E+03  0.31676760032E+03  0.12500047910E+03 0.  0.
    9000005    1    3    3    0    0  0.14017368647E+02  0.39585993613E+02  0.28253615521E+02  0.50624147441E+02  0.10000000000E+01 0.  0.
    9000005    1    3    3    0    0 -0.14017368647E+02 -0.39585993613E+02  0.26280753413E+03  0.26614345288E+03  0.10000000000E+01 0.  0.
<mgrwt>
<rscale>  0 0.12500048E+03</rscale>
<asrwt>0</asrwt>
<pdfrwt beam="2">  1        4 0.19774194E-02 0.12500048E+03</pdfrwt>
<pdfrwt beam="1">  1       -4 0.46756055E-01 0.12500048E+03</pdfrwt>
<totfact> 0.73541451E+03</totfact>
</mgrwt>
</event>
<event>
 5    1  0.3232465E-002  0.1250004E+03  0.7818608E-02  0.1235069E+00
         -4   -1    0    0    0  501 -0.00000000000E+00  0.00000000000E+00  0.15016373588E+03  0.15016910625E+03  0.12700000000E+01 0. -1.
          4   -1    0    0  501    0  0.00000000000E+00 -0.00000000000E+00 -0.25992093531E+02  0.26023101778E+02  0.12700000000E+01 0. -1.
         25    2    1    2    0    0  0.00000000000E+00  0.00000000000E+00  0.12417164235E+03  0.17619220803E+03  0.12500038963E+03 0.  0.
    9000005    1    3    3    0    0 -0.44655485693E+02  0.14954750509E+02  0.41830352912E+01  0.47289055283E+02  0.10000000000E+01 0.  0.
    9000005    1    3    3    0    0  0.44655485693E+02 -0.14954750509E+02  0.11998860705E+03  0.12890315275E+03  0.10000000000E+01 0.  0.
<mgrwt>
<rscale>  0 0.12500039E+03</rscale>
<asrwt>0</asrwt>
<pdfrwt beam="2">  1        4 0.40015820E-02 0.12500039E+03</pdfrwt>
<pdfrwt beam="1">  1       -4 0.23104912E-01 0.12500039E+03</pdfrwt>
<totfact> 0.94306118E+03</totfact>
</mgrwt>
</event>
<event>
 5    1  0.3232465E-002  0.1249998E+03  0.7818608E-02  0.1235070E+00
         -4   -1    0    0    0  501 -0.00000000000E+00  0.00000000000E+00  0.39223993519E+02  0.39244548253E+02  0.12700000000E+01 0.  1.
          4   -1    0    0  501    0  0.00000000000E+00 -0.00000000000E+00 -0.99537221473E+02  0.99545323137E+02  0.12700000000E+01 0.  1.
         25    2    1    2    0    0  0.00000000000E+00  0.00000000000E+00 -0.60313227954E+02  0.13878987139E+03  0.12499977174E+03 0.  0.
    9000005    1    3    3    0    0  0.41104521663E+01 -0.50957497208E+02  0.97481650794E+01  0.52053713231E+02  0.10000000000E+01 0.  0.
    9000005    1    3    3    0    0 -0.41104521663E+01  0.50957497208E+02 -0.70061393033E+02  0.86736158160E+02  0.10000000000E+01 0.  0.
<mgrwt>
<rscale>  0 0.12499977E+03</rscale>
<asrwt>0</asrwt>
<pdfrwt beam="2">  1        4 0.15315623E-01 0.12499977E+03</pdfrwt>
<pdfrwt beam="1">  1       -4 0.60366649E-02 0.12499977E+03</pdfrwt>
<totfact> 0.10158780E+04</totfact>
</mgrwt>
</event>
<event>
 5    1  0.3232465E-002  0.1249984E+03  0.7818608E-02  0.1235072E+00
          4   -1    0    0  501    0  0.00000000000E+00  0.00000000000E+00  0.44416005728E+02  0.44434158762E+02  0.12700000000E+01 0.  1.
         -4   -1    0    0    0  501 -0.00000000000E+00 -0.00000000000E+00 -0.87903955391E+02  0.87913129130E+02  0.12700000000E+01 0.  1.
         25    2    1    2    0    0  0.00000000000E+00  0.00000000000E+00 -0.43487949662E+02  0.13234728789E+03  0.12499841138E+03 0.  0.
    9000005    1    3    3    0    0 -0.16771424011E+02 -0.21235792049E+02 -0.81384232384E+02  0.85770815596E+02  0.10000000000E+01 0.  0.
    9000005    1    3    3    0    0  0.16771424011E+02  0.21235792049E+02  0.37896282722E+02  0.46576472295E+02  0.10000000000E+01 0.  0.
<mgrwt>
<rscale>  0 0.12499841E+03</rscale>
<asrwt>0</asrwt>
<pdfrwt beam="1">  1        4 0.68353337E-02 0.12499841E+03</pdfrwt>
<pdfrwt beam="2">  1       -4 0.13525787E-01 0.12499841E+03</pdfrwt>
<totfact> 0.10294660E+04</totfact>
</mgrwt>
</event>
<event>
 5    1  0.3232465E-002  0.1249978E+03  0.7818608E-02  0.1235073E+00
         -4   -1    0    0    0  501 -0.00000000000E+00  0.00000000000E+00  0.80079791314E+01  0.81080595564E+01  0.12700000000E+01 0.  1.
          4   -1    0    0  501    0  0.00000000000E+00 -0.00000000000E+00 -0.48464746178E+03  0.48464912577E+03  0.12700000000E+01 0.  1.
         25    2    1    2    0    0  0.00000000000E+00  0.00000000000E+00 -0.47663948265E+03  0.49275718533E+03  0.12499778907E+03 0.  0.
    9000005    1    3    3    0    0 -0.62038221539E+02 -0.75079590056E+01 -0.23846921246E+03  0.24652317472E+03  0.10000000000E+01 0.  0.
    9000005    1    3    3    0    0  0.62038221539E+02  0.75079590056E+01 -0.23817027019E+03  0.24623401061E+03  0.10000000000E+01 0.  0.
<mgrwt>
<rscale>  0 0.12499779E+03</rscale>
<asrwt>0</asrwt>
<pdfrwt beam="2">  1        4 0.74568952E-01 0.12499779E+03</pdfrwt>
<pdfrwt beam="1">  1       -4 0.12398237E-02 0.12499779E+03</pdfrwt>
<totfact> 0.56433485E+03</totfact>
</mgrwt>
</event>
<event>
 5    1  0.3232465E-002  0.1249989E+03  0.7818608E-02  0.1235071E+00
         -4   -1    0    0    0  501 -0.00000000000E+00  0.00000000000E+00  0.13856657414E+02  0.13914735164E+02  0.12700000000E+01 0.  1.
          4   -1    0    0  501    0  0.00000000000E+00 -0.00000000000E+00 -0.28125033311E+03  0.28125320047E+03  0.12700000000E+01 0.  1.
         25    2    1    2    0    0  0.00000000000E+00  0.00000000000E+00 -0.26739367570E+03  0.29516793563E+03  0.12499892969E+03 0.  0.
    9000005    1    3    3    0    0 -0.61819653075E+02  0.54935251048E+01 -0.15094203421E+03  0.16320645213E+03  0.10000000000E+01 0.  0.
    9000005    1    3    3    0    0  0.61819653075E+02 -0.54935251048E+01 -0.11645164149E+03  0.13196148351E+03  0.10000000000E+01 0.  0.
<mgrwt>
<rscale>  0 0.12499893E+03</rscale>
<asrwt>0</asrwt>
<pdfrwt beam="2">  1        4 0.43273966E-01 0.12499893E+03</pdfrwt>
<pdfrwt beam="1">  1       -4 0.21364817E-02 0.12499893E+03</pdfrwt>
<totfact> 0.76210802E+03</totfact>
</mgrwt>
</event>
<event>
 5    1  0.3232465E-002  0.1250149E+03  0.7818608E-02  0.1235046E+00
         -4   -1    0    0    0  501 -0.00000000000E+00  0.00000000000E+00  0.12006423160E+04  0.12006429876E+04  0.12700000000E+01 0.  1.
          4   -1    0    0  501    0  0.00000000000E+00 -0.00000000000E+00 -0.31296346814E+01  0.33775010346E+01  0.12700000000E+01 0.  1.
         25    2    1    2    0    0  0.00000000000E+00  0.00000000000E+00  0.11975126813E+04  0.12040204887E+04  0.12501486044E+03 0.  0.
    9000005    1    3    3    0    0  0.56968954389E+02 -0.34677856544E+01  0.84405284029E+03  0.84598090079E+03  0.10000000000E+01 0.  0.
    9000005    1    3    3    0    0 -0.56968954389E+02  0.34677856544E+01  0.35345984098E+03  0.35803958788E+03  0.10000000000E+01 0.  0.
<mgrwt>
<rscale>  0 0.12501486E+03</rscale>
<asrwt>0</asrwt>
<pdfrwt beam="2">  1        4 0.50060053E-03 0.12501486E+03</pdfrwt>
<pdfrwt beam="1">  1       -4 0.18473333E+00 0.12501486E+03</pdfrwt>
<totfact> 0.24599776E+03</totfact>
</mgrwt>
</event>
<event>
 5    1  0.3232465E-002  0.1250001E+03  0.7818608E-02  0.1235069E+00
         -4   -1    0    0    0  501 -0.00000000000E+00  0.00000000000E+00  0.15919259226E+02  0.15969837642E+02  0.12700000000E+01 0. -1.
          4   -1    0    0  501    0  0.00000000000E+00 -0.00000000000E+00 -0.24493791408E+03  0.24494120653E+03  0.12700000000E+01 0. -1.
         25    2    1    2    0    0  0.00000000000E+00  0.00000000000E+00 -0.22901865486E+03  0.26091104417E+03  0.12500011479E+03 0.  0.
    9000005    1    3    3    0    0 -0.29903829067E+02 -0.91153330434E+01 -0.22745310599E+03  0.22959364912E+03  0.10000000000E+01 0.  0.
    9000005    1    3    3    0    0  0.29903829067E+02  0.91153330434E+01 -0.15655488605E+01  0.31317395048E+02  0.10000000000E+01 0.  0.
<mgrwt>
<rscale>  0 0.12500011E+03</rscale>
<asrwt>0</asrwt>
<pdfrwt beam="2">  1        4 0.37686897E-01 0.12500011E+03</pdfrwt>
<pdfrwt beam="1">  1       -4 0.24532609E-02 0.12500011E+03</pdfrwt>
<totfact> 0.80778173E+03</totfact>
</mgrwt>
</event>
<event>
 5    1  0.3232465E-002  0.1250012E+03  0.7818608E-02  0.1235067E+00
         -4   -1    0    0    0  501 -0.00000000000E+00  0.00000000000E+00  0.51472105404E+01  0.53015730069E+01  0.12700000000E+01 0.  1.
          4   -1    0    0  501    0  0.00000000000E+00 -0.00000000000E+00 -0.74755390273E+03  0.74755498152E+03  0.12700000000E+01 0.  1.
         25    2    1    2    0    0  0.00000000000E+00  0.00000000000E+00 -0.74240669219E+03  0.75285655453E+03  0.12500118031E+03 0.  0.
    9000005    1    3    3    0    0 -0.57003121878E+02 -0.24848387619E+02 -0.40858618287E+03  0.41329222967E+03  0.10000000000E+01 0.  0.
    9000005    1    3    3    0    0  0.57003121878E+02  0.24848387619E+02 -0.33382050932E+03  0.33956432485E+03  0.10000000000E+01 0.  0.
<mgrwt>
<rscale>  0 0.12500118E+03</rscale>
<asrwt>0</asrwt>
<pdfrwt beam="2">  1        4 0.11502016E+00 0.12500118E+03</pdfrwt>
<pdfrwt beam="1">  1       -4 0.80383616E-03 0.12500118E+03</pdfrwt>
<totfact> 0.40436860E+03</totfact>
</mgrwt>
</event>
<event>
 5    1  0.3232465E-002  0.1249959E+03  0.7818608E-02  0.1235076E+00
         -4   -1    0    0    0  501 -0.00000000000E+00  0.00000000000E+00  0.24008993011E+03  0.24009328903E+03  0.12700000000E+01 0.  1.
          4   -1    0    0  501    0  0.00000000000E+00 -0.00000000000E+00 -0.16240622645E+02  0.16290203310E+02  0.12700000000E+01 0.  1.
         25    2    1    2    0    0  0.00000000000E+00  0.00000000000E+00  0.22384930746E+03  0.25638349234E+03  0.12499593071E+03 0.  0.
    9000005    1    3    3    0    0  0.10866147678E+02 -0.78748818140E+01 -0.13260262534E+02  0.18892365956E+02  0.10000000000E+01 0.  0.
    9000005    1    3    3    0    0 -0.10866147678E+02  0.78748818140E+01  0.23710957000E+03  0.23749112639E+03  0.10000000000E+01 0.  0.
<mgrwt>
<rscale>  0 0.12499593E+03</rscale>
<asrwt>0</asrwt>
<pdfrwt beam="2">  1        4 0.25026300E-02 0.12499593E+03</pdfrwt>
<pdfrwt beam="1">  1       -4 0.36940979E-01 0.12499593E+03</pdfrwt>
<totfact> 0.81423661E+03</totfact>
</mgrwt>
</event>
<event>
 5    1  0.3232465E-002  0.1250027E+03  0.7818608E-02  0.1235065E+00
         -4   -1    0    0    0  501 -0.00000000000E+00  0.00000000000E+00  0.12872796404E+02  0.12935292314E+02  0.12700000000E+01 0. -1.
          4   -1    0    0  501    0  0.00000000000E+00 -0.00000000000E+00 -0.30266428217E+03  0.30266694666E+03  0.12700000000E+01 0. -1.
         25    2    1    2    0    0  0.00000000000E+00  0.00000000000E+00 -0.28979148577E+03  0.31560223898E+03  0.12500267207E+03 0.  0.
    9000005    1    3    3    0    0  0.55530385739E+02 -0.10267723368E+02 -0.21247113927E+03  0.21985002821E+03  0.10000000000E+01 0.  0.
    9000005    1    3    3    0    0 -0.55530385739E+02  0.10267723368E+02 -0.77320346500E+02  0.95752210765E+02  0.10000000000E+01 0.  0.
<mgrwt>
<rscale>  0 0.12500267E+03</rscale>
<asrwt>0</asrwt>
<pdfrwt beam="2">  1        4 0.46568743E-01 0.12500267E+03</pdfrwt>
<pdfrwt beam="1">  1       -4 0.19854428E-02 0.12500267E+03</pdfrwt>
<totfact> 0.73677888E+03</totfact>
</mgrwt>
</event>
<event>
 5    1  0.3232465E-002  0.1250030E+03  0.7818608E-02  0.1235065E+00
         -4   -1    0    0    0  501 -0.00000000000E+00  0.00000000000E+00  0.15961232515E+03  0.15961737763E+03  0.12700000000E+01 0.  1.
          4   -1    0    0  501    0  0.00000000000E+00 -0.00000000000E+00 -0.24452622145E+02  0.24485580038E+02  0.12700000000E+01 0.  1.
         25    2    1    2    0    0  0.00000000000E+00  0.00000000000E+00  0.13515970301E+03  0.18410295767E+03  0.12500301478E+03 0.  0.
    9000005    1    3    3    0    0  0.60630465771E+02  0.78693623200E+00  0.45303923442E+02  0.75697543735E+02  0.10000000000E+01 0.  0.
    9000005    1    3    3    0    0 -0.60630465771E+02 -0.78693623200E+00  0.89855779566E+02  0.10840541393E+03  0.10000000000E+01 0.  0.
<mgrwt>
<rscale>  0 0.12500301E+03</rscale>
<asrwt>0</asrwt>
<pdfrwt beam="2">  1        4 0.37648658E-02 0.12500301E+03</pdfrwt>
<pdfrwt beam="1">  1       -4 0.24558666E-01 0.12500301E+03</pdfrwt>
<totfact> 0.92877352E+03</totfact>
</mgrwt>
</event>
<event>
 5    1  0.3232465E-002  0.1249985E+03  0.7818608E-02  0.1235072E+00
          4   -1    0    0  501    0  0.00000000000E+00  0.00000000000E+00  0.11362151182E+03  0.11362860928E+03  0.12700000000E+01 0.  1.
         -4   -1    0    0    0  501 -0.00000000000E+00 -0.00000000000E+00 -0.34358768602E+02  0.34382232037E+02  0.12700000000E+01 0.  1.
         25    2    1    2    0    0  0.00000000000E+00  0.00000000000E+00  0.79262743214E+02  0.14801084132E+03  0.12499850674E+03 0.  0.
    9000005    1    3    3    0    0  0.53836210932E+02 -0.27359110885E+02  0.58661833151E+02  0.84196610529E+02  0.10000000000E+01 0.  0.
    9000005    1    3    3    0    0 -0.53836210932E+02  0.27359110885E+02  0.20600910063E+02  0.63814230790E+02  0.10000000000E+01 0.  0.
<mgrwt>
<rscale>  0 0.12499851E+03</rscale>
<asrwt>0</asrwt>
<pdfrwt beam="1">  1        4 0.17482584E-01 0.12499851E+03</pdfrwt>
<pdfrwt beam="2">  1       -4 0.52883152E-02 0.12499851E+03</pdfrwt>
<totfact> 0.99705046E+03</totfact>
</mgrwt>
</event>
<event>
 5    1  0.3232465E-002  0.1249964E+03  0.7818608E-02  0.1235075E+00
         -4   -1    0    0    0  501 -0.00000000000E+00  0.00000000000E+00  0.23055676252E+02  0.23090628130E+02  0.12700000000E+01 0.  1.
          4   -1    0    0  501    0  0.00000000000E+00 -0.00000000000E+00 -0.16925133391E+03  0.16925609865E+03  0.12700000000E+01 0.  1.
         25    2    1    2    0    0  0.00000000000E+00  0.00000000000E+00 -0.14619565766E+03  0.19234672678E+03  0.12499637189E+03 0.  0.
    9000005    1    3    3    0    0 -0.28715408923E+02  0.53524459642E+02 -0.95691790552E+02  0.11334620094E+03  0.10000000000E+01 0.  0.
    9000005    1    3    3    0    0  0.28715408923E+02 -0.53524459642E+02 -0.50503867107E+02  0.79000525836E+02  0.10000000000E+01 0.  0.
<mgrwt>
<rscale>  0 0.12499637E+03</rscale>
<asrwt>0</asrwt>
<pdfrwt beam="2">  1        4 0.26041721E-01 0.12499637E+03</pdfrwt>
<pdfrwt beam="1">  1       -4 0.35500824E-02 0.12499637E+03</pdfrwt>
<totfact> 0.91448018E+03</totfact>
</mgrwt>
</event>
<event>
 5    1  0.3232465E-002  0.1250041E+03  0.7818608E-02  0.1235063E+00
          4   -1    0    0  501    0  0.00000000000E+00  0.00000000000E+00  0.58315739189E+01  0.59682622572E+01  0.12700000000E+01 0. -1.
         -4   -1    0    0    0  501 -0.00000000000E+00 -0.00000000000E+00 -0.66199154793E+03  0.66199276615E+03  0.12700000000E+01 0. -1.
         25    2    1    2    0    0  0.00000000000E+00  0.00000000000E+00 -0.65615997401E+03  0.66796102840E+03  0.12500409582E+03 0.  0.
    9000005    1    3    3    0    0 -0.22045383710E+02  0.18183945552E+02 -0.31101238010E+02  0.42248571864E+02  0.10000000000E+01 0.  0.
    9000005    1    3    3    0    0  0.22045383710E+02 -0.18183945552E+02 -0.62505873600E+03  0.62571245654E+03  0.10000000000E+01 0.  0.
<mgrwt>
<rscale>  0 0.12500410E+03</rscale>
<asrwt>0</asrwt>
<pdfrwt beam="1">  1        4 0.90777394E-03 0.12500410E+03</pdfrwt>
<pdfrwt beam="2">  1       -4 0.10185540E+00 0.12500410E+03</pdfrwt>
<totfact> 0.44828774E+03</totfact>
</mgrwt>
</event>
<event>
 5    1  0.3232465E-002  0.1250033E+03  0.7818608E-02  0.1235064E+00
          4   -1    0    0  501    0  0.00000000000E+00  0.00000000000E+00  0.19330787609E+02  0.19372461113E+02  0.12700000000E+01 0.  1.
         -4   -1    0    0    0  501 -0.00000000000E+00 -0.00000000000E+00 -0.20182346272E+03  0.20182745850E+03  0.12700000000E+01 0.  1.
         25    2    1    2    0    0  0.00000000000E+00  0.00000000000E+00 -0.18249267512E+03  0.22119991962E+03  0.12500331183E+03 0.  0.
    9000005    1    3    3    0    0 -0.16190861534E+02 -0.53211106976E+02 -0.14166743951E+03  0.15219799381E+03  0.10000000000E+01 0.  0.
    9000005    1    3    3    0    0  0.16190861534E+02  0.53211106976E+02 -0.40825235611E+02  0.69001925810E+02  0.10000000000E+01 0.  0.
<mgrwt>
<rscale>  0 0.12500331E+03</rscale>
<asrwt>0</asrwt>
<pdfrwt beam="1">  1        4 0.29774805E-02 0.12500331E+03</pdfrwt>
<pdfrwt beam="2">  1       -4 0.31053275E-01 0.12500331E+03</pdfrwt>
<totfact> 0.86672423E+03</totfact>
</mgrwt>
</event>
<event>
 4    1  0.3232465E-002  0.1235767E+03  0.7818608E-02  0.1237311E+00
          4   -1    0    0  501    0  0.00000000000E+00  0.00000000000E+00  0.15131812991E+03  0.15132345932E+03  0.12700000000E+01 0.  1.
         -4   -1    0    0    0  501 -0.00000000000E+00 -0.00000000000E+00 -0.25208525250E+02  0.25240496138E+02  0.12700000000E+01 0.  1.
    9000005    1    1    2    0    0  0.28335608550E+02  0.53610592664E+02  0.79948107772E+02  0.10034790628E+03  0.10000000000E+01 0.  0.
    9000005    1    1    2    0    0 -0.28335608550E+02 -0.53610592664E+02  0.46161496889E+02  0.76216049180E+02  0.10000000000E+01 0.  0.
<mgrwt>
<rscale>  0 0.12357669E+03</rscale>
<asrwt>0</asrwt>
<pdfrwt beam="1">  1        4 0.23282581E-01 0.12357669E+03</pdfrwt>
<pdfrwt beam="2">  1       -4 0.38811039E-02 0.12357669E+03</pdfrwt>
<totfact> 0.97311972E+03</totfact>
</mgrwt>
</event>
<event>
 5    1  0.3232465E-002  0.1249972E+03  0.7818608E-02  0.1235074E+00
          4   -1    0    0  501    0  0.00000000000E+00  0.00000000000E+00  0.18874508937E+03  0.18874936201E+03  0.12700000000E+01 0.  1.
         -4   -1    0    0    0  501 -0.00000000000E+00 -0.00000000000E+00 -0.20670983878E+02  0.20709960756E+02  0.12700000000E+01 0.  1.
         25    2    1    2    0    0  0.00000000000E+00  0.00000000000E+00  0.16807410549E+03  0.20945932277E+03  0.12499721180E+03 0.  0.
    9000005    1    3    3    0    0  0.38284127862E+02 -0.45133700944E+02  0.11764960974E+03  0.13170101017E+03  0.10000000000E+01 0.  0.
    9000005    1    3    3    0    0 -0.38284127862E+02  0.45133700944E+02  0.50424495748E+02  0.77758312601E+02  0.10000000000E+01 0.  0.
<mgrwt>
<rscale>  0 0.12499721E+03</rscale>
<asrwt>0</asrwt>
<pdfrwt beam="1">  1        4 0.29041034E-01 0.12499721E+03</pdfrwt>
<pdfrwt beam="2">  1       -4 0.31834781E-02 0.12499721E+03</pdfrwt>
<totfact> 0.88569776E+03</totfact>
</mgrwt>
</event>
<event>
 5    1  0.3232465E-002  0.1250005E+03  0.7818608E-02  0.1235069E+00
         -4   -1    0    0    0  501 -0.00000000000E+00  0.00000000000E+00  0.42672780508E+03  0.42672969492E+03  0.12700000000E+01 0.  1.
          4   -1    0    0  501    0  0.00000000000E+00 -0.00000000000E+00 -0.91080629274E+01  0.91961791136E+01  0.12700000000E+01 0.  1.
         25    2    1    2    0    0  0.00000000000E+00  0.00000000000E+00  0.41761974215E+03  0.43592587403E+03  0.12500047447E+03 0.  0.
    9000005    1    3    3    0    0 -0.12302276279E+02 -0.57879945971E+02  0.27889221418E+03  0.28510226459E+03  0.10000000000E+01 0.  0.
    9000005    1    3    3    0    0  0.12302276279E+02  0.57879945971E+02  0.13872752797E+03  0.15082360944E+03  0.10000000000E+01 0.  0.
<mgrwt>
<rscale>  0 0.12500047E+03</rscale>
<asrwt>0</asrwt>
<pdfrwt beam="2">  1        4 0.14081640E-02 0.12500047E+03</pdfrwt>
<pdfrwt beam="1">  1       -4 0.65657354E-01 0.12500047E+03</pdfrwt>
<totfact> 0.61201855E+03</totfact>
</mgrwt>
</event>
<event>
 5    1  0.3232465E-002  0.1250028E+03  0.7818608E-02  0.1235065E+00
         -4   -1    0    0    0  501 -0.00000000000E+00  0.00000000000E+00  0.46783954255E+03  0.46784126632E+03  0.12700000000E+01 0. -1.
          4   -1    0    0  501    0  0.00000000000E+00 -0.00000000000E+00 -0.82998899394E+01  0.83964917082E+01  0.12700000000E+01 0. -1.
         25    2    1    2    0    0  0.00000000000E+00  0.00000000000E+00  0.45953965261E+03  0.47623775803E+03  0.12500283937E+03 0.  0.
    9000005    1    3    3    0    0 -0.58859845508E+02 -0.20108502011E+02  0.20672305694E+03  0.21588018792E+03  0.10000000000E+01 0.  0.
    9000005    1    3    3    0    0  0.58859845508E+02  0.20108502011E+02  0.25281659568E+03  0.26035757011E+03  0.10000000000E+01 0.  0.
<mgrwt>
<rscale>  0 0.12500284E+03</rscale>
<asrwt>0</asrwt>
<pdfrwt beam="2">  1        4 0.12844694E-02 0.12500284E+03</pdfrwt>
<pdfrwt beam="1">  1       -4 0.71982894E-01 0.12500284E+03</pdfrwt>
<totfact> 0.57752721E+03</totfact>
</mgrwt>
</event>
<event>
 4    1  0.3232465E-002  0.1249081E+03  0.7818608E-02  0.1235213E+00
         -4   -1    0    0    0  501 -0.00000000000E+00  0.00000000000E+00  0.75508629334E+01  0.76569204670E+01  0.12700000000E+01 0.  1.
          4   -1    0    0  501    0  0.00000000000E+00 -0.00000000000E+00 -0.51285509070E+03  0.51285666317E+03  0.12700000000E+01 0.  1.
    9000005    1    1    2    0    0 -0.45487200763E+02  0.42569487682E+02 -0.27045931919E+03  0.27754367233E+03  0.10000000000E+01 0.  0.
    9000005    1    1    2    0    0  0.45487200763E+02 -0.42569487682E+02 -0.23484490858E+03  0.24296991131E+03  0.10000000000E+01 0.  0.
<mgrwt>
<rscale>  0 0.12490808E+03</rscale>
<asrwt>0</asrwt>
<pdfrwt beam="2">  1        4 0.78909035E-01 0.12490808E+03</pdfrwt>
<pdfrwt beam="1">  1       -4 0.11699509E-02 0.12490808E+03</pdfrwt>
<totfact> 0.54417019E+03</totfact>
</mgrwt>
</event>
<event>
 5    1  0.3232465E-002  0.1250107E+03  0.7818608E-02  0.1235053E+00
          4   -1    0    0  501    0  0.00000000000E+00  0.00000000000E+00  0.41549324213E+01  0.43446937091E+01  0.12700000000E+01 0.  1.
         -4   -1    0    0    0  501 -0.00000000000E+00 -0.00000000000E+00 -0.91912460124E+03  0.91912547866E+03  0.12700000000E+01 0.  1.
         25    2    1    2    0    0  0.00000000000E+00  0.00000000000E+00 -0.91496966882E+03  0.92347017236E+03  0.12501065707E+03 0.  0.
    9000005    1    3    3    0    0  0.49541629352E+01 -0.51799551324E+02 -0.20178134255E+03  0.20838533405E+03  0.10000000000E+01 0.  0.
    9000005    1    3    3    0    0 -0.49541629352E+01  0.51799551324E+02 -0.71318832628E+03  0.71508483831E+03  0.10000000000E+01 0.  0.
<mgrwt>
<rscale>  0 0.12501066E+03</rscale>
<asrwt>0</asrwt>
<pdfrwt beam="1">  1        4 0.65388562E-03 0.12501066E+03</pdfrwt>
<pdfrwt beam="2">  1       -4 0.14141829E+00 0.12501066E+03</pdfrwt>
<totfact> 0.33269291E+03</totfact>
</mgrwt>
</event>
<event>
 5    1  0.3232465E-002  0.1249957E+03  0.7818608E-02  0.1235076E+00
          4   -1    0    0  501    0  0.00000000000E+00  0.00000000000E+00  0.21204778351E+01  0.24717051299E+01  0.12700000000E+01 0. -1.
         -4   -1    0    0    0  501 -0.00000000000E+00 -0.00000000000E+00 -0.17007910067E+04  0.17007914809E+04  0.12700000000E+01 0. -1.
         25    2    1    2    0    0  0.00000000000E+00  0.00000000000E+00 -0.16986705289E+04  0.17032631860E+04  0.12499566041E+03 0.  0.
    9000005    1    3    3    0    0 -0.70233588580E+01 -0.60323842064E+02 -0.64874883944E+03  0.65158602668E+03  0.10000000000E+01 0.  0.
    9000005    1    3    3    0    0  0.70233588580E+01  0.60323842064E+02 -0.10499216894E+04  0.10516771593E+04  0.10000000000E+01 0.  0.
<mgrwt>
<rscale>  0 0.12499566E+03</rscale>
<asrwt>0</asrwt>
<pdfrwt beam="1">  1        4 0.35328268E-03 0.12499566E+03</pdfrwt>
<pdfrwt beam="2">  1       -4 0.26168620E+00 0.12499566E+03</pdfrwt>
<totfact> 0.14255010E+03</totfact>
</mgrwt>
</event>
<event>
 5    1  0.3232465E-002  0.1250019E+03  0.7818608E-02  0.1235066E+00
          4   -1    0    0  501    0  0.00000000000E+00  0.00000000000E+00  0.49240734530E+02  0.49257109508E+02  0.12700000000E+01 0. -1.
         -4   -1    0    0    0  501 -0.00000000000E+00 -0.00000000000E+00 -0.79297454521E+02  0.79307623805E+02  0.12700000000E+01 0. -1.
         25    2    1    2    0    0  0.00000000000E+00  0.00000000000E+00 -0.30056719991E+02  0.12856473331E+03  0.12500193693E+03 0.  0.
    9000005    1    3    3    0    0  0.30730536694E+02  0.54281879082E+02 -0.18942451975E+02  0.65197429159E+02  0.10000000000E+01 0.  0.
    9000005    1    3    3    0    0 -0.30730536694E+02 -0.54281879082E+02 -0.11114268016E+02  0.63367304153E+02  0.10000000000E+01 0.  0.
<mgrwt>
<rscale>  0 0.12500194E+03</rscale>
<asrwt>0</asrwt>
<pdfrwt beam="1">  1        4 0.75775395E-02 0.12500194E+03</pdfrwt>
<pdfrwt beam="2">  1       -4 0.12201650E-01 0.12500194E+03</pdfrwt>
<totfact> 0.10374856E+04</totfact>
</mgrwt>
</event>
<event>
 5    1  0.3232465E-002  0.1250001E+03  0.7818608E-02  0.1235069E+00
         -4   -1    0    0    0  501 -0.00000000000E+00  0.00000000000E+00  0.14922861399E+03  0.14923401802E+03  0.12700000000E+01 0.  1.
          4   -1    0    0  501    0  0.00000000000E+00 -0.00000000000E+00 -0.26155049797E+02  0.26185865078E+02  0.12700000000E+01 0.  1.
         25    2    1    2    0    0  0.00000000000E+00  0.00000000000E+00  0.12307356420E+03  0.17541988310E+03  0.12500013273E+03 0.  0.
    9000005    1    3    3    0    0  0.15943940801E+02  0.95987797606E+01  0.14525635359E+03  0.14644710335E+03  0.10000000000E+01 0.  0.
    9000005    1    3    3    0    0 -0.15943940801E+02 -0.95987797606E+01 -0.22182789393E+02  0.28972779750E+02  0.10000000000E+01 0.  0.
<mgrwt>
<rscale>  0 0.12500013E+03</rscale>
<asrwt>0</asrwt>
<pdfrwt beam="2">  1        4 0.40266399E-02 0.12500013E+03</pdfrwt>
<pdfrwt beam="1">  1       -4 0.22961035E-01 0.12500013E+03</pdfrwt>
<totfact> 0.94447714E+03</totfact>
</mgrwt>
</event>
<event>
 5    1  0.3232465E-002  0.1249997E+03  0.7818608E-02  0.1235070E+00
         -4   -1    0    0    0  501 -0.00000000000E+00  0.00000000000E+00  0.73050446353E+02  0.73061485150E+02  0.12700000000E+01 0. -1.
          4   -1    0    0  501    0  0.00000000000E+00 -0.00000000000E+00 -0.53450459664E+02  0.53465545338E+02  0.12700000000E+01 0. -1.
         25    2    1    2    0    0  0.00000000000E+00  0.00000000000E+00  0.19599986689E+02  0.12652703049E+03  0.12499971986E+03 0.  0.
    9000005    1    3    3    0    0  0.23344981440E+02  0.24287974134E+02  0.63077109155E+02  0.71516540362E+02  0.10000000000E+01 0.  0.
    9000005    1    3    3    0    0 -0.23344981440E+02 -0.24287974134E+02 -0.43477122466E+02  0.55010490126E+02  0.10000000000E+01 0.  0.
<mgrwt>
<rscale>  0 0.12499972E+03</rscale>
<asrwt>0</asrwt>
<pdfrwt beam="2">  1        4 0.82251572E-02 0.12499972E+03</pdfrwt>
<pdfrwt beam="1">  1       -4 0.11240540E-01 0.12499972E+03</pdfrwt>
<totfact> 0.10419505E+04</totfact>
</mgrwt>
</event>
<event>
 5    1  0.3232465E-002  0.1249984E+03  0.7818608E-02  0.1235072E+00
          4   -1    0    0  501    0  0.00000000000E+00  0.00000000000E+00  0.28274536437E+03  0.28274821657E+03  0.12700000000E+01 0. -1.
         -4   -1    0    0    0  501 -0.00000000000E+00 -0.00000000000E+00 -0.13782972052E+02  0.13841358986E+02  0.12700000000E+01 0. -1.
         25    2    1    2    0    0  0.00000000000E+00  0.00000000000E+00  0.26896239232E+03  0.29658957555E+03  0.12499843138E+03 0.  0.
    9000005    1    3    3    0    0  0.29384600416E+02  0.53549468368E+02  0.10316888489E+03  0.11989920397E+03  0.10000000000E+01 0.  0.
    9000005    1    3    3    0    0 -0.29384600416E+02 -0.53549468368E+02  0.16579350743E+03  0.17669037158E+03  0.10000000000E+01 0.  0.
<mgrwt>
<rscale>  0 0.12499843E+03</rscale>
<asrwt>0</asrwt>
<pdfrwt beam="1">  1        4 0.43504000E-01 0.12499843E+03</pdfrwt>
<pdfrwt beam="2">  1       -4 0.21251678E-02 0.12499843E+03</pdfrwt>
<totfact> 0.76031282E+03</totfact>
</mgrwt>
</event>
<event>
 5    1  0.3232465E-002  0.1249988E+03  0.7818608E-02  0.1235071E+00
         -4   -1    0    0    0  501 -0.00000000000E+00  0.00000000000E+00  0.11054667062E+03  0.11055396549E+03  0.12700000000E+01 0. -1.
          4   -1    0    0  501    0  0.00000000000E+00 -0.00000000000E+00 -0.35315175500E+02  0.35338003913E+02  0.12700000000E+01 0. -1.
         25    2    1    2    0    0  0.00000000000E+00  0.00000000000E+00  0.75231495117E+02  0.14589196940E+03  0.12499875550E+03 0.  0.
    9000005    1    3    3    0    0  0.43872467011E+01  0.68833641582E+01 -0.34696013066E+02  0.35657284788E+02  0.10000000000E+01 0.  0.
    9000005    1    3    3    0    0 -0.43872467011E+01 -0.68833641582E+01  0.10992750818E+03  0.11023468461E+03  0.10000000000E+01 0.  0.
<mgrwt>
<rscale>  0 0.12499876E+03</rscale>
<asrwt>0</asrwt>
<pdfrwt beam="2">  1        4 0.54354212E-02 0.12499876E+03</pdfrwt>
<pdfrwt beam="1">  1       -4 0.17009497E-01 0.12499876E+03</pdfrwt>
<totfact> 0.10013178E+04</totfact>
</mgrwt>
</event>
<event>
 5    1  0.3232465E-002  0.1249988E+03  0.7818608E-02  0.1235071E+00
         -4   -1    0    0    0  501 -0.00000000000E+00  0.00000000000E+00  0.51032473579E+02  0.51048273816E+02  0.12700000000E+01 0. -1.
          4   -1    0    0  501    0  0.00000000000E+00 -0.00000000000E+00 -0.76509985277E+02  0.76520525005E+02  0.12700000000E+01 0. -1.
         25    2    1    2    0    0  0.00000000000E+00  0.00000000000E+00 -0.25477511698E+02  0.12756879882E+03  0.12499877932E+03 0.  0.
    9000005    1    3    3    0    0 -0.46858471271E+02  0.40718561679E+02 -0.20059532898E+02  0.65246474656E+02  0.10000000000E+01 0.  0.
    9000005    1    3    3    0    0  0.46858471271E+02 -0.40718561679E+02 -0.54179787996E+01  0.62322324165E+02  0.10000000000E+01 0.  0.
<mgrwt>
<rscale>  0 0.12499878E+03</rscale>
<asrwt>0</asrwt>
<pdfrwt beam="2">  1        4 0.11772793E-01 0.12499878E+03</pdfrwt>
<pdfrwt beam="1">  1       -4 0.78531759E-02 0.12499878E+03</pdfrwt>
<totfact> 0.10397097E+04</totfact>
</mgrwt>
</event>
<event>
 5    1  0.3232465E-002  0.1250004E+03  0.7818608E-02  0.1235069E+00
          4   -1    0    0  501    0  0.00000000000E+00  0.00000000000E+00  0.98181569802E+01  0.98999548730E+01  0.12700000000E+01 0.  1.
         -4   -1    0    0    0  501 -0.00000000000E+00 -0.00000000000E+00 -0.39612907433E+03  0.39613111015E+03  0.12700000000E+01 0.  1.
         25    2    1    2    0    0  0.00000000000E+00  0.00000000000E+00 -0.38631091735E+03  0.40603106502E+03  0.12500040360E+03 0.  0.
    9000005    1    3    3    0    0 -0.49093238881E+02 -0.37372965758E+02 -0.22537538516E+03  0.23367059915E+03  0.10000000000E+01 0.  0.
    9000005    1    3    3    0    0  0.49093238881E+02  0.37372965758E+02 -0.16093553219E+03  0.17236046587E+03  0.10000000000E+01 0.  0.
<mgrwt>
<rscale>  0 0.12500040E+03</rscale>
<asrwt>0</asrwt>
<pdfrwt beam="1">  1        4 0.15169347E-02 0.12500040E+03</pdfrwt>
<pdfrwt beam="2">  1       -4 0.60949371E-01 0.12500040E+03</pdfrwt>
<totfact> 0.63969847E+03</totfact>
</mgrwt>
</event>
<event>
 5    1  0.3232465E-002  0.1250006E+03  0.7818608E-02  0.1235068E+00
          4   -1    0    0  501    0  0.00000000000E+00  0.00000000000E+00  0.19297109272E+03  0.19297527180E+03  0.12700000000E+01 0. -1.
         -4   -1    0    0    0  501 -0.00000000000E+00 -0.00000000000E+00 -0.20218555176E+02  0.20258402539E+02  0.12700000000E+01 0. -1.
         25    2    1    2    0    0  0.00000000000E+00  0.00000000000E+00  0.17275253755E+03  0.21323367434E+03  0.12500064257E+03 0.  0.
    9000005    1    3    3    0    0 -0.38796025048E+02  0.42134472422E+02  0.43735047256E+02  0.72070796335E+02  0.10000000000E+01 0.  0.
    9000005    1    3    3    0    0  0.38796025048E+02 -0.42134472422E+02  0.12901749029E+03  0.14116287800E+03  0.10000000000E+01 0.  0.
<mgrwt>
<rscale>  0 0.12500064E+03</rscale>
<asrwt>0</asrwt>
<pdfrwt beam="1">  1        4 0.29691247E-01 0.12500064E+03</pdfrwt>
<pdfrwt beam="2">  1       -4 0.31139336E-02 0.12500064E+03</pdfrwt>
<totfact> 0.87949224E+03</totfact>
</mgrwt>
</event>
<event>
 5    1  0.3232465E-002  0.1249993E+03  0.7818608E-02  0.1235070E+00
          4   -1    0    0  501    0  0.00000000000E+00  0.00000000000E+00  0.22939180042E+03  0.22939531600E+03  0.12700000000E+01 0.  1.
         -4   -1    0    0    0  501 -0.00000000000E+00 -0.00000000000E+00 -0.17001190740E+02  0.17048559663E+02  0.12700000000E+01 0.  1.
         25    2    1    2    0    0  0.00000000000E+00  0.00000000000E+00  0.21239060968E+03  0.24644387566E+03  0.12499925107E+03 0.  0.
    9000005    1    3    3    0    0  0.23860195158E+02 -0.51294209338E+02  0.53854178528E+02  0.78113234279E+02  0.10000000000E+01 0.  0.
    9000005    1    3    3    0    0 -0.23860195158E+02  0.51294209338E+02  0.15853643115E+03  0.16833064138E+03  0.10000000000E+01 0.  0.
<mgrwt>
<rscale>  0 0.12499925E+03</rscale>
<asrwt>0</asrwt>
<pdfrwt beam="1">  1        4 0.35294957E-01 0.12499925E+03</pdfrwt>
<pdfrwt beam="2">  1       -4 0.26194823E-02 0.12499925E+03</pdfrwt>
<totfact> 0.82848315E+03</totfact>
</mgrwt>
</event>
<event>
 5    1  0.3232465E-002  0.1250062E+03  0.7818608E-02  0.1235060E+00
          4   -1    0    0  501    0  0.00000000000E+00  0.00000000000E+00  0.13782387422E+02  0.13840776823E+02  0.12700000000E+01 0.  1.
         -4   -1    0    0    0  501 -0.00000000000E+00 -0.00000000000E+00 -0.28279260063E+03  0.28279545235E+03  0.12700000000E+01 0.  1.
         25    2    1    2    0    0  0.00000000000E+00  0.00000000000E+00 -0.26901021321E+03  0.29663622917E+03  0.12500623044E+03 0.  0.
    9000005    1    3    3    0    0 -0.37860330811E+02 -0.48262392054E+02 -0.16287936527E+03  0.17404985139E+03  0.10000000000E+01 0.  0.
    9000005    1    3    3    0    0  0.37860330811E+02  0.48262392054E+02 -0.10613084793E+03  0.12258637779E+03  0.10000000000E+01 0.  0.
<mgrwt>
<rscale>  0 0.12500623E+03</rscale>
<asrwt>0</asrwt>
<pdfrwt beam="1">  1        4 0.21250784E-02 0.12500623E+03</pdfrwt>
<pdfrwt beam="2">  1       -4 0.43511260E-01 0.12500623E+03</pdfrwt>
<totfact> 0.76012216E+03</totfact>
</mgrwt>
</event>
<event>
 5    1  0.3232465E-002  0.1250021E+03  0.7818608E-02  0.1235066E+00
         -4   -1    0    0    0  501 -0.00000000000E+00  0.00000000000E+00  0.57026675836E+03  0.57026817252E+03  0.12700000000E+01 0. -1.
          4   -1    0    0  501    0  0.00000000000E+00 -0.00000000000E+00 -0.67897934356E+01  0.69075462284E+01  0.12700000000E+01 0. -1.
         25    2    1    2    0    0  0.00000000000E+00  0.00000000000E+00  0.56347696492E+03  0.57717571875E+03  0.12500208124E+03 0.  0.
    9000005    1    3    3    0    0 -0.26266933458E+02  0.45847966363E+02  0.43580735644E+03  0.43900004526E+03  0.10000000000E+01 0.  0.
    9000005    1    3    3    0    0  0.26266933458E+02 -0.45847966363E+02  0.12766960848E+03  0.13817567348E+03  0.10000000000E+01 0.  0.
<mgrwt>
<rscale>  0 0.12500208E+03</rscale>
<asrwt>0</asrwt>
<pdfrwt beam="2">  1        4 0.10537503E-02 0.12500208E+03</pdfrwt>
<pdfrwt beam="1">  1       -4 0.87742515E-01 0.12500208E+03</pdfrwt>
<totfact> 0.50338485E+03</totfact>
</mgrwt>
</event>
<event>
 5    1  0.3232465E-002  0.1250006E+03  0.7818608E-02  0.1235068E+00
         -4   -1    0    0    0  501 -0.00000000000E+00  0.00000000000E+00  0.99871730289E+01  0.10067597782E+02  0.12700000000E+01 0. -1.
          4   -1    0    0  501    0  0.00000000000E+00 -0.00000000000E+00 -0.38948028618E+03  0.38948235675E+03  0.12700000000E+01 0. -1.
         25    2    1    2    0    0  0.00000000000E+00  0.00000000000E+00 -0.37949311315E+03  0.39954995454E+03  0.12500057296E+03 0.  0.
    9000005    1    3    3    0    0 -0.10316701203E+02  0.57737139615E+02 -0.25869326945E+03  0.26526066288E+03  0.10000000000E+01 0.  0.
    9000005    1    3    3    0    0  0.10316701203E+02 -0.57737139615E+02 -0.12079984370E+03  0.13428929166E+03  0.10000000000E+01 0.  0.
<mgrwt>
<rscale>  0 0.12500057E+03</rscale>
<asrwt>0</asrwt>
<pdfrwt beam="2">  1        4 0.59926378E-01 0.12500057E+03</pdfrwt>
<pdfrwt beam="1">  1       -4 0.15428343E-02 0.12500057E+03</pdfrwt>
<totfact> 0.64595772E+03</totfact>
</mgrwt>
</event>
<event>
 5    1  0.3232465E-002  0.1250017E+03  0.7818608E-02  0.1235067E+00
          4   -1    0    0  501    0  0.00000000000E+00  0.00000000000E+00  0.11532148510E+03  0.11532847795E+03  0.12700000000E+01 0.  1.
         -4   -1    0    0    0  501 -0.00000000000E+00 -0.00000000000E+00 -0.33853697038E+02  0.33877510285E+02  0.12700000000E+01 0.  1.
         25    2    1    2    0    0  0.00000000000E+00  0.00000000000E+00  0.81467788064E+02  0.14920598823E+03  0.12500170572E+03 0.  0.
    9000005    1    3    3    0    0  0.17092136280E+02  0.25250214438E+02  0.10584583858E+03  0.11015469122E+03  0.10000000000E+01 0.  0.
    9000005    1    3    3    0    0 -0.17092136280E+02 -0.25250214438E+02 -0.24378050518E+02  0.39051297019E+02  0.10000000000E+01 0.  0.
<mgrwt>
<rscale>  0 0.12500171E+03</rscale>
<asrwt>0</asrwt>
<pdfrwt beam="1">  1        4 0.17744136E-01 0.12500171E+03</pdfrwt>
<pdfrwt beam="2">  1       -4 0.52106309E-02 0.12500171E+03</pdfrwt>
<totfact> 0.99458390E+03</totfact>
</mgrwt>
</event>
<event>
 5    1  0.3232465E-002  0.1250014E+03  0.7818608E-02  0.1235067E+00
         -4   -1    0    0    0  501 -0.00000000000E+00  0.00000000000E+00  0.49467333284E+02  0.49483633276E+02  0.12700000000E+01 0.  1.
          4   -1    0    0  501    0  0.00000000000E+00 -0.00000000000E+00 -0.78933653539E+02  0.78943869686E+02  0.12700000000E+01 0.  1.
         25    2    1    2    0    0  0.00000000000E+00  0.00000000000E+00 -0.29466320255E+02  0.12842750296E+03  0.12500143794E+03 0.  0.
    9000005    1    3    3    0    0  0.41799110312E+02 -0.15734623597E+02 -0.59641546131E+02  0.74517501485E+02  0.10000000000E+01 0.  0.
    9000005    1    3    3    0    0 -0.41799110312E+02  0.15734623597E+02  0.30175225876E+02  0.53910001477E+02  0.10000000000E+01 0.  0.
<mgrwt>
<rscale>  0 0.12500144E+03</rscale>
<asrwt>0</asrwt>
<pdfrwt beam="2">  1        4 0.12145679E-01 0.12500144E+03</pdfrwt>
<pdfrwt beam="1">  1       -4 0.76123987E-02 0.12500144E+03</pdfrwt>
<totfact> 0.10377929E+04</totfact>
</mgrwt>
</event>
<event>
 5    1  0.3232465E-002  0.1249977E+03  0.7818608E-02  0.1235073E+00
         -4   -1    0    0    0  501 -0.00000000000E+00  0.00000000000E+00  0.13083106177E+03  0.13083722568E+03  0.12700000000E+01 0.  1.
          4   -1    0    0  501    0  0.00000000000E+00 -0.00000000000E+00 -0.29835742707E+02  0.29862760135E+02  0.12700000000E+01 0.  1.
         25    2    1    2    0    0  0.00000000000E+00  0.00000000000E+00  0.10099531906E+03  0.16069998582E+03  0.12499772385E+03 0.  0.
    9000005    1    3    3    0    0 -0.13121437288E+02 -0.21303397229E+02  0.12411686454E+03  0.12661754583E+03  0.10000000000E+01 0.  0.
    9000005    1    3    3    0    0  0.13121437288E+02  0.21303397229E+02 -0.23121545476E+02  0.34082439983E+02  0.10000000000E+01 0.  0.
<mgrwt>
<rscale>  0 0.12499772E+03</rscale>
<asrwt>0</asrwt>
<pdfrwt beam="2">  1        4 0.45926668E-02 0.12499772E+03</pdfrwt>
<pdfrwt beam="1">  1       -4 0.20130408E-01 0.12499772E+03</pdfrwt>
<totfact> 0.97212976E+03</totfact>
</mgrwt>
</event>
<event>
 5    1  0.3232465E-002  0.1250041E+03  0.7818608E-02  0.1235063E+00
         -4   -1    0    0    0  501 -0.00000000000E+00  0.00000000000E+00  0.85454164852E+03  0.85454259224E+03  0.12700000000E+01 0.  1.
          4   -1    0    0  501    0  0.00000000000E+00 -0.00000000000E+00 -0.44822930982E+01  0.46587392521E+01  0.12700000000E+01 0.  1.
         25    2    1    2    0    0  0.00000000000E+00  0.00000000000E+00  0.85005935542E+03  0.85920133149E+03  0.12500408114E+03 0.  0.
    9000005    1    3    3    0    0  0.10928826536E+02 -0.37200239564E+02  0.88149037348E+02  0.96304464375E+02  0.10000000000E+01 0.  0.
    9000005    1    3    3    0    0 -0.10928826536E+02  0.37200239564E+02  0.76191031807E+03  0.76289686712E+03  0.10000000000E+01 0.  0.
<mgrwt>
<rscale>  0 0.12500408E+03</rscale>
<asrwt>0</asrwt>
<pdfrwt beam="2">  1        4 0.70322943E-03 0.12500408E+03</pdfrwt>
<pdfrwt beam="1">  1       -4 0.13148150E+00 0.12500408E+03</pdfrwt>
<totfact> 0.35750565E+03</totfact>
</mgrwt>
</event>
<event>
 5    1  0.3232465E-002  0.1249999E+03  0.7818608E-02  0.1235069E+00
         -4   -1    0    0    0  501 -0.00000000000E+00  0.00000000000E+00  0.23112728951E+02  0.23147594682E+02  0.12700000000E+01 0.  1.
          4   -1    0    0  501    0  0.00000000000E+00 -0.00000000000E+00 -0.16884363766E+03  0.16884841390E+03  0.12700000000E+01 0.  1.
         25    2    1    2    0    0  0.00000000000E+00  0.00000000000E+00 -0.14573090871E+03  0.19199600858E+03  0.12499987824E+03 0.  0.
    9000005    1    3    3    0    0  0.60684266826E+02 -0.11889718070E+02 -0.59016428902E+02  0.85486165643E+02  0.10000000000E+01 0.  0.
    9000005    1    3    3    0    0 -0.60684266826E+02  0.11889718070E+02 -0.86714479803E+02  0.10650984294E+03  0.10000000000E+01 0.  0.
<mgrwt>
<rscale>  0 0.12499988E+03</rscale>
<asrwt>0</asrwt>
<pdfrwt beam="2">  1        4 0.25978993E-01 0.12499988E+03</pdfrwt>
<pdfrwt beam="1">  1       -4 0.35588540E-02 0.12499988E+03</pdfrwt>
<totfact> 0.91501421E+03</totfact>
</mgrwt>
</event>
<event>
 5    1  0.3232465E-002  0.1249842E+03  0.7818608E-02  0.1235094E+00
         -4   -1    0    0    0  501 -0.00000000000E+00  0.00000000000E+00  0.17771855181E+03  0.17772308954E+03  0.12700000000E+01 0.  1.
          4   -1    0    0  501    0  0.00000000000E+00 -0.00000000000E+00 -0.21951244967E+02  0.21987952511E+02  0.12700000000E+01 0.  1.
         25    2    1    2    0    0  0.00000000000E+00  0.00000000000E+00  0.15576730684E+03  0.19971104205E+03  0.12498418475E+03 0.  0.
    9000005    1    3    3    0    0  0.63460521047E+01  0.35036622598E+02 -0.41618283825E+01  0.35863046662E+02  0.10000000000E+01 0.  0.
    9000005    1    3    3    0    0 -0.63460521047E+01 -0.35036622598E+02  0.15992913522E+03  0.16384799539E+03  0.10000000000E+01 0.  0.
<mgrwt>
<rscale>  0 0.12498418E+03</rscale>
<asrwt>0</asrwt>
<pdfrwt beam="2">  1        4 0.33802873E-02 0.12498418E+03</pdfrwt>
<pdfrwt beam="1">  1       -4 0.27344488E-01 0.12498418E+03</pdfrwt>
<totfact> 0.90216188E+03</totfact>
</mgrwt>
</event>
<event>
 5    1  0.3232465E-002  0.1250018E+03  0.7818608E-02  0.1235066E+00
         -4   -1    0    0    0  501 -0.00000000000E+00  0.00000000000E+00  0.21112835922E+02  0.21150998574E+02  0.12700000000E+01 0.  1.
          4   -1    0    0  501    0  0.00000000000E+00 -0.00000000000E+00 -0.18481579499E+03  0.18482015847E+03  0.12700000000E+01 0.  1.
         25    2    1    2    0    0  0.00000000000E+00  0.00000000000E+00 -0.16370295907E+03  0.20597115705E+03  0.12500183490E+03 0.  0.
    9000005    1    3    3    0    0 -0.27313257513E+02  0.45816725758E+02 -0.28200275442E+02  0.60344361212E+02  0.10000000000E+01 0.  0.
    9000005    1    3    3    0    0  0.27313257513E+02 -0.45816725758E+02 -0.13550268362E+03  0.14562679583E+03  0.10000000000E+01 0.  0.
<mgrwt>
<rscale>  0 0.12500183E+03</rscale>
<asrwt>0</asrwt>
<pdfrwt beam="2">  1        4 0.28436469E-01 0.12500183E+03</pdfrwt>
<pdfrwt beam="1">  1       -4 0.32514000E-02 0.12500183E+03</pdfrwt>
<totfact> 0.89134442E+03</totfact>
</mgrwt>
</event>
<event>
 5    1  0.3232465E-002  0.1249975E+03  0.7818608E-02  0.1235073E+00
         -4   -1    0    0    0  501 -0.00000000000E+00  0.00000000000E+00  0.22310263602E+03  0.22310625070E+03  0.12700000000E+01 0.  1.
          4   -1    0    0  501    0  0.00000000000E+00 -0.00000000000E+00 -0.17481260763E+02  0.17527332309E+02  0.12700000000E+01 0.  1.
         25    2    1    2    0    0  0.00000000000E+00  0.00000000000E+00  0.20562137526E+03  0.24063358301E+03  0.12499748520E+03 0.  0.
    9000005    1    3    3    0    0 -0.52599969500E+02 -0.24813413986E+02  0.14682078674E+03  0.15792341728E+03  0.10000000000E+01 0.  0.
    9000005    1    3    3    0    0  0.52599969500E+02  0.24813413986E+02  0.58800588521E+02  0.82710165732E+02  0.10000000000E+01 0.  0.
<mgrwt>
<rscale>  0 0.12499749E+03</rscale>
<asrwt>0</asrwt>
<pdfrwt beam="2">  1        4 0.26932468E-02 0.12499749E+03</pdfrwt>
<pdfrwt beam="1">  1       -4 0.34327304E-01 0.12499749E+03</pdfrwt>
<totfact> 0.83707789E+03</totfact>
</mgrwt>
</event>
<event>
 5    1  0.3232465E-002  0.1249991E+03  0.7818608E-02  0.1235071E+00
          4   -1    0    0  501    0  0.00000000000E+00  0.00000000000E+00  0.54796621684E+03  0.54796768855E+03  0.12700000000E+01 0. -1.
         -4   -1    0    0    0  501 -0.00000000000E+00 -0.00000000000E+00 -0.70704695844E+01  0.71836230513E+01  0.12700000000E+01 0. -1.
         25    2    1    2    0    0  0.00000000000E+00  0.00000000000E+00  0.54089574726E+03  0.55515131161E+03  0.12499907750E+03 0.  0.
    9000005    1    3    3    0    0 -0.49600587237E+02  0.35875816432E+02  0.21464000078E+03  0.22320085661E+03  0.10000000000E+01 0.  0.
    9000005    1    3    3    0    0  0.49600587237E+02 -0.35875816432E+02  0.32625574648E+03  0.33195045499E+03  0.10000000000E+01 0.  0.
<mgrwt>
<rscale>  0 0.12499908E+03</rscale>
<asrwt>0</asrwt>
<pdfrwt beam="1">  1        4 0.84311288E-01 0.12499908E+03</pdfrwt>
<pdfrwt beam="2">  1       -4 0.10965822E-02 0.12499908E+03</pdfrwt>
<totfact> 0.51827816E+03</totfact>
</mgrwt>
</event>
<event>
 5    1  0.3232465E-002  0.1250038E+03  0.7818608E-02  0.1235063E+00
          4   -1    0    0  501    0  0.00000000000E+00  0.00000000000E+00  0.54037425133E+03  0.54037574372E+03  0.12700000000E+01 0.  1.
         -4   -1    0    0    0  501 -0.00000000000E+00 -0.00000000000E+00 -0.71719366125E+01  0.72835139029E+01  0.12700000000E+01 0.  1.
         25    2    1    2    0    0  0.00000000000E+00  0.00000000000E+00  0.53320231472E+03  0.54765925763E+03  0.12500381610E+03 0.  0.
    9000005    1    3    3    0    0 -0.46451837287E+01  0.13844341117E+02  0.38622166664E+00  0.14642154213E+02  0.10000000000E+01 0.  0.
    9000005    1    3    3    0    0  0.46451837287E+01 -0.13844341117E+02  0.53281609306E+03  0.53301710341E+03  0.10000000000E+01 0.  0.
<mgrwt>
<rscale>  0 0.12500382E+03</rscale>
<asrwt>0</asrwt>
<pdfrwt beam="1">  1        4 0.83143204E-01 0.12500382E+03</pdfrwt>
<pdfrwt beam="2">  1       -4 0.11120724E-02 0.12500382E+03</pdfrwt>
<totfact> 0.52343081E+03</totfact>
</mgrwt>
</event>
<event>
 5    1  0.3232465E-002  0.1250011E+03  0.7818608E-02  0.1235067E+00
         -4   -1    0    0    0  501 -0.00000000000E+00  0.00000000000E+00  0.45621408045E+03  0.45621584815E+03  0.12700000000E+01 0.  1.
          4   -1    0    0  501    0  0.00000000000E+00 -0.00000000000E+00 -0.85135883750E+01  0.86077922267E+01  0.12700000000E+01 0.  1.
         25    2    1    2    0    0  0.00000000000E+00  0.00000000000E+00  0.44770049207E+03  0.46482364037E+03  0.12500114418E+03 0.  0.
    9000005    1    3    3    0    0  0.53823935194E+01 -0.27062953605E+02  0.15347447160E+02  0.31589836216E+02  0.10000000000E+01 0.  0.
    9000005    1    3    3    0    0 -0.53823935194E+01  0.27062953605E+02  0.43235304491E+03  0.43323380416E+03  0.10000000000E+01 0.  0.
<mgrwt>
<rscale>  0 0.12500114E+03</rscale>
<asrwt>0</asrwt>
<pdfrwt beam="2">  1        4 0.13171649E-02 0.12500114E+03</pdfrwt>
<pdfrwt beam="1">  1       -4 0.70194183E-01 0.12500114E+03</pdfrwt>
<totfact> 0.58699304E+03</totfact>
</mgrwt>
</event>
<event>
 5    1  0.3232465E-002  0.1250023E+03  0.7818608E-02  0.1235066E+00
         -4   -1    0    0    0  501 -0.00000000000E+00  0.00000000000E+00  0.61936618638E+01  0.63225269697E+01  0.12700000000E+01 0. -1.
          4   -1    0    0  501    0  0.00000000000E+00 -0.00000000000E+00 -0.62408506443E+03  0.62408635664E+03  0.12700000000E+01 0. -1.
         25    2    1    2    0    0  0.00000000000E+00  0.00000000000E+00 -0.61789140257E+03  0.63040888361E+03  0.12500230066E+03 0.  0.
    9000005    1    3    3    0    0 -0.18638177488E+02  0.56937701823E+02 -0.39861083549E+03  0.40308917341E+03  0.10000000000E+01 0.  0.
    9000005    1    3    3    0    0  0.18638177488E+02 -0.56937701823E+02 -0.21928056708E+03  0.22731971020E+03  0.10000000000E+01 0.  0.
<mgrwt>
<rscale>  0 0.12500230E+03</rscale>
<asrwt>0</asrwt>
<pdfrwt beam="2">  1        4 0.96023049E-01 0.12500230E+03</pdfrwt>
<pdfrwt beam="1">  1       -4 0.96288365E-03 0.12500230E+03</pdfrwt>
<totfact> 0.47000352E+03</totfact>
</mgrwt>
</event>
<event>
 5    1  0.3232465E-002  0.1249992E+03  0.7818608E-02  0.1235071E+00
         -4   -1    0    0    0  501 -0.00000000000E+00  0.00000000000E+00  0.24587012597E+01  0.27673293777E+01  0.12700000000E+01 0.  1.
          4   -1    0    0  501    0  0.00000000000E+00 -0.00000000000E+00 -0.14945915289E+04  0.14945920685E+04  0.12700000000E+01 0.  1.
         25    2    1    2    0    0  0.00000000000E+00  0.00000000000E+00 -0.14921328276E+04  0.14973593979E+04  0.12499916411E+03 0.  0.
    9000005    1    3    3    0    0  0.60553970711E+02 -0.11780837539E+02 -0.86563190334E+03  0.86782784213E+03  0.10000000000E+01 0.  0.
    9000005    1    3    3    0    0 -0.60553970711E+02  0.11780837539E+02 -0.62650092431E+03  0.62953155573E+03  0.10000000000E+01 0.  0.
<mgrwt>
<rscale>  0 0.12499916E+03</rscale>
<asrwt>0</asrwt>
<pdfrwt beam="2">  1        4 0.22996026E+00 0.12499916E+03</pdfrwt>
<pdfrwt beam="1">  1       -4 0.40204506E-03 0.12499916E+03</pdfrwt>
<totfact> 0.17982835E+03</totfact>
</mgrwt>
</event>
<event>
 5    1  0.3232465E-002  0.1250012E+03  0.7818608E-02  0.1235067E+00
          4   -1    0    0  501    0  0.00000000000E+00  0.00000000000E+00  0.78455094948E+02  0.78465373404E+02  0.12700000000E+01 0. -1.
         -4   -1    0    0    0  501 -0.00000000000E+00 -0.00000000000E+00 -0.49768943564E+02  0.49785144807E+02  0.12700000000E+01 0. -1.
         25    2    1    2    0    0  0.00000000000E+00  0.00000000000E+00  0.28686151385E+02  0.12825051821E+03  0.12500120055E+03 0.  0.
    9000005    1    3    3    0    0 -0.61413194531E+01 -0.57827274466E+02  0.37820541440E+02  0.69376529400E+02  0.10000000000E+01 0.  0.
    9000005    1    3    3    0    0  0.61413194531E+01  0.57827274466E+02 -0.91343900549E+01  0.58873988810E+02  0.10000000000E+01 0.  0.
<mgrwt>
<rscale>  0 0.12500120E+03</rscale>
<asrwt>0</asrwt>
<pdfrwt beam="1">  1        4 0.12072051E-01 0.12500120E+03</pdfrwt>
<pdfrwt beam="2">  1       -4 0.76587975E-02 0.12500120E+03</pdfrwt>
<totfact> 0.10381800E+04</totfact>
</mgrwt>
</event>
<event>
 5    1  0.3232465E-002  0.1249955E+03  0.7818608E-02  0.1235076E+00
         -4   -1    0    0    0  501 -0.00000000000E+00  0.00000000000E+00  0.26772804816E+02  0.26802909874E+02  0.12700000000E+01 0. -1.
          4   -1    0    0  501    0  0.00000000000E+00 -0.00000000000E+00 -0.14577828989E+03  0.14578382181E+03  0.12700000000E+01 0. -1.
         25    2    1    2    0    0  0.00000000000E+00  0.00000000000E+00 -0.11900548507E+03  0.17258673169E+03  0.12499549783E+03 0.  0.
    9000005    1    3    3    0    0  0.79573645306E+01 -0.51985281832E+02 -0.10610523055E+03  0.11842765355E+03  0.10000000000E+01 0.  0.
    9000005    1    3    3    0    0 -0.79573645306E+01  0.51985281832E+02 -0.12900254526E+02  0.54159078133E+02  0.10000000000E+01 0.  0.
<mgrwt>
<rscale>  0 0.12499550E+03</rscale>
<asrwt>0</asrwt>
<pdfrwt beam="2">  1        4 0.22430170E-01 0.12499550E+03</pdfrwt>
<pdfrwt beam="1">  1       -4 0.41216345E-02 0.12499550E+03</pdfrwt>
<totfact> 0.94978287E+03</totfact>
</mgrwt>
</event>
<event>
 5    1  0.3232465E-002  0.1250043E+03  0.7818608E-02  0.1235063E+00
         -4   -1    0    0    0  501 -0.00000000000E+00  0.00000000000E+00  0.13349782040E+02  0.13410055202E+02  0.12700000000E+01 0.  1.
          4   -1    0    0  501    0  0.00000000000E+00 -0.00000000000E+00 -0.29190729098E+03  0.29191005366E+03  0.12700000000E+01 0.  1.
         25    2    1    2    0    0  0.00000000000E+00  0.00000000000E+00 -0.27855750894E+03  0.30532010886E+03  0.12500433228E+03 0.  0.
    9000005    1    3    3    0    0 -0.54086881588E+00  0.47153744573E+02 -0.23944269427E+03  0.24404420093E+03  0.10000000000E+01 0.  0.
    9000005    1    3    3    0    0  0.54086881588E+00 -0.47153744573E+02 -0.39114814665E+02  0.61275907930E+02  0.10000000000E+01 0.  0.
<mgrwt>
<rscale>  0 0.12500433E+03</rscale>
<asrwt>0</asrwt>
<pdfrwt beam="2">  1        4 0.44913658E-01 0.12500433E+03</pdfrwt>
<pdfrwt beam="1">  1       -4 0.20586617E-02 0.12500433E+03</pdfrwt>
<totfact> 0.74929101E+03</totfact>
</mgrwt>
</event>
<event>
 5    1  0.3232465E-002  0.1250010E+03  0.7818608E-02  0.1235068E+00
         -4   -1    0    0    0  501 -0.00000000000E+00  0.00000000000E+00  0.33001259912E+02  0.33025687817E+02  0.12700000000E+01 0.  1.
          4   -1    0    0  501    0  0.00000000000E+00 -0.00000000000E+00 -0.11829699180E+03  0.11830380876E+03  0.12700000000E+01 0.  1.
         25    2    1    2    0    0  0.00000000000E+00  0.00000000000E+00 -0.85295731885E+02  0.15132949658E+03  0.12500101863E+03 0.  0.
    9000005    1    3    3    0    0 -0.17977696830E+02 -0.58026404940E+02 -0.24894439173E+02  0.65658162899E+02  0.10000000000E+01 0.  0.
    9000005    1    3    3    0    0  0.17977696830E+02  0.58026404940E+02 -0.60401292712E+02  0.85671333682E+02  0.10000000000E+01 0.  0.
<mgrwt>
<rscale>  0 0.12500102E+03</rscale>
<asrwt>0</asrwt>
<pdfrwt beam="2">  1        4 0.18201940E-01 0.12500102E+03</pdfrwt>
<pdfrwt beam="1">  1       -4 0.50795204E-02 0.12500102E+03</pdfrwt>
<totfact> 0.99037070E+03</totfact>
</mgrwt>
</event>
<event>
 5    1  0.3232465E-002  0.1249978E+03  0.7818608E-02  0.1235073E+00
          4   -1    0    0  501    0  0.00000000000E+00  0.00000000000E+00  0.54182678867E+01  0.55651169702E+01  0.12700000000E+01 0. -1.
         -4   -1    0    0    0  501 -0.00000000000E+00 -0.00000000000E+00 -0.71112895071E+03  0.71113008475E+03  0.12700000000E+01 0. -1.
         25    2    1    2    0    0  0.00000000000E+00  0.00000000000E+00 -0.70571068282E+03  0.71669520172E+03  0.12499777726E+03 0.  0.
    9000005    1    3    3    0    0  0.22048753827E+02  0.57241130674E+02 -0.42127995460E+03  0.42572349563E+03  0.10000000000E+01 0.  0.
    9000005    1    3    3    0    0 -0.22048753827E+02 -0.57241130674E+02 -0.28443072822E+03  0.29097170608E+03  0.10000000000E+01 0.  0.
<mgrwt>
<rscale>  0 0.12499778E+03</rscale>
<asrwt>0</asrwt>
<pdfrwt beam="1">  1        4 0.84496355E-03 0.12499778E+03</pdfrwt>
<pdfrwt beam="2">  1       -4 0.10941576E+00 0.12499778E+03</pdfrwt>
<totfact> 0.42221981E+03</totfact>
</mgrwt>
</event>
<event>
 5    1  0.3232465E-002  0.1249840E+03  0.7818608E-02  0.1235094E+00
          4   -1    0    0  501    0  0.00000000000E+00  0.00000000000E+00  0.60801093173E+01  0.62113307198E+01  0.12700000000E+01 0. -1.
         -4   -1    0    0    0  501 -0.00000000000E+00 -0.00000000000E+00 -0.63531038657E+03  0.63531165595E+03  0.12700000000E+01 0. -1.
         25    2    1    2    0    0  0.00000000000E+00  0.00000000000E+00 -0.62923027726E+03  0.64152298667E+03  0.12498400142E+03 0.  0.
    9000005    1    3    3    0    0 -0.52432521136E+02 -0.25652380947E+02 -0.20018199681E+03  0.20852109191E+03  0.10000000000E+01 0.  0.
    9000005    1    3    3    0    0  0.52432521136E+02  0.25652380947E+02 -0.42904828044E+03  0.43300189477E+03  0.10000000000E+01 0.  0.
<mgrwt>
<rscale>  0 0.12498400E+03</rscale>
<asrwt>0</asrwt>
<pdfrwt beam="1">  1        4 0.94559353E-03 0.12498400E+03</pdfrwt>
<pdfrwt beam="2">  1       -4 0.97750199E-01 0.12498400E+03</pdfrwt>
<totfact> 0.46363439E+03</totfact>
</mgrwt>
</event>
<event>
 5    1  0.3232465E-002  0.1249914E+03  0.7818608E-02  0.1235083E+00
          4   -1    0    0  501    0  0.00000000000E+00  0.00000000000E+00  0.53614458298E+02  0.53629497840E+02  0.12700000000E+01 0.  1.
         -4   -1    0    0    0  501 -0.00000000000E+00 -0.00000000000E+00 -0.72817318220E+02  0.72828392353E+02  0.12700000000E+01 0.  1.
         25    2    1    2    0    0  0.00000000000E+00  0.00000000000E+00 -0.19202859923E+02  0.12645789019E+03  0.12499139236E+03 0.  0.
    9000005    1    3    3    0    0 -0.18640692328E+02  0.45294019191E+02 -0.48859901420E+02  0.69190415172E+02  0.10000000000E+01 0.  0.
    9000005    1    3    3    0    0  0.18640692328E+02 -0.45294019191E+02  0.29657041497E+02  0.57267475021E+02  0.10000000000E+01 0.  0.
<mgrwt>
<rscale>  0 0.12499139E+03</rscale>
<asrwt>0</asrwt>
<pdfrwt beam="1">  1        4 0.82503869E-02 0.12499139E+03</pdfrwt>
<pdfrwt beam="2">  1       -4 0.11204673E-01 0.12499139E+03</pdfrwt>
<totfact> 0.10422971E+04</totfact>
</mgrwt>
</event>
<event>
 5    1  0.3232465E-002  0.1250001E+03  0.7818608E-02  0.1235069E+00
          4   -1    0    0  501    0  0.00000000000E+00  0.00000000000E+00  0.13010499189E+02  0.13072336790E+02  0.12700000000E+01 0. -1.
         -4   -1    0    0    0  501 -0.00000000000E+00 -0.00000000000E+00 -0.29946384265E+03  0.29946653562E+03  0.12700000000E+01 0. -1.
         25    2    1    2    0    0  0.00000000000E+00  0.00000000000E+00 -0.28645334346E+03  0.31253887241E+03  0.12500011514E+03 0.  0.
    9000005    1    3    3    0    0  0.56347794437E+02 -0.14314057322E+02 -0.85921526599E+02  0.10374716819E+03  0.10000000000E+01 0.  0.
    9000005    1    3    3    0    0 -0.56347794437E+02  0.14314057322E+02 -0.20053181686E+03  0.20879170421E+03  0.10000000000E+01 0.  0.
<mgrwt>
<rscale>  0 0.12500012E+03</rscale>
<asrwt>0</asrwt>
<pdfrwt beam="1">  1        4 0.20065794E-02 0.12500012E+03</pdfrwt>
<pdfrwt beam="2">  1       -4 0.46076319E-01 0.12500012E+03</pdfrwt>
<totfact> 0.74052217E+03</totfact>
</mgrwt>
</event>
<event>
 5    1  0.3232465E-002  0.1249971E+03  0.7818608E-02  0.1235074E+00
         -4   -1    0    0    0  501 -0.00000000000E+00  0.00000000000E+00  0.22083970535E+04  0.22083974187E+04  0.12700000000E+01 0. -1.
          4   -1    0    0  501    0  0.00000000000E+00 -0.00000000000E+00 -0.15403485397E+01  0.19963901482E+01  0.12700000000E+01 0. -1.
         25    2    1    2    0    0  0.00000000000E+00  0.00000000000E+00  0.22068567049E+04  0.22103938088E+04  0.12499709538E+03 0.  0.
    9000005    1    3    3    0    0  0.32866236964E+02 -0.52711670397E+02  0.98302584764E+03  0.98498706939E+03  0.10000000000E+01 0.  0.
    9000005    1    3    3    0    0 -0.32866236964E+02  0.52711670397E+02  0.12238308573E+04  0.12254067394E+04  0.10000000000E+01 0.  0.
<mgrwt>
<rscale>  0 0.12499710E+03</rscale>
<asrwt>0</asrwt>
<pdfrwt beam="2">  1        4 0.27208534E-03 0.12499710E+03</pdfrwt>
<pdfrwt beam="1">  1       -4 0.33978797E+00 0.12499710E+03</pdfrwt>
<totfact> 0.73595773E+02</totfact>
</mgrwt>
</event>
<event>
 5    1  0.3232465E-002  0.1249997E+03  0.7818608E-02  0.1235070E+00
         -4   -1    0    0    0  501 -0.00000000000E+00  0.00000000000E+00  0.14622631975E+02  0.14677679172E+02  0.12700000000E+01 0.  1.
          4   -1    0    0  501    0  0.00000000000E+00 -0.00000000000E+00 -0.26657757387E+03  0.26658059905E+03  0.12700000000E+01 0.  1.
         25    2    1    2    0    0  0.00000000000E+00  0.00000000000E+00 -0.25195494190E+03  0.28125827823E+03  0.12499970530E+03 0.  0.
    9000005    1    3    3    0    0  0.16578907029E+02  0.42624330378E+02 -0.30156704432E+02  0.54791609948E+02  0.10000000000E+01 0.  0.
    9000005    1    3    3    0    0 -0.16578907029E+02 -0.42624330378E+02 -0.22179823747E+03  0.22646666828E+03  0.10000000000E+01 0.  0.
<mgrwt>
<rscale>  0 0.12499971E+03</rscale>
<asrwt>0</asrwt>
<pdfrwt beam="2">  1        4 0.41016398E-01 0.12499971E+03</pdfrwt>
<pdfrwt beam="1">  1       -4 0.22541030E-02 0.12499971E+03</pdfrwt>
<totfact> 0.78012075E+03</totfact>
</mgrwt>
</event>
<event>
 5    1  0.3232465E-002  0.1249983E+03  0.7818608E-02  0.1235072E+00
         -4   -1    0    0    0  501 -0.00000000000E+00  0.00000000000E+00  0.49916829259E+02  0.49932982520E+02  0.12700000000E+01 0.  1.
          4   -1    0    0  501    0  0.00000000000E+00 -0.00000000000E+00 -0.78219050152E+02  0.78229359621E+02  0.12700000000E+01 0.  1.
         25    2    1    2    0    0  0.00000000000E+00  0.00000000000E+00 -0.28302220893E+02  0.12816234214E+03  0.12499828093E+03 0.  0.
    9000005    1    3    3    0    0 -0.50270541689E+02  0.19083438471E+02  0.18495687122E+02  0.56871745425E+02  0.10000000000E+01 0.  0.
    9000005    1    3    3    0    0  0.50270541689E+02 -0.19083438471E+02 -0.46797908015E+02  0.71290596716E+02  0.10000000000E+01 0.  0.
<mgrwt>
<rscale>  0 0.12499828E+03</rscale>
<asrwt>0</asrwt>
<pdfrwt beam="2">  1        4 0.12035736E-01 0.12499828E+03</pdfrwt>
<pdfrwt beam="1">  1       -4 0.76815478E-02 0.12499828E+03</pdfrwt>
<totfact> 0.10384386E+04</totfact>
</mgrwt>
</event>
<event>
 5    1  0.3232465E-002  0.1250004E+03  0.7818608E-02  0.1235069E+00
          4   -1    0    0  501    0  0.00000000000E+00  0.00000000000E+00  0.26309263551E+02  0.26339898416E+02  0.12700000000E+01 0.  1.
         -4   -1    0    0    0  501 -0.00000000000E+00 -0.00000000000E+00 -0.14835550147E+03  0.14836093730E+03  0.12700000000E+01 0.  1.
         25    2    1    2    0    0  0.00000000000E+00  0.00000000000E+00 -0.12204623792E+03  0.17470083572E+03  0.12500039124E+03 0.  0.
    9000005    1    3    3    0    0  0.61250107781E+02  0.48401521085E+01 -0.45071358779E+02  0.76206496822E+02  0.10000000000E+01 0.  0.
    9000005    1    3    3    0    0 -0.61250107781E+02 -0.48401521085E+01 -0.76974879140E+02  0.98494338895E+02  0.10000000000E+01 0.  0.
<mgrwt>
<rscale>  0 0.12500039E+03</rscale>
<asrwt>0</asrwt>
<pdfrwt beam="1">  1        4 0.40503537E-02 0.12500039E+03</pdfrwt>
<pdfrwt beam="2">  1       -4 0.22826698E-01 0.12500039E+03</pdfrwt>
<totfact> 0.94578830E+03</totfact>
</mgrwt>
</event>
<event>
 5    1  0.3232465E-002  0.1250046E+03  0.7818608E-02  0.1235062E+00
         -4   -1    0    0    0  501 -0.00000000000E+00  0.00000000000E+00  0.42063668465E+02  0.42082836225E+02  0.12700000000E+01 0. -1.
          4   -1    0    0  501    0  0.00000000000E+00 -0.00000000000E+00 -0.92827330502E+02  0.92836017731E+02  0.12700000000E+01 0. -1.
         25    2    1    2    0    0  0.00000000000E+00  0.00000000000E+00 -0.50763662037E+02  0.13491885396E+03  0.12500459099E+03 0.  0.
    9000005    1    3    3    0    0 -0.42636027901E+02  0.28575785124E+02 -0.63862424548E+02  0.81937876710E+02  0.10000000000E+01 0.  0.
    9000005    1    3    3    0    0  0.42636027901E+02 -0.28575785124E+02  0.13098762511E+02  0.52980977246E+02  0.10000000000E+01 0.  0.
<mgrwt>
<rscale>  0 0.12500459E+03</rscale>
<asrwt>0</asrwt>
<pdfrwt beam="2">  1        4 0.14283270E-01 0.12500459E+03</pdfrwt>
<pdfrwt beam="1">  1       -4 0.64734763E-02 0.12500459E+03</pdfrwt>
<totfact> 0.10238721E+04</totfact>
</mgrwt>
</event>
<event>
 5    1  0.3232465E-002  0.1249997E+03  0.7818608E-02  0.1235070E+00
          4   -1    0    0  501    0  0.00000000000E+00  0.00000000000E+00  0.93032802855E+02  0.93041470899E+02  0.12700000000E+01 0.  1.
         -4   -1    0    0    0  501 -0.00000000000E+00 -0.00000000000E+00 -0.41967454202E+02  0.41986665885E+02  0.12700000000E+01 0.  1.
         25    2    1    2    0    0  0.00000000000E+00  0.00000000000E+00  0.51065348653E+02  0.13502813678E+03  0.12499971156E+03 0.  0.
    9000005    1    3    3    0    0  0.95511778765E+01 -0.61385708651E+02  0.32843329275E+02  0.70278833964E+02  0.10000000000E+01 0.  0.
    9000005    1    3    3    0    0 -0.95511778765E+01  0.61385708651E+02  0.18222019379E+02  0.64749302820E+02  0.10000000000E+01 0.  0.
<mgrwt>
<rscale>  0 0.12499971E+03</rscale>
<asrwt>0</asrwt>
<pdfrwt beam="1">  1        4 0.14314883E-01 0.12499971E+03</pdfrwt>
<pdfrwt beam="2">  1       -4 0.64586761E-02 0.12499971E+03</pdfrwt>
<totfact> 0.10237544E+04</totfact>
</mgrwt>
</event>
<event>
 5    1  0.3232465E-002  0.1249999E+03  0.7818608E-02  0.1235069E+00
         -4   -1    0    0    0  501 -0.00000000000E+00  0.00000000000E+00  0.13033911836E+02  0.13095638882E+02  0.12700000000E+01 0. -1.
          4   -1    0    0  501    0  0.00000000000E+00 -0.00000000000E+00 -0.29892733523E+03  0.29893003303E+03  0.12700000000E+01 0. -1.
         25    2    1    2    0    0  0.00000000000E+00  0.00000000000E+00 -0.28589342339E+03  0.31202567191E+03  0.12499988157E+03 0.  0.
    9000005    1    3    3    0    0 -0.97967836212E+01  0.58343389143E+02 -0.92691994364E+02  0.10996696706E+03  0.10000000000E+01 0.  0.
    9000005    1    3    3    0    0  0.97967836212E+01 -0.58343389143E+02 -0.19320142903E+03  0.20205870485E+03  0.10000000000E+01 0.  0.
<mgrwt>
<rscale>  0 0.12499988E+03</rscale>
<asrwt>0</asrwt>
<pdfrwt beam="2">  1        4 0.45993771E-01 0.12499988E+03</pdfrwt>
<pdfrwt beam="1">  1       -4 0.20101732E-02 0.12499988E+03</pdfrwt>
<totfact> 0.74114900E+03</totfact>
</mgrwt>
</event>
<event>
 5    1  0.3232465E-002  0.1250038E+03  0.7818608E-02  0.1235063E+00
          4   -1    0    0  501    0  0.00000000000E+00  0.00000000000E+00  0.12022141178E+03  0.12022811963E+03  0.12700000000E+01 0.  1.
         -4   -1    0    0    0  501 -0.00000000000E+00 -0.00000000000E+00 -0.32474067505E+02  0.32498891678E+02  0.12700000000E+01 0.  1.
         25    2    1    2    0    0  0.00000000000E+00  0.00000000000E+00  0.87747344272E+02  0.15272701131E+03  0.12500377417E+03 0.  0.
    9000005    1    3    3    0    0 -0.37416319484E+02 -0.46436256514E+02  0.66704244000E+02  0.89480517714E+02  0.10000000000E+01 0.  0.
    9000005    1    3    3    0    0  0.37416319484E+02  0.46436256514E+02  0.21043100272E+02  0.63246493593E+02  0.10000000000E+01 0.  0.
<mgrwt>
<rscale>  0 0.12500377E+03</rscale>
<asrwt>0</asrwt>
<pdfrwt beam="1">  1        4 0.18498028E-01 0.12500377E+03</pdfrwt>
<pdfrwt beam="2">  1       -4 0.49984358E-02 0.12500377E+03</pdfrwt>
<totfact> 0.98754474E+03</totfact>
</mgrwt>
</event>
<event>
 5    1  0.3232465E-002  0.1250042E+03  0.7818608E-02  0.1235063E+00
          4   -1    0    0  501    0  0.00000000000E+00  0.00000000000E+00  0.10534853747E+02  0.10611128285E+02  0.12700000000E+01 0.  1.
         -4   -1    0    0    0  501 -0.00000000000E+00 -0.00000000000E+00 -0.36940295391E+03  0.36940513702E+03  0.12700000000E+01 0.  1.
         25    2    1    2    0    0  0.00000000000E+00  0.00000000000E+00 -0.35886810016E+03  0.38001626530E+03  0.12500419426E+03 0.  0.
    9000005    1    3    3    0    0  0.39001041771E+02  0.22592834268E+01 -0.31146522742E+02  0.49972907657E+02  0.10000000000E+01 0.  0.
    9000005    1    3    3    0    0 -0.39001041771E+02 -0.22592834268E+01 -0.32772157742E+03  0.33004335765E+03  0.10000000000E+01 0.  0.
<mgrwt>
<rscale>  0 0.12500419E+03</rscale>
<asrwt>0</asrwt>
<pdfrwt beam="1">  1        4 0.16267822E-02 0.12500419E+03</pdfrwt>
<pdfrwt beam="2">  1       -4 0.56837249E-01 0.12500419E+03</pdfrwt>
<totfact> 0.66537743E+03</totfact>
</mgrwt>
</event>
<event>
 5    1  0.3232465E-002  0.1250013E+03  0.7818608E-02  0.1235067E+00
          4   -1    0    0  501    0  0.00000000000E+00  0.00000000000E+00  0.11406288238E+03  0.11406995239E+03  0.12700000000E+01 0.  1.
         -4   -1    0    0    0  501 -0.00000000000E+00 -0.00000000000E+00 -0.34227242484E+02  0.34250796021E+02  0.12700000000E+01 0.  1.
         25    2    1    2    0    0  0.00000000000E+00  0.00000000000E+00  0.79835639900E+02  0.14832074841E+03  0.12500126003E+03 0.  0.
    9000005    1    3    3    0    0  0.45929739308E+02  0.10144135393E+02 -0.89025603582E+01  0.47882147160E+02  0.10000000000E+01 0.  0.
    9000005    1    3    3    0    0 -0.45929739308E+02 -0.10144135393E+02  0.88738200258E+02  0.10043860125E+03  0.10000000000E+01 0.  0.
<mgrwt>
<rscale>  0 0.12500126E+03</rscale>
<asrwt>0</asrwt>
<pdfrwt beam="1">  1        4 0.17550491E-01 0.12500126E+03</pdfrwt>
<pdfrwt beam="2">  1       -4 0.52680853E-02 0.12500126E+03</pdfrwt>
<totfact> 0.99636664E+03</totfact>
</mgrwt>
</event>
<event>
 5    1  0.3232465E-002  0.1250001E+03  0.7818608E-02  0.1235069E+00
          4   -1    0    0  501    0  0.00000000000E+00  0.00000000000E+00  0.21681741291E+03  0.21682113237E+03  0.12700000000E+01 0. -1.
         -4   -1    0    0    0  501 -0.00000000000E+00 -0.00000000000E+00 -0.17990068040E+02  0.18034839841E+02  0.12700000000E+01 0. -1.
         25    2    1    2    0    0  0.00000000000E+00  0.00000000000E+00  0.19882734487E+03  0.23485597221E+03  0.12500005846E+03 0.  0.
    9000005    1    3    3    0    0 -0.28537169773E+02 -0.55315756604E+02  0.88944150453E+02  0.10856456552E+03  0.10000000000E+01 0.  0.
    9000005    1    3    3    0    0  0.28537169773E+02  0.55315756604E+02  0.10988319442E+03  0.12629140669E+03  0.10000000000E+01 0.  0.
<mgrwt>
<rscale>  0 0.12500006E+03</rscale>
<asrwt>0</asrwt>
<pdfrwt beam="1">  1        4 0.33360255E-01 0.12500006E+03</pdfrwt>
<pdfrwt beam="2">  1       -4 0.27714329E-02 0.12500006E+03</pdfrwt>
<totfact> 0.84569382E+03</totfact>
</mgrwt>
</event>
<event>
 5    1  0.3232465E-002  0.1249983E+03  0.7818608E-02  0.1235072E+00
          4   -1    0    0  501    0  0.00000000000E+00  0.00000000000E+00  0.50973427925E+02  0.50989246459E+02  0.12700000000E+01 0. -1.
         -4   -1    0    0    0  501 -0.00000000000E+00 -0.00000000000E+00 -0.76598008718E+02  0.76608536336E+02  0.12700000000E+01 0. -1.
         25    2    1    2    0    0  0.00000000000E+00  0.00000000000E+00 -0.25624580793E+02  0.12759778279E+03  0.12499830012E+03 0.  0.
    9000005    1    3    3    0    0  0.34414357863E+02 -0.41146397019E+02 -0.45537838956E+02  0.70370937123E+02  0.10000000000E+01 0.  0.
    9000005    1    3    3    0    0 -0.34414357863E+02  0.41146397019E+02  0.19913258163E+02  0.57226845671E+02  0.10000000000E+01 0.  0.
<mgrwt>
<rscale>  0 0.12499830E+03</rscale>
<asrwt>0</asrwt>
<pdfrwt beam="1">  1        4 0.78440924E-02 0.12499830E+03</pdfrwt>
<pdfrwt beam="2">  1       -4 0.11786336E-01 0.12499830E+03</pdfrwt>
<totfact> 0.10396582E+04</totfact>
</mgrwt>
</event>
<event>
 5    1  0.3232465E-002  0.1250002E+03  0.7818608E-02  0.1235069E+00
          4   -1    0    0  501    0  0.00000000000E+00  0.00000000000E+00  0.18329688194E+02  0.18373632447E+02  0.12700000000E+01 0. -1.
         -4   -1    0    0    0  501 -0.00000000000E+00 -0.00000000000E+00 -0.21281011455E+03  0.21281390405E+03  0.12700000000E+01 0. -1.
         25    2    1    2    0    0  0.00000000000E+00  0.00000000000E+00 -0.19448042636E+03  0.23118753650E+03  0.12500016318E+03 0.  0.
    9000005    1    3    3    0    0 -0.52877278931E+02 -0.29399602951E+02 -0.68295901255E+02  0.91245128139E+02  0.10000000000E+01 0.  0.
    9000005    1    3    3    0    0  0.52877278931E+02  0.29399602951E+02 -0.12618452510E+03  0.13994240836E+03  0.10000000000E+01 0.  0.
<mgrwt>
<rscale>  0 0.12500016E+03</rscale>
<asrwt>0</asrwt>
<pdfrwt beam="1">  1        4 0.28236240E-02 0.12500016E+03</pdfrwt>
<pdfrwt beam="2">  1       -4 0.32743688E-01 0.12500016E+03</pdfrwt>
<totfact> 0.85127273E+03</totfact>
</mgrwt>
</event>
<event>
 5    1  0.3232465E-002  0.1249969E+03  0.7818608E-02  0.1235074E+00
         -4   -1    0    0    0  501 -0.00000000000E+00  0.00000000000E+00  0.27529132095E+02  0.27558410947E+02  0.12700000000E+01 0. -1.
          4   -1    0    0  501    0  0.00000000000E+00 -0.00000000000E+00 -0.14178066144E+03  0.14178634933E+03  0.12700000000E+01 0. -1.
         25    2    1    2    0    0  0.00000000000E+00  0.00000000000E+00 -0.11425152934E+03  0.16934476028E+03  0.12499694347E+03 0.  0.
    9000005    1    3    3    0    0 -0.41534476413E+02 -0.25805290090E+02 -0.44100528118E+01  0.49106764232E+02  0.10000000000E+01 0.  0.
    9000005    1    3    3    0    0  0.41534476413E+02  0.25805290090E+02 -0.10984147653E+03  0.12023799605E+03  0.10000000000E+01 0.  0.
<mgrwt>
<rscale>  0 0.12499694E+03</rscale>
<asrwt>0</asrwt>
<pdfrwt beam="2">  1        4 0.21815099E-01 0.12499694E+03</pdfrwt>
<pdfrwt beam="1">  1       -4 0.42379409E-02 0.12499694E+03</pdfrwt>
<totfact> 0.95577391E+03</totfact>
</mgrwt>
</event>
<event>
 5    1  0.3232465E-002  0.1250053E+03  0.7818608E-02  0.1235061E+00
         -4   -1    0    0    0  501 -0.00000000000E+00  0.00000000000E+00  0.56164568992E+01  0.57582539108E+01  0.12700000000E+01 0. -1.
          4   -1    0    0  501    0  0.00000000000E+00 -0.00000000000E+00 -0.68674695349E+03  0.68674812780E+03  0.12700000000E+01 0. -1.
         25    2    1    2    0    0  0.00000000000E+00  0.00000000000E+00 -0.68113049660E+03  0.69250638171E+03  0.12500534115E+03 0.  0.
    9000005    1    3    3    0    0 -0.21424300216E+02 -0.50541047422E+02 -0.17509388582E+03  0.18350004623E+03  0.10000000000E+01 0.  0.
    9000005    1    3    3    0    0  0.21424300216E+02  0.50541047422E+02 -0.50603661077E+03  0.50900633548E+03  0.10000000000E+01 0.  0.
<mgrwt>
<rscale>  0 0.12500534E+03</rscale>
<asrwt>0</asrwt>
<pdfrwt beam="2">  1        4 0.10566431E+00 0.12500534E+03</pdfrwt>
<pdfrwt beam="1">  1       -4 0.87506863E-03 0.12500534E+03</pdfrwt>
<totfact> 0.43480170E+03</totfact>
</mgrwt>
</event>
<event>
 5    1  0.3232465E-002  0.1250026E+03  0.7818608E-02  0.1235065E+00
         -4   -1    0    0    0  501 -0.00000000000E+00  0.00000000000E+00  0.17137277101E+02  0.17184270902E+02  0.12700000000E+01 0.  1.
          4   -1    0    0  501    0  0.00000000000E+00 -0.00000000000E+00 -0.22758729629E+03  0.22759083974E+03  0.12700000000E+01 0.  1.
         25    2    1    2    0    0  0.00000000000E+00  0.00000000000E+00 -0.21045001919E+03  0.24477511064E+03  0.12500257682E+03 0.  0.
    9000005    1    3    3    0    0 -0.56271470385E+02 -0.25154298880E+02 -0.85046080255E+02  0.10503834013E+03  0.10000000000E+01 0.  0.
    9000005    1    3    3    0    0  0.56271470385E+02  0.25154298880E+02 -0.12540393894E+03  0.13973677051E+03  0.10000000000E+01 0.  0.
<mgrwt>
<rscale>  0 0.12500258E+03</rscale>
<asrwt>0</asrwt>
<pdfrwt beam="2">  1        4 0.35017316E-01 0.12500258E+03</pdfrwt>
<pdfrwt beam="1">  1       -4 0.26403918E-02 0.12500258E+03</pdfrwt>
<totfact> 0.83086530E+03</totfact>
</mgrwt>
</event>
<event>
 4    1  0.3232465E-002  0.1292793E+03  0.7818608E-02  0.1228529E+00
          4   -1    0    0  501    0  0.00000000000E+00  0.00000000000E+00  0.45900488077E+02  0.45918054245E+02  0.12700000000E+01 0.  1.
         -4   -1    0    0    0  501 -0.00000000000E+00 -0.00000000000E+00 -0.90989713716E+02  0.90998576374E+02  0.12700000000E+01 0.  1.
    9000005    1    1    2    0    0  0.96775433991E+01  0.61076044344E+02 -0.42452529495E+02  0.75014367288E+02  0.10000000000E+01 0.  0.
    9000005    1    1    2    0    0 -0.96775433991E+01 -0.61076044344E+02 -0.26366961439E+01  0.61902263332E+02  0.10000000000E+01 0.  0.
<mgrwt>
<rscale>  0 0.12927925E+03</rscale>
<asrwt>0</asrwt>
<pdfrwt beam="1">  1        4 0.70636466E-02 0.12927925E+03</pdfrwt>
<pdfrwt beam="2">  1       -4 0.14000450E-01 0.12927925E+03</pdfrwt>
<totfact> 0.92730974E+03</totfact>
</mgrwt>
</event>
<event>
 5    1  0.3232465E-002  0.1250023E+03  0.7818608E-02  0.1235066E+00
         -4   -1    0    0    0  501 -0.00000000000E+00  0.00000000000E+00  0.78688578087E+01  0.79706852411E+01  0.12700000000E+01 0. -1.
          4   -1    0    0  501    0  0.00000000000E+00 -0.00000000000E+00 -0.49314339234E+03  0.49314502766E+03  0.12700000000E+01 0. -1.
         25    2    1    2    0    0  0.00000000000E+00  0.00000000000E+00 -0.48527453453E+03  0.50111571290E+03  0.12500233540E+03 0.  0.
    9000005    1    3    3    0    0 -0.24399281950E+02  0.43855082407E+02 -0.39192607201E+03  0.39512737077E+03  0.10000000000E+01 0.  0.
    9000005    1    3    3    0    0  0.24399281950E+02 -0.43855082407E+02 -0.93348462520E+02  0.10598834213E+03  0.10000000000E+01 0.  0.
<mgrwt>
<rscale>  0 0.12500234E+03</rscale>
<asrwt>0</asrwt>
<pdfrwt beam="2">  1        4 0.75876149E-01 0.12500234E+03</pdfrwt>
<pdfrwt beam="1">  1       -4 0.12185526E-02 0.12500234E+03</pdfrwt>
<totfact> 0.55775051E+03</totfact>
</mgrwt>
</event>
<event>
 5    1  0.3232465E-002  0.1249920E+03  0.7818608E-02  0.1235082E+00
         -4   -1    0    0    0  501 -0.00000000000E+00  0.00000000000E+00  0.16895660197E+02  0.16943324157E+02  0.12700000000E+01 0. -1.
          4   -1    0    0  501    0  0.00000000000E+00 -0.00000000000E+00 -0.23079369134E+03  0.23079718556E+03  0.12700000000E+01 0. -1.
         25    2    1    2    0    0  0.00000000000E+00  0.00000000000E+00 -0.21389803115E+03  0.24774050972E+03  0.12499196945E+03 0.  0.
    9000005    1    3    3    0    0 -0.66368484666E+01  0.37879403733E+02 -0.20457085527E+03  0.20815650797E+03  0.10000000000E+01 0.  0.
    9000005    1    3    3    0    0  0.66368484666E+01 -0.37879403733E+02 -0.93271758783E+01  0.39584001751E+02  0.10000000000E+01 0.  0.
<mgrwt>
<rscale>  0 0.12499197E+03</rscale>
<asrwt>0</asrwt>
<pdfrwt beam="2">  1        4 0.35510655E-01 0.12499197E+03</pdfrwt>
<pdfrwt beam="1">  1       -4 0.26032677E-02 0.12499197E+03</pdfrwt>
<totfact> 0.82672687E+03</totfact>
</mgrwt>
</event>
<event>
 5    1  0.3232465E-002  0.1249995E+03  0.7818608E-02  0.1235070E+00
          4   -1    0    0  501    0  0.00000000000E+00  0.00000000000E+00  0.36138254824E+03  0.36138477980E+03  0.12700000000E+01 0.  1.
         -4   -1    0    0    0  501 -0.00000000000E+00 -0.00000000000E+00 -0.10769514381E+02  0.10844138509E+02  0.12700000000E+01 0.  1.
         25    2    1    2    0    0  0.00000000000E+00  0.00000000000E+00  0.35061303386E+03  0.37222891831E+03  0.12499947246E+03 0.  0.
    9000005    1    3    3    0    0  0.46567476061E-01  0.30841330020E+01  0.36117033278E+03  0.36118488800E+03  0.10000000000E+01 0.  0.
    9000005    1    3    3    0    0 -0.46567476061E-01 -0.30841330020E+01 -0.10557298919E+02  0.11044030304E+02  0.10000000000E+01 0.  0.
<mgrwt>
<rscale>  0 0.12499947E+03</rscale>
<asrwt>0</asrwt>
<pdfrwt beam="1">  1        4 0.55603229E-01 0.12499947E+03</pdfrwt>
<pdfrwt beam="2">  1       -4 0.16627603E-02 0.12499947E+03</pdfrwt>
<totfact> 0.67347176E+03</totfact>
</mgrwt>
</event>
<event>
 5    1  0.3232465E-002  0.1249983E+03  0.7818608E-02  0.1235072E+00
         -4   -1    0    0    0  501 -0.00000000000E+00  0.00000000000E+00  0.43409052896E+01  0.45228706297E+01  0.12700000000E+01 0.  1.
          4   -1    0    0  501    0  0.00000000000E+00 -0.00000000000E+00 -0.88118944694E+03  0.88119036212E+03  0.12700000000E+01 0.  1.
         25    2    1    2    0    0  0.00000000000E+00  0.00000000000E+00 -0.87684854165E+03  0.88571323275E+03  0.12499826270E+03 0.  0.
    9000005    1    3    3    0    0 -0.12608040017E+02 -0.20814183262E+02 -0.30577995891E+02  0.39092284797E+02  0.10000000000E+01 0.  0.
    9000005    1    3    3    0    0  0.12608040017E+02  0.20814183262E+02 -0.84627054576E+03  0.84662094796E+03  0.10000000000E+01 0.  0.
<mgrwt>
<rscale>  0 0.12499826E+03</rscale>
<asrwt>0</asrwt>
<pdfrwt beam="2">  1        4 0.13558154E+00 0.12499826E+03</pdfrwt>
<pdfrwt beam="1">  1       -4 0.68190002E-03 0.12499826E+03</pdfrwt>
<totfact> 0.34710105E+03</totfact>
</mgrwt>
</event>
<event>
 5    1  0.3232465E-002  0.1250130E+03  0.7818608E-02  0.1235049E+00
          4   -1    0    0  501    0  0.00000000000E+00  0.00000000000E+00  0.13195937085E+04  0.13195943196E+04  0.12700000000E+01 0. -1.
         -4   -1    0    0    0  501 -0.00000000000E+00 -0.00000000000E+00 -0.28239777987E+01  0.30964093088E+01  0.12700000000E+01 0. -1.
         25    2    1    2    0    0  0.00000000000E+00  0.00000000000E+00  0.13167697307E+04  0.13226907290E+04  0.12501296230E+03 0.  0.
    9000005    1    3    3    0    0  0.50777550399E+02  0.75867791192E+01  0.10354612110E+04  0.10367337355E+04  0.10000000000E+01 0.  0.
    9000005    1    3    3    0    0 -0.50777550399E+02 -0.75867791192E+01  0.28130851971E+03  0.28595699345E+03  0.10000000000E+01 0.  0.
<mgrwt>
<rscale>  0 0.12501296E+03</rscale>
<asrwt>0</asrwt>
<pdfrwt beam="1">  1        4 0.20303597E+00 0.12501296E+03</pdfrwt>
<pdfrwt beam="2">  1       -4 0.45546017E-03 0.12501296E+03</pdfrwt>
<totfact> 0.21693014E+03</totfact>
</mgrwt>
</event>
<event>
 5    1  0.3232465E-002  0.1249950E+03  0.7818608E-02  0.1235077E+00
          4   -1    0    0  501    0  0.00000000000E+00  0.00000000000E+00  0.37804443452E+03  0.37804656773E+03  0.12700000000E+01 0. -1.
         -4   -1    0    0    0  501 -0.00000000000E+00 -0.00000000000E+00 -0.10290756283E+02  0.10368826591E+02  0.12700000000E+01 0. -1.
         25    2    1    2    0    0  0.00000000000E+00  0.00000000000E+00  0.36775367824E+03  0.38841539432E+03  0.12499500265E+03 0.  0.
    9000005    1    3    3    0    0  0.30694613268E+02  0.52997991579E+02  0.14531552336E+03  0.15769764654E+03  0.10000000000E+01 0.  0.
    9000005    1    3    3    0    0 -0.30694613268E+02 -0.52997991579E+02  0.22243815488E+03  0.23071774778E+03  0.10000000000E+01 0.  0.
<mgrwt>
<rscale>  0 0.12499500E+03</rscale>
<asrwt>0</asrwt>
<pdfrwt beam="1">  1        4 0.58166856E-01 0.12499500E+03</pdfrwt>
<pdfrwt beam="2">  1       -4 0.15893627E-02 0.12499500E+03</pdfrwt>
<totfact> 0.65702555E+03</totfact>
</mgrwt>
</event>
<event>
 5    1  0.3232465E-002  0.1250063E+03  0.7818608E-02  0.1235059E+00
         -4   -1    0    0    0  501 -0.00000000000E+00  0.00000000000E+00  0.67536114153E+01  0.68719842221E+01  0.12700000000E+01 0.  1.
          4   -1    0    0  501    0  0.00000000000E+00 -0.00000000000E+00 -0.57330796344E+03  0.57330937010E+03  0.12700000000E+01 0.  1.
         25    2    1    2    0    0  0.00000000000E+00  0.00000000000E+00 -0.56655435203E+03  0.58018135433E+03  0.12500628026E+03 0.  0.
    9000005    1    3    3    0    0 -0.74507782697E+01 -0.14183916126E+02 -0.29174731561E+01  0.16315919316E+02  0.10000000000E+01 0.  0.
    9000005    1    3    3    0    0  0.74507782697E+01  0.14183916126E+02 -0.56363687887E+03  0.56386543501E+03  0.10000000000E+01 0.  0.
<mgrwt>
<rscale>  0 0.12500628E+03</rscale>
<asrwt>0</asrwt>
<pdfrwt beam="2">  1        4 0.88210401E-01 0.12500628E+03</pdfrwt>
<pdfrwt beam="1">  1       -4 0.10482314E-02 0.12500628E+03</pdfrwt>
<totfact> 0.50136111E+03</totfact>
</mgrwt>
</event>
<event>
 5    1  0.3232465E-002  0.1249985E+03  0.7818608E-02  0.1235072E+00
         -4   -1    0    0    0  501 -0.00000000000E+00  0.00000000000E+00  0.18008148577E+02  0.18052875537E+02  0.12700000000E+01 0.  1.
          4   -1    0    0  501    0  0.00000000000E+00 -0.00000000000E+00 -0.21659498788E+03  0.21659871116E+03  0.12700000000E+01 0.  1.
         25    2    1    2    0    0  0.00000000000E+00  0.00000000000E+00 -0.19858683930E+03  0.23465158669E+03  0.12499853757E+03 0.  0.
    9000005    1    3    3    0    0  0.59002827569E+02  0.14694112685E+02 -0.12636129406E+03  0.14023347405E+03  0.10000000000E+01 0.  0.
    9000005    1    3    3    0    0 -0.59002827569E+02 -0.14694112685E+02 -0.72225545246E+02  0.94418112642E+02  0.10000000000E+01 0.  0.
<mgrwt>
<rscale>  0 0.12499854E+03</rscale>
<asrwt>0</asrwt>
<pdfrwt beam="2">  1        4 0.33326031E-01 0.12499854E+03</pdfrwt>
<pdfrwt beam="1">  1       -4 0.27742115E-02 0.12499854E+03</pdfrwt>
<totfact> 0.84603182E+03</totfact>
</mgrwt>
</event>
<event>
 5    1  0.3232465E-002  0.1250009E+03  0.7818608E-02  0.1235068E+00
         -4   -1    0    0    0  501 -0.00000000000E+00  0.00000000000E+00  0.18496409068E+02  0.18539958156E+02  0.12700000000E+01 0. -1.
          4   -1    0    0  501    0  0.00000000000E+00 -0.00000000000E+00 -0.21089877532E+03  0.21090259916E+03  0.12700000000E+01 0. -1.
         25    2    1    2    0    0  0.00000000000E+00  0.00000000000E+00 -0.19240236626E+03  0.22944255732E+03  0.12500086627E+03 0.  0.
    9000005    1    3    3    0    0 -0.41589011006E+02 -0.25636000169E+02 -0.24675544636E+02  0.54742422710E+02  0.10000000000E+01 0.  0.
    9000005    1    3    3    0    0  0.41589011006E+02  0.25636000169E+02 -0.16772682162E+03  0.17470013461E+03  0.10000000000E+01 0.  0.
<mgrwt>
<rscale>  0 0.12500087E+03</rscale>
<asrwt>0</asrwt>
<pdfrwt beam="2">  1        4 0.32449608E-01 0.12500087E+03</pdfrwt>
<pdfrwt beam="1">  1       -4 0.28492456E-02 0.12500087E+03</pdfrwt>
<totfact> 0.85393616E+03</totfact>
</mgrwt>
</event>
<event>
 5    1  0.3232465E-002  0.1249974E+03  0.7818608E-02  0.1235073E+00
          4   -1    0    0  501    0  0.00000000000E+00  0.00000000000E+00  0.14413224624E+04  0.14413230219E+04  0.12700000000E+01 0. -1.
         -4   -1    0    0    0  501 -0.00000000000E+00 -0.00000000000E+00 -0.25606931473E+01  0.28583298261E+01  0.12700000000E+01 0. -1.
         25    2    1    2    0    0  0.00000000000E+00  0.00000000000E+00  0.14387617692E+04  0.14441813517E+04  0.12499739225E+03 0.  0.
    9000005    1    3    3    0    0  0.30040473412E+02 -0.53872070028E+02  0.83518153033E+03  0.83745675624E+03  0.10000000000E+01 0.  0.
    9000005    1    3    3    0    0 -0.30040473412E+02  0.53872070028E+02  0.60358023890E+03  0.60672459548E+03  0.10000000000E+01 0.  0.
<mgrwt>
<rscale>  0 0.12499739E+03</rscale>
<asrwt>0</asrwt>
<pdfrwt beam="1">  1        4 0.22176505E+00 0.12499739E+03</pdfrwt>
<pdfrwt beam="2">  1       -4 0.41689060E-03 0.12499739E+03</pdfrwt>
<totfact> 0.19053285E+03</totfact>
</mgrwt>
</event>
<event>
 5    1  0.3232465E-002  0.1250004E+03  0.7818608E-02  0.1235069E+00
          4   -1    0    0  501    0  0.00000000000E+00  0.00000000000E+00  0.79440609058E+03  0.79440710574E+03  0.12700000000E+01 0.  1.
         -4   -1    0    0    0  501 -0.00000000000E+00 -0.00000000000E+00 -0.48341856971E+01  0.49982248203E+01  0.12700000000E+01 0.  1.
         25    2    1    2    0    0  0.00000000000E+00  0.00000000000E+00  0.78957190489E+03  0.79940533056E+03  0.12500035819E+03 0.  0.
    9000005    1    3    3    0    0 -0.23494036794E+02  0.57178602352E+02  0.45336776244E+03  0.45756386478E+03  0.10000000000E+01 0.  0.
    9000005    1    3    3    0    0  0.23494036794E+02 -0.57178602352E+02  0.33620414244E+03  0.34184146578E+03  0.10000000000E+01 0.  0.
<mgrwt>
<rscale>  0 0.12500036E+03</rscale>
<asrwt>0</asrwt>
<pdfrwt beam="1">  1        4 0.12222897E+00 0.12500036E+03</pdfrwt>
<pdfrwt beam="2">  1       -4 0.75641764E-03 0.12500036E+03</pdfrwt>
<totfact> 0.38290998E+03</totfact>
</mgrwt>
</event>
<event>
 5    1  0.3232465E-002  0.1249974E+03  0.7818608E-02  0.1235073E+00
         -4   -1    0    0    0  501 -0.00000000000E+00  0.00000000000E+00  0.23094382422E+02  0.23129275809E+02  0.12700000000E+01 0. -1.
          4   -1    0    0  501    0  0.00000000000E+00 -0.00000000000E+00 -0.16897096124E+03  0.16897573389E+03  0.12700000000E+01 0. -1.
         25    2    1    2    0    0  0.00000000000E+00  0.00000000000E+00 -0.14587657882E+03  0.19210500970E+03  0.12499743398E+03 0.  0.
    9000005    1    3    3    0    0 -0.40017388679E+02 -0.34884053578E+02 -0.22272756559E+02  0.57579200025E+02  0.10000000000E+01 0.  0.
    9000005    1    3    3    0    0  0.40017388679E+02  0.34884053578E+02 -0.12360382226E+03  0.13452580967E+03  0.10000000000E+01 0.  0.
<mgrwt>
<rscale>  0 0.12499743E+03</rscale>
<asrwt>0</asrwt>
<pdfrwt beam="2">  1        4 0.25998583E-01 0.12499743E+03</pdfrwt>
<pdfrwt beam="1">  1       -4 0.35560332E-02 0.12499743E+03</pdfrwt>
<totfact> 0.91487592E+03</totfact>
</mgrwt>
</event>
<event>
 5    1  0.3232465E-002  0.1250004E+03  0.7818608E-02  0.1235069E+00
         -4   -1    0    0    0  501 -0.00000000000E+00  0.00000000000E+00  0.12144415184E+03  0.12145079216E+03  0.12700000000E+01 0. -1.
          4   -1    0    0  501    0  0.00000000000E+00 -0.00000000000E+00 -0.32145113288E+02  0.32170191300E+02  0.12700000000E+01 0. -1.
         25    2    1    2    0    0  0.00000000000E+00  0.00000000000E+00  0.89299038551E+02  0.15362098346E+03  0.12500035309E+03 0.  0.
    9000005    1    3    3    0    0  0.21008286657E+02  0.56990928419E+02  0.26589259709E+02  0.66312161495E+02  0.10000000000E+01 0.  0.
    9000005    1    3    3    0    0 -0.21008286657E+02 -0.56990928419E+02  0.62709778841E+02  0.87308821963E+02  0.10000000000E+01 0.  0.
<mgrwt>
<rscale>  0 0.12500035E+03</rscale>
<asrwt>0</asrwt>
<pdfrwt beam="2">  1        4 0.49478419E-02 0.12500035E+03</pdfrwt>
<pdfrwt beam="1">  1       -4 0.18686155E-01 0.12500035E+03</pdfrwt>
<totfact> 0.98585961E+03</totfact>
</mgrwt>
</event>
<event>
 5    1  0.3232465E-002  0.1249937E+03  0.7818608E-02  0.1235079E+00
         -4   -1    0    0    0  501 -0.00000000000E+00  0.00000000000E+00  0.54581697730E+01  0.56039733468E+01  0.12700000000E+01 0. -1.
          4   -1    0    0  501    0  0.00000000000E+00 -0.00000000000E+00 -0.70601958973E+03  0.70602073197E+03  0.12700000000E+01 0. -1.
         25    2    1    2    0    0  0.00000000000E+00  0.00000000000E+00 -0.70056141995E+03  0.71162470532E+03  0.12499367222E+03 0.  0.
    9000005    1    3    3    0    0  0.49588175020E+02  0.30147415380E+02 -0.48221280015E+03  0.48569335839E+03  0.10000000000E+01 0.  0.
    9000005    1    3    3    0    0 -0.49588175020E+02 -0.30147415380E+02 -0.21834861980E+03  0.22593134693E+03  0.10000000000E+01 0.  0.
<mgrwt>
<rscale>  0 0.12499367E+03</rscale>
<asrwt>0</asrwt>
<pdfrwt beam="2">  1        4 0.10862963E+00 0.12499367E+03</pdfrwt>
<pdfrwt beam="1">  1       -4 0.85102251E-03 0.12499367E+03</pdfrwt>
<totfact> 0.42486013E+03</totfact>
</mgrwt>
</event>
<event>
 5    1  0.3232465E-002  0.1250025E+03  0.7818608E-02  0.1235065E+00
         -4   -1    0    0    0  501 -0.00000000000E+00  0.00000000000E+00  0.43866630028E+03  0.43866813869E+03  0.12700000000E+01 0. -1.
          4   -1    0    0  501    0  0.00000000000E+00 -0.00000000000E+00 -0.88580361683E+01  0.89486146838E+01  0.12700000000E+01 0. -1.
         25    2    1    2    0    0  0.00000000000E+00  0.00000000000E+00  0.42980826411E+03  0.44761675337E+03  0.12500245598E+03 0.  0.
    9000005    1    3    3    0    0 -0.17132993783E+02 -0.34972671108E+02  0.39889029096E+02  0.55756271779E+02  0.10000000000E+01 0.  0.
    9000005    1    3    3    0    0  0.17132993783E+02  0.34972671108E+02  0.38991923501E+03  0.39186048159E+03  0.10000000000E+01 0.  0.
<mgrwt>
<rscale>  0 0.12500246E+03</rscale>
<asrwt>0</asrwt>
<pdfrwt beam="2">  1        4 0.13698838E-02 0.12500246E+03</pdfrwt>
<pdfrwt beam="1">  1       -4 0.67494232E-01 0.12500246E+03</pdfrwt>
<totfact> 0.60167555E+03</totfact>
</mgrwt>
</event>
<event>
 5    1  0.3232465E-002  0.1250023E+03  0.7818608E-02  0.1235066E+00
          4   -1    0    0  501    0  0.00000000000E+00  0.00000000000E+00  0.71131771515E+01  0.72256618512E+01  0.12700000000E+01 0.  1.
         -4   -1    0    0    0  501 -0.00000000000E+00 -0.00000000000E+00 -0.54475595445E+03  0.54475743483E+03  0.12700000000E+01 0.  1.
         25    2    1    2    0    0  0.00000000000E+00  0.00000000000E+00 -0.53764277730E+03  0.55198309668E+03  0.12500233217E+03 0.  0.
    9000005    1    3    3    0    0  0.10666882494E+02  0.43711997205E+02 -0.46032968504E+03  0.46252452909E+03  0.10000000000E+01 0.  0.
    9000005    1    3    3    0    0 -0.10666882494E+02 -0.43711997205E+02 -0.77313092260E+02  0.89458567597E+02  0.10000000000E+01 0.  0.
<mgrwt>
<rscale>  0 0.12500233E+03</rscale>
<asrwt>0</asrwt>
<pdfrwt beam="1">  1        4 0.11031019E-02 0.12500233E+03</pdfrwt>
<pdfrwt beam="2">  1       -4 0.83817343E-01 0.12500233E+03</pdfrwt>
<totfact> 0.52043335E+03</totfact>
</mgrwt>
</event>
<event>
 5    1  0.3232465E-002  0.1249829E+03  0.7818608E-02  0.1235096E+00
         -4   -1    0    0    0  501 -0.00000000000E+00  0.00000000000E+00  0.16309481348E+02  0.16358853317E+02  0.12700000000E+01 0.  1.
          4   -1    0    0  501    0  0.00000000000E+00 -0.00000000000E+00 -0.23902956386E+03  0.23903293769E+03  0.12700000000E+01 0.  1.
         25    2    1    2    0    0  0.00000000000E+00  0.00000000000E+00 -0.22272008252E+03  0.25539179101E+03  0.12498292587E+03 0.  0.
    9000005    1    3    3    0    0 -0.61172712166E+01 -0.60672010868E+02 -0.83516403168E+02  0.10341423262E+03  0.10000000000E+01 0.  0.
    9000005    1    3    3    0    0  0.61172712166E+01  0.60672010868E+02 -0.13920367935E+03  0.15197755839E+03  0.10000000000E+01 0.  0.
<mgrwt>
<rscale>  0 0.12498293E+03</rscale>
<asrwt>0</asrwt>
<pdfrwt beam="2">  1        4 0.36777834E-01 0.12498293E+03</pdfrwt>
<pdfrwt beam="1">  1       -4 0.25132085E-02 0.12498293E+03</pdfrwt>
<totfact> 0.81588155E+03</totfact>
</mgrwt>
</event>
<event>
 5    1  0.3232465E-002  0.1249975E+03  0.7818608E-02  0.1235073E+00
         -4   -1    0    0    0  501 -0.00000000000E+00  0.00000000000E+00  0.17787756969E+01  0.21856218749E+01  0.12700000000E+01 0. -1.
          4   -1    0    0  501    0  0.00000000000E+00 -0.00000000000E+00 -0.19701795467E+04  0.19701799560E+04  0.12700000000E+01 0. -1.
         25    2    1    2    0    0  0.00000000000E+00  0.00000000000E+00 -0.19684007710E+04  0.19723655779E+04  0.12499751042E+03 0.  0.
    9000005    1    3    3    0    0 -0.28598499969E+02  0.36510869359E+02 -0.16450805399E+04  0.16457344562E+04  0.10000000000E+01 0.  0.
    9000005    1    3    3    0    0  0.28598499969E+02 -0.36510869359E+02 -0.32332023113E+03  0.32663112166E+03  0.10000000000E+01 0.  0.
<mgrwt>
<rscale>  0 0.12499751E+03</rscale>
<asrwt>0</asrwt>
<pdfrwt beam="2">  1        4 0.30313431E+00 0.12499751E+03</pdfrwt>
<pdfrwt beam="1">  1       -4 0.30498672E-03 0.12499751E+03</pdfrwt>
<totfact> 0.10227010E+03</totfact>
</mgrwt>
</event>
<event>
 5    1  0.3232465E-002  0.1250017E+03  0.7818608E-02  0.1235067E+00
         -4   -1    0    0    0  501 -0.00000000000E+00  0.00000000000E+00  0.19875762766E+03  0.19876168508E+03  0.12700000000E+01 0.  1.
          4   -1    0    0  501    0  0.00000000000E+00 -0.00000000000E+00 -0.19629098365E+02  0.19670139873E+02  0.12700000000E+01 0.  1.
         25    2    1    2    0    0  0.00000000000E+00  0.00000000000E+00  0.17912852930E+03  0.21843182495E+03  0.12500172856E+03 0.  0.
    9000005    1    3    3    0    0 -0.62589683708E+00 -0.24850571362E+02  0.18975491317E+03  0.19137886434E+03  0.10000000000E+01 0.  0.
    9000005    1    3    3    0    0  0.62589683708E+00  0.24850571362E+02 -0.10626383868E+02  0.27052960614E+02  0.10000000000E+01 0.  0.
<mgrwt>
<rscale>  0 0.12500173E+03</rscale>
<asrwt>0</asrwt>
<pdfrwt beam="2">  1        4 0.30233305E-02 0.12500173E+03</pdfrwt>
<pdfrwt beam="1">  1       -4 0.30581565E-01 0.12500173E+03</pdfrwt>
<totfact> 0.87113738E+03</totfact>
</mgrwt>
</event>
<event>
 5    1  0.3232465E-002  0.1250017E+03  0.7818608E-02  0.1235067E+00
         -4   -1    0    0    0  501 -0.00000000000E+00  0.00000000000E+00  0.17282620344E+03  0.17283086963E+03  0.12700000000E+01 0. -1.
          4   -1    0    0  501    0  0.00000000000E+00 -0.00000000000E+00 -0.22579981879E+02  0.22615668941E+02  0.12700000000E+01 0. -1.
         25    2    1    2    0    0  0.00000000000E+00  0.00000000000E+00  0.15024622156E+03  0.19544653857E+03  0.12500168937E+03 0.  0.
    9000005    1    3    3    0    0 -0.24279788791E+01 -0.62220896059E+02  0.66846532960E+02  0.91360790039E+02  0.10000000000E+01 0.  0.
    9000005    1    3    3    0    0  0.24279788791E+01  0.62220896059E+02  0.83399688605E+02  0.10408574853E+03  0.10000000000E+01 0.  0.
<mgrwt>
<rscale>  0 0.12500169E+03</rscale>
<asrwt>0</asrwt>
<pdfrwt beam="2">  1        4 0.34769477E-02 0.12500169E+03</pdfrwt>
<pdfrwt beam="1">  1       -4 0.26591749E-01 0.12500169E+03</pdfrwt>
<totfact> 0.90904739E+03</totfact>
</mgrwt>
</event>
<event>
 5    1  0.3232465E-002  0.1249969E+03  0.7818608E-02  0.1235074E+00
         -4   -1    0    0    0  501 -0.00000000000E+00  0.00000000000E+00  0.21283247081E+02  0.21321104716E+02  0.12700000000E+01 0.  1.
          4   -1    0    0  501    0  0.00000000000E+00 -0.00000000000E+00 -0.18332410747E+03  0.18332850646E+03  0.12700000000E+01 0.  1.
         25    2    1    2    0    0  0.00000000000E+00  0.00000000000E+00 -0.16204086039E+03  0.20464961118E+03  0.12499689163E+03 0.  0.
    9000005    1    3    3    0    0 -0.48314271412E+02  0.22978644177E+02 -0.13388999417E+03  0.14418674506E+03  0.10000000000E+01 0.  0.
    9000005    1    3    3    0    0  0.48314271412E+02 -0.22978644177E+02 -0.28150866217E+02  0.60462866117E+02  0.10000000000E+01 0.  0.
<mgrwt>
<rscale>  0 0.12499689E+03</rscale>
<asrwt>0</asrwt>
<pdfrwt beam="2">  1        4 0.28206958E-01 0.12499689E+03</pdfrwt>
<pdfrwt beam="1">  1       -4 0.32775963E-02 0.12499689E+03</pdfrwt>
<totfact> 0.89363406E+03</totfact>
</mgrwt>
</event>
<event>
 5    1  0.3232465E-002  0.1249986E+03  0.7818608E-02  0.1235071E+00
          4   -1    0    0  501    0  0.00000000000E+00  0.00000000000E+00  0.28481147112E+03  0.28481430263E+03  0.12700000000E+01 0. -1.
         -4   -1    0    0    0  501 -0.00000000000E+00 -0.00000000000E+00 -0.13682605692E+02  0.13741419087E+02  0.12700000000E+01 0. -1.
         25    2    1    2    0    0  0.00000000000E+00  0.00000000000E+00  0.27112886543E+03  0.29855572172E+03  0.12499862920E+03 0.  0.
    9000005    1    3    3    0    0  0.19642548783E+01  0.56893172788E+02  0.73995901814E+02  0.93365330248E+02  0.10000000000E+01 0.  0.
    9000005    1    3    3    0    0 -0.19642548783E+01 -0.56893172788E+02  0.19713296362E+03  0.20519039147E+03  0.10000000000E+01 0.  0.
<mgrwt>
<rscale>  0 0.12499863E+03</rscale>
<asrwt>0</asrwt>
<pdfrwt beam="1">  1        4 0.43821889E-01 0.12499863E+03</pdfrwt>
<pdfrwt beam="2">  1       -4 0.21097583E-02 0.12499863E+03</pdfrwt>
<totfact> 0.75782671E+03</totfact>
</mgrwt>
</event>
<event>
 5    1  0.3232465E-002  0.1250312E+03  0.7818608E-02  0.1235020E+00
          4   -1    0    0  501    0  0.00000000000E+00  0.00000000000E+00  0.17318579780E+03  0.17319045429E+03  0.12700000000E+01 0. -1.
         -4   -1    0    0    0  501 -0.00000000000E+00 -0.00000000000E+00 -0.22543697588E+02  0.22579441998E+02  0.12700000000E+01 0. -1.
         25    2    1    2    0    0  0.00000000000E+00  0.00000000000E+00  0.15064210021E+03  0.19576989629E+03  0.12503123585E+03 0.  0.
    9000005    1    3    3    0    0 -0.15432816534E+02  0.21025969302E+01 -0.19464307494E+02  0.24948988081E+02  0.10000000000E+01 0.  0.
    9000005    1    3    3    0    0  0.15432816534E+02 -0.21025969302E+01  0.17010640770E+03  0.17082090821E+03  0.10000000000E+01 0.  0.
<mgrwt>
<rscale>  0 0.12503124E+03</rscale>
<asrwt>0</asrwt>
<pdfrwt beam="1">  1        4 0.26647076E-01 0.12503124E+03</pdfrwt>
<pdfrwt beam="2">  1       -4 0.34713690E-02 0.12503124E+03</pdfrwt>
<totfact> 0.90789447E+03</totfact>
</mgrwt>
</event>
<event>
 5    1  0.3232465E-002  0.1250025E+03  0.7818608E-02  0.1235065E+00
          4   -1    0    0  501    0  0.00000000000E+00  0.00000000000E+00  0.28363944185E+02  0.28392362172E+02  0.12700000000E+01 0. -1.
         -4   -1    0    0    0  501 -0.00000000000E+00 -0.00000000000E+00 -0.13762410679E+03  0.13762996647E+03  0.12700000000E+01 0. -1.
         25    2    1    2    0    0  0.00000000000E+00  0.00000000000E+00 -0.10926016261E+03  0.16602232864E+03  0.12500252187E+03 0.  0.
    9000005    1    3    3    0    0  0.36527231863E+02  0.50365074420E+02 -0.46825764634E+02  0.77875102712E+02  0.10000000000E+01 0.  0.
    9000005    1    3    3    0    0 -0.36527231863E+02 -0.50365074420E+02 -0.62434397976E+02  0.88147225932E+02  0.10000000000E+01 0.  0.
<mgrwt>
<rscale>  0 0.12500252E+03</rscale>
<asrwt>0</asrwt>
<pdfrwt beam="1">  1        4 0.43663206E-02 0.12500252E+03</pdfrwt>
<pdfrwt beam="2">  1       -4 0.21175576E-01 0.12500252E+03</pdfrwt>
<totfact> 0.96188681E+03</totfact>
</mgrwt>
</event>
<event>
 5    1  0.3232465E-002  0.1250045E+03  0.7818608E-02  0.1235062E+00
         -4   -1    0    0    0  501 -0.00000000000E+00  0.00000000000E+00  0.39734148374E+02  0.39754439337E+02  0.12700000000E+01 0.  1.
          4   -1    0    0  501    0  0.00000000000E+00 -0.00000000000E+00 -0.98267200609E+02  0.98275406972E+02  0.12700000000E+01 0.  1.
         25    2    1    2    0    0  0.00000000000E+00  0.00000000000E+00 -0.58533052235E+02  0.13802984631E+03  0.12500448099E+03 0.  0.
    9000005    1    3    3    0    0  0.12659851973E+02 -0.57954578859E+02 -0.75577060046E+01  0.59809062715E+02  0.10000000000E+01 0.  0.
    9000005    1    3    3    0    0 -0.12659851973E+02  0.57954578859E+02 -0.50975346230E+02  0.78220783594E+02  0.10000000000E+01 0.  0.
<mgrwt>
<rscale>  0 0.12500448E+03</rscale>
<asrwt>0</asrwt>
<pdfrwt beam="2">  1        4 0.15120223E-01 0.12500448E+03</pdfrwt>
<pdfrwt beam="1">  1       -4 0.61151380E-02 0.12500448E+03</pdfrwt>
<totfact> 0.10173555E+04</totfact>
</mgrwt>
</event>
<event>
 5    1  0.3232465E-002  0.1249979E+03  0.7818608E-02  0.1235073E+00
          4   -1    0    0  501    0  0.00000000000E+00  0.00000000000E+00  0.35232484628E+01  0.37451541665E+01  0.12700000000E+01 0. -1.
         -4   -1    0    0    0  501 -0.00000000000E+00 -0.00000000000E+00 -0.10745995791E+04  0.10746003295E+04  0.12700000000E+01 0. -1.
         25    2    1    2    0    0  0.00000000000E+00  0.00000000000E+00 -0.10710763306E+04  0.10783454837E+04  0.12499790491E+03 0.  0.
    9000005    1    3    3    0    0  0.18940409867E+02  0.92949823797E+01 -0.10429869154E+04  0.10432007676E+04  0.10000000000E+01 0.  0.
    9000005    1    3    3    0    0 -0.18940409867E+02 -0.92949823797E+01 -0.28089415215E+02  0.35144716111E+02  0.10000000000E+01 0.  0.
<mgrwt>
<rscale>  0 0.12499790E+03</rscale>
<asrwt>0</asrwt>
<pdfrwt beam="1">  1        4 0.55916648E-03 0.12499790E+03</pdfrwt>
<pdfrwt beam="2">  1       -4 0.16533989E+00 0.12499790E+03</pdfrwt>
<totfact> 0.28127291E+03</totfact>
</mgrwt>
</event>
<event>
 5    1  0.3232465E-002  0.1249986E+03  0.7818608E-02  0.1235071E+00
          4   -1    0    0  501    0  0.00000000000E+00  0.00000000000E+00  0.64436217549E+03  0.64436342704E+03  0.12700000000E+01 0.  1.
         -4   -1    0    0    0  501 -0.00000000000E+00 -0.00000000000E+00 -0.59942740042E+01  0.61273339094E+01  0.12700000000E+01 0.  1.
         25    2    1    2    0    0  0.00000000000E+00  0.00000000000E+00  0.63836790149E+03  0.65049076095E+03  0.12499860971E+03 0.  0.
    9000005    1    3    3    0    0  0.28554815985E+02  0.49400212492E+02  0.45179924988E+03  0.45538919695E+03  0.10000000000E+01 0.  0.
    9000005    1    3    3    0    0 -0.28554815985E+02 -0.49400212492E+02  0.18656865161E+03  0.19510156399E+03  0.10000000000E+01 0.  0.
<mgrwt>
<rscale>  0 0.12499861E+03</rscale>
<asrwt>0</asrwt>
<pdfrwt beam="1">  1        4 0.99143013E-01 0.12499861E+03</pdfrwt>
<pdfrwt beam="2">  1       -4 0.93252729E-03 0.12499861E+03</pdfrwt>
<totfact> 0.45829283E+03</totfact>
</mgrwt>
</event>
<event>
 5    1  0.3232465E-002  0.1250047E+03  0.7818608E-02  0.1235062E+00
          4   -1    0    0  501    0  0.00000000000E+00  0.00000000000E+00  0.54721541838E+03  0.54721689211E+03  0.12700000000E+01 0.  1.
         -4   -1    0    0    0  501 -0.00000000000E+00 -0.00000000000E+00 -0.70809737638E+01  0.71939620130E+01  0.12700000000E+01 0.  1.
         25    2    1    2    0    0  0.00000000000E+00  0.00000000000E+00  0.54013444461E+03  0.55441085412E+03  0.12500470755E+03 0.  0.
    9000005    1    3    3    0    0  0.43682858511E+01 -0.45483177707E+02  0.45915853577E+03  0.46142752665E+03  0.10000000000E+01 0.  0.
    9000005    1    3    3    0    0 -0.43682858511E+01  0.45483177707E+02  0.80975908840E+02  0.92983327474E+02  0.10000000000E+01 0.  0.
<mgrwt>
<rscale>  0 0.12500471E+03</rscale>
<asrwt>0</asrwt>
<pdfrwt beam="1">  1        4 0.84195783E-01 0.12500471E+03</pdfrwt>
<pdfrwt beam="2">  1       -4 0.10981855E-02 0.12500471E+03</pdfrwt>
<totfact> 0.51872510E+03</totfact>
</mgrwt>
</event>
<event>
 5    1  0.3232465E-002  0.1249979E+03  0.7818608E-02  0.1235073E+00
         -4   -1    0    0    0  501 -0.00000000000E+00  0.00000000000E+00  0.38715167356E+03  0.38715375659E+03  0.12700000000E+01 0. -1.
          4   -1    0    0  501    0  0.00000000000E+00 -0.00000000000E+00 -0.10047296484E+02  0.10127243782E+02  0.12700000000E+01 0. -1.
         25    2    1    2    0    0  0.00000000000E+00  0.00000000000E+00  0.37710437708E+03  0.39728100038E+03  0.12499792816E+03 0.  0.
    9000005    1    3    3    0    0 -0.39608810289E+02  0.18665647595E+01  0.34206044604E+03  0.34435256738E+03  0.10000000000E+01 0.  0.
    9000005    1    3    3    0    0  0.39608810289E+02 -0.18665647595E+01  0.35043931043E+02  0.52928432997E+02  0.10000000000E+01 0.  0.
<mgrwt>
<rscale>  0 0.12499793E+03</rscale>
<asrwt>0</asrwt>
<pdfrwt beam="2">  1        4 0.15520478E-02 0.12499793E+03</pdfrwt>
<pdfrwt beam="1">  1       -4 0.59568110E-01 0.12499793E+03</pdfrwt>
<totfact> 0.64821058E+03</totfact>
</mgrwt>
</event>
<event>
 5    1  0.3232465E-002  0.1250076E+03  0.7818608E-02  0.1235057E+00
          4   -1    0    0  501    0  0.00000000000E+00  0.00000000000E+00  0.14358267136E+03  0.14358828788E+03  0.12700000000E+01 0. -1.
         -4   -1    0    0    0  501 -0.00000000000E+00 -0.00000000000E+00 -0.27187938776E+02  0.27217584663E+02  0.12700000000E+01 0. -1.
         25    2    1    2    0    0  0.00000000000E+00  0.00000000000E+00  0.11639473258E+03  0.17080587254E+03  0.12500764905E+03 0.  0.
    9000005    1    3    3    0    0 -0.46262466628E+02  0.86349930120E+01  0.20109302389E+01  0.47114995099E+02  0.10000000000E+01 0.  0.
    9000005    1    3    3    0    0  0.46262466628E+02 -0.86349930120E+01  0.11438380235E+03  0.12369087744E+03  0.10000000000E+01 0.  0.
<mgrwt>
<rscale>  0 0.12500765E+03</rscale>
<asrwt>0</asrwt>
<pdfrwt beam="1">  1        4 0.22092354E-01 0.12500765E+03</pdfrwt>
<pdfrwt beam="2">  1       -4 0.41854723E-02 0.12500765E+03</pdfrwt>
<totfact> 0.95282288E+03</totfact>
</mgrwt>
</event>
<event>
 5    1  0.3232465E-002  0.1249975E+03  0.7818608E-02  0.1235073E+00
         -4   -1    0    0    0  501 -0.00000000000E+00  0.00000000000E+00  0.29756453922E+02  0.29783543275E+02  0.12700000000E+01 0.  1.
          4   -1    0    0  501    0  0.00000000000E+00 -0.00000000000E+00 -0.13117890619E+03  0.13118505376E+03  0.12700000000E+01 0.  1.
         25    2    1    2    0    0  0.00000000000E+00  0.00000000000E+00 -0.10142245227E+03  0.16096859703E+03  0.12499750160E+03 0.  0.
    9000005    1    3    3    0    0 -0.47555681270E+02 -0.37541661648E+02 -0.70417739210E+02  0.92900899757E+02  0.10000000000E+01 0.  0.
    9000005    1    3    3    0    0  0.47555681270E+02  0.37541661648E+02 -0.31004713057E+02  0.68067697273E+02  0.10000000000E+01 0.  0.
<mgrwt>
<rscale>  0 0.12499750E+03</rscale>
<asrwt>0</asrwt>
<pdfrwt beam="2">  1        4 0.20183927E-01 0.12499750E+03</pdfrwt>
<pdfrwt beam="1">  1       -4 0.45804728E-02 0.12499750E+03</pdfrwt>
<totfact> 0.97161827E+03</totfact>
</mgrwt>
</event>
<event>
 5    1  0.3232465E-002  0.1250009E+03  0.7818608E-02  0.1235068E+00
         -4   -1    0    0    0  501 -0.00000000000E+00  0.00000000000E+00  0.18992463774E+02  0.19034877992E+02  0.12700000000E+01 0. -1.
          4   -1    0    0  501    0  0.00000000000E+00 -0.00000000000E+00 -0.20540290197E+03  0.20540682811E+03  0.12700000000E+01 0. -1.
         25    2    1    2    0    0  0.00000000000E+00  0.00000000000E+00 -0.18641043819E+03  0.22444170611E+03  0.12500091189E+03 0.  0.
    9000005    1    3    3    0    0 -0.59901778753E+02 -0.60357608024E+01 -0.63125373582E+02  0.87237986543E+02  0.10000000000E+01 0.  0.
    9000005    1    3    3    0    0  0.59901778753E+02  0.60357608024E+01 -0.12328506461E+03  0.13720371956E+03  0.10000000000E+01 0.  0.
<mgrwt>
<rscale>  0 0.12500091E+03</rscale>
<asrwt>0</asrwt>
<pdfrwt beam="2">  1        4 0.31604010E-01 0.12500091E+03</pdfrwt>
<pdfrwt beam="1">  1       -4 0.29254823E-02 0.12500091E+03</pdfrwt>
<totfact> 0.86168597E+03</totfact>
</mgrwt>
</event>
<event>
 5    1  0.3232465E-002  0.1250014E+03  0.7818608E-02  0.1235067E+00
         -4   -1    0    0    0  501 -0.00000000000E+00  0.00000000000E+00  0.55963628617E+02  0.55978037014E+02  0.12700000000E+01 0. -1.
          4   -1    0    0  501    0  0.00000000000E+00 -0.00000000000E+00 -0.69772157908E+02  0.69783715286E+02  0.12700000000E+01 0. -1.
         25    2    1    2    0    0  0.00000000000E+00  0.00000000000E+00 -0.13808529291E+02  0.12576175230E+03  0.12500137143E+03 0.  0.
    9000005    1    3    3    0    0 -0.46565845115E+02 -0.28015262996E+02  0.24139596239E+02  0.59472287653E+02  0.10000000000E+01 0.  0.
    9000005    1    3    3    0    0  0.46565845115E+02  0.28015262996E+02 -0.37948125530E+02  0.66289464648E+02  0.10000000000E+01 0.  0.
<mgrwt>
<rscale>  0 0.12500137E+03</rscale>
<asrwt>0</asrwt>
<pdfrwt beam="2">  1        4 0.10736176E-01 0.12500137E+03</pdfrwt>
<pdfrwt beam="1">  1       -4 0.86117864E-02 0.12500137E+03</pdfrwt>
<totfact> 0.10435863E+04</totfact>
</mgrwt>
</event>
<event>
 5    1  0.3232465E-002  0.1250128E+03  0.7818608E-02  0.1235049E+00
         -4   -1    0    0    0  501 -0.00000000000E+00  0.00000000000E+00  0.26890189384E+03  0.26890489288E+03  0.12700000000E+01 0. -1.
          4   -1    0    0  501    0  0.00000000000E+00 -0.00000000000E+00 -0.14498809742E+02  0.14554325266E+02  0.12700000000E+01 0. -1.
         25    2    1    2    0    0  0.00000000000E+00  0.00000000000E+00  0.25440308410E+03  0.28345921814E+03  0.12501279594E+03 0.  0.
    9000005    1    3    3    0    0  0.17029832705E+01 -0.19543461670E+02  0.26175090075E+03  0.26248691604E+03  0.10000000000E+01 0.  0.
    9000005    1    3    3    0    0 -0.17029832705E+01  0.19543461670E+02 -0.73478166502E+01  0.20972302105E+02  0.10000000000E+01 0.  0.
<mgrwt>
<rscale>  0 0.12501280E+03</rscale>
<asrwt>0</asrwt>
<pdfrwt beam="2">  1        4 0.22350872E-02 0.12501280E+03</pdfrwt>
<pdfrwt beam="1">  1       -4 0.41374024E-01 0.12501280E+03</pdfrwt>
<totfact> 0.77699564E+03</totfact>
</mgrwt>
</event>
<event>
 5    1  0.3232465E-002  0.1250142E+03  0.7818608E-02  0.1235047E+00
          4   -1    0    0  501    0  0.00000000000E+00  0.00000000000E+00  0.55797876952E+01  0.57224934009E+01  0.12700000000E+01 0. -1.
         -4   -1    0    0    0  501 -0.00000000000E+00 -0.00000000000E+00 -0.69124561084E+03  0.69124677750E+03  0.12700000000E+01 0. -1.
         25    2    1    2    0    0  0.00000000000E+00  0.00000000000E+00 -0.68566582314E+03  0.69696927090E+03  0.12501417341E+03 0.  0.
    9000005    1    3    3    0    0 -0.28641347963E+01  0.35275074454E+02 -0.55640970599E+02  0.65950373427E+02  0.10000000000E+01 0.  0.
    9000005    1    3    3    0    0  0.28641347963E+01 -0.35275074454E+02 -0.63002485254E+03  0.63101889747E+03  0.10000000000E+01 0.  0.
<mgrwt>
<rscale>  0 0.12501417E+03</rscale>
<asrwt>0</asrwt>
<pdfrwt beam="1">  1        4 0.86949653E-03 0.12501417E+03</pdfrwt>
<pdfrwt beam="2">  1       -4 0.10635648E+00 0.12501417E+03</pdfrwt>
<totfact> 0.43233773E+03</totfact>
</mgrwt>
</event>
<event>
 5    1  0.3232465E-002  0.1249979E+03  0.7818608E-02  0.1235073E+00
         -4   -1    0    0    0  501 -0.00000000000E+00  0.00000000000E+00  0.33457830015E+03  0.33458071049E+03  0.12700000000E+01 0.  1.
          4   -1    0    0  501    0  0.00000000000E+00 -0.00000000000E+00 -0.11637757566E+02  0.11706848473E+02  0.12700000000E+01 0.  1.
         25    2    1    2    0    0  0.00000000000E+00  0.00000000000E+00  0.32294054259E+03  0.34628755897E+03  0.12499791777E+03 0.  0.
    9000005    1    3    3    0    0  0.14126153402E+02 -0.18729897629E+02  0.32192961292E+03  0.32278480904E+03  0.10000000000E+01 0.  0.
    9000005    1    3    3    0    0 -0.14126153402E+02  0.18729897629E+02  0.10109296695E+01  0.23502749923E+02  0.10000000000E+01 0.  0.
<mgrwt>
<rscale>  0 0.12499792E+03</rscale>
<asrwt>0</asrwt>
<pdfrwt beam="2">  1        4 0.17959241E-02 0.12499792E+03</pdfrwt>
<pdfrwt beam="1">  1       -4 0.51479092E-01 0.12499792E+03</pdfrwt>
<totfact> 0.70138135E+03</totfact>
</mgrwt>
</event>
<event>
 5    1  0.3232465E-002  0.1249961E+03  0.7818608E-02  0.1235075E+00
          4   -1    0    0  501    0  0.00000000000E+00  0.00000000000E+00  0.19144983788E+02  0.19187060854E+02  0.12700000000E+01 0.  1.
         -4   -1    0    0    0  501 -0.00000000000E+00 -0.00000000000E+00 -0.20375432515E+03  0.20375828307E+03  0.12700000000E+01 0.  1.
         25    2    1    2    0    0  0.00000000000E+00  0.00000000000E+00 -0.18460934136E+03  0.22294534392E+03  0.12499606977E+03 0.  0.
    9000005    1    3    3    0    0 -0.57967958875E+02  0.27016960119E+01 -0.13365313113E+03  0.14571116251E+03  0.10000000000E+01 0.  0.
    9000005    1    3    3    0    0  0.57967958875E+02 -0.27016960119E+01 -0.50956210229E+02  0.77234181412E+02  0.10000000000E+01 0.  0.
<mgrwt>
<rscale>  0 0.12499607E+03</rscale>
<asrwt>0</asrwt>
<pdfrwt beam="1">  1        4 0.29489234E-02 0.12499607E+03</pdfrwt>
<pdfrwt beam="2">  1       -4 0.31350359E-01 0.12499607E+03</pdfrwt>
<totfact> 0.86412007E+03</totfact>
</mgrwt>
</event>
<event>
 5    1  0.3232465E-002  0.1250004E+03  0.7818608E-02  0.1235069E+00
          4   -1    0    0  501    0  0.00000000000E+00  0.00000000000E+00  0.23958927081E+03  0.23959263676E+03  0.12700000000E+01 0.  1.
         -4   -1    0    0    0  501 -0.00000000000E+00 -0.00000000000E+00 -0.16275839302E+02  0.16325313013E+02  0.12700000000E+01 0.  1.
         25    2    1    2    0    0  0.00000000000E+00  0.00000000000E+00  0.22331343151E+03  0.25591794977E+03  0.12500043329E+03 0.  0.
    9000005    1    3    3    0    0  0.55585178788E+02  0.14914990504E+01  0.17004495846E+03  0.17890842509E+03  0.10000000000E+01 0.  0.
    9000005    1    3    3    0    0 -0.55585178788E+02 -0.14914990504E+01  0.53268473046E+02  0.77009524677E+02  0.10000000000E+01 0.  0.
<mgrwt>
<rscale>  0 0.12500043E+03</rscale>
<asrwt>0</asrwt>
<pdfrwt beam="1">  1        4 0.36863949E-01 0.12500043E+03</pdfrwt>
<pdfrwt beam="2">  1       -4 0.25080401E-02 0.12500043E+03</pdfrwt>
<totfact> 0.81481569E+03</totfact>
</mgrwt>
</event>
<event>
 5    1  0.3232465E-002  0.1250231E+03  0.7818608E-02  0.1235033E+00
         -4   -1    0    0    0  501 -0.00000000000E+00  0.00000000000E+00  0.13428852576E+03  0.13429453098E+03  0.12700000000E+01 0.  1.
          4   -1    0    0  501    0  0.00000000000E+00 -0.00000000000E+00 -0.29078736411E+02  0.29106456522E+02  0.12700000000E+01 0.  1.
         25    2    1    2    0    0  0.00000000000E+00  0.00000000000E+00  0.10520978935E+03  0.16340098750E+03  0.12502312963E+03 0.  0.
    9000005    1    3    3    0    0 -0.28240893083E+02 -0.69234301788E+01 -0.19707233385E+02  0.35140531801E+02  0.10000000000E+01 0.  0.
    9000005    1    3    3    0    0  0.28240893083E+02  0.69234301788E+01  0.12491702273E+03  0.12826045570E+03  0.10000000000E+01 0.  0.
<mgrwt>
<rscale>  0 0.12502313E+03</rscale>
<asrwt>0</asrwt>
<pdfrwt beam="2">  1        4 0.44762459E-02 0.12502313E+03</pdfrwt>
<pdfrwt beam="1">  1       -4 0.20662368E-01 0.12502313E+03</pdfrwt>
<totfact> 0.96640846E+03</totfact>
</mgrwt>
</event>
<event>
 5    1  0.3232465E-002  0.1250034E+03  0.7818608E-02  0.1235064E+00
          4   -1    0    0  501    0  0.00000000000E+00  0.00000000000E+00  0.68383650616E+02  0.68395442623E+02  0.12700000000E+01 0. -1.
         -4   -1    0    0    0  501 -0.00000000000E+00 -0.00000000000E+00 -0.57101895716E+02  0.57116016969E+02  0.12700000000E+01 0. -1.
         25    2    1    2    0    0  0.00000000000E+00  0.00000000000E+00  0.11281754900E+02  0.12551145959E+03  0.12500339394E+03 0.  0.
    9000005    1    3    3    0    0 -0.38346586399E+02 -0.34012147861E+02  0.41537763345E+02  0.65982366389E+02  0.10000000000E+01 0.  0.
    9000005    1    3    3    0    0  0.38346586399E+02  0.34012147861E+02 -0.30256008445E+02  0.59529093203E+02  0.10000000000E+01 0.  0.
<mgrwt>
<rscale>  0 0.12500339E+03</rscale>
<asrwt>0</asrwt>
<pdfrwt beam="1">  1        4 0.10522555E-01 0.12500339E+03</pdfrwt>
<pdfrwt beam="2">  1       -4 0.87869004E-02 0.12500339E+03</pdfrwt>
<totfact> 0.10440902E+04</totfact>
</mgrwt>
</event>
<event>
 5    1  0.3232465E-002  0.1250047E+03  0.7818608E-02  0.1235062E+00
         -4   -1    0    0    0  501 -0.00000000000E+00  0.00000000000E+00  0.38428519944E+02  0.38449499933E+02  0.12700000000E+01 0. -1.
          4   -1    0    0  501    0  0.00000000000E+00 -0.00000000000E+00 -0.10160468169E+03  0.10161261851E+03  0.12700000000E+01 0. -1.
         25    2    1    2    0    0  0.00000000000E+00  0.00000000000E+00 -0.63176161741E+02  0.14006211844E+03  0.12500467835E+03 0.  0.
    9000005    1    3    3    0    0  0.25063486833E+02 -0.17352689421E+02 -0.92714505875E+02  0.97602632147E+02  0.10000000000E+01 0.  0.
    9000005    1    3    3    0    0 -0.25063486833E+02  0.17352689421E+02  0.29538344134E+02  0.42459486296E+02  0.10000000000E+01 0.  0.
<mgrwt>
<rscale>  0 0.12500468E+03</rscale>
<asrwt>0</asrwt>
<pdfrwt beam="2">  1        4 0.15633714E-01 0.12500468E+03</pdfrwt>
<pdfrwt beam="1">  1       -4 0.59143044E-02 0.12500468E+03</pdfrwt>
<totfact> 0.10131231E+04</totfact>
</mgrwt>
</event>
<event>
 5    1  0.3232465E-002  0.1250008E+03  0.7818608E-02  0.1235068E+00
         -4   -1    0    0    0  501 -0.00000000000E+00  0.00000000000E+00  0.19178642408E+03  0.19179062897E+03  0.12700000000E+01 0.  1.
          4   -1    0    0  501    0  0.00000000000E+00 -0.00000000000E+00 -0.20343745812E+02  0.20383348441E+02  0.12700000000E+01 0.  1.
         25    2    1    2    0    0  0.00000000000E+00  0.00000000000E+00  0.17144267827E+03  0.21217397741E+03  0.12500081903E+03 0.  0.
    9000005    1    3    3    0    0 -0.32114991300E+02 -0.30246624060E+02  0.16084976073E+03  0.16679291490E+03  0.10000000000E+01 0.  0.
    9000005    1    3    3    0    0  0.32114991300E+02  0.30246624060E+02  0.10592917541E+02  0.45381062517E+02  0.10000000000E+01 0.  0.
<mgrwt>
<rscale>  0 0.12500082E+03</rscale>
<asrwt>0</asrwt>
<pdfrwt beam="2">  1        4 0.31331768E-02 0.12500082E+03</pdfrwt>
<pdfrwt beam="1">  1       -4 0.29508974E-01 0.12500082E+03</pdfrwt>
<totfact> 0.88120454E+03</totfact>
</mgrwt>
</event>
<event>
 5    1  0.3232465E-002  0.1250007E+03  0.7818608E-02  0.1235068E+00
         -4   -1    0    0    0  501 -0.00000000000E+00  0.00000000000E+00  0.27825228124E+02  0.27854195737E+02  0.12700000000E+01 0. -1.
          4   -1    0    0  501    0  0.00000000000E+00 -0.00000000000E+00 -0.14028183079E+03  0.14028757945E+03  0.12700000000E+01 0. -1.
         25    2    1    2    0    0  0.00000000000E+00  0.00000000000E+00 -0.11245660266E+03  0.16814177519E+03  0.12500067632E+03 0.  0.
    9000005    1    3    3    0    0  0.16943598681E+02  0.10793618903E+01 -0.13712671842E+03  0.13817737682E+03  0.10000000000E+01 0.  0.
    9000005    1    3    3    0    0 -0.16943598681E+02 -0.10793618903E+01  0.24670115759E+02  0.29964398374E+02  0.10000000000E+01 0.  0.
<mgrwt>
<rscale>  0 0.12500068E+03</rscale>
<asrwt>0</asrwt>
<pdfrwt beam="2">  1        4 0.21584490E-01 0.12500068E+03</pdfrwt>
<pdfrwt beam="1">  1       -4 0.42834749E-02 0.12500068E+03</pdfrwt>
<totfact> 0.95794222E+03</totfact>
</mgrwt>
</event>
<event>
 5    1  0.3232465E-002  0.1249998E+03  0.7818608E-02  0.1235070E+00
          4   -1    0    0  501    0  0.00000000000E+00  0.00000000000E+00  0.76689074934E+02  0.76699590053E+02  0.12700000000E+01 0. -1.
         -4   -1    0    0    0  501 -0.00000000000E+00 -0.00000000000E+00 -0.50914122440E+02  0.50929959394E+02  0.12700000000E+01 0. -1.
         25    2    1    2    0    0  0.00000000000E+00  0.00000000000E+00  0.25774952494E+02  0.12762954945E+03  0.12499981486E+03 0.  0.
    9000005    1    3    3    0    0 -0.23443956992E+02  0.58124413597E+01  0.71735364636E+02  0.75699181854E+02  0.10000000000E+01 0.  0.
    9000005    1    3    3    0    0  0.23443956992E+02 -0.58124413597E+01 -0.45960412142E+02  0.51930367592E+02  0.10000000000E+01 0.  0.
<mgrwt>
<rscale>  0 0.12499981E+03</rscale>
<asrwt>0</asrwt>
<pdfrwt beam="1">  1        4 0.11800346E-01 0.12499981E+03</pdfrwt>
<pdfrwt beam="2">  1       -4 0.78349690E-02 0.12499981E+03</pdfrwt>
<totfact> 0.10395539E+04</totfact>
</mgrwt>
</event>
<event>
 5    1  0.3232465E-002  0.1250020E+03  0.7818608E-02  0.1235066E+00
         -4   -1    0    0    0  501 -0.00000000000E+00  0.00000000000E+00  0.20677182560E+01  0.24265940711E+01  0.12700000000E+01 0.  1.
          4   -1    0    0  501    0  0.00000000000E+00 -0.00000000000E+00 -0.17380055544E+04  0.17380060184E+04  0.12700000000E+01 0.  1.
         25    2    1    2    0    0  0.00000000000E+00  0.00000000000E+00 -0.17359378362E+04  0.17404326125E+04  0.12500203049E+03 0.  0.
    9000005    1    3    3    0    0  0.25938734534E+02  0.42888016620E+02 -0.34828019723E+03  0.35186971410E+03  0.10000000000E+01 0.  0.
    9000005    1    3    3    0    0 -0.25938734534E+02 -0.42888016620E+02 -0.13876576389E+04  0.13885628984E+04  0.10000000000E+01 0.  0.
<mgrwt>
<rscale>  0 0.12500203E+03</rscale>
<asrwt>0</asrwt>
<pdfrwt beam="2">  1        4 0.26741204E+00 0.12500203E+03</pdfrwt>
<pdfrwt beam="1">  1       -4 0.34575341E-03 0.12500203E+03</pdfrwt>
<totfact> 0.13643417E+03</totfact>
</mgrwt>
</event>
<event>
 5    1  0.3232465E-002  0.1249955E+03  0.7818608E-02  0.1235076E+00
         -4   -1    0    0    0  501 -0.00000000000E+00  0.00000000000E+00  0.66773933584E+01  0.67970936482E+01  0.12700000000E+01 0. -1.
          4   -1    0    0  501    0  0.00000000000E+00 -0.00000000000E+00 -0.57963684391E+03  0.57963823521E+03  0.12700000000E+01 0. -1.
         25    2    1    2    0    0  0.00000000000E+00  0.00000000000E+00 -0.57295945055E+03  0.58643532885E+03  0.12499545175E+03 0.  0.
    9000005    1    3    3    0    0 -0.41482300718E+02  0.44864586257E+02 -0.34789441129E+03  0.35322108343E+03  0.10000000000E+01 0.  0.
    9000005    1    3    3    0    0  0.41482300718E+02 -0.44864586257E+02 -0.22506503926E+03  0.23321424543E+03  0.10000000000E+01 0.  0.
<mgrwt>
<rscale>  0 0.12499545E+03</rscale>
<asrwt>0</asrwt>
<pdfrwt beam="2">  1        4 0.89184175E-01 0.12499545E+03</pdfrwt>
<pdfrwt beam="1">  1       -4 0.10366065E-02 0.12499545E+03</pdfrwt>
<totfact> 0.49740179E+03</totfact>
</mgrwt>
</event>
<event>
 5    1  0.3232465E-002  0.1250012E+03  0.7818608E-02  0.1235067E+00
         -4   -1    0    0    0  501 -0.00000000000E+00  0.00000000000E+00  0.14634432625E+03  0.14634983678E+03  0.12700000000E+01 0.  1.
          4   -1    0    0  501    0  0.00000000000E+00 -0.00000000000E+00 -0.26671554534E+02  0.26701773747E+02  0.12700000000E+01 0.  1.
         25    2    1    2    0    0  0.00000000000E+00  0.00000000000E+00  0.11967277172E+03  0.17305161053E+03  0.12500115046E+03 0.  0.
    9000005    1    3    3    0    0 -0.60455418464E+02 -0.14693172689E+02  0.67976724478E+02  0.92155206126E+02  0.10000000000E+01 0.  0.
    9000005    1    3    3    0    0  0.60455418464E+02  0.14693172689E+02  0.51696047243E+02  0.80896404406E+02  0.10000000000E+01 0.  0.
<mgrwt>
<rscale>  0 0.12500115E+03</rscale>
<asrwt>0</asrwt>
<pdfrwt beam="2">  1        4 0.41060645E-02 0.12500115E+03</pdfrwt>
<pdfrwt beam="1">  1       -4 0.22517260E-01 0.12500115E+03</pdfrwt>
<totfact> 0.94880450E+03</totfact>
</mgrwt>
</event>
<event>
 5    1  0.3232465E-002  0.1249995E+03  0.7818608E-02  0.1235070E+00
          4   -1    0    0  501    0  0.00000000000E+00  0.00000000000E+00  0.80204888810E+02  0.80214943053E+02  0.12700000000E+01 0.  1.
         -4   -1    0    0    0  501 -0.00000000000E+00 -0.00000000000E+00 -0.48681597900E+02  0.48698160890E+02  0.12700000000E+01 0.  1.
         25    2    1    2    0    0  0.00000000000E+00  0.00000000000E+00  0.31523290910E+02  0.12891310394E+03  0.12499948199E+03 0.  0.
    9000005    1    3    3    0    0 -0.22379929901E+02  0.42411706858E+02  0.57086183079E+02  0.74561695525E+02  0.10000000000E+01 0.  0.
    9000005    1    3    3    0    0  0.22379929901E+02 -0.42411706858E+02 -0.25562892169E+02  0.54351408418E+02  0.10000000000E+01 0.  0.
<mgrwt>
<rscale>  0 0.12499948E+03</rscale>
<asrwt>0</asrwt>
<pdfrwt beam="1">  1        4 0.12341261E-01 0.12499948E+03</pdfrwt>
<pdfrwt beam="2">  1       -4 0.74915241E-02 0.12499948E+03</pdfrwt>
<totfact> 0.10367936E+04</totfact>
</mgrwt>
</event>
<event>
 5    1  0.3232465E-002  0.1249980E+03  0.7818608E-02  0.1235072E+00
         -4   -1    0    0    0  501 -0.00000000000E+00  0.00000000000E+00  0.50608487931E+02  0.50624420497E+02  0.12700000000E+01 0. -1.
          4   -1    0    0  501    0  0.00000000000E+00 -0.00000000000E+00 -0.77149848601E+02  0.77160300927E+02  0.12700000000E+01 0. -1.
         25    2    1    2    0    0  0.00000000000E+00  0.00000000000E+00 -0.26541360669E+02  0.12778472142E+03  0.12499796480E+03 0.  0.
    9000005    1    3    3    0    0  0.69616598505E+01 -0.49676913677E+02 -0.51368979661E+02  0.71805518811E+02  0.10000000000E+01 0.  0.
    9000005    1    3    3    0    0 -0.69616598505E+01  0.49676913677E+02  0.24827618991E+02  0.55979202613E+02  0.10000000000E+01 0.  0.
<mgrwt>
<rscale>  0 0.12499796E+03</rscale>
<asrwt>0</asrwt>
<pdfrwt beam="2">  1        4 0.11871237E-01 0.12499796E+03</pdfrwt>
<pdfrwt beam="1">  1       -4 0.77879509E-02 0.12499796E+03</pdfrwt>
<totfact> 0.10392617E+04</totfact>
</mgrwt>
</event>
<event>
 5    1  0.3232465E-002  0.1250003E+03  0.7818608E-02  0.1235069E+00
          4   -1    0    0  501    0  0.00000000000E+00  0.00000000000E+00  0.34011487437E+02  0.34035190284E+02  0.12700000000E+01 0. -1.
         -4   -1    0    0    0  501 -0.00000000000E+00 -0.00000000000E+00 -0.11478429679E+03  0.11479132236E+03  0.12700000000E+01 0. -1.
         25    2    1    2    0    0  0.00000000000E+00  0.00000000000E+00 -0.80772809352E+02  0.14882651264E+03  0.12500033654E+03 0.  0.
    9000005    1    3    3    0    0  0.15678470460E+01  0.24858417584E+02 -0.10862472786E+03  0.11144833140E+03  0.10000000000E+01 0.  0.
    9000005    1    3    3    0    0 -0.15678470460E+01 -0.24858417584E+02  0.27851918503E+02  0.37378181249E+02  0.10000000000E+01 0.  0.
<mgrwt>
<rscale>  0 0.12500034E+03</rscale>
<asrwt>0</asrwt>
<pdfrwt beam="1">  1        4 0.52349003E-02 0.12500034E+03</pdfrwt>
<pdfrwt beam="2">  1       -4 0.17661486E-01 0.12500034E+03</pdfrwt>
<totfact> 0.99537377E+03</totfact>
</mgrwt>
</event>
<event>
 5    1  0.3232465E-002  0.1249964E+03  0.7818608E-02  0.1235075E+00
          4   -1    0    0  501    0  0.00000000000E+00  0.00000000000E+00  0.16813270506E+03  0.16813750150E+03  0.12700000000E+01 0. -1.
         -4   -1    0    0    0  501 -0.00000000000E+00 -0.00000000000E+00 -0.23209300757E+02  0.23244021632E+02  0.12700000000E+01 0. -1.
         25    2    1    2    0    0  0.00000000000E+00  0.00000000000E+00  0.14492340430E+03  0.19138152313E+03  0.12499637707E+03 0.  0.
    9000005    1    3    3    0    0 -0.21238829768E+02  0.58653889303E+02  0.78119917134E+02  0.99975437350E+02  0.10000000000E+01 0.  0.
    9000005    1    3    3    0    0  0.21238829768E+02 -0.58653889303E+02  0.66803487169E+02  0.91406085783E+02  0.10000000000E+01 0.  0.
<mgrwt>
<rscale>  0 0.12499638E+03</rscale>
<asrwt>0</asrwt>
<pdfrwt beam="1">  1        4 0.25869611E-01 0.12499638E+03</pdfrwt>
<pdfrwt beam="2">  1       -4 0.35737013E-02 0.12499638E+03</pdfrwt>
<totfact> 0.91614921E+03</totfact>
</mgrwt>
</event>
<event>
 5    1  0.3232465E-002  0.1249987E+03  0.7818608E-02  0.1235071E+00
          4   -1    0    0  501    0  0.00000000000E+00  0.00000000000E+00  0.13666224986E+03  0.13666815078E+03  0.12700000000E+01 0.  1.
         -4   -1    0    0    0  501 -0.00000000000E+00 -0.00000000000E+00 -0.28562009136E+02  0.28590230253E+02  0.12700000000E+01 0.  1.
         25    2    1    2    0    0  0.00000000000E+00  0.00000000000E+00  0.10810024073E+03  0.16525838103E+03  0.12499868182E+03 0.  0.
    9000005    1    3    3    0    0 -0.47107197328E+02  0.16985855029E+02  0.10347474035E+03  0.11495925018E+03  0.10000000000E+01 0.  0.
    9000005    1    3    3    0    0  0.47107197328E+02 -0.16985855029E+02  0.46255003791E+01  0.50299130856E+02  0.10000000000E+01 0.  0.
<mgrwt>
<rscale>  0 0.12499868E+03</rscale>
<asrwt>0</asrwt>
<pdfrwt beam="1">  1        4 0.21027586E-01 0.12499868E+03</pdfrwt>
<pdfrwt beam="2">  1       -4 0.43967801E-02 0.12499868E+03</pdfrwt>
<totfact> 0.96341334E+03</totfact>
</mgrwt>
</event>
<event>
 5    1  0.3232465E-002  0.1250229E+03  0.7818608E-02  0.1235034E+00
          4   -1    0    0  501    0  0.00000000000E+00  0.00000000000E+00  0.31154839683E+03  0.31155098534E+03  0.12700000000E+01 0.  1.
         -4   -1    0    0    0  501 -0.00000000000E+00 -0.00000000000E+00 -0.12507970580E+02  0.12572280145E+02  0.12700000000E+01 0.  1.
         25    2    1    2    0    0  0.00000000000E+00  0.00000000000E+00  0.29904042625E+03  0.32412326548E+03  0.12502285670E+03 0.  0.
    9000005    1    3    3    0    0 -0.21778396884E+02 -0.39147929066E+02  0.36520592061E+02  0.57806682706E+02  0.10000000000E+01 0.  0.
    9000005    1    3    3    0    0  0.21778396884E+02  0.39147929066E+02  0.26251983419E+03  0.26631658278E+03  0.10000000000E+01 0.  0.
<mgrwt>
<rscale>  0 0.12502286E+03</rscale>
<asrwt>0</asrwt>
<pdfrwt beam="1">  1        4 0.47935667E-01 0.12502286E+03</pdfrwt>
<pdfrwt beam="2">  1       -4 0.19294492E-02 0.12502286E+03</pdfrwt>
<totfact> 0.72631588E+03</totfact>
</mgrwt>
</event>
<event>
 5    1  0.3232465E-002  0.1250077E+03  0.7818608E-02  0.1235057E+00
          4   -1    0    0  501    0  0.00000000000E+00  0.00000000000E+00  0.28818757107E+03  0.28819036940E+03  0.12700000000E+01 0.  1.
         -4   -1    0    0    0  501 -0.00000000000E+00 -0.00000000000E+00 -0.13523602931E+02  0.13583104808E+02  0.12700000000E+01 0.  1.
         25    2    1    2    0    0  0.00000000000E+00  0.00000000000E+00  0.27466396814E+03  0.30177347421E+03  0.12500773714E+03 0.  0.
    9000005    1    3    3    0    0 -0.51295911485E+01 -0.39053355583E+02  0.20201202943E+02  0.44278277834E+02  0.10000000000E+01 0.  0.
    9000005    1    3    3    0    0  0.51295911485E+01  0.39053355583E+02  0.25446276519E+03  0.25749519638E+03  0.10000000000E+01 0.  0.
<mgrwt>
<rscale>  0 0.12500774E+03</rscale>
<asrwt>0</asrwt>
<pdfrwt beam="1">  1        4 0.44341336E-01 0.12500774E+03</pdfrwt>
<pdfrwt beam="2">  1       -4 0.20853469E-02 0.12500774E+03</pdfrwt>
<totfact> 0.75363974E+03</totfact>
</mgrwt>
</event>
<event>
 5    1  0.3232465E-002  0.1249993E+03  0.7818608E-02  0.1235070E+00
          4   -1    0    0  501    0  0.00000000000E+00  0.00000000000E+00  0.22005945243E+02  0.22042561694E+02  0.12700000000E+01 0. -1.
         -4   -1    0    0    0  501 -0.00000000000E+00 -0.00000000000E+00 -0.17732032251E+03  0.17732487044E+03  0.12700000000E+01 0. -1.
         25    2    1    2    0    0  0.00000000000E+00  0.00000000000E+00 -0.15531437727E+03  0.19936743213E+03  0.12499926883E+03 0.  0.
    9000005    1    3    3    0    0  0.60996798647E+02  0.71554686032E+01 -0.96078268924E+02  0.11403439804E+03  0.10000000000E+01 0.  0.
    9000005    1    3    3    0    0 -0.60996798647E+02 -0.71554686032E+01 -0.59236108346E+02  0.85333034097E+02  0.10000000000E+01 0.  0.
<mgrwt>
<rscale>  0 0.12499927E+03</rscale>
<asrwt>0</asrwt>
<pdfrwt beam="1">  1        4 0.33886967E-02 0.12499927E+03</pdfrwt>
<pdfrwt beam="2">  1       -4 0.27283215E-01 0.12499927E+03</pdfrwt>
<totfact> 0.90243781E+03</totfact>
</mgrwt>
</event>
<event>
 5    1  0.3232465E-002  0.1249980E+03  0.7818608E-02  0.1235072E+00
          4   -1    0    0  501    0  0.00000000000E+00  0.00000000000E+00  0.91283914082E+01  0.92163132380E+01  0.12700000000E+01 0. -1.
         -4   -1    0    0    0  501 -0.00000000000E+00 -0.00000000000E+00 -0.42576989698E+03  0.42577179108E+03  0.12700000000E+01 0. -1.
         25    2    1    2    0    0  0.00000000000E+00  0.00000000000E+00 -0.41664150557E+03  0.43498810431E+03  0.12499802690E+03 0.  0.
    9000005    1    3    3    0    0  0.37900388890E+02  0.49241262016E+02 -0.18524116244E+03  0.19538789529E+03  0.10000000000E+01 0.  0.
    9000005    1    3    3    0    0 -0.37900388890E+02 -0.49241262016E+02 -0.23140034313E+03  0.23960020902E+03  0.10000000000E+01 0.  0.
<mgrwt>
<rscale>  0 0.12499803E+03</rscale>
<asrwt>0</asrwt>
<pdfrwt beam="1">  1        4 0.14112772E-02 0.12499803E+03</pdfrwt>
<pdfrwt beam="2">  1       -4 0.65509955E-01 0.12499803E+03</pdfrwt>
<totfact> 0.61289111E+03</totfact>
</mgrwt>
</event>
<event>
 5    1  0.3232465E-002  0.1250005E+03  0.7818608E-02  0.1235068E+00
          4   -1    0    0  501    0  0.00000000000E+00  0.00000000000E+00  0.14043111301E+03  0.14043685557E+03  0.12700000000E+01 0. -1.
         -4   -1    0    0    0  501 -0.00000000000E+00 -0.00000000000E+00 -0.27795545339E+02  0.27824543854E+02  0.12700000000E+01 0. -1.
         25    2    1    2    0    0  0.00000000000E+00  0.00000000000E+00  0.11263556767E+03  0.16826139942E+03  0.12500050972E+03 0.  0.
    9000005    1    3    3    0    0  0.56260392628E+02 -0.20073335587E+02  0.81032712046E+02  0.10067507637E+03  0.10000000000E+01 0.  0.
    9000005    1    3    3    0    0 -0.56260392628E+02  0.20073335587E+02  0.31602855628E+02  0.67586323055E+02  0.10000000000E+01 0.  0.
<mgrwt>
<rscale>  0 0.12500051E+03</rscale>
<asrwt>0</asrwt>
<pdfrwt beam="1">  1        4 0.21607459E-01 0.12500051E+03</pdfrwt>
<pdfrwt beam="2">  1       -4 0.42789101E-02 0.12500051E+03</pdfrwt>
<totfact> 0.95772179E+03</totfact>
</mgrwt>
</event>
<event>
 5    1  0.3232465E-002  0.1249995E+03  0.7818608E-02  0.1235070E+00
         -4   -1    0    0    0  501 -0.00000000000E+00  0.00000000000E+00  0.82841542614E+02  0.82851276892E+02  0.12700000000E+01 0.  1.
          4   -1    0    0  501    0  0.00000000000E+00 -0.00000000000E+00 -0.47131842379E+02  0.47148949787E+02  0.12700000000E+01 0.  1.
         25    2    1    2    0    0  0.00000000000E+00  0.00000000000E+00  0.35709700235E+02  0.13000022668E+03  0.12499950498E+03 0.  0.
    9000005    1    3    3    0    0 -0.59702594039E+02 -0.92077795821E+01  0.34496118949E+02  0.69571295535E+02  0.10000000000E+01 0.  0.
    9000005    1    3    3    0    0  0.59702594039E+02  0.92077795821E+01  0.12135812857E+01  0.60428931145E+02  0.10000000000E+01 0.  0.
<mgrwt>
<rscale>  0 0.12499950E+03</rscale>
<asrwt>0</asrwt>
<pdfrwt beam="2">  1        4 0.72531174E-02 0.12499950E+03</pdfrwt>
<pdfrwt beam="1">  1       -4 0.12746917E-01 0.12499950E+03</pdfrwt>
<totfact> 0.10344618E+04</totfact>
</mgrwt>
</event>
<event>
 5    1  0.3232465E-002  0.1250092E+03  0.7818608E-02  0.1235055E+00
          4   -1    0    0  501    0  0.00000000000E+00  0.00000000000E+00  0.46376714837E+02  0.46394100692E+02  0.12700000000E+01 0.  1.
         -4   -1    0    0    0  501 -0.00000000000E+00 -0.00000000000E+00 -0.84203064917E+02  0.84212641815E+02  0.12700000000E+01 0.  1.
         25    2    1    2    0    0  0.00000000000E+00  0.00000000000E+00 -0.37826350081E+02  0.13060674251E+03  0.12500915338E+03 0.  0.
    9000005    1    3    3    0    0  0.59353483310E+02  0.35869008372E+01 -0.39013136191E+02  0.71124725898E+02  0.10000000000E+01 0.  0.
    9000005    1    3    3    0    0 -0.59353483310E+02 -0.35869008372E+01  0.11867861102E+01  0.59482016609E+02  0.10000000000E+01 0.  0.
<mgrwt>
<rscale>  0 0.12500915E+03</rscale>
<asrwt>0</asrwt>
<pdfrwt beam="1">  1        4 0.71369533E-02 0.12500915E+03</pdfrwt>
<pdfrwt beam="2">  1       -4 0.12956392E-01 0.12500915E+03</pdfrwt>
<totfact> 0.10329394E+04</totfact>
</mgrwt>
</event>
<event>
 5    1  0.3232465E-002  0.1250003E+03  0.7818608E-02  0.1235069E+00
          4   -1    0    0  501    0  0.00000000000E+00  0.00000000000E+00  0.66660421525E+01  0.67859426743E+01  0.12700000000E+01 0. -1.
         -4   -1    0    0    0  501 -0.00000000000E+00 -0.00000000000E+00 -0.58065181020E+03  0.58065319907E+03  0.12700000000E+01 0. -1.
         25    2    1    2    0    0  0.00000000000E+00  0.00000000000E+00 -0.57398576805E+03  0.58743914174E+03  0.12500033332E+03 0.  0.
    9000005    1    3    3    0    0  0.24340188659E+02  0.56550146097E+02 -0.33736903712E+03  0.34294202282E+03  0.10000000000E+01 0.  0.
    9000005    1    3    3    0    0 -0.24340188659E+02 -0.56550146097E+02 -0.23661673093E+03  0.24449711892E+03  0.10000000000E+01 0.  0.
<mgrwt>
<rscale>  0 0.12500033E+03</rscale>
<asrwt>0</asrwt>
<pdfrwt beam="1">  1        4 0.10348754E-02 0.12500033E+03</pdfrwt>
<pdfrwt beam="2">  1       -4 0.89340338E-01 0.12500033E+03</pdfrwt>
<totfact> 0.49669863E+03</totfact>
</mgrwt>
</event>
<event>
 5    1  0.3232465E-002  0.1250149E+03  0.7818608E-02  0.1235046E+00
         -4   -1    0    0    0  501 -0.00000000000E+00  0.00000000000E+00  0.75217528995E+01  0.76282151701E+01  0.12700000000E+01 0.  1.
          4   -1    0    0  501    0  0.00000000000E+00 -0.00000000000E+00 -0.51569346767E+03  0.51569503148E+03  0.12700000000E+01 0.  1.
         25    2    1    2    0    0  0.00000000000E+00  0.00000000000E+00 -0.50817171477E+03  0.52332324665E+03  0.12501491429E+03 0.  0.
    9000005    1    3    3    0    0  0.47326021324E+02  0.57250502081E+01 -0.84890594098E+02  0.97364990939E+02  0.10000000000E+01 0.  0.
    9000005    1    3    3    0    0 -0.47326021324E+02 -0.57250502081E+01 -0.42328112067E+03  0.42595825571E+03  0.10000000000E+01 0.  0.
<mgrwt>
<rscale>  0 0.12501491E+03</rscale>
<asrwt>0</asrwt>
<pdfrwt beam="2">  1        4 0.79345739E-01 0.12501491E+03</pdfrwt>
<pdfrwt beam="1">  1       -4 0.11655029E-02 0.12501491E+03</pdfrwt>
<totfact> 0.54081402E+03</totfact>
</mgrwt>
</event>
<event>
 5    1  0.3232465E-002  0.1249908E+03  0.7818608E-02  0.1235084E+00
         -4   -1    0    0    0  501 -0.00000000000E+00  0.00000000000E+00  0.12470635812E+04  0.12470642279E+04  0.12700000000E+01 0. -1.
          4   -1    0    0  501    0  0.00000000000E+00 -0.00000000000E+00 -0.30024746853E+01  0.32600236557E+01  0.12700000000E+01 0. -1.
         25    2    1    2    0    0  0.00000000000E+00  0.00000000000E+00  0.12440611066E+04  0.12503242516E+04  0.12499078860E+03 0.  0.
    9000005    1    3    3    0    0 -0.31020074671E+01  0.62305092829E+02  0.65827419127E+03  0.66122421154E+03  0.10000000000E+01 0.  0.
    9000005    1    3    3    0    0  0.31020074671E+01 -0.62305092829E+02  0.58578691529E+03  0.58910004003E+03  0.10000000000E+01 0.  0.
<mgrwt>
<rscale>  0 0.12499079E+03</rscale>
<asrwt>0</asrwt>
<pdfrwt beam="2">  1        4 0.48178004E-03 0.12499079E+03</pdfrwt>
<pdfrwt beam="1">  1       -4 0.19187594E+00 0.12499079E+03</pdfrwt>
<totfact> 0.23436817E+03</totfact>
</mgrwt>
</event>
<event>
 5    1  0.3232465E-002  0.1249980E+03  0.7818608E-02  0.1235072E+00
          4   -1    0    0  501    0  0.00000000000E+00  0.00000000000E+00  0.10695444269E+04  0.10695451810E+04  0.12700000000E+01 0.  1.
         -4   -1    0    0    0  501 -0.00000000000E+00 -0.00000000000E+00 -0.35409511847E+01  0.37618127668E+01  0.12700000000E+01 0.  1.
         25    2    1    2    0    0  0.00000000000E+00  0.00000000000E+00  0.10660034758E+04  0.10733069937E+04  0.12499796976E+03 0.  0.
    9000005    1    3    3    0    0 -0.14553251712E+02  0.37765538467E+02  0.94184362892E+03  0.94271334687E+03  0.10000000000E+01 0.  0.
    9000005    1    3    3    0    0  0.14553251712E+02 -0.37765538467E+02  0.12415984684E+03  0.13059364686E+03  0.10000000000E+01 0.  0.
<mgrwt>
<rscale>  0 0.12499797E+03</rscale>
<asrwt>0</asrwt>
<pdfrwt beam="1">  1        4 0.16456210E+00 0.12499797E+03</pdfrwt>
<pdfrwt beam="2">  1       -4 0.56180991E-03 0.12499797E+03</pdfrwt>
<totfact> 0.28279351E+03</totfact>
</mgrwt>
</event>
<event>
 5    1  0.3232465E-002  0.1250089E+03  0.7818608E-02  0.1235055E+00
          4   -1    0    0  501    0  0.00000000000E+00  0.00000000000E+00  0.61382878141E+02  0.61396014764E+02  0.12700000000E+01 0. -1.
         -4   -1    0    0    0  501 -0.00000000000E+00 -0.00000000000E+00 -0.63620270486E+02  0.63632945214E+02  0.12700000000E+01 0. -1.
         25    2    1    2    0    0  0.00000000000E+00  0.00000000000E+00 -0.22373923447E+01  0.12502895998E+03  0.12500893932E+03 0.  0.
    9000005    1    3    3    0    0  0.26791261072E+02  0.41686777745E+02  0.36969545870E+02  0.61832891170E+02  0.10000000000E+01 0.  0.
    9000005    1    3    3    0    0 -0.26791261072E+02 -0.41686777745E+02 -0.39206938214E+02  0.63196068808E+02  0.10000000000E+01 0.  0.
<mgrwt>
<rscale>  0 0.12500894E+03</rscale>
<asrwt>0</asrwt>
<pdfrwt beam="1">  1        4 0.94455052E-02 0.12500894E+03</pdfrwt>
<pdfrwt beam="2">  1       -4 0.97897194E-02 0.12500894E+03</pdfrwt>
<totfact> 0.10450122E+04</totfact>
</mgrwt>
</event>
<event>
 5    1  0.3232465E-002  0.1249993E+03  0.7818608E-02  0.1235070E+00
          4   -1    0    0  501    0  0.00000000000E+00  0.00000000000E+00  0.84899656290E+01  0.85844287161E+01  0.12700000000E+01 0.  1.
         -4   -1    0    0    0  501 -0.00000000000E+00 -0.00000000000E+00 -0.45745569790E+03  0.45745746080E+03  0.12700000000E+01 0.  1.
         25    2    1    2    0    0  0.00000000000E+00  0.00000000000E+00 -0.44896573227E+03  0.46604188952E+03  0.12499925612E+03 0.  0.
    9000005    1    3    3    0    0 -0.49842686059E+02 -0.37555707983E+02 -0.21241372276E+03  0.22139402470E+03  0.10000000000E+01 0.  0.
    9000005    1    3    3    0    0  0.49842686059E+02  0.37555707983E+02 -0.23655200951E+03  0.24464786482E+03  0.10000000000E+01 0.  0.
<mgrwt>
<rscale>  0 0.12499926E+03</rscale>
<asrwt>0</asrwt>
<pdfrwt beam="1">  1        4 0.13135509E-02 0.12499926E+03</pdfrwt>
<pdfrwt beam="2">  1       -4 0.70385183E-01 0.12499926E+03</pdfrwt>
<totfact> 0.58599816E+03</totfact>
</mgrwt>
</event>
<event>
 5    1  0.3232465E-002  0.1250036E+03  0.7818608E-02  0.1235064E+00
          4   -1    0    0  501    0  0.00000000000E+00  0.00000000000E+00  0.68914428297E+01  0.70074877292E+01  0.12700000000E+01 0.  1.
         -4   -1    0    0    0  501 -0.00000000000E+00 -0.00000000000E+00 -0.56200884535E+03  0.56201028029E+03  0.12700000000E+01 0.  1.
         25    2    1    2    0    0  0.00000000000E+00  0.00000000000E+00 -0.55511740252E+03  0.56901776802E+03  0.12500355891E+03 0.  0.
    9000005    1    3    3    0    0  0.46854373490E+02 -0.38850169733E+02 -0.34206321367E+03  0.34743763491E+03  0.10000000000E+01 0.  0.
    9000005    1    3    3    0    0 -0.46854373490E+02  0.38850169733E+02 -0.21305418885E+03  0.22158013312E+03  0.10000000000E+01 0.  0.
<mgrwt>
<rscale>  0 0.12500356E+03</rscale>
<asrwt>0</asrwt>
<pdfrwt beam="1">  1        4 0.10692593E-02 0.12500356E+03</pdfrwt>
<pdfrwt beam="2">  1       -4 0.86471900E-01 0.12500356E+03</pdfrwt>
<totfact> 0.50879621E+03</totfact>
</mgrwt>
</event>
<event>
 5    1  0.3232465E-002  0.1250033E+03  0.7818608E-02  0.1235064E+00
          4   -1    0    0  501    0  0.00000000000E+00  0.00000000000E+00  0.41108730423E+02  0.41128343232E+02  0.12700000000E+01 0.  1.
         -4   -1    0    0    0  501 -0.00000000000E+00 -0.00000000000E+00 -0.94980869137E+02  0.94989359415E+02  0.12700000000E+01 0.  1.
         25    2    1    2    0    0  0.00000000000E+00  0.00000000000E+00 -0.53872138715E+02  0.13611770265E+03  0.12500328653E+03 0.  0.
    9000005    1    3    3    0    0  0.29698788531E+02 -0.54286374921E+02 -0.36455614825E+02  0.71826460268E+02  0.10000000000E+01 0.  0.
    9000005    1    3    3    0    0 -0.29698788531E+02  0.54286374921E+02 -0.17416523889E+02  0.64291242379E+02  0.10000000000E+01 0.  0.
<mgrwt>
<rscale>  0 0.12500329E+03</rscale>
<asrwt>0</asrwt>
<pdfrwt beam="1">  1        4 0.63265819E-02 0.12500329E+03</pdfrwt>
<pdfrwt beam="2">  1       -4 0.14614603E-01 0.12500329E+03</pdfrwt>
<totfact> 0.10213809E+04</totfact>
</mgrwt>
</event>
<event>
 5    1  0.3232465E-002  0.1250003E+03  0.7818608E-02  0.1235069E+00
          4   -1    0    0  501    0  0.00000000000E+00  0.00000000000E+00  0.19248461642E+02  0.19290312999E+02  0.12700000000E+01 0. -1.
         -4   -1    0    0    0  501 -0.00000000000E+00 -0.00000000000E+00 -0.20267518588E+03  0.20267916487E+03  0.12700000000E+01 0. -1.
         25    2    1    2    0    0  0.00000000000E+00  0.00000000000E+00 -0.18342672424E+03  0.22196947787E+03  0.12500034376E+03 0.  0.
    9000005    1    3    3    0    0 -0.50632405067E+02 -0.20610942301E+02 -0.14548139105E+03  0.15541649374E+03  0.10000000000E+01 0.  0.
    9000005    1    3    3    0    0  0.50632405067E+02  0.20610942301E+02 -0.37945333193E+02  0.66552984130E+02  0.10000000000E+01 0.  0.
<mgrwt>
<rscale>  0 0.12500034E+03</rscale>
<asrwt>0</asrwt>
<pdfrwt beam="1">  1        4 0.29648273E-02 0.12500034E+03</pdfrwt>
<pdfrwt beam="2">  1       -4 0.31184322E-01 0.12500034E+03</pdfrwt>
<totfact> 0.86556998E+03</totfact>
</mgrwt>
</event>
<event>
 5    1  0.3232465E-002  0.1250006E+03  0.7818608E-02  0.1235068E+00
         -4   -1    0    0    0  501 -0.00000000000E+00  0.00000000000E+00  0.58305421437E+03  0.58305559751E+03  0.12700000000E+01 0.  1.
          4   -1    0    0  501    0  0.00000000000E+00 -0.00000000000E+00 -0.66381082834E+01  0.67585043894E+01  0.12700000000E+01 0.  1.
         25    2    1    2    0    0  0.00000000000E+00  0.00000000000E+00  0.57641610608E+03  0.58981410190E+03  0.12500058980E+03 0.  0.
    9000005    1    3    3    0    0 -0.49657560737E+02  0.10828383822E+02  0.11663659749E+03  0.12723294820E+03  0.10000000000E+01 0.  0.
    9000005    1    3    3    0    0  0.49657560737E+02 -0.10828383822E+02  0.45977950859E+03  0.46258115370E+03  0.10000000000E+01 0.  0.
<mgrwt>
<rscale>  0 0.12500059E+03</rscale>
<asrwt>0</asrwt>
<pdfrwt beam="2">  1        4 0.10306143E-02 0.12500059E+03</pdfrwt>
<pdfrwt beam="1">  1       -4 0.89710086E-01 0.12500059E+03</pdfrwt>
<totfact> 0.49516281E+03</totfact>
</mgrwt>
</event>
<event>
 5    1  0.3232465E-002  0.1249957E+03  0.7818608E-02  0.1235076E+00
          4   -1    0    0  501    0  0.00000000000E+00  0.00000000000E+00  0.52518890630E+02  0.52534243813E+02  0.12700000000E+01 0.  1.
         -4   -1    0    0    0  501 -0.00000000000E+00 -0.00000000000E+00 -0.74341182816E+02  0.74352029982E+02  0.12700000000E+01 0.  1.
         25    2    1    2    0    0  0.00000000000E+00  0.00000000000E+00 -0.21822292186E+02  0.12688627380E+03  0.12499565609E+03 0.  0.
    9000005    1    3    3    0    0  0.40264642901E+02  0.16097938303E+02  0.34764913873E+02  0.55587627419E+02  0.10000000000E+01 0.  0.
    9000005    1    3    3    0    0 -0.40264642901E+02 -0.16097938303E+02 -0.56587206058E+02  0.71298646376E+02  0.10000000000E+01 0.  0.
<mgrwt>
<rscale>  0 0.12499566E+03</rscale>
<asrwt>0</asrwt>
<pdfrwt beam="1">  1        4 0.80818447E-02 0.12499566E+03</pdfrwt>
<pdfrwt beam="2">  1       -4 0.11439120E-01 0.12499566E+03</pdfrwt>
<totfact> 0.10412638E+04</totfact>
</mgrwt>
</event>
<event>
 5    1  0.3232465E-002  0.1249997E+03  0.7818608E-02  0.1235070E+00
          4   -1    0    0  501    0  0.00000000000E+00  0.00000000000E+00  0.16032839322E+02  0.16083060552E+02  0.12700000000E+01 0. -1.
         -4   -1    0    0    0  501 -0.00000000000E+00 -0.00000000000E+00 -0.24320646789E+03  0.24320978378E+03  0.12700000000E+01 0. -1.
         25    2    1    2    0    0  0.00000000000E+00  0.00000000000E+00 -0.22717362857E+03  0.25929284433E+03  0.12499968641E+03 0.  0.
    9000005    1    3    3    0    0  0.57253739116E+02 -0.18984298005E+02 -0.14747153976E+03  0.15933376683E+03  0.10000000000E+01 0.  0.
    9000005    1    3    3    0    0 -0.57253739116E+02  0.18984298005E+02 -0.79702088810E+02  0.99959077498E+02  0.10000000000E+01 0.  0.
<mgrwt>
<rscale>  0 0.12499969E+03</rscale>
<asrwt>0</asrwt>
<pdfrwt beam="1">  1        4 0.24707091E-02 0.12499969E+03</pdfrwt>
<pdfrwt beam="2">  1       -4 0.37420495E-01 0.12499969E+03</pdfrwt>
<totfact> 0.81005969E+03</totfact>
</mgrwt>
</event>
<event>
 5    1  0.3232465E-002  0.1250001E+03  0.7818608E-02  0.1235069E+00
         -4   -1    0    0    0  501 -0.00000000000E+00  0.00000000000E+00  0.32979976953E+02  0.33004420610E+02  0.12700000000E+01 0.  1.
          4   -1    0    0  501    0  0.00000000000E+00 -0.00000000000E+00 -0.11837157285E+03  0.11837838552E+03  0.12700000000E+01 0.  1.
         25    2    1    2    0    0  0.00000000000E+00  0.00000000000E+00 -0.85391595898E+02  0.15138280613E+03  0.12500011737E+03 0.  0.
    9000005    1    3    3    0    0 -0.37611247991E-01 -0.60843436137E+02 -0.59964878312E+02  0.85432498305E+02  0.10000000000E+01 0.  0.
    9000005    1    3    3    0    0  0.37611247991E-01  0.60843436137E+02 -0.25426717586E+02  0.65950307830E+02  0.10000000000E+01 0.  0.
<mgrwt>
<rscale>  0 0.12500012E+03</rscale>
<asrwt>0</asrwt>
<pdfrwt beam="2">  1        4 0.18213415E-01 0.12500012E+03</pdfrwt>
<pdfrwt beam="1">  1       -4 0.50762470E-02 0.12500012E+03</pdfrwt>
<totfact> 0.99028506E+03</totfact>
</mgrwt>
</event>
<event>
 5    1  0.3232465E-002  0.1250022E+03  0.7818608E-02  0.1235066E+00
         -4   -1    0    0    0  501 -0.00000000000E+00  0.00000000000E+00  0.16814813349E+04  0.16814818145E+04  0.12700000000E+01 0. -1.
          4   -1    0    0  501    0  0.00000000000E+00 -0.00000000000E+00 -0.21491001688E+01  0.24963035744E+01  0.12700000000E+01 0. -1.
         25    2    1    2    0    0  0.00000000000E+00  0.00000000000E+00  0.16793322347E+04  0.16839781180E+04  0.12500219025E+03 0.  0.
    9000005    1    3    3    0    0  0.38231965003E+02  0.43713939757E+02  0.52871009011E+03  0.53189092027E+03  0.10000000000E+01 0.  0.
    9000005    1    3    3    0    0 -0.38231965003E+02 -0.43713939757E+02  0.11506221446E+04  0.11520871978E+04  0.10000000000E+01 0.  0.
<mgrwt>
<rscale>  0 0.12500219E+03</rscale>
<asrwt>0</asrwt>
<pdfrwt beam="2">  1        4 0.35737684E-03 0.12500219E+03</pdfrwt>
<pdfrwt beam="1">  1       -4 0.25871532E+00 0.12500219E+03</pdfrwt>
<totfact> 0.14576377E+03</totfact>
</mgrwt>
</event>
<event>
 5    1  0.3232465E-002  0.1249984E+03  0.7818608E-02  0.1235072E+00
          4   -1    0    0  501    0  0.00000000000E+00  0.00000000000E+00  0.69675353860E+02  0.69686927293E+02  0.12700000000E+01 0.  1.
         -4   -1    0    0    0  501 -0.00000000000E+00 -0.00000000000E+00 -0.56038760867E+02  0.56053149952E+02  0.12700000000E+01 0.  1.
         25    2    1    2    0    0  0.00000000000E+00  0.00000000000E+00  0.13636592993E+02  0.12574007724E+03  0.12499844142E+03 0.  0.
    9000005    1    3    3    0    0 -0.10940492787E+02  0.48860613197E+02 -0.30794709091E+02  0.58790883753E+02  0.10000000000E+01 0.  0.
    9000005    1    3    3    0    0  0.10940492787E+02 -0.48860613197E+02  0.44431302084E+02  0.66949193492E+02  0.10000000000E+01 0.  0.
<mgrwt>
<rscale>  0 0.12499844E+03</rscale>
<asrwt>0</asrwt>
<pdfrwt beam="1">  1        4 0.10721282E-01 0.12499844E+03</pdfrwt>
<pdfrwt beam="2">  1       -4 0.86233450E-02 0.12499844E+03</pdfrwt>
<totfact> 0.10437030E+04</totfact>
</mgrwt>
</event>
<event>
 5    1  0.3232465E-002  0.1249985E+03  0.7818608E-02  0.1235072E+00
         -4   -1    0    0    0  501 -0.00000000000E+00  0.00000000000E+00  0.55163767073E+02  0.55178384334E+02  0.12700000000E+01 0.  1.
          4   -1    0    0  501    0  0.00000000000E+00 -0.00000000000E+00 -0.70780484121E+02  0.70791876881E+02  0.12700000000E+01 0.  1.
         25    2    1    2    0    0  0.00000000000E+00  0.00000000000E+00 -0.15616717048E+02  0.12597026122E+03  0.12499849943E+03 0.  0.
    9000005    1    3    3    0    0 -0.38730087124E+02 -0.36662143068E+02  0.25018233664E+02  0.58915570087E+02  0.10000000000E+01 0.  0.
    9000005    1    3    3    0    0  0.38730087124E+02  0.36662143068E+02 -0.40634950712E+02  0.67054691129E+02  0.10000000000E+01 0.  0.
<mgrwt>
<rscale>  0 0.12499850E+03</rscale>
<asrwt>0</asrwt>
<pdfrwt beam="2">  1        4 0.10891306E-01 0.12499850E+03</pdfrwt>
<pdfrwt beam="1">  1       -4 0.84887341E-02 0.12499850E+03</pdfrwt>
<totfact> 0.10431962E+04</totfact>
</mgrwt>
</event>
<event>
 5    1  0.3232465E-002  0.1250002E+03  0.7818608E-02  0.1235069E+00
          4   -1    0    0  501    0  0.00000000000E+00  0.00000000000E+00  0.98717553011E+02  0.98725721939E+02  0.12700000000E+01 0. -1.
         -4   -1    0    0    0  501 -0.00000000000E+00 -0.00000000000E+00 -0.39550089616E+02  0.39570474961E+02  0.12700000000E+01 0. -1.
         25    2    1    2    0    0  0.00000000000E+00  0.00000000000E+00  0.59167463395E+02  0.13829619690E+03  0.12500019741E+03 0.  0.
    9000005    1    3    3    0    0  0.11868298623E+02  0.42157051714E+02  0.78903281730E+02  0.90248553391E+02  0.10000000000E+01 0.  0.
    9000005    1    3    3    0    0 -0.11868298623E+02 -0.42157051714E+02 -0.19735818335E+02  0.48047643509E+02  0.10000000000E+01 0.  0.
<mgrwt>
<rscale>  0 0.12500020E+03</rscale>
<asrwt>0</asrwt>
<pdfrwt beam="1">  1        4 0.15189512E-01 0.12500020E+03</pdfrwt>
<pdfrwt beam="2">  1       -4 0.60868258E-02 0.12500020E+03</pdfrwt>
<totfact> 0.10168975E+04</totfact>
</mgrwt>
</event>
<event>
 5    1  0.3232465E-002  0.1250048E+03  0.7818608E-02  0.1235062E+00
         -4   -1    0    0    0  501 -0.00000000000E+00  0.00000000000E+00  0.90541715040E+01  0.91428070976E+01  0.12700000000E+01 0. -1.
          4   -1    0    0  501    0  0.00000000000E+00 -0.00000000000E+00 -0.42927266653E+03  0.42927454516E+03  0.12700000000E+01 0. -1.
         25    2    1    2    0    0  0.00000000000E+00  0.00000000000E+00 -0.42021849502E+03  0.43841735226E+03  0.12500476473E+03 0.  0.
    9000005    1    3    3    0    0 -0.38382975746E+02  0.10249635381E+02 -0.40916497458E+02  0.57039176158E+02  0.10000000000E+01 0.  0.
    9000005    1    3    3    0    0  0.38382975746E+02 -0.10249635381E+02 -0.37930199756E+03  0.38137817610E+03  0.10000000000E+01 0.  0.
<mgrwt>
<rscale>  0 0.12500476E+03</rscale>
<asrwt>0</asrwt>
<pdfrwt beam="2">  1        4 0.66048895E-01 0.12500476E+03</pdfrwt>
<pdfrwt beam="1">  1       -4 0.13999124E-02 0.12500476E+03</pdfrwt>
<totfact> 0.60973955E+03</totfact>
</mgrwt>
</event>
<event>
 5    1  0.3232465E-002  0.1249996E+03  0.7818608E-02  0.1235070E+00
         -4   -1    0    0    0  501 -0.00000000000E+00  0.00000000000E+00  0.11891242836E+03  0.11891921005E+03  0.12700000000E+01 0. -1.
          4   -1    0    0  501    0  0.00000000000E+00 -0.00000000000E+00 -0.32829611632E+02  0.32854167162E+02  0.12700000000E+01 0. -1.
         25    2    1    2    0    0  0.00000000000E+00  0.00000000000E+00  0.86082816731E+02  0.15177337721E+03  0.12499962678E+03 0.  0.
    9000005    1    3    3    0    0 -0.48466202235E+02 -0.48351068473E+01  0.90579346960E+02  0.10284925431E+03  0.10000000000E+01 0.  0.
    9000005    1    3    3    0    0  0.48466202235E+02  0.48351068473E+01 -0.44965302292E+01  0.48924122898E+02  0.10000000000E+01 0.  0.
<mgrwt>
<rscale>  0 0.12499963E+03</rscale>
<asrwt>0</asrwt>
<pdfrwt beam="2">  1        4 0.50531200E-02 0.12499963E+03</pdfrwt>
<pdfrwt beam="1">  1       -4 0.18296630E-01 0.12499963E+03</pdfrwt>
<totfact> 0.98952201E+03</totfact>
</mgrwt>
</event>
<event>
 5    1  0.3232465E-002  0.1250023E+03  0.7818608E-02  0.1235066E+00
          4   -1    0    0  501    0  0.00000000000E+00  0.00000000000E+00  0.40015330755E+01  0.41982337899E+01  0.12700000000E+01 0.  1.
         -4   -1    0    0    0  501 -0.00000000000E+00 -0.00000000000E+00 -0.95260928557E+03  0.95261013214E+03  0.12700000000E+01 0.  1.
         25    2    1    2    0    0  0.00000000000E+00  0.00000000000E+00 -0.94860775249E+03  0.95680836593E+03  0.12500232405E+03 0.  0.
    9000005    1    3    3    0    0 -0.28646477625E+02  0.51198087008E+02 -0.30950812289E+03  0.31502086110E+03  0.10000000000E+01 0.  0.
    9000005    1    3    3    0    0  0.28646477625E+02 -0.51198087008E+02 -0.63909962960E+03  0.64178750482E+03  0.10000000000E+01 0.  0.
<mgrwt>
<rscale>  0 0.12500232E+03</rscale>
<asrwt>0</asrwt>
<pdfrwt beam="1">  1        4 0.63081717E-03 0.12500232E+03</pdfrwt>
<pdfrwt beam="2">  1       -4 0.14657029E+00 0.12500232E+03</pdfrwt>
<totfact> 0.32073885E+03</totfact>
</mgrwt>
</event>
<event>
 5    1  0.3232465E-002  0.1250028E+03  0.7818608E-02  0.1235065E+00
         -4   -1    0    0    0  501 -0.00000000000E+00  0.00000000000E+00  0.59514781504E+02  0.59528330377E+02  0.12700000000E+01 0.  1.
          4   -1    0    0  501    0  0.00000000000E+00 -0.00000000000E+00 -0.65610722459E+02  0.65623012744E+02  0.12700000000E+01 0.  1.
         25    2    1    2    0    0  0.00000000000E+00  0.00000000000E+00 -0.60959409553E+01  0.12515134312E+03  0.12500279272E+03 0.  0.
    9000005    1    3    3    0    0  0.48835386727E+02  0.25745273623E+02  0.26273526992E+02  0.61147463817E+02  0.10000000000E+01 0.  0.
    9000005    1    3    3    0    0 -0.48835386727E+02 -0.25745273623E+02 -0.32369467948E+02  0.64003879303E+02  0.10000000000E+01 0.  0.
<mgrwt>
<rscale>  0 0.12500279E+03</rscale>
<asrwt>0</asrwt>
<pdfrwt beam="2">  1        4 0.10095945E-01 0.12500279E+03</pdfrwt>
<pdfrwt beam="1">  1       -4 0.91581079E-02 0.12500279E+03</pdfrwt>
<totfact> 0.10448917E+04</totfact>
</mgrwt>
</event>
<event>
 5    1  0.3232465E-002  0.1249996E+03  0.7818608E-02  0.1235070E+00
         -4   -1    0    0    0  501 -0.00000000000E+00  0.00000000000E+00  0.13310995231E+02  0.13371443230E+02  0.12700000000E+01 0.  1.
          4   -1    0    0  501    0  0.00000000000E+00 -0.00000000000E+00 -0.29273193858E+03  0.29273469348E+03  0.12700000000E+01 0.  1.
         25    2    1    2    0    0  0.00000000000E+00  0.00000000000E+00 -0.27942094335E+03  0.30610613671E+03  0.12499961339E+03 0.  0.
    9000005    1    3    3    0    0  0.35044349707E+02 -0.32023255912E+02 -0.40188307880E+02  0.62206876275E+02  0.10000000000E+01 0.  0.
    9000005    1    3    3    0    0 -0.35044349707E+02  0.32023255912E+02 -0.23923263547E+03  0.24389926044E+03  0.10000000000E+01 0.  0.
<mgrwt>
<rscale>  0 0.12499961E+03</rscale>
<asrwt>0</asrwt>
<pdfrwt beam="2">  1        4 0.45040540E-01 0.12499961E+03</pdfrwt>
<pdfrwt beam="1">  1       -4 0.20527074E-02 0.12499961E+03</pdfrwt>
<totfact> 0.74839869E+03</totfact>
</mgrwt>
</event>
<event>
 5    1  0.3232465E-002  0.1249766E+03  0.7818608E-02  0.1235106E+00
         -4   -1    0    0    0  501 -0.00000000000E+00  0.00000000000E+00  0.83042103664E+02  0.83051814435E+02  0.12700000000E+01 0. -1.
          4   -1    0    0  501    0  0.00000000000E+00 -0.00000000000E+00 -0.47000722093E+02  0.47017877210E+02  0.12700000000E+01 0. -1.
         25    2    1    2    0    0  0.00000000000E+00  0.00000000000E+00  0.36041381570E+02  0.13006969164E+03  0.12497657180E+03 0.  0.
    9000005    1    3    3    0    0 -0.31736397878E+02  0.46490679996E+02  0.46240320773E+02  0.72854303524E+02  0.10000000000E+01 0.  0.
    9000005    1    3    3    0    0  0.31736397878E+02 -0.46490679996E+02 -0.10198939203E+02  0.57215388120E+02  0.10000000000E+01 0.  0.
<mgrwt>
<rscale>  0 0.12497657E+03</rscale>
<asrwt>0</asrwt>
<pdfrwt beam="2">  1        4 0.72329470E-02 0.12497657E+03</pdfrwt>
<pdfrwt beam="1">  1       -4 0.12777775E-01 0.12497657E+03</pdfrwt>
<totfact> 0.10348489E+04</totfact>
</mgrwt>
</event>
<event>
 5    1  0.3232465E-002  0.1250005E+03  0.7818608E-02  0.1235068E+00
          4   -1    0    0  501    0  0.00000000000E+00  0.00000000000E+00  0.17712682401E+04  0.17712686953E+04  0.12700000000E+01 0.  1.
         -4   -1    0    0    0  501 -0.00000000000E+00 -0.00000000000E+00 -0.20220276056E+01  0.23877804836E+01  0.12700000000E+01 0.  1.
         25    2    1    2    0    0  0.00000000000E+00  0.00000000000E+00  0.17692462124E+04  0.17736564758E+04  0.12500053600E+03 0.  0.
    9000005    1    3    3    0    0 -0.61722929973E+02  0.75029585513E+01  0.79570653377E+03  0.79813275985E+03  0.10000000000E+01 0.  0.
    9000005    1    3    3    0    0  0.61722929973E+02 -0.75029585513E+01  0.97353967868E+03  0.97552371597E+03  0.10000000000E+01 0.  0.
<mgrwt>
<rscale>  0 0.12500054E+03</rscale>
<asrwt>0</asrwt>
<pdfrwt beam="1">  1        4 0.27253061E+00 0.12500054E+03</pdfrwt>
<pdfrwt beam="2">  1       -4 0.33925148E-03 0.12500054E+03</pdfrwt>
<totfact> 0.13113636E+03</totfact>
</mgrwt>
</event>
<event>
 5    1  0.3232465E-002  0.1250009E+03  0.7818608E-02  0.1235068E+00
          4   -1    0    0  501    0  0.00000000000E+00  0.00000000000E+00  0.25832634506E+02  0.25863833929E+02  0.12700000000E+01 0. -1.
         -4   -1    0    0    0  501 -0.00000000000E+00 -0.00000000000E+00 -0.15109092004E+03  0.15109625746E+03  0.12700000000E+01 0. -1.
         25    2    1    2    0    0  0.00000000000E+00  0.00000000000E+00 -0.12525828554E+03  0.17696009139E+03  0.12500094340E+03 0.  0.
    9000005    1    3    3    0    0  0.82280854782E+01  0.61854131308E+02 -0.57792187055E+02  0.85056286276E+02  0.10000000000E+01 0.  0.
    9000005    1    3    3    0    0 -0.82280854782E+01 -0.61854131308E+02 -0.67466098483E+02  0.91903805117E+02  0.10000000000E+01 0.  0.
<mgrwt>
<rscale>  0 0.12500094E+03</rscale>
<asrwt>0</asrwt>
<pdfrwt beam="1">  1        4 0.39770621E-02 0.12500094E+03</pdfrwt>
<pdfrwt beam="2">  1       -4 0.23247567E-01 0.12500094E+03</pdfrwt>
<totfact> 0.94165084E+03</totfact>
</mgrwt>
</event>
<event>
 5    1  0.3232465E-002  0.1249991E+03  0.7818608E-02  0.1235071E+00
          4   -1    0    0  501    0  0.00000000000E+00  0.00000000000E+00  0.21364851374E+03  0.21365228837E+03  0.12700000000E+01 0.  1.
         -4   -1    0    0    0  501 -0.00000000000E+00 -0.00000000000E+00 -0.18257264255E+02  0.18301382409E+02  0.12700000000E+01 0.  1.
         25    2    1    2    0    0  0.00000000000E+00  0.00000000000E+00  0.19539124949E+03  0.23195367078E+03  0.12499906004E+03 0.  0.
    9000005    1    3    3    0    0 -0.46369535305E+02 -0.18509329417E+02  0.27955468591E+02  0.57229689008E+02  0.10000000000E+01 0.  0.
    9000005    1    3    3    0    0  0.46369535305E+02  0.18509329417E+02  0.16743578090E+03  0.17472398177E+03  0.10000000000E+01 0.  0.
<mgrwt>
<rscale>  0 0.12499906E+03</rscale>
<asrwt>0</asrwt>
<pdfrwt beam="1">  1        4 0.32872686E-01 0.12499906E+03</pdfrwt>
<pdfrwt beam="2">  1       -4 0.28124940E-02 0.12499906E+03</pdfrwt>
<totfact> 0.85012291E+03</totfact>
</mgrwt>
</event>
<event>
 5    1  0.3232465E-002  0.1249974E+03  0.7818608E-02  0.1235073E+00
          4   -1    0    0  501    0  0.00000000000E+00  0.00000000000E+00  0.10389412585E+03  0.10390188779E+03  0.12700000000E+01 0. -1.
         -4   -1    0    0    0  501 -0.00000000000E+00 -0.00000000000E+00 -0.37576897415E+02  0.37598352615E+02  0.12700000000E+01 0. -1.
         25    2    1    2    0    0  0.00000000000E+00  0.00000000000E+00  0.66317228439E+02  0.14150024041E+03  0.12499737296E+03 0.  0.
    9000005    1    3    3    0    0 -0.61799572535E+02  0.78160082287E+01  0.27520187232E+02  0.68107546245E+02  0.10000000000E+01 0.  0.
    9000005    1    3    3    0    0  0.61799572535E+02 -0.78160082287E+01  0.38797041207E+02  0.73392694164E+02  0.10000000000E+01 0.  0.
<mgrwt>
<rscale>  0 0.12499737E+03</rscale>
<asrwt>0</asrwt>
<pdfrwt beam="1">  1        4 0.15985959E-01 0.12499737E+03</pdfrwt>
<pdfrwt beam="2">  1       -4 0.57833087E-02 0.12499737E+03</pdfrwt>
<totfact> 0.10103185E+04</totfact>
</mgrwt>
</event>
<event>
 5    1  0.3232465E-002  0.1249901E+03  0.7818608E-02  0.1235085E+00
         -4   -1    0    0    0  501 -0.00000000000E+00  0.00000000000E+00  0.41257962425E+03  0.41258157890E+03  0.12700000000E+01 0.  1.
          4   -1    0    0  501    0  0.00000000000E+00 -0.00000000000E+00 -0.94217887076E+01  0.95069975519E+01  0.12700000000E+01 0.  1.
         25    2    1    2    0    0  0.00000000000E+00  0.00000000000E+00  0.40315783554E+03  0.42208857645E+03  0.12499010365E+03 0.  0.
    9000005    1    3    3    0    0 -0.48094810254E+02 -0.22420168359E+02  0.90146039056E+02  0.10460919214E+03  0.10000000000E+01 0.  0.
    9000005    1    3    3    0    0  0.48094810254E+02  0.22420168359E+02  0.31301179649E+03  0.31747938431E+03  0.10000000000E+01 0.  0.
<mgrwt>
<rscale>  0 0.12499010E+03</rscale>
<asrwt>0</asrwt>
<pdfrwt beam="2">  1        4 0.14562107E-02 0.12499010E+03</pdfrwt>
<pdfrwt beam="1">  1       -4 0.63480500E-01 0.12499010E+03</pdfrwt>
<totfact> 0.62473348E+03</totfact>
</mgrwt>
</event>
<event>
 5    1  0.3232465E-002  0.1249934E+03  0.7818608E-02  0.1235080E+00
          4   -1    0    0  501    0  0.00000000000E+00  0.00000000000E+00  0.11989183360E+03  0.11989855989E+03  0.12700000000E+01 0.  1.
         -4   -1    0    0    0  501 -0.00000000000E+00 -0.00000000000E+00 -0.32557995936E+02  0.32582756166E+02  0.12700000000E+01 0.  1.
         25    2    1    2    0    0  0.00000000000E+00  0.00000000000E+00  0.87333837667E+02  0.15248131606E+03  0.12499341001E+03 0.  0.
    9000005    1    3    3    0    0 -0.22411017048E+01 -0.53181809135E+02  0.37343005340E+01  0.53369207978E+02  0.10000000000E+01 0.  0.
    9000005    1    3    3    0    0  0.22411017048E+01  0.53181809135E+02  0.83599537133E+02  0.99112108082E+02  0.10000000000E+01 0.  0.
<mgrwt>
<rscale>  0 0.12499341E+03</rscale>
<asrwt>0</asrwt>
<pdfrwt beam="1">  1        4 0.18447319E-01 0.12499341E+03</pdfrwt>
<pdfrwt beam="2">  1       -4 0.50113445E-02 0.12499341E+03</pdfrwt>
<totfact> 0.98826017E+03</totfact>
</mgrwt>
</event>
<event>
 5    1  0.3232465E-002  0.1249980E+03  0.7818608E-02  0.1235072E+00
          4   -1    0    0  501    0  0.00000000000E+00  0.00000000000E+00  0.58239626023E+03  0.58239764494E+03  0.12700000000E+01 0. -1.
         -4   -1    0    0    0  501 -0.00000000000E+00 -0.00000000000E+00 -0.66454674348E+01  0.67657325862E+01  0.12700000000E+01 0. -1.
         25    2    1    2    0    0  0.00000000000E+00  0.00000000000E+00  0.57575079279E+03  0.58916337752E+03  0.12499804003E+03 0.  0.
    9000005    1    3    3    0    0  0.43323611548E+02  0.26596705241E+02  0.45917339774E+03  0.46198000957E+03  0.10000000000E+01 0.  0.
    9000005    1    3    3    0    0 -0.43323611548E+02 -0.26596705241E+02  0.11657739506E+03  0.12718336796E+03  0.10000000000E+01 0.  0.
<mgrwt>
<rscale>  0 0.12499804E+03</rscale>
<asrwt>0</asrwt>
<pdfrwt beam="1">  1        4 0.89608790E-01 0.12499804E+03</pdfrwt>
<pdfrwt beam="2">  1       -4 0.10317372E-02 0.12499804E+03</pdfrwt>
<totfact> 0.49561000E+03</totfact>
</mgrwt>
</event>
<event>
 5    1  0.3232465E-002  0.1250022E+03  0.7818608E-02  0.1235066E+00
          4   -1    0    0  501    0  0.00000000000E+00  0.00000000000E+00  0.18337940902E+02  0.18381865425E+02  0.12700000000E+01 0. -1.
         -4   -1    0    0    0  501 -0.00000000000E+00 -0.00000000000E+00 -0.21272152797E+03  0.21272531904E+03  0.12700000000E+01 0. -1.
         25    2    1    2    0    0  0.00000000000E+00  0.00000000000E+00 -0.19438358707E+03  0.23110718446E+03  0.12500220714E+03 0.  0.
    9000005    1    3    3    0    0  0.59657583352E+01 -0.40271252146E+02 -0.18485073659E+03  0.18928327671E+03  0.10000000000E+01 0.  0.
    9000005    1    3    3    0    0 -0.59657583352E+01  0.40271252146E+02 -0.95328504704E+01  0.41823907756E+02  0.10000000000E+01 0.  0.
<mgrwt>
<rscale>  0 0.12500221E+03</rscale>
<asrwt>0</asrwt>
<pdfrwt beam="1">  1        4 0.28248922E-02 0.12500221E+03</pdfrwt>
<pdfrwt beam="2">  1       -4 0.32730058E-01 0.12500221E+03</pdfrwt>
<totfact> 0.85135686E+03</totfact>
</mgrwt>
</event>
<event>
 5    1  0.3232465E-002  0.1249975E+03  0.7818608E-02  0.1235073E+00
          4   -1    0    0  501    0  0.00000000000E+00  0.00000000000E+00  0.52683585000E+02  0.52698890202E+02  0.12700000000E+01 0. -1.
         -4   -1    0    0    0  501 -0.00000000000E+00 -0.00000000000E+00 -0.74110955776E+02  0.74121836634E+02  0.12700000000E+01 0. -1.
         25    2    1    2    0    0  0.00000000000E+00  0.00000000000E+00 -0.21427370776E+02  0.12682072684E+03  0.12499745812E+03 0.  0.
    9000005    1    3    3    0    0 -0.34232200912E+02  0.12423971451E+02  0.40809852327E+02  0.54705051803E+02  0.10000000000E+01 0.  0.
    9000005    1    3    3    0    0  0.34232200912E+02 -0.12423971451E+02 -0.62237223103E+02  0.72115675032E+02  0.10000000000E+01 0.  0.
<mgrwt>
<rscale>  0 0.12499746E+03</rscale>
<asrwt>0</asrwt>
<pdfrwt beam="1">  1        4 0.81071812E-02 0.12499746E+03</pdfrwt>
<pdfrwt beam="2">  1       -4 0.11403700E-01 0.12499746E+03</pdfrwt>
<totfact> 0.10413640E+04</totfact>
</mgrwt>
</event>
<event>
 5    1  0.3232465E-002  0.1250016E+03  0.7818608E-02  0.1235067E+00
          4   -1    0    0  501    0  0.00000000000E+00  0.00000000000E+00  0.15423322084E+02  0.15475521448E+02  0.12700000000E+01 0.  1.
         -4   -1    0    0    0  501 -0.00000000000E+00 -0.00000000000E+00 -0.25279383133E+03  0.25279702146E+03  0.12700000000E+01 0.  1.
         25    2    1    2    0    0  0.00000000000E+00  0.00000000000E+00 -0.23737050924E+03  0.26827254290E+03  0.12500159446E+03 0.  0.
    9000005    1    3    3    0    0  0.52479511781E+02  0.28348266127E+02 -0.15869971730E+03  0.16954151002E+03  0.10000000000E+01 0.  0.
    9000005    1    3    3    0    0 -0.52479511781E+02 -0.28348266127E+02 -0.78670791945E+02  0.98731032884E+02  0.10000000000E+01 0.  0.
<mgrwt>
<rscale>  0 0.12500159E+03</rscale>
<asrwt>0</asrwt>
<pdfrwt beam="1">  1        4 0.23770797E-02 0.12500159E+03</pdfrwt>
<pdfrwt beam="2">  1       -4 0.38895616E-01 0.12500159E+03</pdfrwt>
<totfact> 0.79756136E+03</totfact>
</mgrwt>
</event>
<event>
 5    1  0.3232465E-002  0.1250045E+03  0.7818608E-02  0.1235062E+00
          4   -1    0    0  501    0  0.00000000000E+00  0.00000000000E+00  0.70816049969E+01  0.71945833328E+01  0.12700000000E+01 0. -1.
         -4   -1    0    0    0  501 -0.00000000000E+00 -0.00000000000E+00 -0.54716532796E+03  0.54716680182E+03  0.12700000000E+01 0. -1.
         25    2    1    2    0    0  0.00000000000E+00  0.00000000000E+00 -0.54008372296E+03  0.55436138516E+03  0.12500447011E+03 0.  0.
    9000005    1    3    3    0    0  0.43688192472E+02  0.36123947791E+02 -0.15338802754E+03  0.16353129596E+03  0.10000000000E+01 0.  0.
    9000005    1    3    3    0    0 -0.43688192472E+02 -0.36123947791E+02 -0.38669569542E+03  0.39083008920E+03  0.10000000000E+01 0.  0.
<mgrwt>
<rscale>  0 0.12500447E+03</rscale>
<asrwt>0</asrwt>
<pdfrwt beam="1">  1        4 0.10982821E-02 0.12500447E+03</pdfrwt>
<pdfrwt beam="2">  1       -4 0.84188052E-01 0.12500447E+03</pdfrwt>
<totfact> 0.51876208E+03</totfact>
</mgrwt>
</event>
<event>
 5    1  0.3232465E-002  0.1250013E+03  0.7818608E-02  0.1235067E+00
         -4   -1    0    0    0  501 -0.00000000000E+00  0.00000000000E+00  0.12281955994E+03  0.12282612590E+03  0.12700000000E+01 0.  1.
          4   -1    0    0  501    0  0.00000000000E+00 -0.00000000000E+00 -0.31785334359E+02  0.31810696005E+02  0.12700000000E+01 0.  1.
         25    2    1    2    0    0  0.00000000000E+00  0.00000000000E+00  0.91034225585E+02  0.15463682191E+03  0.12500126584E+03 0.  0.
    9000005    1    3    3    0    0  0.47081288654E+02  0.23267920084E+02  0.36151648232E+01  0.52650861940E+02  0.10000000000E+01 0.  0.
    9000005    1    3    3    0    0 -0.47081288654E+02 -0.23267920084E+02  0.87419060762E+02  0.10198595997E+03  0.10000000000E+01 0.  0.
<mgrwt>
<rscale>  0 0.12500127E+03</rscale>
<asrwt>0</asrwt>
<pdfrwt beam="2">  1        4 0.48925074E-02 0.12500127E+03</pdfrwt>
<pdfrwt beam="1">  1       -4 0.18897773E-01 0.12500127E+03</pdfrwt>
<totfact> 0.98384041E+03</totfact>
</mgrwt>
</event>
<event>
 5    1  0.3232465E-002  0.1250023E+03  0.7818608E-02  0.1235066E+00
         -4   -1    0    0    0  501 -0.00000000000E+00  0.00000000000E+00  0.46001975902E+02  0.46019503332E+02  0.12700000000E+01 0.  1.
          4   -1    0    0  501    0  0.00000000000E+00 -0.00000000000E+00 -0.84879501453E+02  0.84889002037E+02  0.12700000000E+01 0.  1.
         25    2    1    2    0    0  0.00000000000E+00  0.00000000000E+00 -0.38877525550E+02  0.13090850537E+03  0.12500229912E+03 0.  0.
    9000005    1    3    3    0    0  0.23975604673E+02 -0.31407371179E+02  0.31265180897E+02  0.50396072469E+02  0.10000000000E+01 0.  0.
    9000005    1    3    3    0    0 -0.23975604673E+02  0.31407371179E+02 -0.70142706447E+02  0.80512432900E+02  0.10000000000E+01 0.  0.
<mgrwt>
<rscale>  0 0.12500230E+03</rscale>
<asrwt>0</asrwt>
<pdfrwt beam="2">  1        4 0.13060464E-01 0.12500230E+03</pdfrwt>
<pdfrwt beam="1">  1       -4 0.70793061E-02 0.12500230E+03</pdfrwt>
<totfact> 0.10324516E+04</totfact>
</mgrwt>
</event>
<event>
 5    1  0.3232465E-002  0.1249988E+03  0.7818608E-02  0.1235071E+00
         -4   -1    0    0    0  501 -0.00000000000E+00  0.00000000000E+00  0.21884071831E+03  0.21884440338E+03  0.12700000000E+01 0.  1.
          4   -1    0    0  501    0  0.00000000000E+00 -0.00000000000E+00 -0.17822959525E+02  0.17868150051E+02  0.12700000000E+01 0.  1.
         25    2    1    2    0    0  0.00000000000E+00  0.00000000000E+00  0.20101775879E+03  0.23671255343E+03  0.12499877441E+03 0.  0.
    9000005    1    3    3    0    0 -0.45918558604E+02  0.25350962218E+01  0.20383467737E+02  0.50313283476E+02  0.10000000000E+01 0.  0.
    9000005    1    3    3    0    0  0.45918558604E+02 -0.25350962218E+01  0.18063429105E+03  0.18639926996E+03  0.10000000000E+01 0.  0.
<mgrwt>
<rscale>  0 0.12499877E+03</rscale>
<asrwt>0</asrwt>
<pdfrwt beam="2">  1        4 0.27457536E-02 0.12499877E+03</pdfrwt>
<pdfrwt beam="1">  1       -4 0.33671560E-01 0.12499877E+03</pdfrwt>
<totfact> 0.84291728E+03</totfact>
</mgrwt>
</event>
<event>
 5    1  0.3232465E-002  0.1249966E+03  0.7818608E-02  0.1235075E+00
         -4   -1    0    0    0  501 -0.00000000000E+00  0.00000000000E+00  0.80499032103E+01  0.81494687984E+01  0.12700000000E+01 0.  1.
          4   -1    0    0  501    0  0.00000000000E+00 -0.00000000000E+00 -0.48214517101E+03  0.48214684364E+03  0.12700000000E+01 0.  1.
         25    2    1    2    0    0  0.00000000000E+00  0.00000000000E+00 -0.47409526780E+03  0.49029631244E+03  0.12499660410E+03 0.  0.
    9000005    1    3    3    0    0 -0.32848780562E+02  0.19379922047E+01 -0.28667002192E+02  0.43653123747E+02  0.10000000000E+01 0.  0.
    9000005    1    3    3    0    0  0.32848780562E+02 -0.19379922047E+01 -0.44542826561E+03  0.44664318869E+03  0.10000000000E+01 0.  0.
<mgrwt>
<rscale>  0 0.12499660E+03</rscale>
<asrwt>0</asrwt>
<pdfrwt beam="2">  1        4 0.74183945E-01 0.12499660E+03</pdfrwt>
<pdfrwt beam="1">  1       -4 0.12462346E-02 0.12499660E+03</pdfrwt>
<totfact> 0.56629432E+03</totfact>
</mgrwt>
</event>
<event>
 5    1  0.3232465E-002  0.1250011E+03  0.7818608E-02  0.1235068E+00
         -4   -1    0    0    0  501 -0.00000000000E+00  0.00000000000E+00  0.32265664942E+03  0.32265914882E+03  0.12700000000E+01 0.  1.
          4   -1    0    0  501    0  0.00000000000E+00 -0.00000000000E+00 -0.12070884044E+02  0.12137509695E+02  0.12700000000E+01 0.  1.
         25    2    1    2    0    0  0.00000000000E+00  0.00000000000E+00  0.31058576538E+03  0.33479665852E+03  0.12500113958E+03 0.  0.
    9000005    1    3    3    0    0 -0.95751136462E+01  0.26911998522E+02  0.64243178045E+01  0.29295227001E+02  0.10000000000E+01 0.  0.
    9000005    1    3    3    0    0  0.95751136462E+01 -0.26911998522E+02  0.30416144758E+03  0.30550143152E+03  0.10000000000E+01 0.  0.
<mgrwt>
<rscale>  0 0.12500114E+03</rscale>
<asrwt>0</asrwt>
<pdfrwt beam="2">  1        4 0.18623766E-02 0.12500114E+03</pdfrwt>
<pdfrwt beam="1">  1       -4 0.49644795E-01 0.12500114E+03</pdfrwt>
<totfact> 0.71428343E+03</totfact>
</mgrwt>
</event>
<event>
 5    1  0.3232465E-002  0.1249939E+03  0.7818608E-02  0.1235079E+00
         -4   -1    0    0    0  501 -0.00000000000E+00  0.00000000000E+00  0.25462885841E+03  0.25463202555E+03  0.12700000000E+01 0.  1.
          4   -1    0    0  501    0  0.00000000000E+00 -0.00000000000E+00 -0.15309906443E+02  0.15362491182E+02  0.12700000000E+01 0.  1.
         25    2    1    2    0    0  0.00000000000E+00  0.00000000000E+00  0.23931895197E+03  0.26999451673E+03  0.12499391303E+03 0.  0.
    9000005    1    3    3    0    0  0.17116612948E+02 -0.14669196328E+02  0.24555058150E+03  0.24658518171E+03  0.10000000000E+01 0.  0.
    9000005    1    3    3    0    0 -0.17116612948E+02  0.14669196328E+02 -0.62316295360E+01  0.23409335027E+02  0.10000000000E+01 0.  0.
<mgrwt>
<rscale>  0 0.12499391E+03</rscale>
<asrwt>0</asrwt>
<pdfrwt beam="2">  1        4 0.23596590E-02 0.12499391E+03</pdfrwt>
<pdfrwt beam="1">  1       -4 0.39177957E-01 0.12499391E+03</pdfrwt>
<totfact> 0.79534384E+03</totfact>
</mgrwt>
</event>
<event>
 5    1  0.3232465E-002  0.1250046E+03  0.7818608E-02  0.1235062E+00
          4   -1    0    0  501    0  0.00000000000E+00  0.00000000000E+00  0.37788326059E+02  0.37809661283E+02  0.12700000000E+01 0. -1.
         -4   -1    0    0    0  501 -0.00000000000E+00 -0.00000000000E+00 -0.10332514093E+03  0.10333294561E+03  0.12700000000E+01 0. -1.
         25    2    1    2    0    0  0.00000000000E+00  0.00000000000E+00 -0.65536814870E+02  0.14114260689E+03  0.12500464542E+03 0.  0.
    9000005    1    3    3    0    0 -0.38848313460E+02 -0.48618840403E+02 -0.39210927730E+02  0.73562762007E+02  0.10000000000E+01 0.  0.
    9000005    1    3    3    0    0  0.38848313460E+02  0.48618840403E+02 -0.26325887141E+02  0.67579844884E+02  0.10000000000E+01 0.  0.
<mgrwt>
<rscale>  0 0.12500465E+03</rscale>
<asrwt>0</asrwt>
<pdfrwt beam="1">  1        4 0.58158302E-02 0.12500465E+03</pdfrwt>
<pdfrwt beam="2">  1       -4 0.15898417E-01 0.12500465E+03</pdfrwt>
<totfact> 0.10108902E+04</totfact>
</mgrwt>
</event>
<event>
 5    1  0.3232465E-002  0.1250093E+03  0.7818608E-02  0.1235055E+00
         -4   -1    0    0    0  501 -0.00000000000E+00  0.00000000000E+00  0.51299133004E+01  0.52847810238E+01  0.12700000000E+01 0.  1.
          4   -1    0    0  501    0  0.00000000000E+00 -0.00000000000E+00 -0.75009847560E+03  0.75009955072E+03  0.12700000000E+01 0.  1.
         25    2    1    2    0    0  0.00000000000E+00  0.00000000000E+00 -0.74496856230E+03  0.75538433174E+03  0.12500931900E+03 0.  0.
    9000005    1    3    3    0    0  0.58846818713E+02  0.14232674661E+02 -0.27881086757E+03  0.28531038708E+03  0.10000000000E+01 0.  0.
    9000005    1    3    3    0    0 -0.58846818713E+02 -0.14232674661E+02 -0.46615769472E+03  0.47007394466E+03  0.10000000000E+01 0.  0.
<mgrwt>
<rscale>  0 0.12500932E+03</rscale>
<asrwt>0</asrwt>
<pdfrwt beam="2">  1        4 0.11541167E+00 0.12500932E+03</pdfrwt>
<pdfrwt beam="1">  1       -4 0.80121363E-03 0.12500932E+03</pdfrwt>
<totfact> 0.40309732E+03</totfact>
</mgrwt>
</event>
<event>
 5    1  0.3232465E-002  0.1249961E+03  0.7818608E-02  0.1235075E+00
         -4   -1    0    0    0  501 -0.00000000000E+00  0.00000000000E+00  0.77066231831E+02  0.77076695496E+02  0.12700000000E+01 0.  1.
          4   -1    0    0  501    0  0.00000000000E+00 -0.00000000000E+00 -0.50661880231E+02  0.50677796011E+02  0.12700000000E+01 0.  1.
         25    2    1    2    0    0  0.00000000000E+00  0.00000000000E+00  0.26404351600E+02  0.12775449151E+03  0.12499608121E+03 0.  0.
    9000005    1    3    3    0    0 -0.44368156786E+02 -0.35613294801E+02 -0.13217144108E+02  0.58416889694E+02  0.10000000000E+01 0.  0.
    9000005    1    3    3    0    0  0.44368156786E+02  0.35613294801E+02  0.39621495708E+02  0.69337601814E+02  0.10000000000E+01 0.  0.
<mgrwt>
<rscale>  0 0.12499608E+03</rscale>
<asrwt>0</asrwt>
<pdfrwt beam="2">  1        4 0.77961647E-02 0.12499608E+03</pdfrwt>
<pdfrwt beam="1">  1       -4 0.11858372E-01 0.12499608E+03</pdfrwt>
<totfact> 0.10393713E+04</totfact>
</mgrwt>
</event>
<event>
 5    1  0.3232465E-002  0.1250021E+03  0.7818608E-02  0.1235066E+00
         -4   -1    0    0    0  501 -0.00000000000E+00  0.00000000000E+00  0.16210702299E+03  0.16211199771E+03  0.12700000000E+01 0. -1.
          4   -1    0    0  501    0  0.00000000000E+00 -0.00000000000E+00 -0.24075462274E+02  0.24108935765E+02  0.12700000000E+01 0. -1.
         25    2    1    2    0    0  0.00000000000E+00  0.00000000000E+00  0.13803156072E+03  0.18622093348E+03  0.12500209723E+03 0.  0.
    9000005    1    3    3    0    0 -0.92383265366E+01  0.61437699071E+02  0.58973155336E+02  0.85666624742E+02  0.10000000000E+01 0.  0.
    9000005    1    3    3    0    0  0.92383265366E+01 -0.61437699071E+02  0.79058405380E+02  0.10055430874E+03  0.10000000000E+01 0.  0.
<mgrwt>
<rscale>  0 0.12500210E+03</rscale>
<asrwt>0</asrwt>
<pdfrwt beam="2">  1        4 0.37068747E-02 0.12500210E+03</pdfrwt>
<pdfrwt beam="1">  1       -4 0.24942501E-01 0.12500210E+03</pdfrwt>
<totfact> 0.92504700E+03</totfact>
</mgrwt>
</event>
<event>
 5    1  0.3232465E-002  0.1249998E+03  0.7818608E-02  0.1235070E+00
         -4   -1    0    0    0  501 -0.00000000000E+00  0.00000000000E+00  0.49740470237E+03  0.49740632368E+03  0.12700000000E+01 0.  1.
          4   -1    0    0  501    0  0.00000000000E+00 -0.00000000000E+00 -0.78002430203E+01  0.79029545852E+01  0.12700000000E+01 0.  1.
         25    2    1    2    0    0  0.00000000000E+00  0.00000000000E+00  0.48960445935E+03  0.50530927827E+03  0.12499976036E+03 0.  0.
    9000005    1    3    3    0    0  0.36762014412E+02  0.42487989654E+01  0.44836586510E+03  0.44989159470E+03  0.10000000000E+01 0.  0.
    9000005    1    3    3    0    0 -0.36762014412E+02 -0.42487989654E+01  0.41238594252E+02  0.55417683569E+02  0.10000000000E+01 0.  0.
<mgrwt>
<rscale>  0 0.12499976E+03</rscale>
<asrwt>0</asrwt>
<pdfrwt beam="2">  1        4 0.12080630E-02 0.12499976E+03</pdfrwt>
<pdfrwt beam="1">  1       -4 0.76531824E-01 0.12499976E+03</pdfrwt>
<totfact> 0.55455064E+03</totfact>
</mgrwt>
</event>
<event>
 5    1  0.3232465E-002  0.1250000E+03  0.7818608E-02  0.1235069E+00
         -4   -1    0    0    0  501 -0.00000000000E+00  0.00000000000E+00  0.77101462823E+02  0.77111921707E+02  0.12700000000E+01 0.  1.
          4   -1    0    0  501    0  0.00000000000E+00 -0.00000000000E+00 -0.50641908718E+02  0.50657830773E+02  0.12700000000E+01 0.  1.
         25    2    1    2    0    0  0.00000000000E+00  0.00000000000E+00  0.26459554105E+02  0.12776975248E+03  0.12500000658E+03 0.  0.
    9000005    1    3    3    0    0 -0.54658853874E+02 -0.22033940359E+02  0.34479002445E+02  0.68285331106E+02  0.10000000000E+01 0.  0.
    9000005    1    3    3    0    0  0.54658853874E+02  0.22033940359E+02 -0.80194483409E+01  0.59484421375E+02  0.10000000000E+01 0.  0.
<mgrwt>
<rscale>  0 0.12500001E+03</rscale>
<asrwt>0</asrwt>
<pdfrwt beam="2">  1        4 0.77930922E-02 0.12500001E+03</pdfrwt>
<pdfrwt beam="1">  1       -4 0.11863793E-01 0.12500001E+03</pdfrwt>
<totfact> 0.10392462E+04</totfact>
</mgrwt>
</event>
<event>
 5    1  0.3232465E-002  0.1249688E+03  0.7818608E-02  0.1235118E+00
         -4   -1    0    0    0  501 -0.00000000000E+00  0.00000000000E+00  0.40406588492E+01  0.42355429328E+01  0.12700000000E+01 0.  1.
          4   -1    0    0  501    0  0.00000000000E+00 -0.00000000000E+00 -0.94330460729E+03  0.94330546221E+03  0.12700000000E+01 0.  1.
         25    2    1    2    0    0  0.00000000000E+00  0.00000000000E+00 -0.93926394844E+03  0.94754100515E+03  0.12496876244E+03 0.  0.
    9000005    1    3    3    0    0  0.35044142562E+02 -0.44352975513E+02 -0.67138458503E+03  0.67376074342E+03  0.10000000000E+01 0.  0.
    9000005    1    3    3    0    0 -0.35044142562E+02  0.44352975513E+02 -0.26787936342E+03  0.27378026173E+03  0.10000000000E+01 0.  0.
<mgrwt>
<rscale>  0 0.12496876E+03</rscale>
<asrwt>0</asrwt>
<pdfrwt beam="2">  1        4 0.14513867E+00 0.12496876E+03</pdfrwt>
<pdfrwt beam="1">  1       -4 0.63669742E-03 0.12496876E+03</pdfrwt>
<totfact> 0.32425568E+03</totfact>
</mgrwt>
</event>
<event>
 5    1  0.3232465E-002  0.1250011E+03  0.7818608E-02  0.1235068E+00
         -4   -1    0    0    0  501 -0.00000000000E+00  0.00000000000E+00  0.51107058154E+03  0.51107215950E+03  0.12700000000E+01 0. -1.
          4   -1    0    0  501    0  0.00000000000E+00 -0.00000000000E+00 -0.75890448871E+01  0.76945761610E+01  0.12700000000E+01 0. -1.
         25    2    1    2    0    0  0.00000000000E+00  0.00000000000E+00  0.50348153666E+03  0.51876673566E+03  0.12500107311E+03 0.  0.
    9000005    1    3    3    0    0 -0.41629596608E+02 -0.29182025072E+02  0.40256148114E+03  0.40576022476E+03  0.10000000000E+01 0.  0.
    9000005    1    3    3    0    0  0.41629596608E+02  0.29182025072E+02  0.10092005552E+03  0.11300651091E+03  0.10000000000E+01 0.  0.
<mgrwt>
<rscale>  0 0.12500107E+03</rscale>
<asrwt>0</asrwt>
<pdfrwt beam="2">  1        4 0.11757844E-02 0.12500107E+03</pdfrwt>
<pdfrwt beam="1">  1       -4 0.78634492E-01 0.12500107E+03</pdfrwt>
<totfact> 0.54435852E+03</totfact>
</mgrwt>
</event>
<event>
 5    1  0.3232465E-002  0.1250046E+03  0.7818608E-02  0.1235062E+00
          4   -1    0    0  501    0  0.00000000000E+00  0.00000000000E+00  0.68186593493E+02  0.68198419573E+02  0.12700000000E+01 0. -1.
         -4   -1    0    0    0  501 -0.00000000000E+00 -0.00000000000E+00 -0.57268025416E+02  0.57282105715E+02  0.12700000000E+01 0. -1.
         25    2    1    2    0    0  0.00000000000E+00  0.00000000000E+00  0.10918568077E+02  0.12548052529E+03  0.12500458831E+03 0.  0.
    9000005    1    3    3    0    0 -0.51822108571E+02 -0.33791450278E+02  0.14332834653E+02  0.63512386176E+02  0.10000000000E+01 0.  0.
    9000005    1    3    3    0    0  0.51822108571E+02  0.33791450278E+02 -0.34142665761E+01  0.61968139111E+02  0.10000000000E+01 0.  0.
<mgrwt>
<rscale>  0 0.12500459E+03</rscale>
<asrwt>0</asrwt>
<pdfrwt beam="1">  1        4 0.10492238E-01 0.12500459E+03</pdfrwt>
<pdfrwt beam="2">  1       -4 0.88124583E-02 0.12500459E+03</pdfrwt>
<totfact> 0.10441304E+04</totfact>
</mgrwt>
</event>
<event>
 5    1  0.3232465E-002  0.1250016E+03  0.7818608E-02  0.1235067E+00
         -4   -1    0    0    0  501 -0.00000000000E+00  0.00000000000E+00  0.68653800279E+02  0.68665545893E+02  0.12700000000E+01 0.  1.
          4   -1    0    0  501    0  0.00000000000E+00 -0.00000000000E+00 -0.56875513384E+02  0.56889690830E+02  0.12700000000E+01 0.  1.
         25    2    1    2    0    0  0.00000000000E+00  0.00000000000E+00  0.11778286895E+02  0.12555523672E+03  0.12500155770E+03 0.  0.
    9000005    1    3    3    0    0  0.24403638356E+02  0.50281779719E+02 -0.22190944409E+02  0.60143436471E+02  0.10000000000E+01 0.  0.
    9000005    1    3    3    0    0 -0.24403638356E+02 -0.50281779719E+02  0.33969231305E+02  0.65411800252E+02  0.10000000000E+01 0.  0.
<mgrwt>
<rscale>  0 0.12500156E+03</rscale>
<asrwt>0</asrwt>
<pdfrwt beam="2">  1        4 0.87520731E-02 0.12500156E+03</pdfrwt>
<pdfrwt beam="1">  1       -4 0.10564117E-01 0.12500156E+03</pdfrwt>
<totfact> 0.10440368E+04</totfact>
</mgrwt>
</event>
<event>
 5    1  0.3232465E-002  0.1249997E+03  0.7818608E-02  0.1235070E+00
          4   -1    0    0  501    0  0.00000000000E+00  0.00000000000E+00  0.54200563787E+02  0.54215440742E+02  0.12700000000E+01 0. -1.
         -4   -1    0    0    0  501 -0.00000000000E+00 -0.00000000000E+00 -0.72039610435E+02  0.72050804101E+02  0.12700000000E+01 0. -1.
         25    2    1    2    0    0  0.00000000000E+00  0.00000000000E+00 -0.17839046648E+02  0.12626624484E+03  0.12499973201E+03 0.  0.
    9000005    1    3    3    0    0  0.62104946249E+02 -0.67378124163E+01 -0.10613050004E+02  0.63372385904E+02  0.10000000000E+01 0.  0.
    9000005    1    3    3    0    0 -0.62104946249E+02  0.67378124163E+01 -0.72259966441E+01  0.62893858939E+02  0.10000000000E+01 0.  0.
<mgrwt>
<rscale>  0 0.12499973E+03</rscale>
<asrwt>0</asrwt>
<pdfrwt beam="1">  1        4 0.83405537E-02 0.12499973E+03</pdfrwt>
<pdfrwt beam="2">  1       -4 0.11085022E-01 0.12499973E+03</pdfrwt>
<totfact> 0.10425194E+04</totfact>
</mgrwt>
</event>
<event>
 5    1  0.3232465E-002  0.1250013E+03  0.7818608E-02  0.1235067E+00
         -4   -1    0    0    0  501 -0.00000000000E+00  0.00000000000E+00  0.10327202170E+03  0.10327983039E+03  0.12700000000E+01 0.  1.
          4   -1    0    0  501    0  0.00000000000E+00 -0.00000000000E+00 -0.37805754680E+02  0.37827080074E+02  0.12700000000E+01 0.  1.
         25    2    1    2    0    0  0.00000000000E+00  0.00000000000E+00  0.65466267017E+02  0.14110691046E+03  0.12500131225E+03 0.  0.
    9000005    1    3    3    0    0 -0.22978718948E+02  0.33045097649E+00  0.98334394027E+02  0.10098902797E+03  0.10000000000E+01 0.  0.
    9000005    1    3    3    0    0  0.22978718948E+02 -0.33045097649E+00 -0.32868127010E+02  0.40117882490E+02  0.10000000000E+01 0.  0.
<mgrwt>
<rscale>  0 0.12500131E+03</rscale>
<asrwt>0</asrwt>
<pdfrwt beam="2">  1        4 0.58185111E-02 0.12500131E+03</pdfrwt>
<pdfrwt beam="1">  1       -4 0.15890244E-01 0.12500131E+03</pdfrwt>
<totfact> 0.10110397E+04</totfact>
</mgrwt>
</event>
<event>
 5    1  0.3232465E-002  0.1250008E+03  0.7818608E-02  0.1235068E+00
          4   -1    0    0  501    0  0.00000000000E+00  0.00000000000E+00  0.18232471149E+03  0.18232913459E+03  0.12700000000E+01 0.  1.
         -4   -1    0    0    0  501 -0.00000000000E+00 -0.00000000000E+00 -0.21401458233E+02  0.21439107129E+02  0.12700000000E+01 0.  1.
         25    2    1    2    0    0  0.00000000000E+00  0.00000000000E+00  0.16092325326E+03  0.20376824172E+03  0.12500081157E+03 0.  0.
    9000005    1    3    3    0    0  0.46960994029E+02  0.38262559988E+02  0.55422075531E+02  0.82109469084E+02  0.10000000000E+01 0.  0.
    9000005    1    3    3    0    0 -0.46960994029E+02 -0.38262559988E+02  0.10550117773E+03  0.12165877263E+03  0.10000000000E+01 0.  0.
<mgrwt>
<rscale>  0 0.12500081E+03</rscale>
<asrwt>0</asrwt>
<pdfrwt beam="1">  1        4 0.28053193E-01 0.12500081E+03</pdfrwt>
<pdfrwt beam="2">  1       -4 0.32957682E-02 0.12500081E+03</pdfrwt>
<totfact> 0.89502204E+03</totfact>
</mgrwt>
</event>
<event>
 5    1  0.3232465E-002  0.1250035E+03  0.7818608E-02  0.1235064E+00
          4   -1    0    0  501    0  0.00000000000E+00  0.00000000000E+00  0.25893323428E+02  0.25924449814E+02  0.12700000000E+01 0. -1.
         -4   -1    0    0    0  501 -0.00000000000E+00 -0.00000000000E+00 -0.15074337709E+03  0.15074872681E+03  0.12700000000E+01 0. -1.
         25    2    1    2    0    0  0.00000000000E+00  0.00000000000E+00 -0.12485005366E+03  0.17667317663E+03  0.12500350171E+03 0.  0.
    9000005    1    3    3    0    0  0.15102250222E+02 -0.19277173497E+02 -0.14368665318E+03  0.14576193496E+03  0.10000000000E+01 0.  0.
    9000005    1    3    3    0    0 -0.15102250222E+02  0.19277173497E+02  0.18836599524E+02  0.30911241667E+02  0.10000000000E+01 0.  0.
<mgrwt>
<rscale>  0 0.12500350E+03</rscale>
<asrwt>0</asrwt>
<pdfrwt beam="1">  1        4 0.39863942E-02 0.12500350E+03</pdfrwt>
<pdfrwt beam="2">  1       -4 0.23194094E-01 0.12500350E+03</pdfrwt>
<totfact> 0.94211893E+03</totfact>
</mgrwt>
</event>
<event>
 5    1  0.3232465E-002  0.1250000E+03  0.7818608E-02  0.1235069E+00
         -4   -1    0    0    0  501 -0.00000000000E+00  0.00000000000E+00  0.11040421233E+02  0.11113226399E+02  0.12700000000E+01 0. -1.
          4   -1    0    0  501    0  0.00000000000E+00 -0.00000000000E+00 -0.35257667406E+03  0.35257896135E+03  0.12700000000E+01 0. -1.
         25    2    1    2    0    0  0.00000000000E+00  0.00000000000E+00 -0.34153625282E+03  0.36369218775E+03  0.12499998175E+03 0.  0.
    9000005    1    3    3    0    0 -0.15449505261E+02  0.78123054523E+01  0.39381675665E+01  0.17782814543E+02  0.10000000000E+01 0.  0.
    9000005    1    3    3    0    0  0.15449505261E+02 -0.78123054523E+01 -0.34547442039E+03  0.34590937321E+03  0.10000000000E+01 0.  0.
<mgrwt>
<rscale>  0 0.12499998E+03</rscale>
<asrwt>0</asrwt>
<pdfrwt beam="2">  1        4 0.54248333E-01 0.12499998E+03</pdfrwt>
<pdfrwt beam="1">  1       -4 0.17043030E-02 0.12499998E+03</pdfrwt>
<totfact> 0.68244087E+03</totfact>
</mgrwt>
</event>
<event>
 5    1  0.3232465E-002  0.1250020E+03  0.7818608E-02  0.1235066E+00
         -4   -1    0    0    0  501 -0.00000000000E+00  0.00000000000E+00  0.10151703154E+03  0.10152497521E+03  0.12700000000E+01 0. -1.
          4   -1    0    0  501    0  0.00000000000E+00 -0.00000000000E+00 -0.38460061989E+02  0.38481024781E+02  0.12700000000E+01 0. -1.
         25    2    1    2    0    0  0.00000000000E+00  0.00000000000E+00  0.63056969549E+02  0.14000599999E+03  0.12500199449E+03 0.  0.
    9000005    1    3    3    0    0 -0.18254631674E+02  0.40175957733E+02 -0.18032506712E+02  0.47681342846E+02  0.10000000000E+01 0.  0.
    9000005    1    3    3    0    0  0.18254631674E+02 -0.40175957733E+02  0.81089476261E+02  0.92324657148E+02  0.10000000000E+01 0.  0.
<mgrwt>
<rscale>  0 0.12500199E+03</rscale>
<asrwt>0</asrwt>
<pdfrwt beam="2">  1        4 0.59191563E-02 0.12500199E+03</pdfrwt>
<pdfrwt beam="1">  1       -4 0.15620228E-01 0.12500199E+03</pdfrwt>
<totfact> 0.10133006E+04</totfact>
</mgrwt>
</event>
<event>
 5    1  0.3232465E-002  0.1249982E+03  0.7818608E-02  0.1235072E+00
         -4   -1    0    0    0  501 -0.00000000000E+00  0.00000000000E+00  0.46362163543E+02  0.46379554854E+02  0.12700000000E+01 0.  1.
          4   -1    0    0  501    0  0.00000000000E+00 -0.00000000000E+00 -0.84214721077E+02  0.84224296649E+02  0.12700000000E+01 0.  1.
         25    2    1    2    0    0  0.00000000000E+00  0.00000000000E+00 -0.37852557534E+02  0.13060385150E+03  0.12499819965E+03 0.  0.
    9000005    1    3    3    0    0  0.23374198326E+02  0.51688807416E+02 -0.46313431182E+02  0.73239469328E+02  0.10000000000E+01 0.  0.
    9000005    1    3    3    0    0 -0.23374198326E+02 -0.51688807416E+02  0.84608736487E+01  0.57364382176E+02  0.10000000000E+01 0.  0.
<mgrwt>
<rscale>  0 0.12499820E+03</rscale>
<asrwt>0</asrwt>
<pdfrwt beam="2">  1        4 0.12958185E-01 0.12499820E+03</pdfrwt>
<pdfrwt beam="1">  1       -4 0.71347149E-02 0.12499820E+03</pdfrwt>
<totfact> 0.10332009E+04</totfact>
</mgrwt>
</event>
<event>
 5    1  0.3232465E-002  0.1250018E+03  0.7818608E-02  0.1235067E+00
          4   -1    0    0  501    0  0.00000000000E+00  0.00000000000E+00  0.21502946456E+03  0.21503321494E+03  0.12700000000E+01 0. -1.
         -4   -1    0    0    0  501 -0.00000000000E+00 -0.00000000000E+00 -0.18140519112E+02  0.18184920502E+02  0.12700000000E+01 0. -1.
         25    2    1    2    0    0  0.00000000000E+00  0.00000000000E+00  0.19688894545E+03  0.23321813545E+03  0.12500176743E+03 0.  0.
    9000005    1    3    3    0    0  0.20856620497E+02 -0.39052649499E+02  0.16156919941E+02  0.47139729671E+02  0.10000000000E+01 0.  0.
    9000005    1    3    3    0    0 -0.20856620497E+02  0.39052649499E+02  0.18073202551E+03  0.18607840577E+03  0.10000000000E+01 0.  0.
<mgrwt>
<rscale>  0 0.12500177E+03</rscale>
<asrwt>0</asrwt>
<pdfrwt beam="1">  1        4 0.33085160E-01 0.12500177E+03</pdfrwt>
<pdfrwt beam="2">  1       -4 0.27945531E-02 0.12500177E+03</pdfrwt>
<totfact> 0.84814542E+03</totfact>
</mgrwt>
</event>
<event>
 5    1  0.3232465E-002  0.1250084E+03  0.7818608E-02  0.1235056E+00
          4   -1    0    0  501    0  0.00000000000E+00  0.00000000000E+00  0.23959575138E+02  0.23993210306E+02  0.12700000000E+01 0. -1.
         -4   -1    0    0    0  501 -0.00000000000E+00 -0.00000000000E+00 -0.16290657641E+03  0.16291152672E+03  0.12700000000E+01 0. -1.
         25    2    1    2    0    0  0.00000000000E+00  0.00000000000E+00 -0.13894700127E+03  0.18690473702E+03  0.12500844595E+03 0.  0.
    9000005    1    3    3    0    0  0.48970357169E+02 -0.27653359406E+02 -0.11022726022E+03  0.12374915379E+03  0.10000000000E+01 0.  0.
    9000005    1    3    3    0    0 -0.48970357169E+02  0.27653359406E+02 -0.28719741049E+02  0.63155583234E+02  0.10000000000E+01 0.  0.
<mgrwt>
<rscale>  0 0.12500845E+03</rscale>
<asrwt>0</asrwt>
<pdfrwt beam="1">  1        4 0.36890567E-02 0.12500845E+03</pdfrwt>
<pdfrwt beam="2">  1       -4 0.25065518E-01 0.12500845E+03</pdfrwt>
<totfact> 0.92371205E+03</totfact>
</mgrwt>
</event>
<event>
 5    1  0.3232465E-002  0.1250092E+03  0.7818608E-02  0.1235055E+00
         -4   -1    0    0    0  501 -0.00000000000E+00  0.00000000000E+00  0.26610477412E+03  0.26610780468E+03  0.12700000000E+01 0. -1.
          4   -1    0    0  501    0  0.00000000000E+00 -0.00000000000E+00 -0.14650950884E+02  0.14705892078E+02  0.12700000000E+01 0. -1.
         25    2    1    2    0    0  0.00000000000E+00  0.00000000000E+00  0.25145382324E+03  0.28081369676E+03  0.12500922792E+03 0.  0.
    9000005    1    3    3    0    0  0.23610852792E+02  0.40271065027E+02  0.32386106268E+02  0.56825090648E+02  0.10000000000E+01 0.  0.
    9000005    1    3    3    0    0 -0.23610852792E+02 -0.40271065027E+02  0.21906771697E+03  0.22398860611E+03  0.10000000000E+01 0.  0.
<mgrwt>
<rscale>  0 0.12500923E+03</rscale>
<asrwt>0</asrwt>
<pdfrwt beam="2">  1        4 0.22584521E-02 0.12500923E+03</pdfrwt>
<pdfrwt beam="1">  1       -4 0.40943649E-01 0.12500923E+03</pdfrwt>
<totfact> 0.78054331E+03</totfact>
</mgrwt>
</event>
<event>
 5    1  0.3232465E-002  0.1249994E+03  0.7818608E-02  0.1235070E+00
          4   -1    0    0  501    0  0.00000000000E+00  0.00000000000E+00  0.11975437806E+04  0.11975444540E+04  0.12700000000E+01 0.  1.
         -4   -1    0    0    0  501 -0.00000000000E+00 -0.00000000000E+00 -0.31375336662E+01  0.33848216358E+01  0.12700000000E+01 0.  1.
         25    2    1    2    0    0  0.00000000000E+00  0.00000000000E+00  0.11944062470E+04  0.12009292757E+04  0.12499936965E+03 0.  0.
    9000005    1    3    3    0    0  0.51689920475E+02 -0.12884199631E+02  0.28332207404E+03  0.28828848072E+03  0.10000000000E+01 0.  0.
    9000005    1    3    3    0    0 -0.51689920475E+02  0.12884199631E+02  0.91108417292E+03  0.91264079496E+03  0.10000000000E+01 0.  0.
<mgrwt>
<rscale>  0 0.12499937E+03</rscale>
<asrwt>0</asrwt>
<pdfrwt beam="1">  1        4 0.18425642E+00 0.12499937E+03</pdfrwt>
<pdfrwt beam="2">  1       -4 0.50177188E-03 0.12499937E+03</pdfrwt>
<totfact> 0.24688803E+03</totfact>
</mgrwt>
</event>
<event>
 5    1  0.3232465E-002  0.1249991E+03  0.7818608E-02  0.1235071E+00
         -4   -1    0    0    0  501 -0.00000000000E+00  0.00000000000E+00  0.70565853305E+02  0.70577280712E+02  0.12700000000E+01 0.  1.
          4   -1    0    0  501    0  0.00000000000E+00 -0.00000000000E+00 -0.55332093378E+02  0.55346666183E+02  0.12700000000E+01 0.  1.
         25    2    1    2    0    0  0.00000000000E+00  0.00000000000E+00  0.15233759927E+02  0.12592394689E+03  0.12499909184E+03 0.  0.
    9000005    1    3    3    0    0  0.98081342336E+01 -0.60298657279E+02 -0.56358984879E+01  0.61358706950E+02  0.10000000000E+01 0.  0.
    9000005    1    3    3    0    0 -0.98081342336E+01  0.60298657279E+02  0.20869658415E+02  0.64565239945E+02  0.10000000000E+01 0.  0.
<mgrwt>
<rscale>  0 0.12499909E+03</rscale>
<asrwt>0</asrwt>
<pdfrwt beam="2">  1        4 0.85146298E-02 0.12499909E+03</pdfrwt>
<pdfrwt beam="1">  1       -4 0.10858285E-01 0.12499909E+03</pdfrwt>
<totfact> 0.10432838E+04</totfact>
</mgrwt>
</event>
<event>
 5    1  0.3232465E-002  0.1250023E+03  0.7818608E-02  0.1235066E+00
          4   -1    0    0  501    0  0.00000000000E+00  0.00000000000E+00  0.11105128310E+03  0.11105854482E+03  0.12700000000E+01 0.  1.
         -4   -1    0    0    0  501 -0.00000000000E+00 -0.00000000000E+00 -0.35156589045E+02  0.35179520368E+02  0.12700000000E+01 0.  1.
         25    2    1    2    0    0  0.00000000000E+00  0.00000000000E+00  0.75894694051E+02  0.14623806519E+03  0.12500226848E+03 0.  0.
    9000005    1    3    3    0    0  0.39678830003E+02  0.42957032865E+02  0.12165402951E+02  0.59738708154E+02  0.10000000000E+01 0.  0.
    9000005    1    3    3    0    0 -0.39678830003E+02 -0.42957032865E+02  0.63729291100E+02  0.86499357033E+02  0.10000000000E+01 0.  0.
<mgrwt>
<rscale>  0 0.12500227E+03</rscale>
<asrwt>0</asrwt>
<pdfrwt beam="1">  1        4 0.17087135E-01 0.12500227E+03</pdfrwt>
<pdfrwt beam="2">  1       -4 0.54110286E-02 0.12500227E+03</pdfrwt>
<totfact> 0.10005383E+04</totfact>
</mgrwt>
</event>
<event>
 5    1  0.3232465E-002  0.1250029E+03  0.7818608E-02  0.1235065E+00
          4   -1    0    0  501    0  0.00000000000E+00  0.00000000000E+00  0.59035409256E+02  0.59049068121E+02  0.12700000000E+01 0. -1.
         -4   -1    0    0    0  501 -0.00000000000E+00 -0.00000000000E+00 -0.66143613811E+02  0.66155805096E+02  0.12700000000E+01 0. -1.
         25    2    1    2    0    0  0.00000000000E+00  0.00000000000E+00 -0.71082045552E+01  0.12520487322E+03  0.12500293479E+03 0.  0.
    9000005    1    3    3    0    0  0.31380241401E+02 -0.35637762651E+02  0.37139892991E+02  0.60292133223E+02  0.10000000000E+01 0.  0.
    9000005    1    3    3    0    0 -0.31380241401E+02  0.35637762651E+02 -0.44248097546E+02  0.64912739995E+02  0.10000000000E+01 0.  0.
<mgrwt>
<rscale>  0 0.12500293E+03</rscale>
<asrwt>0</asrwt>
<pdfrwt beam="1">  1        4 0.90843592E-02 0.12500293E+03</pdfrwt>
<pdfrwt beam="2">  1       -4 0.10177929E-01 0.12500293E+03</pdfrwt>
<totfact> 0.10447721E+04</totfact>
</mgrwt>
</event>
<event>
 5    1  0.3232465E-002  0.1249966E+03  0.7818608E-02  0.1235075E+00
         -4   -1    0    0    0  501 -0.00000000000E+00  0.00000000000E+00  0.36887151364E+01  0.39012202395E+01  0.12700000000E+01 0.  1.
          4   -1    0    0  501    0  0.00000000000E+00 -0.00000000000E+00 -0.10290553372E+04  0.10290561209E+04  0.12700000000E+01 0.  1.
         25    2    1    2    0    0  0.00000000000E+00  0.00000000000E+00 -0.10253666221E+04  0.10329573411E+04  0.12499663568E+03 0.  0.
    9000005    1    3    3    0    0  0.40560804199E+02  0.16308604640E+02 -0.88169038679E+03  0.88277408638E+03  0.10000000000E+01 0.  0.
    9000005    1    3    3    0    0 -0.40560804199E+02 -0.16308604640E+02 -0.14367623530E+03  0.15018325477E+03  0.10000000000E+01 0.  0.
<mgrwt>
<rscale>  0 0.12499664E+03</rscale>
<asrwt>0</asrwt>
<pdfrwt beam="2">  1        4 0.15833239E+00 0.12499664E+03</pdfrwt>
<pdfrwt beam="1">  1       -4 0.58390229E-03 0.12499664E+03</pdfrwt>
<totfact> 0.29535141E+03</totfact>
</mgrwt>
</event>
<event>
 5    1  0.3232465E-002  0.1249964E+03  0.7818608E-02  0.1235075E+00
          4   -1    0    0  501    0  0.00000000000E+00  0.00000000000E+00  0.65683473502E+02  0.65695750177E+02  0.12700000000E+01 0.  1.
         -4   -1    0    0    0  501 -0.00000000000E+00 -0.00000000000E+00 -0.59442737488E+02  0.59456302779E+02  0.12700000000E+01 0.  1.
         25    2    1    2    0    0  0.00000000000E+00  0.00000000000E+00  0.62407360140E+01  0.12515205296E+03  0.12499635824E+03 0.  0.
    9000005    1    3    3    0    0 -0.39415680720E+02  0.48489058839E+02  0.26322368751E+01  0.62551685706E+02  0.10000000000E+01 0.  0.
    9000005    1    3    3    0    0  0.39415680720E+02 -0.48489058839E+02  0.36084991389E+01  0.62600367250E+02  0.10000000000E+01 0.  0.
<mgrwt>
<rscale>  0 0.12499636E+03</rscale>
<asrwt>0</asrwt>
<pdfrwt beam="1">  1        4 0.10107138E-01 0.12499636E+03</pdfrwt>
<pdfrwt beam="2">  1       -4 0.91470244E-02 0.12499636E+03</pdfrwt>
<totfact> 0.10450421E+04</totfact>
</mgrwt>
</event>
<event>
 5    1  0.3232465E-002  0.1250053E+03  0.7818608E-02  0.1235061E+00
          4   -1    0    0  501    0  0.00000000000E+00  0.00000000000E+00  0.56819819368E+02  0.56834010707E+02  0.12700000000E+01 0.  1.
         -4   -1    0    0    0  501 -0.00000000000E+00 -0.00000000000E+00 -0.68725179310E+02  0.68736912726E+02  0.12700000000E+01 0.  1.
         25    2    1    2    0    0  0.00000000000E+00  0.00000000000E+00 -0.11905359942E+02  0.12557092343E+03  0.12500527675E+03 0.  0.
    9000005    1    3    3    0    0  0.18299133033E+02  0.19756122555E+02 -0.62603054549E+02  0.68156475019E+02  0.10000000000E+01 0.  0.
    9000005    1    3    3    0    0 -0.18299133033E+02 -0.19756122555E+02  0.50697694608E+02  0.57414448414E+02  0.10000000000E+01 0.  0.
<mgrwt>
<rscale>  0 0.12500528E+03</rscale>
<asrwt>0</asrwt>
<pdfrwt beam="1">  1        4 0.87435048E-02 0.12500528E+03</pdfrwt>
<pdfrwt beam="2">  1       -4 0.10575099E-01 0.12500528E+03</pdfrwt>
<totfact> 0.10439146E+04</totfact>
</mgrwt>
</event>
<event>
 5    1  0.3232465E-002  0.1250043E+03  0.7818608E-02  0.1235062E+00
          4   -1    0    0  501    0  0.00000000000E+00  0.00000000000E+00  0.67071206669E+03  0.67071326907E+03  0.12700000000E+01 0. -1.
         -4   -1    0    0    0  501 -0.00000000000E+00 -0.00000000000E+00 -0.57539873825E+01  0.58924757783E+01  0.12700000000E+01 0. -1.
         25    2    1    2    0    0  0.00000000000E+00  0.00000000000E+00  0.66495807931E+03  0.67660574485E+03  0.12500434681E+03 0.  0.
    9000005    1    3    3    0    0 -0.16804085253E+02  0.59296461134E+02  0.38848738915E+03  0.39334704665E+03  0.10000000000E+01 0.  0.
    9000005    1    3    3    0    0  0.16804085253E+02 -0.59296461134E+02  0.27647069016E+03  0.28325869819E+03  0.10000000000E+01 0.  0.
<mgrwt>
<rscale>  0 0.12500435E+03</rscale>
<asrwt>0</asrwt>
<pdfrwt beam="1">  1        4 0.10319716E+00 0.12500435E+03</pdfrwt>
<pdfrwt beam="2">  1       -4 0.89597474E-03 0.12500435E+03</pdfrwt>
<totfact> 0.44346554E+03</totfact>
</mgrwt>
</event>
<event>
 5    1  0.3232465E-002  0.1250012E+03  0.7818608E-02  0.1235067E+00
          4   -1    0    0  501    0  0.00000000000E+00  0.00000000000E+00  0.20383635771E+03  0.20384031403E+03  0.12700000000E+01 0.  1.
         -4   -1    0    0    0  501 -0.00000000000E+00 -0.00000000000E+00 -0.19138829191E+02  0.19180919759E+02  0.12700000000E+01 0.  1.
         25    2    1    2    0    0  0.00000000000E+00  0.00000000000E+00  0.18469752852E+03  0.22302123379E+03  0.12500117472E+03 0.  0.
    9000005    1    3    3    0    0 -0.36343422714E+02  0.45506396178E+02  0.13278441880E+03  0.14499785634E+03  0.10000000000E+01 0.  0.
    9000005    1    3    3    0    0  0.36343422714E+02 -0.45506396178E+02  0.51913109719E+02  0.78023377448E+02  0.10000000000E+01 0.  0.
<mgrwt>
<rscale>  0 0.12500117E+03</rscale>
<asrwt>0</asrwt>
<pdfrwt beam="1">  1        4 0.31362980E-01 0.12500117E+03</pdfrwt>
<pdfrwt beam="2">  1       -4 0.29479775E-02 0.12500117E+03</pdfrwt>
<totfact> 0.86390260E+03</totfact>
</mgrwt>
</event>
<event>
 5    1  0.3232465E-002  0.1250112E+03  0.7818608E-02  0.1235052E+00
          4   -1    0    0  501    0  0.00000000000E+00  0.00000000000E+00  0.32208440144E+02  0.32233468887E+02  0.12700000000E+01 0. -1.
         -4   -1    0    0    0  501 -0.00000000000E+00 -0.00000000000E+00 -0.12122655134E+03  0.12123320358E+03  0.12700000000E+01 0. -1.
         25    2    1    2    0    0  0.00000000000E+00  0.00000000000E+00 -0.89018111198E+02  0.15346667247E+03  0.12501118125E+03 0.  0.
    9000005    1    3    3    0    0  0.18497922219E+02  0.72051803201E+00  0.28771502132E+02  0.34227059581E+02  0.10000000000E+01 0.  0.
    9000005    1    3    3    0    0 -0.18497922219E+02 -0.72051803201E+00 -0.11778961333E+03  0.11923961289E+03  0.10000000000E+01 0.  0.
<mgrwt>
<rscale>  0 0.12501118E+03</rscale>
<asrwt>0</asrwt>
<pdfrwt beam="1">  1        4 0.49575817E-02 0.12501118E+03</pdfrwt>
<pdfrwt beam="2">  1       -4 0.18652675E-01 0.12501118E+03</pdfrwt>
<totfact> 0.98592301E+03</totfact>
</mgrwt>
</event>
<event>
 5    1  0.3232465E-002  0.1250075E+03  0.7818608E-02  0.1235058E+00
         -4   -1    0    0    0  501 -0.00000000000E+00  0.00000000000E+00  0.14201731146E+02  0.14258403401E+02  0.12700000000E+01 0. -1.
          4   -1    0    0  501    0  0.00000000000E+00 -0.00000000000E+00 -0.27448150680E+03  0.27448444487E+03  0.12700000000E+01 0. -1.
         25    2    1    2    0    0  0.00000000000E+00  0.00000000000E+00 -0.26027977565E+03  0.28874284827E+03  0.12500748303E+03 0.  0.
    9000005    1    3    3    0    0 -0.10413724799E+02  0.29078598042E+01 -0.27231612139E+03  0.27253251417E+03  0.10000000000E+01 0.  0.
    9000005    1    3    3    0    0  0.10413724799E+02 -0.29078598042E+01  0.12036345737E+02  0.16210334096E+02  0.10000000000E+01 0.  0.
<mgrwt>
<rscale>  0 0.12500748E+03</rscale>
<asrwt>0</asrwt>
<pdfrwt beam="2">  1        4 0.42232506E-01 0.12500748E+03</pdfrwt>
<pdfrwt beam="1">  1       -4 0.21894673E-02 0.12500748E+03</pdfrwt>
<totfact> 0.77020164E+03</totfact>
</mgrwt>
</event>
<event>
 5    1  0.3232465E-002  0.1249998E+03  0.7818608E-02  0.1235070E+00
          4   -1    0    0  501    0  0.00000000000E+00  0.00000000000E+00  0.13603796499E+02  0.13662949140E+02  0.12700000000E+01 0. -1.
         -4   -1    0    0    0  501 -0.00000000000E+00 -0.00000000000E+00 -0.28645950765E+03  0.28646232287E+03  0.12700000000E+01 0. -1.
         25    2    1    2    0    0  0.00000000000E+00  0.00000000000E+00 -0.27285571115E+03  0.30012527201E+03  0.12499975916E+03 0.  0.
    9000005    1    3    3    0    0 -0.31909287897E+02 -0.16318325286E+02 -0.13512614757E+02  0.38315547129E+02  0.10000000000E+01 0.  0.
    9000005    1    3    3    0    0  0.31909287897E+02  0.16318325286E+02 -0.25934309640E+03  0.26180972488E+03  0.10000000000E+01 0.  0.
<mgrwt>
<rscale>  0 0.12499976E+03</rscale>
<asrwt>0</asrwt>
<pdfrwt beam="1">  1        4 0.20976587E-02 0.12499976E+03</pdfrwt>
<pdfrwt beam="2">  1       -4 0.44075456E-01 0.12499976E+03</pdfrwt>
<totfact> 0.75583534E+03</totfact>
</mgrwt>
</event>
<event>
 5    1  0.3232465E-002  0.1250006E+03  0.7818608E-02  0.1235068E+00
         -4   -1    0    0    0  501 -0.00000000000E+00  0.00000000000E+00  0.13936498155E+04  0.13936503941E+04  0.12700000000E+01 0. -1.
          4   -1    0    0  501    0  0.00000000000E+00 -0.00000000000E+00 -0.26584509193E+01  0.29462283160E+01  0.12700000000E+01 0. -1.
         25    2    1    2    0    0  0.00000000000E+00  0.00000000000E+00  0.13909913645E+04  0.13965966224E+04  0.12500059829E+03 0.  0.
    9000005    1    3    3    0    0 -0.16306463725E+02 -0.46934084458E+02  0.27202479945E+03  0.27652703404E+03  0.10000000000E+01 0.  0.
    9000005    1    3    3    0    0  0.16306463725E+02  0.46934084458E+02  0.11189665651E+04  0.11200695884E+04  0.10000000000E+01 0.  0.
<mgrwt>
<rscale>  0 0.12500060E+03</rscale>
<asrwt>0</asrwt>
<pdfrwt beam="2">  1        4 0.43117333E-03 0.12500060E+03</pdfrwt>
<pdfrwt beam="1">  1       -4 0.21443002E+00 0.12500060E+03</pdfrwt>
<totfact> 0.20053791E+03</totfact>
</mgrwt>
</event>
<event>
 5    1  0.3232465E-002  0.1249832E+03  0.7818608E-02  0.1235095E+00
          4   -1    0    0  501    0  0.00000000000E+00  0.00000000000E+00  0.81128713707E+02  0.81138653475E+02  0.12700000000E+01 0.  1.
         -4   -1    0    0    0  501 -0.00000000000E+00 -0.00000000000E+00 -0.48114615147E+02  0.48131373248E+02  0.12700000000E+01 0.  1.
         25    2    1    2    0    0  0.00000000000E+00  0.00000000000E+00  0.33014098560E+02  0.12927002672E+03  0.12498323530E+03 0.  0.
    9000005    1    3    3    0    0  0.25237102398E+02 -0.56983058396E+02  0.11855923638E+02  0.63447168628E+02  0.10000000000E+01 0.  0.
    9000005    1    3    3    0    0 -0.25237102398E+02  0.56983058396E+02  0.21158174922E+02  0.65822858094E+02  0.10000000000E+01 0.  0.
<mgrwt>
<rscale>  0 0.12498324E+03</rscale>
<asrwt>0</asrwt>
<pdfrwt beam="1">  1        4 0.12483394E-01 0.12498324E+03</pdfrwt>
<pdfrwt beam="2">  1       -4 0.74043022E-02 0.12498324E+03</pdfrwt>
<totfact> 0.10364070E+04</totfact>
</mgrwt>
</event>
<event>
 5    1  0.3232465E-002  0.1249965E+03  0.7818608E-02  0.1235075E+00
         -4   -1    0    0    0  501 -0.00000000000E+00  0.00000000000E+00  0.13195365092E+03  0.13195976239E+03  0.12700000000E+01 0.  1.
          4   -1    0    0  501    0  0.00000000000E+00 -0.00000000000E+00 -0.29581138911E+02  0.29608388664E+02  0.12700000000E+01 0.  1.
         25    2    1    2    0    0  0.00000000000E+00  0.00000000000E+00  0.10237251200E+03  0.16156815105E+03  0.12499654484E+03 0.  0.
    9000005    1    3    3    0    0 -0.97709949135E+01 -0.35247173617E+01 -0.28463773655E+02  0.30316371564E+02  0.10000000000E+01 0.  0.
    9000005    1    3    3    0    0  0.97709949135E+01  0.35247173617E+01  0.13083628566E+03  0.13125177949E+03  0.10000000000E+01 0.  0.
<mgrwt>
<rscale>  0 0.12499654E+03</rscale>
<asrwt>0</asrwt>
<pdfrwt beam="2">  1        4 0.45535107E-02 0.12499654E+03</pdfrwt>
<pdfrwt beam="1">  1       -4 0.20303128E-01 0.12499654E+03</pdfrwt>
<totfact> 0.97048843E+03</totfact>
</mgrwt>
</event>
<event>
 5    1  0.3232465E-002  0.1249998E+03  0.7818608E-02  0.1235070E+00
         -4   -1    0    0    0  501 -0.00000000000E+00  0.00000000000E+00  0.11984522948E+03  0.11985195839E+03  0.12700000000E+01 0.  1.
          4   -1    0    0  501    0  0.00000000000E+00 -0.00000000000E+00 -0.32573990124E+02  0.32598738205E+02  0.12700000000E+01 0.  1.
         25    2    1    2    0    0  0.00000000000E+00  0.00000000000E+00  0.87271239359E+02  0.15245069659E+03  0.12499978269E+03 0.  0.
    9000005    1    3    3    0    0  0.48067727548E+02 -0.17878569575E+02  0.85433171346E-01  0.51294804615E+02  0.10000000000E+01 0.  0.
    9000005    1    3    3    0    0 -0.48067727548E+02  0.17878569575E+02  0.87185806187E+02  0.10115589198E+03  0.10000000000E+01 0.  0.
<mgrwt>
<rscale>  0 0.12499978E+03</rscale>
<asrwt>0</asrwt>
<pdfrwt beam="2">  1        4 0.50138044E-02 0.12499978E+03</pdfrwt>
<pdfrwt beam="1">  1       -4 0.18440149E-01 0.12499978E+03</pdfrwt>
<totfact> 0.98817896E+03</totfact>
</mgrwt>
</event>
<event>
 5    1  0.3232465E-002  0.1250016E+03  0.7818608E-02  0.1235067E+00
         -4   -1    0    0    0  501 -0.00000000000E+00  0.00000000000E+00  0.14238266156E+02  0.14294793567E+02  0.12700000000E+01 0.  1.
          4   -1    0    0  501    0  0.00000000000E+00 -0.00000000000E+00 -0.27375408500E+03  0.27375703087E+03  0.12700000000E+01 0.  1.
         25    2    1    2    0    0  0.00000000000E+00  0.00000000000E+00 -0.25951581884E+03  0.28805182444E+03  0.12500157333E+03 0.  0.
    9000005    1    3    3    0    0  0.19411610693E+01 -0.56626554117E+02 -0.19050868144E+03  0.19875837703E+03  0.10000000000E+01 0.  0.
    9000005    1    3    3    0    0 -0.19411610693E+01  0.56626554117E+02 -0.69007137401E+02  0.89293447407E+02  0.10000000000E+01 0.  0.
<mgrwt>
<rscale>  0 0.12500157E+03</rscale>
<asrwt>0</asrwt>
<pdfrwt beam="2">  1        4 0.42120584E-01 0.12500157E+03</pdfrwt>
<pdfrwt beam="1">  1       -4 0.21950776E-02 0.12500157E+03</pdfrwt>
<totfact> 0.77119769E+03</totfact>
</mgrwt>
</event>
<event>
 5    1  0.3232465E-002  0.1249991E+03  0.7818608E-02  0.1235071E+00
          4   -1    0    0  501    0  0.00000000000E+00  0.00000000000E+00  0.89170629848E+02  0.89179673287E+02  0.12700000000E+01 0.  1.
         -4   -1    0    0    0  501 -0.00000000000E+00 -0.00000000000E+00 -0.43785331181E+02  0.43803745578E+02  0.12700000000E+01 0.  1.
         25    2    1    2    0    0  0.00000000000E+00  0.00000000000E+00  0.45385298667E+02  0.13298341886E+03  0.12499905743E+03 0.  0.
    9000005    1    3    3    0    0 -0.35860165422E+02 -0.40554298361E+02 -0.10519837807E+02  0.55156772632E+02  0.10000000000E+01 0.  0.
    9000005    1    3    3    0    0  0.35860165422E+02  0.40554298361E+02  0.55905136474E+02  0.77826646233E+02  0.10000000000E+01 0.  0.
<mgrwt>
<rscale>  0 0.12499906E+03</rscale>
<asrwt>0</asrwt>
<pdfrwt beam="1">  1        4 0.13720670E-01 0.12499906E+03</pdfrwt>
<pdfrwt beam="2">  1       -4 0.67383170E-02 0.12499906E+03</pdfrwt>
<totfact> 0.10280971E+04</totfact>
</mgrwt>
</event>
<event>
 5    1  0.3232465E-002  0.1249924E+03  0.7818608E-02  0.1235081E+00
         -4   -1    0    0    0  501 -0.00000000000E+00  0.00000000000E+00  0.65587469096E+01  0.66805734053E+01  0.12700000000E+01 0. -1.
          4   -1    0    0  501    0  0.00000000000E+00 -0.00000000000E+00 -0.58990444170E+03  0.58990580879E+03  0.12700000000E+01 0. -1.
         25    2    1    2    0    0  0.00000000000E+00  0.00000000000E+00 -0.58334569479E+03  0.59658638219E+03  0.12499244691E+03 0.  0.
    9000005    1    3    3    0    0 -0.56801516228E+01  0.59404433285E+02 -0.38015043808E+03  0.38480710283E+03  0.10000000000E+01 0.  0.
    9000005    1    3    3    0    0  0.56801516228E+01 -0.59404433285E+02 -0.20319525672E+03  0.21177927936E+03  0.10000000000E+01 0.  0.
<mgrwt>
<rscale>  0 0.12499245E+03</rscale>
<asrwt>0</asrwt>
<pdfrwt beam="2">  1        4 0.90763964E-01 0.12499245E+03</pdfrwt>
<pdfrwt beam="1">  1       -4 0.10185149E-02 0.12499245E+03</pdfrwt>
<totfact> 0.49091947E+03</totfact>
</mgrwt>
</event>
<event>
 5    1  0.3232465E-002  0.1249992E+03  0.7818608E-02  0.1235071E+00
          4   -1    0    0  501    0  0.00000000000E+00  0.00000000000E+00  0.24681163391E+02  0.24713816507E+02  0.12700000000E+01 0. -1.
         -4   -1    0    0    0  501 -0.00000000000E+00 -0.00000000000E+00 -0.15812658139E+03  0.15813168133E+03  0.12700000000E+01 0. -1.
         25    2    1    2    0    0  0.00000000000E+00  0.00000000000E+00 -0.13344541800E+03  0.18284549784E+03  0.12499918598E+03 0.  0.
    9000005    1    3    3    0    0  0.11238029874E+00  0.45559137218E+02 -0.12929029615E+03  0.13708620752E+03  0.10000000000E+01 0.  0.
    9000005    1    3    3    0    0 -0.11238029874E+00 -0.45559137218E+02 -0.41551218493E+01  0.45759290324E+02  0.10000000000E+01 0.  0.
<mgrwt>
<rscale>  0 0.12499919E+03</rscale>
<asrwt>0</asrwt>
<pdfrwt beam="1">  1        4 0.38000062E-02 0.12499919E+03</pdfrwt>
<pdfrwt beam="2">  1       -4 0.24330070E-01 0.12499919E+03</pdfrwt>
<totfact> 0.93108997E+03</totfact>
</mgrwt>
</event>
<event>
 5    1  0.3232465E-002  0.1250007E+03  0.7818608E-02  0.1235068E+00
         -4   -1    0    0    0  501 -0.00000000000E+00  0.00000000000E+00  0.22008586021E+03  0.22008952443E+03  0.12700000000E+01 0.  1.
          4   -1    0    0  501    0  0.00000000000E+00 -0.00000000000E+00 -0.17722425386E+02  0.17767871611E+02  0.12700000000E+01 0.  1.
         25    2    1    2    0    0  0.00000000000E+00  0.00000000000E+00  0.20236343483E+03  0.23785739604E+03  0.12500072439E+03 0.  0.
    9000005    1    3    3    0    0 -0.11355792716E+02 -0.61451299850E+02  0.10064690861E+03  0.11847369537E+03  0.10000000000E+01 0.  0.
    9000005    1    3    3    0    0  0.11355792716E+02  0.61451299850E+02  0.10171652621E+03  0.11938370067E+03  0.10000000000E+01 0.  0.
<mgrwt>
<rscale>  0 0.12500072E+03</rscale>
<asrwt>0</asrwt>
<pdfrwt beam="2">  1        4 0.27303048E-02 0.12500072E+03</pdfrwt>
<pdfrwt beam="1">  1       -4 0.33863140E-01 0.12500072E+03</pdfrwt>
<totfact> 0.84116150E+03</totfact>
</mgrwt>
</event>
<event>
 5    1  0.3232465E-002  0.1250050E+03  0.7818608E-02  0.1235062E+00
          4   -1    0    0  501    0  0.00000000000E+00  0.00000000000E+00  0.15447847315E+03  0.15448369353E+03  0.12700000000E+01 0. -1.
         -4   -1    0    0    0  501 -0.00000000000E+00 -0.00000000000E+00 -0.25267105788E+02  0.25299002646E+02  0.12700000000E+01 0. -1.
         25    2    1    2    0    0  0.00000000000E+00  0.00000000000E+00  0.12921136736E+03  0.17978269618E+03  0.12500496146E+03 0.  0.
    9000005    1    3    3    0    0  0.39831032334E+02  0.24162055519E+02  0.12451590425E+03  0.13294933801E+03  0.10000000000E+01 0.  0.
    9000005    1    3    3    0    0 -0.39831032334E+02 -0.24162055519E+02  0.46954631065E+01  0.46833358171E+02  0.10000000000E+01 0.  0.
<mgrwt>
<rscale>  0 0.12500496E+03</rscale>
<asrwt>0</asrwt>
<pdfrwt beam="1">  1        4 0.23768774E-01 0.12500496E+03</pdfrwt>
<pdfrwt beam="2">  1       -4 0.38901022E-02 0.12500496E+03</pdfrwt>
<totfact> 0.93645714E+03</totfact>
</mgrwt>
</event>
<event>
 5    1  0.3232465E-002  0.1250031E+03  0.7818608E-02  0.1235064E+00
         -4   -1    0    0    0  501 -0.00000000000E+00  0.00000000000E+00  0.31100145588E+02  0.31126065534E+02  0.12700000000E+01 0. -1.
          4   -1    0    0  501    0  0.00000000000E+00 -0.00000000000E+00 -0.12552711017E+03  0.12553353451E+03  0.12700000000E+01 0. -1.
         25    2    1    2    0    0  0.00000000000E+00  0.00000000000E+00 -0.94426964577E+02  0.15665960004E+03  0.12500311455E+03 0.  0.
    9000005    1    3    3    0    0 -0.18791765107E+02  0.59081075752E+02 -0.57060891885E+02  0.84265350712E+02  0.10000000000E+01 0.  0.
    9000005    1    3    3    0    0  0.18791765107E+02 -0.59081075752E+02 -0.37366072693E+02  0.72394249332E+02  0.10000000000E+01 0.  0.
<mgrwt>
<rscale>  0 0.12500311E+03</rscale>
<asrwt>0</asrwt>
<pdfrwt beam="2">  1        4 0.19314351E-01 0.12500311E+03</pdfrwt>
<pdfrwt beam="1">  1       -4 0.47871259E-02 0.12500311E+03</pdfrwt>
<totfact> 0.97983818E+03</totfact>
</mgrwt>
</event>
<event>
 5    1  0.3232465E-002  0.1249985E+03  0.7818608E-02  0.1235072E+00
         -4   -1    0    0    0  501 -0.00000000000E+00  0.00000000000E+00  0.73203390202E+03  0.73203500368E+03  0.12700000000E+01 0.  1.
          4   -1    0    0  501    0  0.00000000000E+00 -0.00000000000E+00 -0.52593451152E+01  0.54105093144E+01  0.12700000000E+01 0.  1.
         25    2    1    2    0    0  0.00000000000E+00  0.00000000000E+00  0.72677455691E+03  0.73744551299E+03  0.12499851225E+03 0.  0.
    9000005    1    3    3    0    0 -0.48193301505E+02  0.15550096807E+01  0.12887071788E+03  0.13759968856E+03  0.10000000000E+01 0.  0.
    9000005    1    3    3    0    0  0.48193301505E+02 -0.15550096807E+01  0.59790383903E+03  0.59984582443E+03  0.10000000000E+01 0.  0.
<mgrwt>
<rscale>  0 0.12499851E+03</rscale>
<asrwt>0</asrwt>
<pdfrwt beam="2">  1        4 0.82084231E-03 0.12499851E+03</pdfrwt>
<pdfrwt beam="1">  1       -4 0.11263238E+00 0.12499851E+03</pdfrwt>
<totfact> 0.41183257E+03</totfact>
</mgrwt>
</event>
<event>
 5    1  0.3232465E-002  0.1250020E+03  0.7818608E-02  0.1235066E+00
          4   -1    0    0  501    0  0.00000000000E+00  0.00000000000E+00  0.87759738726E+02  0.87768927539E+02  0.12700000000E+01 0. -1.
         -4   -1    0    0    0  501 -0.00000000000E+00 -0.00000000000E+00 -0.44491557096E+02  0.44509679316E+02  0.12700000000E+01 0. -1.
         25    2    1    2    0    0  0.00000000000E+00  0.00000000000E+00  0.43268181630E+02  0.13227860685E+03  0.12500197714E+03 0.  0.
    9000005    1    3    3    0    0 -0.30191279433E+02  0.45209668443E+02 -0.10981271823E+02  0.55470855459E+02  0.10000000000E+01 0.  0.
    9000005    1    3    3    0    0  0.30191279433E+02 -0.45209668443E+02  0.54249453453E+02  0.76807751396E+02  0.10000000000E+01 0.  0.
<mgrwt>
<rscale>  0 0.12500198E+03</rscale>
<asrwt>0</asrwt>
<pdfrwt beam="1">  1        4 0.13503599E-01 0.12500198E+03</pdfrwt>
<pdfrwt beam="2">  1       -4 0.68469557E-02 0.12500198E+03</pdfrwt>
<totfact> 0.10295296E+04</totfact>
</mgrwt>
</event>
<event>
 5    1  0.3232465E-002  0.1250000E+03  0.7818608E-02  0.1235069E+00
         -4   -1    0    0    0  501 -0.00000000000E+00  0.00000000000E+00  0.27105777846E+03  0.27106075364E+03  0.12700000000E+01 0. -1.
          4   -1    0    0  501    0  0.00000000000E+00 -0.00000000000E+00 -0.14380089452E+02  0.14436061536E+02  0.12700000000E+01 0. -1.
         25    2    1    2    0    0  0.00000000000E+00  0.00000000000E+00  0.25667768901E+03  0.28549681518E+03  0.12499998176E+03 0.  0.
    9000005    1    3    3    0    0  0.18737877431E+02 -0.59613782139E+02  0.12966628141E+03  0.14394184800E+03  0.10000000000E+01 0.  0.
    9000005    1    3    3    0    0 -0.18737877431E+02  0.59613782139E+02  0.12701140760E+03  0.14155496717E+03  0.10000000000E+01 0.  0.
<mgrwt>
<rscale>  0 0.12499998E+03</rscale>
<asrwt>0</asrwt>
<pdfrwt beam="2">  1        4 0.22168560E-02 0.12499998E+03</pdfrwt>
<pdfrwt beam="1">  1       -4 0.41705728E-01 0.12499998E+03</pdfrwt>
<totfact> 0.77454900E+03</totfact>
</mgrwt>
</event>
<event>
 5    1  0.3232465E-002  0.1249929E+03  0.7818608E-02  0.1235080E+00
         -4   -1    0    0    0  501 -0.00000000000E+00  0.00000000000E+00  0.59446230916E+01  0.60787699168E+01  0.12700000000E+01 0.  1.
          4   -1    0    0  501    0  0.00000000000E+00 -0.00000000000E+00 -0.64956657525E+03  0.64956781677E+03  0.12700000000E+01 0.  1.
         25    2    1    2    0    0  0.00000000000E+00  0.00000000000E+00 -0.64362195216E+03  0.65564658668E+03  0.12499291713E+03 0.  0.
    9000005    1    3    3    0    0 -0.14733549362E+01  0.43895904597E+01  0.50692709674E+01  0.69380679813E+01  0.10000000000E+01 0.  0.
    9000005    1    3    3    0    0  0.14733549362E+01 -0.43895904597E+01 -0.64869122312E+03  0.64870851870E+03  0.10000000000E+01 0.  0.
<mgrwt>
<rscale>  0 0.12499292E+03</rscale>
<asrwt>0</asrwt>
<pdfrwt beam="2">  1        4 0.99943678E-01 0.12499292E+03</pdfrwt>
<pdfrwt beam="1">  1       -4 0.92497240E-03 0.12499292E+03</pdfrwt>
<totfact> 0.45540278E+03</totfact>
</mgrwt>
</event>
<event>
 5    1  0.3232465E-002  0.1250060E+03  0.7818608E-02  0.1235060E+00
         -4   -1    0    0    0  501 -0.00000000000E+00  0.00000000000E+00  0.49891211349E+03  0.49891372991E+03  0.12700000000E+01 0. -1.
          4   -1    0    0  501    0  0.00000000000E+00 -0.00000000000E+00 -0.77771499731E+01  0.78801625430E+01  0.12700000000E+01 0. -1.
         25    2    1    2    0    0  0.00000000000E+00  0.00000000000E+00  0.49113496352E+03  0.50679389245E+03  0.12500598799E+03 0.  0.
    9000005    1    3    3    0    0  0.83345983623E+01 -0.61915203390E+02  0.25218745904E+03  0.25981237930E+03  0.10000000000E+01 0.  0.
    9000005    1    3    3    0    0 -0.83345983623E+01  0.61915203390E+02  0.23894750448E+03  0.24698151315E+03  0.10000000000E+01 0.  0.
<mgrwt>
<rscale>  0 0.12500599E+03</rscale>
<asrwt>0</asrwt>
<pdfrwt beam="2">  1        4 0.12045328E-02 0.12500599E+03</pdfrwt>
<pdfrwt beam="1">  1       -4 0.76763769E-01 0.12500599E+03</pdfrwt>
<totfact> 0.55333779E+03</totfact>
</mgrwt>
</event>
<event>
 5    1  0.3232465E-002  0.1250022E+03  0.7818608E-02  0.1235066E+00
          4   -1    0    0  501    0  0.00000000000E+00  0.00000000000E+00  0.20390920242E+02  0.20430431427E+02  0.12700000000E+01 0. -1.
         -4   -1    0    0    0  501 -0.00000000000E+00 -0.00000000000E+00 -0.19134772226E+03  0.19135193680E+03  0.12700000000E+01 0. -1.
         25    2    1    2    0    0  0.00000000000E+00  0.00000000000E+00 -0.17095680202E+03  0.21178236822E+03  0.12500217331E+03 0.  0.
    9000005    1    3    3    0    0  0.12847648385E+02  0.42691405240E+02 -0.11284153493E+02  0.45999459458E+02  0.10000000000E+01 0.  0.
    9000005    1    3    3    0    0 -0.12847648385E+02 -0.42691405240E+02 -0.15967264853E+03  0.16578290877E+03  0.10000000000E+01 0.  0.
<mgrwt>
<rscale>  0 0.12500217E+03</rscale>
<asrwt>0</asrwt>
<pdfrwt beam="1">  1        4 0.31404283E-02 0.12500217E+03</pdfrwt>
<pdfrwt beam="2">  1       -4 0.29441473E-01 0.12500217E+03</pdfrwt>
<totfact> 0.88181338E+03</totfact>
</mgrwt>
</event>
<event>
 5    1  0.3232465E-002  0.1249926E+03  0.7818608E-02  0.1235081E+00
          4   -1    0    0  501    0  0.00000000000E+00  0.00000000000E+00  0.42287290842E+02  0.42306357285E+02  0.12700000000E+01 0. -1.
         -4   -1    0    0    0  501 -0.00000000000E+00 -0.00000000000E+00 -0.92318878238E+02  0.92327613308E+02  0.12700000000E+01 0. -1.
         25    2    1    2    0    0  0.00000000000E+00  0.00000000000E+00 -0.50031587396E+02  0.13463397059E+03  0.12499258498E+03 0.  0.
    9000005    1    3    3    0    0 -0.24401204123E+02  0.61203768352E+01  0.36597013870E+02  0.44420931997E+02  0.10000000000E+01 0.  0.
    9000005    1    3    3    0    0  0.24401204123E+02 -0.61203768352E+01 -0.86628601267E+02  0.90213038596E+02  0.10000000000E+01 0.  0.
<mgrwt>
<rscale>  0 0.12499258E+03</rscale>
<asrwt>0</asrwt>
<pdfrwt beam="1">  1        4 0.65078756E-02 0.12499258E+03</pdfrwt>
<pdfrwt beam="2">  1       -4 0.14205043E-01 0.12499258E+03</pdfrwt>
<totfact> 0.10247505E+04</totfact>
</mgrwt>
</event>
<event>
 5    1  0.3232465E-002  0.1250014E+03  0.7818608E-02  0.1235067E+00
         -4   -1    0    0    0  501 -0.00000000000E+00  0.00000000000E+00  0.27437386992E+02  0.27466763641E+02  0.12700000000E+01 0.  1.
          4   -1    0    0  501    0  0.00000000000E+00 -0.00000000000E+00 -0.14226446613E+03  0.14227013469E+03  0.12700000000E+01 0.  1.
         25    2    1    2    0    0  0.00000000000E+00  0.00000000000E+00 -0.11482707914E+03  0.16973689833E+03  0.12500142619E+03 0.  0.
    9000005    1    3    3    0    0  0.12888693819E+01  0.46117803882E+02 -0.17563074278E+00  0.46146981107E+02  0.10000000000E+01 0.  0.
    9000005    1    3    3    0    0 -0.12888693819E+01 -0.46117803882E+02 -0.11465144840E+03  0.12358991722E+03  0.10000000000E+01 0.  0.
<mgrwt>
<rscale>  0 0.12500143E+03</rscale>
<asrwt>0</asrwt>
<pdfrwt beam="2">  1        4 0.21889536E-01 0.12500143E+03</pdfrwt>
<pdfrwt beam="1">  1       -4 0.42238323E-02 0.12500143E+03</pdfrwt>
<totfact> 0.95494641E+03</totfact>
</mgrwt>
</event>
<event>
 5    1  0.3232465E-002  0.1249900E+03  0.7818608E-02  0.1235085E+00
         -4   -1    0    0    0  501 -0.00000000000E+00  0.00000000000E+00  0.52719487318E+02  0.52734782099E+02  0.12700000000E+01 0.  1.
          4   -1    0    0  501    0  0.00000000000E+00 -0.00000000000E+00 -0.74051675363E+02  0.74062564931E+02  0.12700000000E+01 0.  1.
         25    2    1    2    0    0  0.00000000000E+00  0.00000000000E+00 -0.21332188045E+02  0.12679734703E+03  0.12499001947E+03 0.  0.
    9000005    1    3    3    0    0  0.88497975700E+01  0.26232150240E+02  0.46163410337E+02  0.53837766272E+02  0.10000000000E+01 0.  0.
    9000005    1    3    3    0    0 -0.88497975700E+01 -0.26232150240E+02 -0.67495598383E+02  0.72959580757E+02  0.10000000000E+01 0.  0.
<mgrwt>
<rscale>  0 0.12499002E+03</rscale>
<asrwt>0</asrwt>
<pdfrwt beam="2">  1        4 0.11394580E-01 0.12499002E+03</pdfrwt>
<pdfrwt beam="1">  1       -4 0.81127045E-02 0.12499002E+03</pdfrwt>
<totfact> 0.10415898E+04</totfact>
</mgrwt>
</event>
<event>
 5    1  0.3232465E-002  0.1249998E+03  0.7818608E-02  0.1235070E+00
          4   -1    0    0  501    0  0.00000000000E+00  0.00000000000E+00  0.46858118827E+01  0.48548669395E+01  0.12700000000E+01 0.  1.
         -4   -1    0    0    0  501 -0.00000000000E+00 -0.00000000000E+00 -0.81869054266E+03  0.81869152771E+03  0.12700000000E+01 0.  1.
         25    2    1    2    0    0  0.00000000000E+00  0.00000000000E+00 -0.81400473078E+03  0.82354639465E+03  0.12499984964E+03 0.  0.
    9000005    1    3    3    0    0  0.39497158046E+02 -0.48340414172E+02 -0.38788531607E+03  0.39287763943E+03  0.10000000000E+01 0.  0.
    9000005    1    3    3    0    0 -0.39497158046E+02  0.48340414172E+02 -0.42611941470E+03  0.43066875522E+03  0.10000000000E+01 0.  0.
<mgrwt>
<rscale>  0 0.12499985E+03</rscale>
<asrwt>0</asrwt>
<pdfrwt beam="1">  1        4 0.73397480E-03 0.12499985E+03</pdfrwt>
<pdfrwt beam="2">  1       -4 0.12596536E+00 0.12499985E+03</pdfrwt>
<totfact> 0.37235074E+03</totfact>
</mgrwt>
</event>
<event>
 5    1  0.3232465E-002  0.1250001E+03  0.7818608E-02  0.1235069E+00
         -4   -1    0    0    0  501 -0.00000000000E+00  0.00000000000E+00  0.31910049505E+02  0.31935312107E+02  0.12700000000E+01 0. -1.
          4   -1    0    0  501    0  0.00000000000E+00 -0.00000000000E+00 -0.12233769968E+03  0.12234429150E+03  0.12700000000E+01 0. -1.
         25    2    1    2    0    0  0.00000000000E+00  0.00000000000E+00 -0.90427650176E+02  0.15427960361E+03  0.12500014469E+03 0.  0.
    9000005    1    3    3    0    0 -0.97646372937E+01 -0.39223737320E+02  0.13608976025E+02  0.42662090189E+02  0.10000000000E+01 0.  0.
    9000005    1    3    3    0    0  0.97646372937E+01  0.39223737320E+02 -0.10403662620E+03  0.11161751342E+03  0.10000000000E+01 0.  0.
<mgrwt>
<rscale>  0 0.12500014E+03</rscale>
<asrwt>0</asrwt>
<pdfrwt beam="2">  1        4 0.18823635E-01 0.12500014E+03</pdfrwt>
<pdfrwt beam="1">  1       -4 0.49116888E-02 0.12500014E+03</pdfrwt>
<totfact> 0.98456787E+03</totfact>
</mgrwt>
</event>
<event>
 5    1  0.3232465E-002  0.1250005E+03  0.7818608E-02  0.1235069E+00
          4   -1    0    0  501    0  0.00000000000E+00  0.00000000000E+00  0.38910160807E+02  0.38930881239E+02  0.12700000000E+01 0.  1.
         -4   -1    0    0    0  501 -0.00000000000E+00 -0.00000000000E+00 -0.10034080249E+03  0.10034883927E+03  0.12700000000E+01 0.  1.
         25    2    1    2    0    0  0.00000000000E+00  0.00000000000E+00 -0.61430641678E+02  0.13927972051E+03  0.12500046723E+03 0.  0.
    9000005    1    3    3    0    0 -0.24998636252E+02  0.71895390313E+01 -0.94027500709E+02  0.97564297648E+02  0.10000000000E+01 0.  0.
    9000005    1    3    3    0    0  0.24998636252E+02 -0.71895390313E+01  0.32596859031E+02  0.41715422863E+02  0.10000000000E+01 0.  0.
<mgrwt>
<rscale>  0 0.12500047E+03</rscale>
<asrwt>0</asrwt>
<pdfrwt beam="1">  1        4 0.59883907E-02 0.12500047E+03</pdfrwt>
<pdfrwt beam="2">  1       -4 0.15439259E-01 0.12500047E+03</pdfrwt>
<totfact> 0.10148429E+04</totfact>
</mgrwt>
</event>
<event>
 5    1  0.3232465E-002  0.1249970E+03  0.7818608E-02  0.1235074E+00
         -4   -1    0    0    0  501 -0.00000000000E+00  0.00000000000E+00  0.87641213328E+02  0.87650414567E+02  0.12700000000E+01 0.  1.
          4   -1    0    0  501    0  0.00000000000E+00 -0.00000000000E+00 -0.44548223692E+02  0.44566322869E+02  0.12700000000E+01 0.  1.
         25    2    1    2    0    0  0.00000000000E+00  0.00000000000E+00  0.43092989637E+02  0.13221673744E+03  0.12499703957E+03 0.  0.
    9000005    1    3    3    0    0  0.35479899092E+02 -0.44103519490E+02 -0.64615821376E+01  0.56979783386E+02  0.10000000000E+01 0.  0.
    9000005    1    3    3    0    0 -0.35479899092E+02  0.44103519490E+02  0.49554571774E+02  0.75236954050E+02  0.10000000000E+01 0.  0.
<mgrwt>
<rscale>  0 0.12499704E+03</rscale>
<asrwt>0</asrwt>
<pdfrwt beam="2">  1        4 0.68556730E-02 0.12499704E+03</pdfrwt>
<pdfrwt beam="1">  1       -4 0.13485364E-01 0.12499704E+03</pdfrwt>
<totfact> 0.10297762E+04</totfact>
</mgrwt>
</event>
<event>
 5    1  0.3232465E-002  0.1249973E+03  0.7818608E-02  0.1235073E+00
         -4   -1    0    0    0  501 -0.00000000000E+00  0.00000000000E+00  0.23413824861E+02  0.23448242890E+02  0.12700000000E+01 0.  1.
          4   -1    0    0  501    0  0.00000000000E+00 -0.00000000000E+00 -0.16666873621E+03  0.16667357478E+03  0.12700000000E+01 0.  1.
         25    2    1    2    0    0  0.00000000000E+00  0.00000000000E+00 -0.14325491135E+03  0.19012181767E+03  0.12499734369E+03 0.  0.
    9000005    1    3    3    0    0  0.30671269981E+02  0.47380340241E+02 -0.30829851219E+02  0.64320316928E+02  0.10000000000E+01 0.  0.
    9000005    1    3    3    0    0 -0.30671269981E+02 -0.47380340241E+02 -0.11242506013E+03  0.12580150074E+03  0.10000000000E+01 0.  0.
<mgrwt>
<rscale>  0 0.12499734E+03</rscale>
<asrwt>0</asrwt>
<pdfrwt beam="2">  1        4 0.25644363E-01 0.12499734E+03</pdfrwt>
<pdfrwt beam="1">  1       -4 0.36051467E-02 0.12499734E+03</pdfrwt>
<totfact> 0.91831587E+03</totfact>
</mgrwt>
</event>
<event>
 5    1  0.3232465E-002  0.1249981E+03  0.7818608E-02  0.1235072E+00
         -4   -1    0    0    0  501 -0.00000000000E+00  0.00000000000E+00  0.56352848408E+01  0.57766197068E+01  0.12700000000E+01 0. -1.
          4   -1    0    0  501    0  0.00000000000E+00 -0.00000000000E+00 -0.68442907007E+03  0.68443024835E+03  0.12700000000E+01 0. -1.
         25    2    1    2    0    0  0.00000000000E+00  0.00000000000E+00 -0.67879378523E+03  0.69020686806E+03  0.12499807138E+03 0.  0.
    9000005    1    3    3    0    0 -0.24171417779E+01  0.26185323109E+02 -0.65241750540E+03  0.65294801866E+03  0.10000000000E+01 0.  0.
    9000005    1    3    3    0    0  0.24171417779E+01 -0.26185323109E+02 -0.26376279829E+02  0.37258849397E+02  0.10000000000E+01 0.  0.
<mgrwt>
<rscale>  0 0.12499807E+03</rscale>
<asrwt>0</asrwt>
<pdfrwt beam="2">  1        4 0.10530768E+00 0.12499807E+03</pdfrwt>
<pdfrwt beam="1">  1       -4 0.87792999E-03 0.12499807E+03</pdfrwt>
<totfact> 0.43610585E+03</totfact>
</mgrwt>
</event>
<event>
 5    1  0.3232465E-002  0.1249991E+03  0.7818608E-02  0.1235071E+00
          4   -1    0    0  501    0  0.00000000000E+00  0.00000000000E+00  0.34840542791E+01  0.37083061119E+01  0.12700000000E+01 0.  1.
         -4   -1    0    0    0  501 -0.00000000000E+00 -0.00000000000E+00 -0.10859822117E+04  0.10859829543E+04  0.12700000000E+01 0.  1.
         25    2    1    2    0    0  0.00000000000E+00  0.00000000000E+00 -0.10824981574E+04  0.10896912604E+04  0.12499912879E+03 0.  0.
    9000005    1    3    3    0    0 -0.34341588982E+01 -0.55751351963E+02 -0.78552662294E+03  0.78751068694E+03  0.10000000000E+01 0.  0.
    9000005    1    3    3    0    0  0.34341588982E+01  0.55751351963E+02 -0.29697153447E+03  0.30218057346E+03  0.10000000000E+01 0.  0.
<mgrwt>
<rscale>  0 0.12499913E+03</rscale>
<asrwt>0</asrwt>
<pdfrwt beam="1">  1        4 0.55331648E-03 0.12499913E+03</pdfrwt>
<pdfrwt beam="2">  1       -4 0.16709123E+00 0.12499913E+03</pdfrwt>
<totfact> 0.27787646E+03</totfact>
</mgrwt>
</event>
<event>
 5    1  0.3232465E-002  0.1250014E+03  0.7818608E-02  0.1235067E+00
          4   -1    0    0  501    0  0.00000000000E+00  0.00000000000E+00  0.21348296365E+03  0.21348674120E+03  0.12700000000E+01 0. -1.
         -4   -1    0    0    0  501 -0.00000000000E+00 -0.00000000000E+00 -0.18272143179E+02  0.18316225495E+02  0.12700000000E+01 0. -1.
         25    2    1    2    0    0  0.00000000000E+00  0.00000000000E+00  0.19521082047E+03  0.23180296670E+03  0.12500140375E+03 0.  0.
    9000005    1    3    3    0    0  0.34998858993E+02  0.33031334336E+01  0.19341734824E+03  0.19658866046E+03  0.10000000000E+01 0.  0.
    9000005    1    3    3    0    0 -0.34998858993E+02 -0.33031334336E+01  0.17934722340E+01  0.35214306239E+02  0.10000000000E+01 0.  0.
<mgrwt>
<rscale>  0 0.12500140E+03</rscale>
<asrwt>0</asrwt>
<pdfrwt beam="1">  1        4 0.32847216E-01 0.12500140E+03</pdfrwt>
<pdfrwt beam="2">  1       -4 0.28147803E-02 0.12500140E+03</pdfrwt>
<totfact> 0.85030851E+03</totfact>
</mgrwt>
</event>
<event>
 5    1  0.3232465E-002  0.1250020E+03  0.7818608E-02  0.1235066E+00
         -4   -1    0    0    0  501 -0.00000000000E+00  0.00000000000E+00  0.23923527721E+01  0.27085516030E+01  0.12700000000E+01 0.  1.
          4   -1    0    0  501    0  0.00000000000E+00 -0.00000000000E+00 -0.15313238629E+04  0.15313243895E+04  0.12700000000E+01 0.  1.
         25    2    1    2    0    0  0.00000000000E+00  0.00000000000E+00 -0.15289315101E+04  0.15340329411E+04  0.12500200733E+03 0.  0.
    9000005    1    3    3    0    0 -0.48269883618E+02 -0.26574199428E+02 -0.40265707133E+03  0.40641098267E+03  0.10000000000E+01 0.  0.
    9000005    1    3    3    0    0  0.48269883618E+02  0.26574199428E+02 -0.11262744388E+04  0.11276219585E+04  0.10000000000E+01 0.  0.
<mgrwt>
<rscale>  0 0.12500201E+03</rscale>
<asrwt>0</asrwt>
<pdfrwt beam="2">  1        4 0.23561192E+00 0.12500201E+03</pdfrwt>
<pdfrwt beam="1">  1       -4 0.39241899E-03 0.12500201E+03</pdfrwt>
<totfact> 0.17270356E+03</totfact>
</mgrwt>
</event>
<event>
 5    1  0.3232465E-002  0.1249995E+03  0.7818608E-02  0.1235070E+00
          4   -1    0    0  501    0  0.00000000000E+00  0.00000000000E+00  0.20472123435E+03  0.20472517357E+03  0.12700000000E+01 0. -1.
         -4   -1    0    0    0  501 -0.00000000000E+00 -0.00000000000E+00 -0.19055417287E+02  0.19097691693E+02  0.12700000000E+01 0. -1.
         25    2    1    2    0    0  0.00000000000E+00  0.00000000000E+00  0.18566581706E+03  0.22382286526E+03  0.12499951756E+03 0.  0.
    9000005    1    3    3    0    0 -0.50267471677E+02 -0.32898065522E+02  0.62020274305E+02  0.86351698586E+02  0.10000000000E+01 0.  0.
    9000005    1    3    3    0    0  0.50267471677E+02  0.32898065522E+02  0.12364554276E+03  0.13747116668E+03  0.10000000000E+01 0.  0.
<mgrwt>
<rscale>  0 0.12499952E+03</rscale>
<asrwt>0</asrwt>
<pdfrwt beam="1">  1        4 0.31499129E-01 0.12499952E+03</pdfrwt>
<pdfrwt beam="2">  1       -4 0.29351576E-02 0.12499952E+03</pdfrwt>
<totfact> 0.86267951E+03</totfact>
</mgrwt>
</event>
<event>
 5    1  0.3232465E-002  0.1250020E+03  0.7818608E-02  0.1235066E+00
         -4   -1    0    0    0  501 -0.00000000000E+00  0.00000000000E+00  0.58199437897E+02  0.58213292911E+02  0.12700000000E+01 0. -1.
          4   -1    0    0  501    0  0.00000000000E+00 -0.00000000000E+00 -0.67092676621E+02  0.67104695485E+02  0.12700000000E+01 0. -1.
         25    2    1    2    0    0  0.00000000000E+00  0.00000000000E+00 -0.88932387239E+01  0.12531798840E+03  0.12500203407E+03 0.  0.
    9000005    1    3    3    0    0  0.51865681594E+02  0.27984566740E+02  0.16395160816E+02  0.61179949339E+02  0.10000000000E+01 0.  0.
    9000005    1    3    3    0    0 -0.51865681594E+02 -0.27984566740E+02 -0.25288399540E+02  0.64138039058E+02  0.10000000000E+01 0.  0.
<mgrwt>
<rscale>  0 0.12500203E+03</rscale>
<asrwt>0</asrwt>
<pdfrwt beam="2">  1        4 0.10323941E-01 0.12500203E+03</pdfrwt>
<pdfrwt beam="1">  1       -4 0.89557500E-02 0.12500203E+03</pdfrwt>
<totfact> 0.10445480E+04</totfact>
</mgrwt>
</event>
<event>
 5    1  0.3232465E-002  0.1249794E+03  0.7818608E-02  0.1235101E+00
          4   -1    0    0  501    0  0.00000000000E+00  0.00000000000E+00  0.51610128474E+01  0.53149744694E+01  0.12700000000E+01 0.  1.
         -4   -1    0    0    0  501 -0.00000000000E+00 -0.00000000000E+00 -0.74535337047E+03  0.74535445244E+03  0.12700000000E+01 0.  1.
         25    2    1    2    0    0  0.00000000000E+00  0.00000000000E+00 -0.74019235763E+03  0.75066942691E+03  0.12497944716E+03 0.  0.
    9000005    1    3    3    0    0 -0.27542027276E+02  0.38871264024E+02 -0.12727145186E+03  0.13589908348E+03  0.10000000000E+01 0.  0.
    9000005    1    3    3    0    0  0.27542027276E+02 -0.38871264024E+02 -0.61292090577E+03  0.61477034343E+03  0.10000000000E+01 0.  0.
<mgrwt>
<rscale>  0 0.12497945E+03</rscale>
<asrwt>0</asrwt>
<pdfrwt beam="1">  1        4 0.80592900E-03 0.12497945E+03</pdfrwt>
<pdfrwt beam="2">  1       -4 0.11468159E+00 0.12497945E+03</pdfrwt>
<totfact> 0.40560384E+03</totfact>
</mgrwt>
</event>
<event>
 5    1  0.3232465E-002  0.1249998E+03  0.7818608E-02  0.1235070E+00
          4   -1    0    0  501    0  0.00000000000E+00  0.00000000000E+00  0.23097517921E+04  0.23097521413E+04  0.12700000000E+01 0.  1.
         -4   -1    0    0    0  501 -0.00000000000E+00 -0.00000000000E+00 -0.14523701018E+01  0.19293208423E+01  0.12700000000E+01 0.  1.
         25    2    1    2    0    0  0.00000000000E+00  0.00000000000E+00  0.23082994220E+04  0.23116814621E+04  0.12499984234E+03 0.  0.
    9000005    1    3    3    0    0  0.29648553009E+02 -0.40053090457E+02  0.18515164124E+04  0.18521871699E+04  0.10000000000E+01 0.  0.
    9000005    1    3    3    0    0 -0.29648553009E+02  0.40053090457E+02  0.45678300961E+03  0.45949429226E+03  0.10000000000E+01 0.  0.
<mgrwt>
<rscale>  0 0.12499984E+03</rscale>
<asrwt>0</asrwt>
<pdfrwt beam="1">  1        4 0.35538327E+00 0.12499984E+03</pdfrwt>
<pdfrwt beam="2">  1       -4 0.26015684E-03 0.12499984E+03</pdfrwt>
<totfact> 0.63220969E+02</totfact>
</mgrwt>
</event>
<event>
 5    1  0.3232465E-002  0.1250009E+03  0.7818608E-02  0.1235068E+00
         -4   -1    0    0    0  501 -0.00000000000E+00  0.00000000000E+00  0.79739520774E+02  0.79749633687E+02  0.12700000000E+01 0.  1.
          4   -1    0    0  501    0  0.00000000000E+00 -0.00000000000E+00 -0.48966904886E+02  0.48983371404E+02  0.12700000000E+01 0.  1.
         25    2    1    2    0    0  0.00000000000E+00  0.00000000000E+00  0.30772615888E+02  0.12873300509E+03  0.12500093084E+03 0.  0.
    9000005    1    3    3    0    0 -0.32669781167E+02 -0.42358424960E+01  0.70075959716E+02  0.77439635157E+02  0.10000000000E+01 0.  0.
    9000005    1    3    3    0    0  0.32669781167E+02  0.42358424960E+01 -0.39303343828E+02  0.51293369934E+02  0.10000000000E+01 0.  0.
<mgrwt>
<rscale>  0 0.12500093E+03</rscale>
<asrwt>0</asrwt>
<pdfrwt beam="2">  1        4 0.75354147E-02 0.12500093E+03</pdfrwt>
<pdfrwt beam="1">  1       -4 0.12269663E-01 0.12500093E+03</pdfrwt>
<totfact> 0.10371470E+04</totfact>
</mgrwt>
</event>
<event>
 5    1  0.3232465E-002  0.1250005E+03  0.7818608E-02  0.1235069E+00
          4   -1    0    0  501    0  0.00000000000E+00  0.00000000000E+00  0.80045140703E+02  0.80055215009E+02  0.12700000000E+01 0. -1.
         -4   -1    0    0    0  501 -0.00000000000E+00 -0.00000000000E+00 -0.48779560821E+02  0.48796090560E+02  0.12700000000E+01 0. -1.
         25    2    1    2    0    0  0.00000000000E+00  0.00000000000E+00  0.31265579881E+02  0.12885130557E+03  0.12500048984E+03 0.  0.
    9000005    1    3    3    0    0 -0.43330764930E+01  0.38406287693E+01  0.79773095103E+02  0.79989203544E+02  0.10000000000E+01 0.  0.
    9000005    1    3    3    0    0  0.43330764930E+01 -0.38406287693E+01 -0.48507515222E+02  0.48862102025E+02  0.10000000000E+01 0.  0.
<mgrwt>
<rscale>  0 0.12500049E+03</rscale>
<asrwt>0</asrwt>
<pdfrwt beam="1">  1        4 0.12316684E-01 0.12500049E+03</pdfrwt>
<pdfrwt beam="2">  1       -4 0.75065943E-02 0.12500049E+03</pdfrwt>
<totfact> 0.10369028E+04</totfact>
</mgrwt>
</event>
<event>
 5    1  0.3232465E-002  0.1250029E+03  0.7818608E-02  0.1235065E+00
          4   -1    0    0  501    0  0.00000000000E+00  0.00000000000E+00  0.88281859653E+01  0.89190676327E+01  0.12700000000E+01 0. -1.
         -4   -1    0    0    0  501 -0.00000000000E+00 -0.00000000000E+00 -0.44013768856E+03  0.44013952083E+03  0.12700000000E+01 0. -1.
         25    2    1    2    0    0  0.00000000000E+00  0.00000000000E+00 -0.43130950260E+03  0.44905858846E+03  0.12500291532E+03 0.  0.
    9000005    1    3    3    0    0  0.55119895907E+02 -0.88260657793E+01 -0.31658285833E+03  0.32146820769E+03  0.10000000000E+01 0.  0.
    9000005    1    3    3    0    0 -0.55119895907E+02  0.88260657793E+01 -0.11472664426E+03  0.12759038077E+03  0.10000000000E+01 0.  0.
<mgrwt>
<rscale>  0 0.12500292E+03</rscale>
<asrwt>0</asrwt>
<pdfrwt beam="1">  1        4 0.13653146E-02 0.12500292E+03</pdfrwt>
<pdfrwt beam="2">  1       -4 0.67720606E-01 0.12500292E+03</pdfrwt>
<totfact> 0.60041587E+03</totfact>
</mgrwt>
</event>
<event>
 5    1  0.3232465E-002  0.1249983E+03  0.7818608E-02  0.1235072E+00
          4   -1    0    0  501    0  0.00000000000E+00  0.00000000000E+00  0.55836096944E+02  0.55850538242E+02  0.12700000000E+01 0.  1.
         -4   -1    0    0    0  501 -0.00000000000E+00 -0.00000000000E+00 -0.69928062590E+02  0.69939594205E+02  0.12700000000E+01 0.  1.
         25    2    1    2    0    0  0.00000000000E+00  0.00000000000E+00 -0.14091965645E+02  0.12579013245E+03  0.12499829569E+03 0.  0.
    9000005    1    3    3    0    0  0.28839386473E+02  0.37160706874E+02  0.34354820032E+02  0.58257033970E+02  0.10000000000E+01 0.  0.
    9000005    1    3    3    0    0 -0.28839386473E+02 -0.37160706874E+02 -0.48446785677E+02  0.67533098477E+02  0.10000000000E+01 0.  0.
<mgrwt>
<rscale>  0 0.12499830E+03</rscale>
<asrwt>0</asrwt>
<pdfrwt beam="1">  1        4 0.85921667E-02 0.12499830E+03</pdfrwt>
<pdfrwt beam="2">  1       -4 0.10760161E-01 0.12499830E+03</pdfrwt>
<totfact> 0.10435963E+04</totfact>
</mgrwt>
</event>
<event>
 5    1  0.3232465E-002  0.1249976E+03  0.7818608E-02  0.1235073E+00
         -4   -1    0    0    0  501 -0.00000000000E+00  0.00000000000E+00  0.33076124882E+01  0.35430495864E+01  0.12700000000E+01 0.  1.
          4   -1    0    0  501    0  0.00000000000E+00 -0.00000000000E+00 -0.11401202277E+04  0.11401209350E+04  0.12700000000E+01 0.  1.
         25    2    1    2    0    0  0.00000000000E+00  0.00000000000E+00 -0.11368126152E+04  0.11436639846E+04  0.12499755046E+03 0.  0.
    9000005    1    3    3    0    0 -0.30052140974E+02  0.41081021768E+02 -0.23670534085E+03  0.24211815280E+03  0.10000000000E+01 0.  0.
    9000005    1    3    3    0    0  0.30052140974E+02 -0.41081021768E+02 -0.90010727436E+03  0.90154583182E+03  0.10000000000E+01 0.  0.
<mgrwt>
<rscale>  0 0.12499755E+03</rscale>
<asrwt>0</asrwt>
<pdfrwt beam="2">  1        4 0.17542097E+00 0.12499755E+03</pdfrwt>
<pdfrwt beam="1">  1       -4 0.52702933E-03 0.12499755E+03</pdfrwt>
<totfact> 0.26238145E+03</totfact>
</mgrwt>
</event>
<event>
 5    1  0.3232465E-002  0.1250064E+03  0.7818608E-02  0.1235059E+00
          4   -1    0    0  501    0  0.00000000000E+00  0.00000000000E+00  0.21973192442E+02  0.22009863382E+02  0.12700000000E+01 0.  1.
         -4   -1    0    0    0  501 -0.00000000000E+00 -0.00000000000E+00 -0.17760438276E+03  0.17760892341E+03  0.12700000000E+01 0.  1.
         25    2    1    2    0    0  0.00000000000E+00  0.00000000000E+00 -0.15563119031E+03  0.19961878679E+03  0.12500637040E+03 0.  0.
    9000005    1    3    3    0    0 -0.18788095094E+02  0.58902626662E+02 -0.92375696275E+02  0.11116105976E+03  0.10000000000E+01 0.  0.
    9000005    1    3    3    0    0  0.18788095094E+02 -0.58902626662E+02 -0.63255494038E+02  0.88457727028E+02  0.10000000000E+01 0.  0.
<mgrwt>
<rscale>  0 0.12500637E+03</rscale>
<asrwt>0</asrwt>
<pdfrwt beam="1">  1        4 0.33836614E-02 0.12500637E+03</pdfrwt>
<pdfrwt beam="2">  1       -4 0.27326920E-01 0.12500637E+03</pdfrwt>
<totfact> 0.90186984E+03</totfact>
</mgrwt>
</event>
<event>
 5    1  0.3232465E-002  0.1250124E+03  0.7818608E-02  0.1235050E+00
          4   -1    0    0  501    0  0.00000000000E+00  0.00000000000E+00  0.44259477452E+03  0.44259659661E+03  0.12700000000E+01 0. -1.
         -4   -1    0    0    0  501 -0.00000000000E+00 -0.00000000000E+00 -0.87800192809E+01  0.88713943984E+01  0.12700000000E+01 0. -1.
         25    2    1    2    0    0  0.00000000000E+00  0.00000000000E+00  0.43381475524E+03  0.45146799101E+03  0.12501241956E+03 0.  0.
    9000005    1    3    3    0    0  0.55501845320E+02 -0.47254836732E+01  0.31925948761E+03  0.32408394816E+03  0.10000000000E+01 0.  0.
    9000005    1    3    3    0    0 -0.55501845320E+02  0.47254836732E+01  0.11455526763E+03  0.12738404285E+03  0.10000000000E+01 0.  0.
<mgrwt>
<rscale>  0 0.12501242E+03</rscale>
<asrwt>0</asrwt>
<pdfrwt beam="1">  1        4 0.68098698E-01 0.12501242E+03</pdfrwt>
<pdfrwt beam="2">  1       -4 0.13579407E-02 0.12501242E+03</pdfrwt>
<totfact> 0.59820452E+03</totfact>
</mgrwt>
</event>
<event>
 5    1  0.3232465E-002  0.1249966E+03  0.7818608E-02  0.1235075E+00
          4   -1    0    0  501    0  0.00000000000E+00  0.00000000000E+00  0.67028064482E+02  0.67040094929E+02  0.12700000000E+01 0.  1.
         -4   -1    0    0    0  501 -0.00000000000E+00 -0.00000000000E+00 -0.58250437113E+02  0.58264279999E+02  0.12700000000E+01 0.  1.
         25    2    1    2    0    0  0.00000000000E+00  0.00000000000E+00  0.87776273688E+01  0.12530437493E+03  0.12499655849E+03 0.  0.
    9000005    1    3    3    0    0  0.72267886357E+01  0.43005205437E+02  0.49257954958E+02  0.65795290829E+02  0.10000000000E+01 0.  0.
    9000005    1    3    3    0    0 -0.72267886357E+01 -0.43005205437E+02 -0.40480327589E+02  0.59509084100E+02  0.10000000000E+01 0.  0.
<mgrwt>
<rscale>  0 0.12499656E+03</rscale>
<asrwt>0</asrwt>
<pdfrwt beam="1">  1        4 0.10314000E-01 0.12499656E+03</pdfrwt>
<pdfrwt beam="2">  1       -4 0.89635960E-02 0.12499656E+03</pdfrwt>
<totfact> 0.10447068E+04</totfact>
</mgrwt>
</event>
<event>
 5    1  0.3232465E-002  0.1250066E+03  0.7818608E-02  0.1235059E+00
          4   -1    0    0  501    0  0.00000000000E+00  0.00000000000E+00  0.17777430277E+02  0.17822736245E+02  0.12700000000E+01 0.  1.
         -4   -1    0    0    0  501 -0.00000000000E+00 -0.00000000000E+00 -0.21942719106E+03  0.21943086628E+03  0.12700000000E+01 0.  1.
         25    2    1    2    0    0  0.00000000000E+00  0.00000000000E+00 -0.20164976078E+03  0.23725360252E+03  0.12500658338E+03 0.  0.
    9000005    1    3    3    0    0 -0.20580260601E+02  0.39482295677E+02 -0.17591174478E+02  0.47883694698E+02  0.10000000000E+01 0.  0.
    9000005    1    3    3    0    0  0.20580260601E+02 -0.39482295677E+02 -0.18405858630E+03  0.18936990783E+03  0.10000000000E+01 0.  0.
<mgrwt>
<rscale>  0 0.12500658E+03</rscale>
<asrwt>0</asrwt>
<pdfrwt beam="1">  1        4 0.27387572E-02 0.12500658E+03</pdfrwt>
<pdfrwt beam="2">  1       -4 0.33761795E-01 0.12500658E+03</pdfrwt>
<totfact> 0.84195743E+03</totfact>
</mgrwt>
</event>
<event>
 5    1  0.3232465E-002  0.1250003E+03  0.7818608E-02  0.1235069E+00
          4   -1    0    0  501    0  0.00000000000E+00  0.00000000000E+00  0.13430665610E+02  0.13490577405E+02  0.12700000000E+01 0.  1.
         -4   -1    0    0    0  501 -0.00000000000E+00 -0.00000000000E+00 -0.29013864567E+03  0.29014142519E+03  0.12700000000E+01 0.  1.
         25    2    1    2    0    0  0.00000000000E+00  0.00000000000E+00 -0.27670798006E+03  0.30363200260E+03  0.12500034708E+03 0.  0.
    9000005    1    3    3    0    0  0.30102689193E+02  0.11208033690E+02 -0.26856280835E+03  0.27047878649E+03  0.10000000000E+01 0.  0.
    9000005    1    3    3    0    0 -0.30102689193E+02 -0.11208033690E+02 -0.81451717169E+01  0.33153216105E+02  0.10000000000E+01 0.  0.
<mgrwt>
<rscale>  0 0.12500035E+03</rscale>
<asrwt>0</asrwt>
<pdfrwt beam="1">  1        4 0.20710789E-02 0.12500035E+03</pdfrwt>
<pdfrwt beam="2">  1       -4 0.44641532E-01 0.12500035E+03</pdfrwt>
<totfact> 0.75144917E+03</totfact>
</mgrwt>
</event>
<event>
 4    1  0.3232465E-002  0.1251273E+03  0.7818608E-02  0.1234870E+00
          4   -1    0    0  501    0  0.00000000000E+00  0.00000000000E+00  0.15133310376E+02  0.15186506607E+02  0.12700000000E+01 0.  1.
         -4   -1    0    0    0  501 -0.00000000000E+00 -0.00000000000E+00 -0.25814003391E+03  0.25814315797E+03  0.12700000000E+01 0.  1.
    9000005    1    1    2    0    0  0.22118063667E+01 -0.21640541473E+02 -0.24962256724E+03  0.25057061120E+03  0.10000000000E+01 0.  0.
    9000005    1    1    2    0    0 -0.22118063667E+01  0.21640541473E+02  0.66158437055E+01  0.22759053376E+02  0.10000000000E+01 0.  0.
<mgrwt>
<rscale>  0 0.12512729E+03</rscale>
<asrwt>0</asrwt>
<pdfrwt beam="1">  1        4 0.23325341E-02 0.12512729E+03</pdfrwt>
<pdfrwt beam="2">  1       -4 0.39718180E-01 0.12512729E+03</pdfrwt>
<totfact> 0.78847533E+03</totfact>
</mgrwt>
</event>
<event>
 5    1  0.3232465E-002  0.1249981E+03  0.7818608E-02  0.1235072E+00
         -4   -1    0    0    0  501 -0.00000000000E+00  0.00000000000E+00  0.18035085387E+03  0.18035532537E+03  0.12700000000E+01 0.  1.
          4   -1    0    0  501    0  0.00000000000E+00 -0.00000000000E+00 -0.21635164010E+02  0.21672406920E+02  0.12700000000E+01 0.  1.
         25    2    1    2    0    0  0.00000000000E+00  0.00000000000E+00  0.15871568986E+03  0.20202773229E+03  0.12499813762E+03 0.  0.
    9000005    1    3    3    0    0 -0.37981544855E+02  0.40191628338E+02  0.12640056655E+03  0.13797125774E+03  0.10000000000E+01 0.  0.
    9000005    1    3    3    0    0  0.37981544855E+02 -0.40191628338E+02  0.32315123307E+02  0.64056474555E+02  0.10000000000E+01 0.  0.
<mgrwt>
<rscale>  0 0.12499814E+03</rscale>
<asrwt>0</asrwt>
<pdfrwt beam="2">  1        4 0.33316956E-02 0.12499814E+03</pdfrwt>
<pdfrwt beam="1">  1       -4 0.27749494E-01 0.12499814E+03</pdfrwt>
<totfact> 0.89798378E+03</totfact>
</mgrwt>
</event>
<event>
 5    1  0.3232465E-002  0.1249992E+03  0.7818608E-02  0.1235071E+00
          4   -1    0    0  501    0  0.00000000000E+00  0.00000000000E+00  0.10822100734E+03  0.10822845897E+03  0.12700000000E+01 0. -1.
         -4   -1    0    0    0  501 -0.00000000000E+00 -0.00000000000E+00 -0.36074793717E+02  0.36097141739E+02  0.12700000000E+01 0. -1.
         25    2    1    2    0    0  0.00000000000E+00  0.00000000000E+00  0.72146213626E+02  0.14432560071E+03  0.12499921151E+03 0.  0.
    9000005    1    3    3    0    0 -0.37283442075E+02 -0.38954505714E+02  0.72542990491E+02  0.90393550864E+02  0.10000000000E+01 0.  0.
    9000005    1    3    3    0    0  0.37283442075E+02  0.38954505714E+02 -0.39677686499E+00  0.53932049843E+02  0.10000000000E+01 0.  0.
<mgrwt>
<rscale>  0 0.12499921E+03</rscale>
<asrwt>0</asrwt>
<pdfrwt beam="1">  1        4 0.16651678E-01 0.12499921E+03</pdfrwt>
<pdfrwt beam="2">  1       -4 0.55522605E-02 0.12499921E+03</pdfrwt>
<totfact> 0.10044887E+04</totfact>
</mgrwt>
</event>
<event>
 5    1  0.3232465E-002  0.1249970E+03  0.7818608E-02  0.1235074E+00
          4   -1    0    0  501    0  0.00000000000E+00  0.00000000000E+00  0.77040504178E+02  0.77050971337E+02  0.12700000000E+01 0. -1.
         -4   -1    0    0    0  501 -0.00000000000E+00 -0.00000000000E+00 -0.50679519288E+02  0.50695429530E+02  0.12700000000E+01 0. -1.
         25    2    1    2    0    0  0.00000000000E+00  0.00000000000E+00  0.26360984890E+02  0.12774640087E+03  0.12499696560E+03 0.  0.
    9000005    1    3    3    0    0 -0.31042671034E+02  0.51081673860E+02 -0.54432791047E+01  0.60030110083E+02  0.10000000000E+01 0.  0.
    9000005    1    3    3    0    0  0.31042671034E+02 -0.51081673860E+02  0.31804263995E+02  0.67716290783E+02  0.10000000000E+01 0.  0.
<mgrwt>
<rscale>  0 0.12499697E+03</rscale>
<asrwt>0</asrwt>
<pdfrwt beam="1">  1        4 0.11854414E-01 0.12499697E+03</pdfrwt>
<pdfrwt beam="2">  1       -4 0.77988782E-02 0.12499697E+03</pdfrwt>
<totfact> 0.10393680E+04</totfact>
</mgrwt>
</event>
<event>
 5    1  0.3232465E-002  0.1249992E+03  0.7818608E-02  0.1235071E+00
          4   -1    0    0  501    0  0.00000000000E+00  0.00000000000E+00  0.15089031670E+03  0.15089566121E+03  0.12700000000E+01 0. -1.
         -4   -1    0    0    0  501 -0.00000000000E+00 -0.00000000000E+00 -0.25866293404E+02  0.25897452278E+02  0.12700000000E+01 0. -1.
         25    2    1    2    0    0  0.00000000000E+00  0.00000000000E+00  0.12502402329E+03  0.17679311349E+03  0.12499919431E+03 0.  0.
    9000005    1    3    3    0    0 -0.31415514829E+02  0.45546642407E+02  0.10359573239E+03  0.11745001905E+03  0.10000000000E+01 0.  0.
    9000005    1    3    3    0    0  0.31415514829E+02 -0.45546642407E+02  0.21428290907E+02  0.59343094440E+02  0.10000000000E+01 0.  0.
<mgrwt>
<rscale>  0 0.12499919E+03</rscale>
<asrwt>0</asrwt>
<pdfrwt beam="1">  1        4 0.23216702E-01 0.12499919E+03</pdfrwt>
<pdfrwt beam="2">  1       -4 0.39822378E-02 0.12499919E+03</pdfrwt>
<totfact> 0.94199161E+03</totfact>
</mgrwt>
</event>
<event>
 5    1  0.3232465E-002  0.1249990E+03  0.7818608E-02  0.1235071E+00
         -4   -1    0    0    0  501 -0.00000000000E+00  0.00000000000E+00  0.13048174955E+03  0.13048792996E+03  0.12700000000E+01 0.  1.
          4   -1    0    0  501    0  0.00000000000E+00 -0.00000000000E+00 -0.29916281602E+02  0.29943226360E+02  0.12700000000E+01 0.  1.
         25    2    1    2    0    0  0.00000000000E+00  0.00000000000E+00  0.10056546795E+03  0.16043115632E+03  0.12499897029E+03 0.  0.
    9000005    1    3    3    0    0 -0.61276349176E+02  0.94331332813E+01  0.60340561928E+02  0.86520277309E+02  0.10000000000E+01 0.  0.
    9000005    1    3    3    0    0  0.61276349176E+02 -0.94331332813E+01  0.40224906018E+02  0.73910879010E+02  0.10000000000E+01 0.  0.
<mgrwt>
<rscale>  0 0.12499897E+03</rscale>
<asrwt>0</asrwt>
<pdfrwt beam="2">  1        4 0.46050531E-02 0.12499897E+03</pdfrwt>
<pdfrwt beam="1">  1       -4 0.20076663E-01 0.12499897E+03</pdfrwt>
<totfact> 0.97261977E+03</totfact>
</mgrwt>
</event>
<event>
 5    1  0.3232465E-002  0.1249993E+03  0.7818608E-02  0.1235070E+00
          4   -1    0    0  501    0  0.00000000000E+00  0.00000000000E+00  0.45375181929E+03  0.45375359658E+03  0.12700000000E+01 0. -1.
         -4   -1    0    0    0  501 -0.00000000000E+00 -0.00000000000E+00 -0.85600382802E+01  0.86537364969E+01  0.12700000000E+01 0. -1.
         25    2    1    2    0    0  0.00000000000E+00  0.00000000000E+00  0.44519178101E+03  0.46240733308E+03  0.12499927922E+03 0.  0.
    9000005    1    3    3    0    0 -0.38050922526E+02  0.46662676690E+02  0.16070318282E+03  0.17161524137E+03  0.10000000000E+01 0.  0.
    9000005    1    3    3    0    0  0.38050922526E+02 -0.46662676690E+02  0.28448859820E+03  0.29079209172E+03  0.10000000000E+01 0.  0.
<mgrwt>
<rscale>  0 0.12499928E+03</rscale>
<asrwt>0</asrwt>
<pdfrwt beam="1">  1        4 0.69815328E-01 0.12499928E+03</pdfrwt>
<pdfrwt beam="2">  1       -4 0.13242730E-02 0.12499928E+03</pdfrwt>
<totfact> 0.58904746E+03</totfact>
</mgrwt>
</event>
<event>
 5    1  0.3232465E-002  0.1250285E+03  0.7818608E-02  0.1235025E+00
         -4   -1    0    0    0  501 -0.00000000000E+00  0.00000000000E+00  0.69001895369E+02  0.69013581739E+02  0.12700000000E+01 0. -1.
          4   -1    0    0  501    0  0.00000000000E+00 -0.00000000000E+00 -0.56613002556E+02  0.56627245725E+02  0.12700000000E+01 0. -1.
         25    2    1    2    0    0  0.00000000000E+00  0.00000000000E+00  0.12388892812E+02  0.12564082746E+03  0.12502852819E+03 0.  0.
    9000005    1    3    3    0    0 -0.21510323595E+02 -0.55847257069E+02  0.24322277224E+02  0.64607919891E+02  0.10000000000E+01 0.  0.
    9000005    1    3    3    0    0  0.21510323595E+02  0.55847257069E+02 -0.11933384411E+02  0.61032907573E+02  0.10000000000E+01 0.  0.
<mgrwt>
<rscale>  0 0.12502853E+03</rscale>
<asrwt>0</asrwt>
<pdfrwt beam="2">  1        4 0.87116873E-02 0.12502853E+03</pdfrwt>
<pdfrwt beam="1">  1       -4 0.10617671E-01 0.12502853E+03</pdfrwt>
<totfact> 0.10432132E+04</totfact>
</mgrwt>
</event>
<event>
 5    1  0.3232465E-002  0.1250093E+03  0.7818608E-02  0.1235055E+00
          4   -1    0    0  501    0  0.00000000000E+00  0.00000000000E+00  0.11208882814E+03  0.11209602265E+03  0.12700000000E+01 0.  1.
         -4   -1    0    0    0  501 -0.00000000000E+00 -0.00000000000E+00 -0.34834919001E+02  0.34858061934E+02  0.12700000000E+01 0.  1.
         25    2    1    2    0    0  0.00000000000E+00  0.00000000000E+00  0.77253909138E+02  0.14695408458E+03  0.12500934564E+03 0.  0.
    9000005    1    3    3    0    0  0.16332791140E+02 -0.60324706315E+02  0.38553861238E+02  0.73438617054E+02  0.10000000000E+01 0.  0.
    9000005    1    3    3    0    0 -0.16332791140E+02  0.60324706315E+02  0.38700047900E+02  0.73515467529E+02  0.10000000000E+01 0.  0.
<mgrwt>
<rscale>  0 0.12500935E+03</rscale>
<asrwt>0</asrwt>
<pdfrwt beam="1">  1        4 0.17246769E-01 0.12500935E+03</pdfrwt>
<pdfrwt beam="2">  1       -4 0.53615519E-02 0.12500935E+03</pdfrwt>
<totfact> 0.99893339E+03</totfact>
</mgrwt>
</event>
<event>
 5    1  0.3232465E-002  0.1249982E+03  0.7818608E-02  0.1235072E+00
          4   -1    0    0  501    0  0.00000000000E+00  0.00000000000E+00  0.18439721147E+01  0.22390027155E+01  0.12700000000E+01 0. -1.
         -4   -1    0    0    0  501 -0.00000000000E+00 -0.00000000000E+00 -0.19129826681E+04  0.19129830897E+04  0.12700000000E+01 0. -1.
         25    2    1    2    0    0  0.00000000000E+00  0.00000000000E+00 -0.19111386960E+04  0.19152220924E+04  0.12499819141E+03 0.  0.
    9000005    1    3    3    0    0  0.18424599921E+02 -0.18397135057E+02 -0.18259905564E+04  0.18261764516E+04  0.10000000000E+01 0.  0.
    9000005    1    3    3    0    0 -0.18424599921E+02  0.18397135057E+02 -0.85148139597E+02  0.89045640755E+02  0.10000000000E+01 0.  0.
<mgrwt>
<rscale>  0 0.12499819E+03</rscale>
<asrwt>0</asrwt>
<pdfrwt beam="1">  1        4 0.31410895E-03 0.12499819E+03</pdfrwt>
<pdfrwt beam="2">  1       -4 0.29433401E+00 0.12499819E+03</pdfrwt>
<totfact> 0.11009203E+03</totfact>
</mgrwt>
</event>
<event>
 5    1  0.3232465E-002  0.1249999E+03  0.7818608E-02  0.1235069E+00
         -4   -1    0    0    0  501 -0.00000000000E+00  0.00000000000E+00  0.80794271813E+02  0.80804252721E+02  0.12700000000E+01 0. -1.
          4   -1    0    0  501    0  0.00000000000E+00 -0.00000000000E+00 -0.48326726292E+02  0.48343410866E+02  0.12700000000E+01 0. -1.
         25    2    1    2    0    0  0.00000000000E+00  0.00000000000E+00  0.32467545521E+02  0.12914766359E+03  0.12499990999E+03 0.  0.
    9000005    1    3    3    0    0 -0.52441537477E+02 -0.12745803445E+02 -0.16318414899E+02  0.56390256456E+02  0.10000000000E+01 0.  0.
    9000005    1    3    3    0    0  0.52441537477E+02  0.12745803445E+02  0.48785960419E+02  0.72757407131E+02  0.10000000000E+01 0.  0.
<mgrwt>
<rscale>  0 0.12499991E+03</rscale>
<asrwt>0</asrwt>
<pdfrwt beam="2">  1        4 0.74369321E-02 0.12499991E+03</pdfrwt>
<pdfrwt beam="1">  1       -4 0.12431939E-01 0.12499991E+03</pdfrwt>
<totfact> 0.10362796E+04</totfact>
</mgrwt>
</event>
<event>
 5    1  0.3232465E-002  0.1250027E+03  0.7818608E-02  0.1235065E+00
         -4   -1    0    0    0  501 -0.00000000000E+00  0.00000000000E+00  0.15257502789E+03  0.15258031340E+03  0.12700000000E+01 0.  1.
          4   -1    0    0  501    0  0.00000000000E+00 -0.00000000000E+00 -0.25581767513E+02  0.25613272518E+02  0.12700000000E+01 0.  1.
         25    2    1    2    0    0  0.00000000000E+00  0.00000000000E+00  0.12699326038E+03  0.17819358591E+03  0.12500266349E+03 0.  0.
    9000005    1    3    3    0    0 -0.18500741289E+01  0.27793887819E+02 -0.16249538549E+02  0.32264074098E+02  0.10000000000E+01 0.  0.
    9000005    1    3    3    0    0  0.18500741289E+01 -0.27793887819E+02  0.14324279893E+03  0.14592951182E+03  0.10000000000E+01 0.  0.
<mgrwt>
<rscale>  0 0.12500266E+03</rscale>
<asrwt>0</asrwt>
<pdfrwt beam="2">  1        4 0.39384865E-02 0.12500266E+03</pdfrwt>
<pdfrwt beam="1">  1       -4 0.23475912E-01 0.12500266E+03</pdfrwt>
<totfact> 0.93937566E+03</totfact>
</mgrwt>
</event>
<event>
 5    1  0.3232465E-002  0.1250009E+03  0.7818608E-02  0.1235068E+00
         -4   -1    0    0    0  501 -0.00000000000E+00  0.00000000000E+00  0.98359603199E+02  0.98367801853E+02  0.12700000000E+01 0.  1.
          4   -1    0    0  501    0  0.00000000000E+00 -0.00000000000E+00 -0.39694546533E+02  0.39714857729E+02  0.12700000000E+01 0.  1.
         25    2    1    2    0    0  0.00000000000E+00  0.00000000000E+00  0.58665056666E+02  0.13808265958E+03  0.12500092801E+03 0.  0.
    9000005    1    3    3    0    0 -0.31150781822E+02  0.14870102782E+02  0.86878664934E+02  0.93490072123E+02  0.10000000000E+01 0.  0.
    9000005    1    3    3    0    0  0.31150781822E+02 -0.14870102782E+02 -0.28213608267E+02  0.44592587459E+02  0.10000000000E+01 0.  0.
<mgrwt>
<rscale>  0 0.12500093E+03</rscale>
<asrwt>0</asrwt>
<pdfrwt beam="2">  1        4 0.61090464E-02 0.12500093E+03</pdfrwt>
<pdfrwt beam="1">  1       -4 0.15134440E-01 0.12500093E+03</pdfrwt>
<totfact> 0.10173266E+04</totfact>
</mgrwt>
</event>
<event>
 5    1  0.3232465E-002  0.1249963E+03  0.7818608E-02  0.1235075E+00
          4   -1    0    0  501    0  0.00000000000E+00  0.00000000000E+00  0.37121582583E+02  0.37143300789E+02  0.12700000000E+01 0. -1.
         -4   -1    0    0    0  501 -0.00000000000E+00 -0.00000000000E+00 -0.10516600220E+03  0.10517367028E+03  0.12700000000E+01 0. -1.
         25    2    1    2    0    0  0.00000000000E+00  0.00000000000E+00 -0.68044419621E+02  0.14231697107E+03  0.12499630879E+03 0.  0.
    9000005    1    3    3    0    0  0.35233305429E+02  0.39371246166E+02 -0.72015955891E+02  0.89324009869E+02  0.10000000000E+01 0.  0.
    9000005    1    3    3    0    0 -0.35233305429E+02 -0.39371246166E+02  0.39715362703E+01  0.52992961197E+02  0.10000000000E+01 0.  0.
<mgrwt>
<rscale>  0 0.12499631E+03</rscale>
<asrwt>0</asrwt>
<pdfrwt beam="1">  1        4 0.57132732E-02 0.12499631E+03</pdfrwt>
<pdfrwt beam="2">  1       -4 0.16181645E-01 0.12499631E+03</pdfrwt>
<totfact> 0.10086628E+04</totfact>
</mgrwt>
</event>
<event>
 5    1  0.3232465E-002  0.1249974E+03  0.7818608E-02  0.1235073E+00
          4   -1    0    0  501    0  0.00000000000E+00  0.00000000000E+00  0.64649341129E+01  0.65884955099E+01  0.12700000000E+01 0. -1.
         -4   -1    0    0    0  501 -0.00000000000E+00 -0.00000000000E+00 -0.59835295170E+03  0.59835429948E+03  0.12700000000E+01 0. -1.
         25    2    1    2    0    0  0.00000000000E+00  0.00000000000E+00 -0.59188801759E+03  0.60494279499E+03  0.12499743937E+03 0.  0.
    9000005    1    3    3    0    0  0.29144685185E+02  0.55185448279E+02 -0.31143357301E+03  0.31762669405E+03  0.10000000000E+01 0.  0.
    9000005    1    3    3    0    0 -0.29144685185E+02 -0.55185448279E+02 -0.28045444458E+03  0.28731610094E+03  0.10000000000E+01 0.  0.
<mgrwt>
<rscale>  0 0.12499744E+03</rscale>
<asrwt>0</asrwt>
<pdfrwt beam="1">  1        4 0.10042141E-02 0.12499744E+03</pdfrwt>
<pdfrwt beam="2">  1       -4 0.92063866E-01 0.12499744E+03</pdfrwt>
<totfact> 0.48559829E+03</totfact>
</mgrwt>
</event>
<event>
 5    1  0.3232465E-002  0.1250000E+03  0.7818608E-02  0.1235069E+00
         -4   -1    0    0    0  501 -0.00000000000E+00  0.00000000000E+00  0.37182684465E+01  0.39291755166E+01  0.12700000000E+01 0.  1.
          4   -1    0    0  501    0  0.00000000000E+00 -0.00000000000E+00 -0.10213713701E+04  0.10213721597E+04  0.12700000000E+01 0.  1.
         25    2    1    2    0    0  0.00000000000E+00  0.00000000000E+00 -0.10176531017E+04  0.10253013352E+04  0.12499997057E+03 0.  0.
    9000005    1    3    3    0    0  0.18848505820E+02  0.28469740814E+02 -0.79513822478E+02  0.86540396803E+02  0.10000000000E+01 0.  0.
    9000005    1    3    3    0    0 -0.18848505820E+02 -0.28469740814E+02 -0.93813927919E+03  0.93876093840E+03  0.10000000000E+01 0.  0.
<mgrwt>
<rscale>  0 0.12499997E+03</rscale>
<asrwt>0</asrwt>
<pdfrwt beam="2">  1        4 0.15715012E+00 0.12499997E+03</pdfrwt>
<pdfrwt beam="1">  1       -4 0.58832647E-03 0.12499997E+03</pdfrwt>
<totfact> 0.29778718E+03</totfact>
</mgrwt>
</event>
<event>
 5    1  0.3232465E-002  0.1250009E+03  0.7818608E-02  0.1235068E+00
          4   -1    0    0  501    0  0.00000000000E+00  0.00000000000E+00  0.20757857416E+02  0.20796671476E+02  0.12700000000E+01 0.  1.
         -4   -1    0    0    0  501 -0.00000000000E+00 -0.00000000000E+00 -0.18796764098E+03  0.18797193130E+03  0.12700000000E+01 0.  1.
         25    2    1    2    0    0  0.00000000000E+00  0.00000000000E+00 -0.16720978357E+03  0.20876860278E+03  0.12500087114E+03 0.  0.
    9000005    1    3    3    0    0  0.25775899769E+02  0.30596342603E+02 -0.16378489319E+03  0.16860315664E+03  0.10000000000E+01 0.  0.
    9000005    1    3    3    0    0 -0.25775899769E+02 -0.30596342603E+02 -0.34248903744E+01  0.40165446140E+02  0.10000000000E+01 0.  0.
<mgrwt>
<rscale>  0 0.12500087E+03</rscale>
<asrwt>0</asrwt>
<pdfrwt beam="1">  1        4 0.31968324E-02 0.12500087E+03</pdfrwt>
<pdfrwt beam="2">  1       -4 0.28921413E-01 0.12500087E+03</pdfrwt>
<totfact> 0.88675653E+03</totfact>
</mgrwt>
</event>
<event>
 5    1  0.3232465E-002  0.1250020E+03  0.7818608E-02  0.1235066E+00
         -4   -1    0    0    0  501 -0.00000000000E+00  0.00000000000E+00  0.15065747077E+02  0.15119181029E+02  0.12700000000E+01 0. -1.
          4   -1    0    0  501    0  0.00000000000E+00 -0.00000000000E+00 -0.25877453299E+03  0.25877764939E+03  0.12700000000E+01 0. -1.
         25    2    1    2    0    0  0.00000000000E+00  0.00000000000E+00 -0.24370878591E+03  0.27389683042E+03  0.12500200552E+03 0.  0.
    9000005    1    3    3    0    0 -0.78592710938E+01  0.61593613706E+02 -0.10638644507E+03  0.12318529573E+03  0.10000000000E+01 0.  0.
    9000005    1    3    3    0    0  0.78592710938E+01 -0.61593613706E+02 -0.13732234084E+03  0.15071153468E+03  0.10000000000E+01 0.  0.
<mgrwt>
<rscale>  0 0.12500201E+03</rscale>
<asrwt>0</asrwt>
<pdfrwt beam="2">  1        4 0.39815813E-01 0.12500201E+03</pdfrwt>
<pdfrwt beam="1">  1       -4 0.23221575E-02 0.12500201E+03</pdfrwt>
<totfact> 0.78990842E+03</totfact>
</mgrwt>
</event>
<event>
 5    1  0.3232465E-002  0.1249948E+03  0.7818608E-02  0.1235077E+00
          4   -1    0    0  501    0  0.00000000000E+00  0.00000000000E+00  0.82193733706E+01  0.83169104003E+01  0.12700000000E+01 0. -1.
         -4   -1    0    0    0  501 -0.00000000000E+00 -0.00000000000E+00 -0.47230850979E+03  0.47231021725E+03  0.12700000000E+01 0. -1.
         25    2    1    2    0    0  0.00000000000E+00  0.00000000000E+00 -0.46408913642E+03  0.48062712765E+03  0.12499483706E+03 0.  0.
    9000005    1    3    3    0    0 -0.16858662198E+02 -0.59076751460E+02 -0.18809330529E+03  0.19787462836E+03  0.10000000000E+01 0.  0.
    9000005    1    3    3    0    0  0.16858662198E+02  0.59076751460E+02 -0.27599583112E+03  0.28275249929E+03  0.10000000000E+01 0.  0.
<mgrwt>
<rscale>  0 0.12499484E+03</rscale>
<asrwt>0</asrwt>
<pdfrwt beam="1">  1        4 0.12721535E-02 0.12499484E+03</pdfrwt>
<pdfrwt beam="2">  1       -4 0.72670461E-01 0.12499484E+03</pdfrwt>
<totfact> 0.57405959E+03</totfact>
</mgrwt>
</event>
<event>
 5    1  0.3232465E-002  0.1249987E+03  0.7818608E-02  0.1235071E+00
          4   -1    0    0  501    0  0.00000000000E+00  0.00000000000E+00  0.16784430462E+02  0.16832409392E+02  0.12700000000E+01 0. -1.
         -4   -1    0    0    0  501 -0.00000000000E+00 -0.00000000000E+00 -0.23234389069E+03  0.23234736160E+03  0.12700000000E+01 0. -1.
         25    2    1    2    0    0  0.00000000000E+00  0.00000000000E+00 -0.21555946023E+03  0.24917977099E+03  0.12499870950E+03 0.  0.
    9000005    1    3    3    0    0 -0.39419499138E+02 -0.23332113767E+02 -0.23042844677E+02  0.51286032563E+02  0.10000000000E+01 0.  0.
    9000005    1    3    3    0    0  0.39419499138E+02  0.23332113767E+02 -0.19251661555E+03  0.19789373843E+03  0.10000000000E+01 0.  0.
<mgrwt>
<rscale>  0 0.12499871E+03</rscale>
<asrwt>0</asrwt>
<pdfrwt beam="1">  1        4 0.25861779E-02 0.12499871E+03</pdfrwt>
<pdfrwt beam="2">  1       -4 0.35749169E-01 0.12499871E+03</pdfrwt>
<totfact> 0.82451292E+03</totfact>
</mgrwt>
</event>
<event>
 5    1  0.3232465E-002  0.1250186E+03  0.7818608E-02  0.1235040E+00
          4   -1    0    0  501    0  0.00000000000E+00  0.00000000000E+00  0.62931359364E+02  0.62944172816E+02  0.12700000000E+01 0. -1.
         -4   -1    0    0    0  501 -0.00000000000E+00 -0.00000000000E+00 -0.62064431400E+02  0.62077423795E+02  0.12700000000E+01 0. -1.
         25    2    1    2    0    0  0.00000000000E+00  0.00000000000E+00  0.86692796456E+00  0.12502159661E+03  0.12501859084E+03 0.  0.
    9000005    1    3    3    0    0 -0.19676118391E+02 -0.11308734714E+02 -0.57803448495E+02  0.62106970412E+02  0.10000000000E+01 0.  0.
    9000005    1    3    3    0    0  0.19676118391E+02  0.11308734714E+02  0.58670376460E+02  0.62914626199E+02  0.10000000000E+01 0.  0.
<mgrwt>
<rscale>  0 0.12501859E+03</rscale>
<asrwt>0</asrwt>
<pdfrwt beam="1">  1        4 0.96837328E-02 0.12501859E+03</pdfrwt>
<pdfrwt beam="2">  1       -4 0.95503590E-02 0.12501859E+03</pdfrwt>
<totfact> 0.10448003E+04</totfact>
</mgrwt>
</event>
<event>
 5    1  0.3232465E-002  0.1250067E+03  0.7818608E-02  0.1235059E+00
         -4   -1    0    0    0  501 -0.00000000000E+00  0.00000000000E+00  0.10018833583E+02  0.10099006207E+02  0.12700000000E+01 0.  1.
          4   -1    0    0  501    0  0.00000000000E+00 -0.00000000000E+00 -0.38829743754E+03  0.38829951442E+03  0.12700000000E+01 0.  1.
         25    2    1    2    0    0  0.00000000000E+00  0.00000000000E+00 -0.37827860395E+03  0.39839852063E+03  0.12500671593E+03 0.  0.
    9000005    1    3    3    0    0 -0.34632207195E+02  0.41586108980E+02 -0.89529062366E+02  0.10461953567E+03  0.10000000000E+01 0.  0.
    9000005    1    3    3    0    0  0.34632207195E+02 -0.41586108980E+02 -0.28874954159E+03  0.29377898496E+03  0.10000000000E+01 0.  0.
<mgrwt>
<rscale>  0 0.12500672E+03</rscale>
<asrwt>0</asrwt>
<pdfrwt beam="2">  1        4 0.59744383E-01 0.12500672E+03</pdfrwt>
<pdfrwt beam="1">  1       -4 0.15476862E-02 0.12500672E+03</pdfrwt>
<totfact> 0.64699257E+03</totfact>
</mgrwt>
</event>
<event>
 5    1  0.3232465E-002  0.1249994E+03  0.7818608E-02  0.1235070E+00
          4   -1    0    0  501    0  0.00000000000E+00  0.00000000000E+00  0.47011581401E+02  0.47028732556E+02  0.12700000000E+01 0.  1.
         -4   -1    0    0    0  501 -0.00000000000E+00 -0.00000000000E+00 -0.83053255537E+02  0.83062965004E+02  0.12700000000E+01 0.  1.
         25    2    1    2    0    0  0.00000000000E+00  0.00000000000E+00 -0.36041674136E+02  0.13009169756E+03  0.12499939000E+03 0.  0.
    9000005    1    3    3    0    0 -0.26860631955E+01  0.55689036846E+02 -0.47397114326E+02  0.73184494306E+02  0.10000000000E+01 0.  0.
    9000005    1    3    3    0    0  0.26860631955E+01 -0.55689036846E+02  0.11355440189E+02  0.56907203254E+02  0.10000000000E+01 0.  0.
<mgrwt>
<rscale>  0 0.12499939E+03</rscale>
<asrwt>0</asrwt>
<pdfrwt beam="1">  1        4 0.72346172E-02 0.12499939E+03</pdfrwt>
<pdfrwt beam="2">  1       -4 0.12779490E-01 0.12499939E+03</pdfrwt>
<totfact> 0.10342689E+04</totfact>
</mgrwt>
</event>
<event>
 5    1  0.3232465E-002  0.1250012E+03  0.7818608E-02  0.1235067E+00
         -4   -1    0    0    0  501 -0.00000000000E+00  0.00000000000E+00  0.33587767747E+02  0.33611769400E+02  0.12700000000E+01 0. -1.
          4   -1    0    0  501    0  0.00000000000E+00 -0.00000000000E+00 -0.11623292800E+03  0.11623986601E+03  0.12700000000E+01 0. -1.
         25    2    1    2    0    0  0.00000000000E+00  0.00000000000E+00 -0.82645160249E+02  0.14985163541E+03  0.12500116049E+03 0.  0.
    9000005    1    3    3    0    0 -0.22788672462E+02  0.58188028075E+02 -0.40854698718E+02  0.74667774918E+02  0.10000000000E+01 0.  0.
    9000005    1    3    3    0    0  0.22788672462E+02 -0.58188028075E+02 -0.41790461531E+02  0.75183860494E+02  0.10000000000E+01 0.  0.
<mgrwt>
<rscale>  0 0.12500116E+03</rscale>
<asrwt>0</asrwt>
<pdfrwt beam="2">  1        4 0.17884369E-01 0.12500116E+03</pdfrwt>
<pdfrwt beam="1">  1       -4 0.51697289E-02 0.12500116E+03</pdfrwt>
<totfact> 0.99330686E+03</totfact>
</mgrwt>
</event>
<event>
 5    1  0.3232465E-002  0.1249813E+03  0.7818608E-02  0.1235098E+00
         -4   -1    0    0    0  501 -0.00000000000E+00  0.00000000000E+00  0.39859205309E+02  0.39879432642E+02  0.12700000000E+01 0. -1.
          4   -1    0    0  501    0  0.00000000000E+00 -0.00000000000E+00 -0.97922696148E+02  0.97930931379E+02  0.12700000000E+01 0. -1.
         25    2    1    2    0    0  0.00000000000E+00  0.00000000000E+00 -0.58063490839E+02  0.13781036402E+03  0.12498130846E+03 0.  0.
    9000005    1    3    3    0    0  0.51552956557E+02  0.33180210474E+02 -0.42329886681E+02  0.74508073410E+02  0.10000000000E+01 0.  0.
    9000005    1    3    3    0    0 -0.51552956557E+02 -0.33180210474E+02 -0.15733604158E+02  0.63302290611E+02  0.10000000000E+01 0.  0.
<mgrwt>
<rscale>  0 0.12498131E+03</rscale>
<asrwt>0</asrwt>
<pdfrwt beam="2">  1        4 0.15067220E-01 0.12498131E+03</pdfrwt>
<pdfrwt beam="1">  1       -4 0.61343749E-02 0.12498131E+03</pdfrwt>
<totfact> 0.10183459E+04</totfact>
</mgrwt>
</event>
<event>
 5    1  0.3232465E-002  0.1249998E+03  0.7818608E-02  0.1235070E+00
          4   -1    0    0  501    0  0.00000000000E+00  0.00000000000E+00  0.82050220138E+02  0.82060048286E+02  0.12700000000E+01 0. -1.
         -4   -1    0    0    0  501 -0.00000000000E+00 -0.00000000000E+00 -0.47586763726E+02  0.47603707649E+02  0.12700000000E+01 0. -1.
         25    2    1    2    0    0  0.00000000000E+00  0.00000000000E+00  0.34463456412E+02  0.12966375593E+03  0.12499983910E+03 0.  0.
    9000005    1    3    3    0    0  0.29244457008E+02 -0.48042071983E+02  0.45487012529E+02  0.72341877602E+02  0.10000000000E+01 0.  0.
    9000005    1    3    3    0    0 -0.29244457008E+02  0.48042071983E+02 -0.11023556117E+02  0.57321878333E+02  0.10000000000E+01 0.  0.
<mgrwt>
<rscale>  0 0.12499984E+03</rscale>
<asrwt>0</asrwt>
<pdfrwt beam="1">  1        4 0.12625170E-01 0.12499984E+03</pdfrwt>
<pdfrwt beam="2">  1       -4 0.73231001E-02 0.12499984E+03</pdfrwt>
<totfact> 0.10351743E+04</totfact>
</mgrwt>
</event>
<event>
 5    1  0.3232465E-002  0.1249531E+03  0.7818608E-02  0.1235143E+00
         -4   -1    0    0    0  501 -0.00000000000E+00  0.00000000000E+00  0.37222796809E+02  0.37244455994E+02  0.12700000000E+01 0.  1.
          4   -1    0    0  501    0  0.00000000000E+00 -0.00000000000E+00 -0.10480765287E+03  0.10481534716E+03  0.12700000000E+01 0.  1.
         25    2    1    2    0    0  0.00000000000E+00  0.00000000000E+00 -0.67584856061E+02  0.14205980315E+03  0.12495309081E+03 0.  0.
    9000005    1    3    3    0    0  0.48414417067E+02 -0.21442654425E+02  0.38900247300E+01  0.53102499952E+02  0.10000000000E+01 0.  0.
    9000005    1    3    3    0    0 -0.48414417067E+02  0.21442654425E+02 -0.71474880791E+02  0.88957303201E+02  0.10000000000E+01 0.  0.
<mgrwt>
<rscale>  0 0.12495309E+03</rscale>
<asrwt>0</asrwt>
<pdfrwt beam="2">  1        4 0.16126512E-01 0.12495309E+03</pdfrwt>
<pdfrwt beam="1">  1       -4 0.57288421E-02 0.12495309E+03</pdfrwt>
<totfact> 0.10101742E+04</totfact>
</mgrwt>
</event>
<event>
 5    1  0.3232465E-002  0.1249978E+03  0.7818608E-02  0.1235073E+00
          4   -1    0    0  501    0  0.00000000000E+00  0.00000000000E+00  0.45593921252E+02  0.45611605488E+02  0.12700000000E+01 0. -1.
         -4   -1    0    0    0  501 -0.00000000000E+00 -0.00000000000E+00 -0.85632749256E+02  0.85642166280E+02  0.12700000000E+01 0. -1.
         25    2    1    2    0    0  0.00000000000E+00  0.00000000000E+00 -0.40038828003E+02  0.13125377177E+03  0.12499777940E+03 0.  0.
    9000005    1    3    3    0    0 -0.16598847369E+02  0.19871157184E+01  0.43207485464E+02  0.46339585269E+02  0.10000000000E+01 0.  0.
    9000005    1    3    3    0    0  0.16598847369E+02 -0.19871157184E+01 -0.83246313467E+02  0.84914186498E+02  0.10000000000E+01 0.  0.
<mgrwt>
<rscale>  0 0.12499778E+03</rscale>
<asrwt>0</asrwt>
<pdfrwt beam="1">  1        4 0.70165341E-02 0.12499778E+03</pdfrwt>
<pdfrwt beam="2">  1       -4 0.13176354E-01 0.12499778E+03</pdfrwt>
<totfact> 0.10318169E+04</totfact>
</mgrwt>
</event>
<event>
 5    1  0.3232465E-002  0.1249853E+03  0.7818608E-02  0.1235092E+00
         -4   -1    0    0    0  501 -0.00000000000E+00  0.00000000000E+00  0.10896048561E+03  0.10896788666E+03  0.12700000000E+01 0. -1.
          4   -1    0    0  501    0  0.00000000000E+00 -0.00000000000E+00 -0.35821871222E+02  0.35844376934E+02  0.12700000000E+01 0. -1.
         25    2    1    2    0    0  0.00000000000E+00  0.00000000000E+00  0.73138614388E+02  0.14481226360E+03  0.12498533824E+03 0.  0.
    9000005    1    3    3    0    0  0.51134254677E+02  0.30050715590E+02  0.59349836991E+02  0.83911624104E+02  0.10000000000E+01 0.  0.
    9000005    1    3    3    0    0 -0.51134254677E+02 -0.30050715590E+02  0.13788777396E+02  0.60900639495E+02  0.10000000000E+01 0.  0.
<mgrwt>
<rscale>  0 0.12498534E+03</rscale>
<asrwt>0</asrwt>
<pdfrwt beam="2">  1        4 0.55133578E-02 0.12498534E+03</pdfrwt>
<pdfrwt beam="1">  1       -4 0.16765452E-01 0.12498534E+03</pdfrwt>
<totfact> 0.10038118E+04</totfact>
</mgrwt>
</event>
<event>
 5    1  0.3232465E-002  0.1249966E+03  0.7818608E-02  0.1235075E+00
          4   -1    0    0  501    0  0.00000000000E+00  0.00000000000E+00  0.59159894471E+02  0.59173524602E+02  0.12700000000E+01 0. -1.
         -4   -1    0    0    0  501 -0.00000000000E+00 -0.00000000000E+00 -0.65997799435E+02  0.66010017651E+02  0.12700000000E+01 0. -1.
         25    2    1    2    0    0  0.00000000000E+00  0.00000000000E+00 -0.68379049637E+01  0.12518354225E+03  0.12499664918E+03 0.  0.
    9000005    1    3    3    0    0  0.38709180631E+02 -0.33120673795E+02 -0.39662299133E+02  0.64571492706E+02  0.10000000000E+01 0.  0.
    9000005    1    3    3    0    0 -0.38709180631E+02  0.33120673795E+02  0.32824394169E+02  0.60612049547E+02  0.10000000000E+01 0.  0.
<mgrwt>
<rscale>  0 0.12499665E+03</rscale>
<asrwt>0</asrwt>
<pdfrwt beam="1">  1        4 0.91035105E-02 0.12499665E+03</pdfrwt>
<pdfrwt beam="2">  1       -4 0.10155496E-01 0.12499665E+03</pdfrwt>
<totfact> 0.10449669E+04</totfact>
</mgrwt>
</event>
<event>
 5    1  0.3232465E-002  0.1249976E+03  0.7818608E-02  0.1235073E+00
         -4   -1    0    0    0  501 -0.00000000000E+00  0.00000000000E+00  0.26401305501E+02  0.26431833688E+02  0.12700000000E+01 0.  1.
          4   -1    0    0  501    0  0.00000000000E+00 -0.00000000000E+00 -0.14783227712E+03  0.14783773218E+03  0.12700000000E+01 0.  1.
         25    2    1    2    0    0  0.00000000000E+00  0.00000000000E+00 -0.12143097161E+03  0.17426956587E+03  0.12499760286E+03 0.  0.
    9000005    1    3    3    0    0  0.37049843042E+02  0.11142279395E+02 -0.12913365580E+03  0.13480853949E+03  0.10000000000E+01 0.  0.
    9000005    1    3    3    0    0 -0.37049843042E+02 -0.11142279395E+02  0.77026841829E+01  0.39461026383E+02  0.10000000000E+01 0.  0.
<mgrwt>
<rscale>  0 0.12499760E+03</rscale>
<asrwt>0</asrwt>
<pdfrwt beam="2">  1        4 0.22746195E-01 0.12499760E+03</pdfrwt>
<pdfrwt beam="1">  1       -4 0.40645073E-02 0.12499760E+03</pdfrwt>
<totfact> 0.94663879E+03</totfact>
</mgrwt>
</event>
<event>
 5    1  0.3232465E-002  0.1250061E+03  0.7818608E-02  0.1235060E+00
         -4   -1    0    0    0  501 -0.00000000000E+00  0.00000000000E+00  0.18329357955E+01  0.22299223373E+01  0.12700000000E+01 0. -1.
          4   -1    0    0  501    0  0.00000000000E+00 -0.00000000000E+00 -0.19226991268E+04  0.19226995463E+04  0.12700000000E+01 0. -1.
         25    2    1    2    0    0  0.00000000000E+00  0.00000000000E+00 -0.19208661910E+04  0.19249294686E+04  0.12500614081E+03 0.  0.
    9000005    1    3    3    0    0 -0.36566652281E+02 -0.20104786243E+02 -0.16768129078E+04  0.16773323613E+04  0.10000000000E+01 0.  0.
    9000005    1    3    3    0    0  0.36566652281E+02  0.20104786243E+02 -0.24405328320E+03  0.24759710727E+03  0.10000000000E+01 0.  0.
<mgrwt>
<rscale>  0 0.12500614E+03</rscale>
<asrwt>0</asrwt>
<pdfrwt beam="2">  1        4 0.29582898E+00 0.12500614E+03</pdfrwt>
<pdfrwt beam="1">  1       -4 0.31256135E-03 0.12500614E+03</pdfrwt>
<totfact> 0.10871726E+03</totfact>
</mgrwt>
</event>
<event>
 5    1  0.3232465E-002  0.1249853E+03  0.7818608E-02  0.1235092E+00
         -4   -1    0    0    0  501 -0.00000000000E+00  0.00000000000E+00  0.14547202892E+02  0.14602534437E+02  0.12700000000E+01 0.  1.
          4   -1    0    0  501    0  0.00000000000E+00 -0.00000000000E+00 -0.26789289868E+03  0.26789590901E+03  0.12700000000E+01 0.  1.
         25    2    1    2    0    0  0.00000000000E+00  0.00000000000E+00 -0.25334569579E+03  0.28249844345E+03  0.12498531503E+03 0.  0.
    9000005    1    3    3    0    0  0.38829987229E+02  0.43909332475E+02 -0.17559753119E+03  0.18512506677E+03  0.10000000000E+01 0.  0.
    9000005    1    3    3    0    0 -0.38829987229E+02 -0.43909332475E+02 -0.77748164597E+02  0.97373376673E+02  0.10000000000E+01 0.  0.
<mgrwt>
<rscale>  0 0.12498532E+03</rscale>
<asrwt>0</asrwt>
<pdfrwt beam="2">  1        4 0.41218776E-01 0.12498532E+03</pdfrwt>
<pdfrwt beam="1">  1       -4 0.22425193E-02 0.12498532E+03</pdfrwt>
<totfact> 0.77873406E+03</totfact>
</mgrwt>
</event>
<event>
 5    1  0.3232465E-002  0.1249989E+03  0.7818608E-02  0.1235071E+00
         -4   -1    0    0    0  501 -0.00000000000E+00  0.00000000000E+00  0.65991714667E+02  0.66003934009E+02  0.12700000000E+01 0.  1.
          4   -1    0    0  501    0  0.00000000000E+00 -0.00000000000E+00 -0.59167495966E+02  0.59181124346E+02  0.12700000000E+01 0.  1.
         25    2    1    2    0    0  0.00000000000E+00  0.00000000000E+00  0.68242187007E+01  0.12518505835E+03  0.12499891549E+03 0.  0.
    9000005    1    3    3    0    0  0.23357134283E+02 -0.41062949775E+02 -0.37556762379E+02  0.60359191235E+02  0.10000000000E+01 0.  0.
    9000005    1    3    3    0    0 -0.23357134283E+02  0.41062949775E+02  0.44380981080E+02  0.64825867120E+02  0.10000000000E+01 0.  0.
<mgrwt>
<rscale>  0 0.12499892E+03</rscale>
<asrwt>0</asrwt>
<pdfrwt beam="2">  1        4 0.91046800E-02 0.12499892E+03</pdfrwt>
<pdfrwt beam="1">  1       -4 0.10154560E-01 0.12499892E+03</pdfrwt>
<totfact> 0.10449101E+04</totfact>
</mgrwt>
</event>
<event>
 5    1  0.3232465E-002  0.1250025E+03  0.7818608E-02  0.1235065E+00
         -4   -1    0    0    0  501 -0.00000000000E+00  0.00000000000E+00  0.55869804837E+02  0.55884237424E+02  0.12700000000E+01 0. -1.
          4   -1    0    0  501    0  0.00000000000E+00 -0.00000000000E+00 -0.69890632618E+02  0.69902170408E+02  0.12700000000E+01 0. -1.
         25    2    1    2    0    0  0.00000000000E+00  0.00000000000E+00 -0.14020827782E+02  0.12578640783E+03  0.12500254711E+03 0.  0.
    9000005    1    3    3    0    0 -0.30717658150E+02  0.70989021487E+01  0.47285705874E+02  0.56841067143E+02  0.10000000000E+01 0.  0.
    9000005    1    3    3    0    0  0.30717658150E+02 -0.70989021487E+01 -0.61306533655E+02  0.68945340690E+02  0.10000000000E+01 0.  0.
<mgrwt>
<rscale>  0 0.12500255E+03</rscale>
<asrwt>0</asrwt>
<pdfrwt beam="2">  1        4 0.10754403E-01 0.12500255E+03</pdfrwt>
<pdfrwt beam="1">  1       -4 0.85973523E-02 0.12500255E+03</pdfrwt>
<totfact> 0.10435044E+04</totfact>
</mgrwt>
</event>
<event>
 5    1  0.3232465E-002  0.1250026E+03  0.7818608E-02  0.1235065E+00
          4   -1    0    0  501    0  0.00000000000E+00  0.00000000000E+00  0.11422830134E+03  0.11423536110E+03  0.12700000000E+01 0. -1.
         -4   -1    0    0    0  501 -0.00000000000E+00 -0.00000000000E+00 -0.34178357033E+02  0.34201944235E+02  0.12700000000E+01 0. -1.
         25    2    1    2    0    0  0.00000000000E+00  0.00000000000E+00  0.80049944305E+02  0.14843730534E+03  0.12500256011E+03 0.  0.
    9000005    1    3    3    0    0  0.42175473636E+02  0.65536635009E+01 -0.14180183519E+02  0.44986650090E+02  0.10000000000E+01 0.  0.
    9000005    1    3    3    0    0 -0.42175473636E+02 -0.65536635009E+01  0.94230127824E+02  0.10345065525E+03  0.10000000000E+01 0.  0.
<mgrwt>
<rscale>  0 0.12500256E+03</rscale>
<asrwt>0</asrwt>
<pdfrwt beam="1">  1        4 0.17575942E-01 0.12500256E+03</pdfrwt>
<pdfrwt beam="2">  1       -4 0.52605662E-02 0.12500256E+03</pdfrwt>
<totfact> 0.99610374E+03</totfact>
</mgrwt>
</event>
<event>
 5    1  0.3232465E-002  0.1249991E+03  0.7818608E-02  0.1235071E+00
          4   -1    0    0  501    0  0.00000000000E+00  0.00000000000E+00  0.36607030436E+02  0.36629053733E+02  0.12700000000E+01 0.  1.
         -4   -1    0    0    0  501 -0.00000000000E+00 -0.00000000000E+00 -0.10664817520E+03  0.10665573671E+03  0.12700000000E+01 0.  1.
         25    2    1    2    0    0  0.00000000000E+00  0.00000000000E+00 -0.70041144762E+02  0.14328479044E+03  0.12499907685E+03 0.  0.
    9000005    1    3    3    0    0 -0.56579603484E+02 -0.14220695475E+02 -0.60696183438E+02  0.84193268104E+02  0.10000000000E+01 0.  0.
    9000005    1    3    3    0    0  0.56579603484E+02  0.14220695475E+02 -0.93449613242E+01  0.59091522339E+02  0.10000000000E+01 0.  0.
<mgrwt>
<rscale>  0 0.12499908E+03</rscale>
<asrwt>0</asrwt>
<pdfrwt beam="1">  1        4 0.56341266E-02 0.12499908E+03</pdfrwt>
<pdfrwt beam="2">  1       -4 0.16409687E-01 0.12499908E+03</pdfrwt>
<totfact> 0.10066164E+04</totfact>
</mgrwt>
</event>
<event>
 5    1  0.3232465E-002  0.1250120E+03  0.7818608E-02  0.1235051E+00
         -4   -1    0    0    0  501 -0.00000000000E+00  0.00000000000E+00  0.29462037880E+03  0.29462311604E+03  0.12700000000E+01 0.  1.
          4   -1    0    0  501    0  0.00000000000E+00 -0.00000000000E+00 -0.13227915509E+02  0.13288741427E+02  0.12700000000E+01 0.  1.
         25    2    1    2    0    0  0.00000000000E+00  0.00000000000E+00  0.28139246329E+03  0.30791185747E+03  0.12501197371E+03 0.  0.
    9000005    1    3    3    0    0 -0.59801262114E+02 -0.29851020622E+00  0.18542081980E+03  0.19482854122E+03  0.10000000000E+01 0.  0.
    9000005    1    3    3    0    0  0.59801262114E+02  0.29851020622E+00  0.95971643491E+02  0.11308331625E+03  0.10000000000E+01 0.  0.
<mgrwt>
<rscale>  0 0.12501197E+03</rscale>
<asrwt>0</asrwt>
<pdfrwt beam="2">  1        4 0.20399533E-02 0.12501197E+03</pdfrwt>
<pdfrwt beam="1">  1       -4 0.45331103E-01 0.12501197E+03</pdfrwt>
<totfact> 0.74597165E+03</totfact>
</mgrwt>
</event>
<event>
 5    1  0.3232465E-002  0.1249989E+03  0.7818608E-02  0.1235071E+00
         -4   -1    0    0    0  501 -0.00000000000E+00  0.00000000000E+00  0.10044637294E+03  0.10045440128E+03  0.12700000000E+01 0. -1.
          4   -1    0    0  501    0  0.00000000000E+00 -0.00000000000E+00 -0.38868251135E+02  0.38888993897E+02  0.12700000000E+01 0. -1.
         25    2    1    2    0    0  0.00000000000E+00  0.00000000000E+00  0.61578121804E+02  0.13934339518E+03  0.12499886677E+03 0.  0.
    9000005    1    3    3    0    0  0.21554390218E+02 -0.49136253034E+02  0.66499872358E+02  0.85452888328E+02  0.10000000000E+01 0.  0.
    9000005    1    3    3    0    0 -0.21554390218E+02  0.49136253034E+02 -0.49217505544E+01  0.53890506849E+02  0.10000000000E+01 0.  0.
<mgrwt>
<rscale>  0 0.12499887E+03</rscale>
<asrwt>0</asrwt>
<pdfrwt beam="2">  1        4 0.59819442E-02 0.12499887E+03</pdfrwt>
<pdfrwt beam="1">  1       -4 0.15455501E-01 0.12499887E+03</pdfrwt>
<totfact> 0.10147471E+04</totfact>
</mgrwt>
</event>
<event>
 5    1  0.3232465E-002  0.1250009E+03  0.7818608E-02  0.1235068E+00
          4   -1    0    0  501    0  0.00000000000E+00  0.00000000000E+00  0.88449216006E+02  0.88458333198E+02  0.12700000000E+01 0. -1.
         -4   -1    0    0    0  501 -0.00000000000E+00 -0.00000000000E+00 -0.44143841011E+02  0.44162105919E+02  0.12700000000E+01 0. -1.
         25    2    1    2    0    0  0.00000000000E+00  0.00000000000E+00  0.44305374995E+02  0.13262043912E+03  0.12500085847E+03 0.  0.
    9000005    1    3    3    0    0 -0.56296989361E+02  0.62745835426E+01 -0.58489652919E+01  0.56955524795E+02  0.10000000000E+01 0.  0.
    9000005    1    3    3    0    0  0.56296989361E+02 -0.62745835426E+01  0.50154340287E+02  0.75664914322E+02  0.10000000000E+01 0.  0.
<mgrwt>
<rscale>  0 0.12500086E+03</rscale>
<asrwt>0</asrwt>
<pdfrwt beam="1">  1        4 0.13609678E-01 0.12500086E+03</pdfrwt>
<pdfrwt beam="2">  1       -4 0.67934666E-02 0.12500086E+03</pdfrwt>
<totfact> 0.10288274E+04</totfact>
</mgrwt>
</event>
<event>
 5    1  0.3232465E-002  0.1250048E+03  0.7818608E-02  0.1235062E+00
          4   -1    0    0  501    0  0.00000000000E+00  0.00000000000E+00  0.28313540541E+02  0.28342009067E+02  0.12700000000E+01 0. -1.
         -4   -1    0    0    0  501 -0.00000000000E+00 -0.00000000000E+00 -0.13787380051E+03  0.13787964957E+03  0.12700000000E+01 0. -1.
         25    2    1    2    0    0  0.00000000000E+00  0.00000000000E+00 -0.10956025997E+03  0.16622165864E+03  0.12500475686E+03 0.  0.
    9000005    1    3    3    0    0  0.35206087904E+01 -0.61486245972E+02 -0.40670388988E+02  0.73810796435E+02  0.10000000000E+01 0.  0.
    9000005    1    3    3    0    0 -0.35206087904E+01  0.61486245972E+02 -0.68889870979E+02  0.92410862205E+02  0.10000000000E+01 0.  0.
<mgrwt>
<rscale>  0 0.12500476E+03</rscale>
<asrwt>0</asrwt>
<pdfrwt beam="1">  1        4 0.43585692E-02 0.12500476E+03</pdfrwt>
<pdfrwt beam="2">  1       -4 0.21213993E-01 0.12500476E+03</pdfrwt>
<totfact> 0.96146256E+03</totfact>
</mgrwt>
</event>
<event>
 5    1  0.3232465E-002  0.1249979E+03  0.7818608E-02  0.1235073E+00
          4   -1    0    0  501    0  0.00000000000E+00  0.00000000000E+00  0.47275563893E+03  0.47275734477E+03  0.12700000000E+01 0. -1.
         -4   -1    0    0    0  501 -0.00000000000E+00 -0.00000000000E+00 -0.82119178282E+01  0.83095423711E+01  0.12700000000E+01 0. -1.
         25    2    1    2    0    0  0.00000000000E+00  0.00000000000E+00  0.46454372110E+03  0.48106688715E+03  0.12499792436E+03 0.  0.
    9000005    1    3    3    0    0 -0.37633648520E+02 -0.38775358974E+02  0.11146628672E+03  0.12387716916E+03  0.10000000000E+01 0.  0.
    9000005    1    3    3    0    0  0.37633648520E+02  0.38775358974E+02  0.35307743438E+03  0.35718971799E+03  0.10000000000E+01 0.  0.
<mgrwt>
<rscale>  0 0.12499792E+03</rscale>
<asrwt>0</asrwt>
<pdfrwt beam="1">  1        4 0.72739275E-01 0.12499792E+03</pdfrwt>
<pdfrwt beam="2">  1       -4 0.12710128E-02 0.12499792E+03</pdfrwt>
<totfact> 0.57366479E+03</totfact>
</mgrwt>
</event>
<event>
 5    1  0.3232465E-002  0.1249979E+03  0.7818608E-02  0.1235073E+00
         -4   -1    0    0    0  501 -0.00000000000E+00  0.00000000000E+00  0.66750686975E+02  0.66762767406E+02  0.12700000000E+01 0.  1.
          4   -1    0    0  501    0  0.00000000000E+00 -0.00000000000E+00 -0.58493756089E+02  0.58507541406E+02  0.12700000000E+01 0.  1.
         25    2    1    2    0    0  0.00000000000E+00  0.00000000000E+00  0.82569308862E+01  0.12527030881E+03  0.12499789343E+03 0.  0.
    9000005    1    3    3    0    0  0.36966665001E+02 -0.48516722219E+02  0.17748952514E+02  0.63532920376E+02  0.10000000000E+01 0.  0.
    9000005    1    3    3    0    0 -0.36966665001E+02  0.48516722219E+02 -0.94920216276E+01  0.61737388435E+02  0.10000000000E+01 0.  0.
<mgrwt>
<rscale>  0 0.12499789E+03</rscale>
<asrwt>0</asrwt>
<pdfrwt beam="2">  1        4 0.90010290E-02 0.12499789E+03</pdfrwt>
<pdfrwt beam="1">  1       -4 0.10271326E-01 0.12499789E+03</pdfrwt>
<totfact> 0.10447492E+04</totfact>
</mgrwt>
</event>
<event>
 5    1  0.3232465E-002  0.1249958E+03  0.7818608E-02  0.1235076E+00
          4   -1    0    0  501    0  0.00000000000E+00  0.00000000000E+00  0.12729037209E+02  0.12792235468E+02  0.12700000000E+01 0.  1.
         -4   -1    0    0    0  501 -0.00000000000E+00 -0.00000000000E+00 -0.30603215928E+03  0.30603479445E+03  0.12700000000E+01 0.  1.
         25    2    1    2    0    0  0.00000000000E+00  0.00000000000E+00 -0.29330312207E+03  0.31882702992E+03  0.12499581429E+03 0.  0.
    9000005    1    3    3    0    0 -0.50223908649E+02  0.21750673179E+02 -0.22357353444E+03  0.23017744912E+03  0.10000000000E+01 0.  0.
    9000005    1    3    3    0    0  0.50223908649E+02 -0.21750673179E+02 -0.69729587638E+02  0.88649580799E+02  0.10000000000E+01 0.  0.
<mgrwt>
<rscale>  0 0.12499581E+03</rscale>
<asrwt>0</asrwt>
<pdfrwt beam="1">  1        4 0.19633778E-02 0.12499581E+03</pdfrwt>
<pdfrwt beam="2">  1       -4 0.47086929E-01 0.12499581E+03</pdfrwt>
<totfact> 0.73302656E+03</totfact>
</mgrwt>
</event>
<event>
 5    1  0.3232465E-002  0.1249983E+03  0.7818608E-02  0.1235072E+00
          4   -1    0    0  501    0  0.00000000000E+00  0.00000000000E+00  0.96167287688E+01  0.97002253691E+01  0.12700000000E+01 0. -1.
         -4   -1    0    0    0  501 -0.00000000000E+00 -0.00000000000E+00 -0.40434219067E+03  0.40434418514E+03  0.12700000000E+01 0. -1.
         25    2    1    2    0    0  0.00000000000E+00  0.00000000000E+00 -0.39472546190E+03  0.41404441051E+03  0.12499833439E+03 0.  0.
    9000005    1    3    3    0    0 -0.56641877839E+02  0.24315177569E+02 -0.16332136556E+03  0.17456918008E+03  0.10000000000E+01 0.  0.
    9000005    1    3    3    0    0  0.56641877839E+02 -0.24315177569E+02 -0.23140409634E+03  0.23947523042E+03  0.10000000000E+01 0.  0.
<mgrwt>
<rscale>  0 0.12499833E+03</rscale>
<asrwt>0</asrwt>
<pdfrwt beam="1">  1        4 0.14860733E-02 0.12499833E+03</pdfrwt>
<pdfrwt beam="2">  1       -4 0.62213054E-01 0.12499833E+03</pdfrwt>
<totfact> 0.63211718E+03</totfact>
</mgrwt>
</event>
<event>
 5    1  0.3232465E-002  0.1250029E+03  0.7818608E-02  0.1235065E+00
         -4   -1    0    0    0  501 -0.00000000000E+00  0.00000000000E+00  0.13259629878E+02  0.13320310976E+02  0.12700000000E+01 0. -1.
          4   -1    0    0  501    0  0.00000000000E+00 -0.00000000000E+00 -0.29387615475E+03  0.29387889892E+03  0.12700000000E+01 0. -1.
         25    2    1    2    0    0  0.00000000000E+00  0.00000000000E+00 -0.28061652487E+03  0.30719920989E+03  0.12500288209E+03 0.  0.
    9000005    1    3    3    0    0 -0.14985175534E+02 -0.22207895377E+02 -0.15567577878E+01  0.26854601053E+02  0.10000000000E+01 0.  0.
    9000005    1    3    3    0    0  0.14985175534E+02  0.22207895377E+02 -0.27905976708E+03  0.28034460884E+03  0.10000000000E+01 0.  0.
<mgrwt>
<rscale>  0 0.12500288E+03</rscale>
<asrwt>0</asrwt>
<pdfrwt beam="2">  1        4 0.45216590E-01 0.12500288E+03</pdfrwt>
<pdfrwt beam="1">  1       -4 0.20448221E-02 0.12500288E+03</pdfrwt>
<totfact> 0.74699791E+03</totfact>
</mgrwt>
</event>
<event>
 5    1  0.3232465E-002  0.1250000E+03  0.7818608E-02  0.1235069E+00
          4   -1    0    0  501    0  0.00000000000E+00  0.00000000000E+00  0.38941537078E+03  0.38941744170E+03  0.12700000000E+01 0. -1.
         -4   -1    0    0    0  501 -0.00000000000E+00 -0.00000000000E+00 -0.99887511541E+01  0.10069163303E+02  0.12700000000E+01 0. -1.
         25    2    1    2    0    0  0.00000000000E+00  0.00000000000E+00  0.37942661963E+03  0.39948660501E+03  0.12499995158E+03 0.  0.
    9000005    1    3    3    0    0  0.10236900634E+02 -0.39827611410E+02  0.34009750421E+03  0.34257604285E+03  0.10000000000E+01 0.  0.
    9000005    1    3    3    0    0 -0.10236900634E+02  0.39827611410E+02  0.39329115421E+02  0.56910562157E+02  0.10000000000E+01 0.  0.
<mgrwt>
<rscale>  0 0.12499995E+03</rscale>
<asrwt>0</asrwt>
<pdfrwt beam="1">  1        4 0.59916404E-01 0.12499995E+03</pdfrwt>
<pdfrwt beam="2">  1       -4 0.15430757E-02 0.12499995E+03</pdfrwt>
<totfact> 0.64602818E+03</totfact>
</mgrwt>
</event>
<event>
 5    1  0.3232465E-002  0.1249947E+03  0.7818608E-02  0.1235078E+00
         -4   -1    0    0    0  501 -0.00000000000E+00  0.00000000000E+00  0.45539054905E+01  0.47276796863E+01  0.12700000000E+01 0.  1.
          4   -1    0    0  501    0  0.00000000000E+00 -0.00000000000E+00 -0.84147447599E+03  0.84147543437E+03  0.12700000000E+01 0.  1.
         25    2    1    2    0    0  0.00000000000E+00  0.00000000000E+00 -0.83692057050E+03  0.84620311406E+03  0.12499467552E+03 0.  0.
    9000005    1    3    3    0    0  0.59699099054E+02 -0.46905660484E+01 -0.29755839253E+03  0.30352591455E+03  0.10000000000E+01 0.  0.
    9000005    1    3    3    0    0 -0.59699099054E+02  0.46905660484E+01 -0.53936217798E+03  0.54267719951E+03  0.10000000000E+01 0.  0.
<mgrwt>
<rscale>  0 0.12499468E+03</rscale>
<asrwt>0</asrwt>
<pdfrwt beam="2">  1        4 0.12947093E+00 0.12499468E+03</pdfrwt>
<pdfrwt beam="1">  1       -4 0.71404248E-03 0.12499468E+03</pdfrwt>
<totfact> 0.36287451E+03</totfact>
</mgrwt>
</event>
<event>
 5    1  0.3232465E-002  0.1250126E+03  0.7818608E-02  0.1235050E+00
          4   -1    0    0  501    0  0.00000000000E+00  0.00000000000E+00  0.14163239023E+03  0.14163808408E+03  0.12700000000E+01 0. -1.
         -4   -1    0    0    0  501 -0.00000000000E+00 -0.00000000000E+00 -0.27564906359E+02  0.27594147252E+02  0.12700000000E+01 0. -1.
         25    2    1    2    0    0  0.00000000000E+00  0.00000000000E+00  0.11406748387E+03  0.16923223134E+03  0.12501262834E+03 0.  0.
    9000005    1    3    3    0    0 -0.45223446492E+02  0.27488185458E+02  0.12028290108E+02  0.54281122090E+02  0.10000000000E+01 0.  0.
    9000005    1    3    3    0    0  0.45223446492E+02 -0.27488185458E+02  0.10203919377E+03  0.11495110925E+03  0.10000000000E+01 0.  0.
<mgrwt>
<rscale>  0 0.12501263E+03</rscale>
<asrwt>0</asrwt>
<pdfrwt beam="1">  1        4 0.21792286E-01 0.12501263E+03</pdfrwt>
<pdfrwt beam="2">  1       -4 0.42434421E-02 0.12501263E+03</pdfrwt>
<totfact> 0.95564723E+03</totfact>
</mgrwt>
</event>
<event>
 5    1  0.3232465E-002  0.1250007E+03  0.7818608E-02  0.1235068E+00
          4   -1    0    0  501    0  0.00000000000E+00  0.00000000000E+00  0.27612580839E+03  0.27612872897E+03  0.12700000000E+01 0. -1.
         -4   -1    0    0    0  501 -0.00000000000E+00 -0.00000000000E+00 -0.14115278996E+02  0.14172296960E+02  0.12700000000E+01 0. -1.
         25    2    1    2    0    0  0.00000000000E+00  0.00000000000E+00  0.26201052940E+03  0.29030102593E+03  0.12500067255E+03 0.  0.
    9000005    1    3    3    0    0  0.64811301197E+01  0.44879349651E+02  0.31138712571E+02  0.55016183921E+02  0.10000000000E+01 0.  0.
    9000005    1    3    3    0    0 -0.64811301197E+01 -0.44879349651E+02  0.23087181683E+03  0.23528484200E+03  0.10000000000E+01 0.  0.
<mgrwt>
<rscale>  0 0.12500067E+03</rscale>
<asrwt>0</asrwt>
<pdfrwt beam="1">  1        4 0.42485504E-01 0.12500067E+03</pdfrwt>
<pdfrwt beam="2">  1       -4 0.21761921E-02 0.12500067E+03</pdfrwt>
<totfact> 0.76830643E+03</totfact>
</mgrwt>
</event>
<event>
 5    1  0.3232465E-002  0.1250099E+03  0.7818608E-02  0.1235054E+00
         -4   -1    0    0    0  501 -0.00000000000E+00  0.00000000000E+00  0.29101126080E+02  0.29128824885E+02  0.12700000000E+01 0.  1.
          4   -1    0    0  501    0  0.00000000000E+00 -0.00000000000E+00 -0.13415691705E+03  0.13416292816E+03  0.12700000000E+01 0.  1.
         25    2    1    2    0    0  0.00000000000E+00  0.00000000000E+00 -0.10505579097E+03  0.16329175304E+03  0.12500990919E+03 0.  0.
    9000005    1    3    3    0    0  0.16482401565E+02 -0.59618459076E+02 -0.40856368031E+02  0.74136853404E+02  0.10000000000E+01 0.  0.
    9000005    1    3    3    0    0 -0.16482401565E+02  0.59618459076E+02 -0.64199422935E+02  0.89154899636E+02  0.10000000000E+01 0.  0.
<mgrwt>
<rscale>  0 0.12500991E+03</rscale>
<asrwt>0</asrwt>
<pdfrwt beam="2">  1        4 0.20642118E-01 0.12500991E+03</pdfrwt>
<pdfrwt beam="1">  1       -4 0.44796895E-02 0.12500991E+03</pdfrwt>
<totfact> 0.96690359E+03</totfact>
</mgrwt>
</event>
<event>
 5    1  0.3232465E-002  0.1250094E+03  0.7818608E-02  0.1235055E+00
          4   -1    0    0  501    0  0.00000000000E+00  0.00000000000E+00  0.15219420067E+02  0.15272316365E+02  0.12700000000E+01 0. -1.
         -4   -1    0    0    0  501 -0.00000000000E+00 -0.00000000000E+00 -0.25620110443E+03  0.25620425213E+03  0.12700000000E+01 0. -1.
         25    2    1    2    0    0  0.00000000000E+00  0.00000000000E+00 -0.24098168436E+03  0.27147656850E+03  0.12500941983E+03 0.  0.
    9000005    1    3    3    0    0  0.46707623105E+02  0.27589084041E+02 -0.53096940328E+02  0.75914719828E+02  0.10000000000E+01 0.  0.
    9000005    1    3    3    0    0 -0.46707623105E+02 -0.27589084041E+02 -0.18788474404E+03  0.19556184867E+03  0.10000000000E+01 0.  0.
<mgrwt>
<rscale>  0 0.12500942E+03</rscale>
<asrwt>0</asrwt>
<pdfrwt beam="1">  1        4 0.23457605E-02 0.12500942E+03</pdfrwt>
<pdfrwt beam="2">  1       -4 0.39419862E-01 0.12500942E+03</pdfrwt>
<totfact> 0.79305370E+03</totfact>
</mgrwt>
</event>
<event>
 5    1  0.3232465E-002  0.1250021E+03  0.7818608E-02  0.1235066E+00
          4   -1    0    0  501    0  0.00000000000E+00  0.00000000000E+00  0.31136343283E+03  0.31136602288E+03  0.12700000000E+01 0. -1.
         -4   -1    0    0    0  501 -0.00000000000E+00 -0.00000000000E+00 -0.12511255435E+02  0.12575548201E+02  0.12700000000E+01 0. -1.
         25    2    1    2    0    0  0.00000000000E+00  0.00000000000E+00  0.29885217739E+03  0.32394157108E+03  0.12500207014E+03 0.  0.
    9000005    1    3    3    0    0  0.93122366240E+00 -0.62396705926E+02  0.15808464974E+03  0.16995873785E+03  0.10000000000E+01 0.  0.
    9000005    1    3    3    0    0 -0.93122366240E+00  0.62396705926E+02  0.14076752765E+03  0.15398283323E+03  0.10000000000E+01 0.  0.
<mgrwt>
<rscale>  0 0.12500207E+03</rscale>
<asrwt>0</asrwt>
<pdfrwt beam="1">  1        4 0.47907210E-01 0.12500207E+03</pdfrwt>
<pdfrwt beam="2">  1       -4 0.19299534E-02 0.12500207E+03</pdfrwt>
<totfact> 0.72686432E+03</totfact>
</mgrwt>
</event>
<event>
 5    1  0.3232465E-002  0.1250013E+03  0.7818608E-02  0.1235067E+00
          4   -1    0    0  501    0  0.00000000000E+00  0.00000000000E+00  0.10282689943E+03  0.10283474192E+03  0.12700000000E+01 0.  1.
         -4   -1    0    0    0  501 -0.00000000000E+00 -0.00000000000E+00 -0.37969491234E+02  0.37990724718E+02  0.12700000000E+01 0.  1.
         25    2    1    2    0    0  0.00000000000E+00  0.00000000000E+00  0.64857408192E+02  0.14082546664E+03  0.12500131462E+03 0.  0.
    9000005    1    3    3    0    0 -0.49072838414E+02  0.29730203177E+02  0.45286904592E+01  0.57563334583E+02  0.10000000000E+01 0.  0.
    9000005    1    3    3    0    0  0.49072838414E+02 -0.29730203177E+02  0.60328717733E+02  0.83262132055E+02  0.10000000000E+01 0.  0.
<mgrwt>
<rscale>  0 0.12500131E+03</rscale>
<asrwt>0</asrwt>
<pdfrwt beam="1">  1        4 0.15821759E-01 0.12500131E+03</pdfrwt>
<pdfrwt beam="2">  1       -4 0.58436969E-02 0.12500131E+03</pdfrwt>
<totfact> 0.10116207E+04</totfact>
</mgrwt>
</event>
<event>
 4    1  0.3232465E-002  0.1250754E+03  0.7818608E-02  0.1234951E+00
          4   -1    0    0  501    0  0.00000000000E+00  0.00000000000E+00  0.71750597031E+02  0.71761835779E+02  0.12700000000E+01 0. -1.
         -4   -1    0    0    0  501 -0.00000000000E+00 -0.00000000000E+00 -0.54484860667E+02  0.54499660017E+02  0.12700000000E+01 0. -1.
    9000005    1    1    2    0    0  0.62473342563E+01 -0.61469877569E+02  0.18335983301E+02  0.64457608684E+02  0.10000000000E+01 0.  0.
    9000005    1    1    2    0    0 -0.62473342563E+01  0.61469877569E+02 -0.10702469373E+01  0.61803887112E+02  0.10000000000E+01 0.  0.
<mgrwt>
<rscale>  0 0.12507542E+03</rscale>
<asrwt>0</asrwt>
<pdfrwt beam="1">  1        4 0.11040556E-01 0.12507542E+03</pdfrwt>
<pdfrwt beam="2">  1       -4 0.83842891E-02 0.12507542E+03</pdfrwt>
<totfact> 0.10407510E+04</totfact>
</mgrwt>
</event>
<event>
 5    1  0.3232465E-002  0.1249994E+03  0.7818608E-02  0.1235070E+00
         -4   -1    0    0    0  501 -0.00000000000E+00  0.00000000000E+00  0.73571540479E+01  0.74659638149E+01  0.12700000000E+01 0. -1.
          4   -1    0    0  501    0  0.00000000000E+00 -0.00000000000E+00 -0.52693345951E+03  0.52693498997E+03  0.12700000000E+01 0. -1.
         25    2    1    2    0    0  0.00000000000E+00  0.00000000000E+00 -0.51957630546E+03  0.53440095378E+03  0.12499936882E+03 0.  0.
    9000005    1    3    3    0    0  0.39308525737E+02 -0.20736402016E+02 -0.71967256697E+02  0.84589861098E+02  0.10000000000E+01 0.  0.
    9000005    1    3    3    0    0 -0.39308525737E+02  0.20736402016E+02 -0.44760904877E+03  0.44981109268E+03  0.10000000000E+01 0.  0.
<mgrwt>
<rscale>  0 0.12499937E+03</rscale>
<asrwt>0</asrwt>
<pdfrwt beam="2">  1        4 0.81075145E-01 0.12499937E+03</pdfrwt>
<pdfrwt beam="1">  1       -4 0.11403580E-02 0.12499937E+03</pdfrwt>
<totfact> 0.53291442E+03</totfact>
</mgrwt>
</event>
<event>
 5    1  0.3232465E-002  0.1249996E+03  0.7818608E-02  0.1235070E+00
          4   -1    0    0  501    0  0.00000000000E+00  0.00000000000E+00  0.31777991516E+03  0.31778245292E+03  0.12700000000E+01 0. -1.
         -4   -1    0    0    0  501 -0.00000000000E+00 -0.00000000000E+00 -0.12256841401E+02  0.12322461650E+02  0.12700000000E+01 0. -1.
         25    2    1    2    0    0  0.00000000000E+00  0.00000000000E+00  0.30552307376E+03  0.33010491457E+03  0.12499962408E+03 0.  0.
    9000005    1    3    3    0    0  0.45758644332E+02 -0.78600229701E+01  0.42299816969E+02  0.62816462872E+02  0.10000000000E+01 0.  0.
    9000005    1    3    3    0    0 -0.45758644332E+02  0.78600229701E+01  0.26322325679E+03  0.26728845169E+03  0.10000000000E+01 0.  0.
<mgrwt>
<rscale>  0 0.12499962E+03</rscale>
<asrwt>0</asrwt>
<pdfrwt beam="1">  1        4 0.48894458E-01 0.12499962E+03</pdfrwt>
<pdfrwt beam="2">  1       -4 0.18909109E-02 0.12499962E+03</pdfrwt>
<totfact> 0.71970781E+03</totfact>
</mgrwt>
</event>
<event>
 5    1  0.3232465E-002  0.1250029E+03  0.7818608E-02  0.1235065E+00
          4   -1    0    0  501    0  0.00000000000E+00  0.00000000000E+00  0.29351860770E+02  0.29379323182E+02  0.12700000000E+01 0. -1.
         -4   -1    0    0    0  501 -0.00000000000E+00 -0.00000000000E+00 -0.13299690434E+03  0.13300296787E+03  0.12700000000E+01 0. -1.
         25    2    1    2    0    0  0.00000000000E+00  0.00000000000E+00 -0.10364504357E+03  0.16238229105E+03  0.12500285354E+03 0.  0.
    9000005    1    3    3    0    0  0.12796900059E+02  0.52083820503E+02 -0.93491655087E+02  0.10778763649E+03  0.10000000000E+01 0.  0.
    9000005    1    3    3    0    0 -0.12796900059E+02 -0.52083820503E+02 -0.10153388478E+02  0.54594654564E+02  0.10000000000E+01 0.  0.
<mgrwt>
<rscale>  0 0.12500285E+03</rscale>
<asrwt>0</asrwt>
<pdfrwt beam="1">  1        4 0.45182499E-02 0.12500285E+03</pdfrwt>
<pdfrwt beam="2">  1       -4 0.20463641E-01 0.12500285E+03</pdfrwt>
<totfact> 0.96879242E+03</totfact>
</mgrwt>
</event>
<event>
 5    1  0.3232465E-002  0.1250023E+03  0.7818608E-02  0.1235066E+00
         -4   -1    0    0    0  501 -0.00000000000E+00  0.00000000000E+00  0.20908500413E+03  0.20908886114E+03  0.12700000000E+01 0. -1.
          4   -1    0    0  501    0  0.00000000000E+00 -0.00000000000E+00 -0.18657659428E+02  0.18700833012E+02  0.12700000000E+01 0. -1.
         25    2    1    2    0    0  0.00000000000E+00  0.00000000000E+00  0.19042734470E+03  0.22778969415E+03  0.12500228458E+03 0.  0.
    9000005    1    3    3    0    0  0.53374597124E+02  0.30300783313E+02  0.11665226377E+03  0.13181705402E+03  0.10000000000E+01 0.  0.
    9000005    1    3    3    0    0 -0.53374597124E+02 -0.30300783313E+02  0.73775080937E+02  0.95972640136E+02  0.10000000000E+01 0.  0.
<mgrwt>
<rscale>  0 0.12500228E+03</rscale>
<asrwt>0</asrwt>
<pdfrwt beam="2">  1        4 0.28740269E-02 0.12500228E+03</pdfrwt>
<pdfrwt beam="1">  1       -4 0.32170541E-01 0.12500228E+03</pdfrwt>
<totfact> 0.85645784E+03</totfact>
</mgrwt>
</event>
<event>
 5    1  0.3232465E-002  0.1250040E+03  0.7818608E-02  0.1235063E+00
          4   -1    0    0  501    0  0.00000000000E+00  0.00000000000E+00  0.78138500684E+02  0.78148820779E+02  0.12700000000E+01 0.  1.
         -4   -1    0    0    0  501 -0.00000000000E+00 -0.00000000000E+00 -0.49972840973E+02  0.49988976134E+02  0.12700000000E+01 0.  1.
         25    2    1    2    0    0  0.00000000000E+00  0.00000000000E+00  0.28165659711E+02  0.12813779691E+03  0.12500396238E+03 0.  0.
    9000005    1    3    3    0    0  0.53036667779E+02  0.35102938146E+01  0.47774545051E+02  0.71474593015E+02  0.10000000000E+01 0.  0.
    9000005    1    3    3    0    0 -0.53036667779E+02 -0.35102938146E+01 -0.19608885340E+02  0.56663203899E+02  0.10000000000E+01 0.  0.
<mgrwt>
<rscale>  0 0.12500396E+03</rscale>
<asrwt>0</asrwt>
<pdfrwt beam="1">  1        4 0.12023343E-01 0.12500396E+03</pdfrwt>
<pdfrwt beam="2">  1       -4 0.76901644E-02 0.12500396E+03</pdfrwt>
<totfact> 0.10383584E+04</totfact>
</mgrwt>
</event>
<event>
 5    1  0.3232465E-002  0.1250023E+03  0.7818608E-02  0.1235066E+00
         -4   -1    0    0    0  501 -0.00000000000E+00  0.00000000000E+00  0.82008869646E+03  0.82008967982E+03  0.12700000000E+01 0. -1.
          4   -1    0    0  501    0  0.00000000000E+00 -0.00000000000E+00 -0.46777243466E+01  0.48470614874E+01  0.12700000000E+01 0. -1.
         25    2    1    2    0    0  0.00000000000E+00  0.00000000000E+00  0.81541097211E+03  0.82493674131E+03  0.12500229490E+03 0.  0.
    9000005    1    3    3    0    0  0.58967393036E+02  0.18394026607E+02  0.34513320809E+03  0.35061863182E+03  0.10000000000E+01 0.  0.
    9000005    1    3    3    0    0 -0.58967393036E+02 -0.18394026607E+02  0.47027776402E+03  0.47431810949E+03  0.10000000000E+01 0.  0.
<mgrwt>
<rscale>  0 0.12500229E+03</rscale>
<asrwt>0</asrwt>
<pdfrwt beam="2">  1        4 0.73275133E-03 0.12500229E+03</pdfrwt>
<pdfrwt beam="1">  1       -4 0.12618062E+00 0.12500229E+03</pdfrwt>
<totfact> 0.37173560E+03</totfact>
</mgrwt>
</event>
<event>
 5    1  0.3232465E-002  0.1250026E+03  0.7818608E-02  0.1235065E+00
         -4   -1    0    0    0  501 -0.00000000000E+00  0.00000000000E+00  0.10633622633E+02  0.10709193728E+02  0.12700000000E+01 0. -1.
          4   -1    0    0  501    0  0.00000000000E+00 -0.00000000000E+00 -0.36598651553E+03  0.36598871902E+03  0.12700000000E+01 0. -1.
         25    2    1    2    0    0  0.00000000000E+00  0.00000000000E+00 -0.35535289290E+03  0.37669791275E+03  0.12500255589E+03 0.  0.
    9000005    1    3    3    0    0  0.32858423805E+02 -0.51230673174E+02 -0.22041662603E+03  0.22866732805E+03  0.10000000000E+01 0.  0.
    9000005    1    3    3    0    0 -0.32858423805E+02  0.51230673174E+02 -0.13493626687E+03  0.14803058469E+03  0.10000000000E+01 0.  0.
<mgrwt>
<rscale>  0 0.12500256E+03</rscale>
<asrwt>0</asrwt>
<pdfrwt beam="2">  1        4 0.56311591E-01 0.12500256E+03</pdfrwt>
<pdfrwt beam="1">  1       -4 0.16419249E-02 0.12500256E+03</pdfrwt>
<totfact> 0.66880210E+03</totfact>
</mgrwt>
</event>
<event>
 5    1  0.3232465E-002  0.1250011E+03  0.7818608E-02  0.1235067E+00
          4   -1    0    0  501    0  0.00000000000E+00  0.00000000000E+00  0.98341781085E+03  0.98341863090E+03  0.12700000000E+01 0. -1.
         -4   -1    0    0    0  501 -0.00000000000E+00 -0.00000000000E+00 -0.38698342764E+01  0.40729003581E+01  0.12700000000E+01 0. -1.
         25    2    1    2    0    0  0.00000000000E+00  0.00000000000E+00  0.97954797657E+03  0.98749153125E+03  0.12500114357E+03 0.  0.
    9000005    1    3    3    0    0  0.42829177796E+02 -0.28181501889E+02  0.77205290480E+03  0.77375398114E+03  0.10000000000E+01 0.  0.
    9000005    1    3    3    0    0 -0.42829177796E+02  0.28181501889E+02  0.20749507178E+03  0.21373755012E+03  0.10000000000E+01 0.  0.
<mgrwt>
<rscale>  0 0.12500114E+03</rscale>
<asrwt>0</asrwt>
<pdfrwt beam="1">  1        4 0.15131088E+00 0.12500114E+03</pdfrwt>
<pdfrwt beam="2">  1       -4 0.61104206E-03 0.12500114E+03</pdfrwt>
<totfact> 0.31020315E+03</totfact>
</mgrwt>
</event>
<event>
 4    1  0.3232465E-002  0.1249349E+03  0.7818608E-02  0.1235171E+00
          4   -1    0    0  501    0  0.00000000000E+00  0.00000000000E+00  0.94813184525E+03  0.94813269581E+03  0.12700000000E+01 0. -1.
         -4   -1    0    0    0  501 -0.00000000000E+00 -0.00000000000E+00 -0.40168100280E+01  0.42127975029E+01  0.12700000000E+01 0. -1.
    9000005    1    1    2    0    0 -0.29490255687E+02 -0.22244166561E+02  0.85598194255E+03  0.85677918048E+03  0.10000000000E+01 0.  0.
    9000005    1    1    2    0    0  0.29490255687E+02  0.22244166561E+02  0.88133092666E+02  0.95566312837E+02  0.10000000000E+01 0.  0.
<mgrwt>
<rscale>  0 0.12493494E+03</rscale>
<asrwt>0</asrwt>
<pdfrwt beam="1">  1        4 0.14588182E+00 0.12493494E+03</pdfrwt>
<pdfrwt beam="2">  1       -4 0.63311113E-03 0.12493494E+03</pdfrwt>
<totfact> 0.32278582E+03</totfact>
</mgrwt>
</event>
<event>
 5    1  0.3232465E-002  0.1250033E+03  0.7818608E-02  0.1235064E+00
          4   -1    0    0  501    0  0.00000000000E+00  0.00000000000E+00  0.78570995482E+01  0.79590774158E+01  0.12700000000E+01 0.  1.
         -4   -1    0    0    0  501 -0.00000000000E+00 -0.00000000000E+00 -0.49387960252E+03  0.49388123541E+03  0.12700000000E+01 0.  1.
         25    2    1    2    0    0  0.00000000000E+00  0.00000000000E+00 -0.48602250298E+03  0.50184031282E+03  0.12500330467E+03 0.  0.
    9000005    1    3    3    0    0 -0.85161623494E+01  0.31839643735E+02 -0.45617069431E+03  0.45736089719E+03  0.10000000000E+01 0.  0.
    9000005    1    3    3    0    0  0.85161623494E+01 -0.31839643735E+02 -0.29851808666E+02  0.44479415632E+02  0.10000000000E+01 0.  0.
<mgrwt>
<rscale>  0 0.12500330E+03</rscale>
<asrwt>0</asrwt>
<pdfrwt beam="1">  1        4 0.12167550E-02 0.12500330E+03</pdfrwt>
<pdfrwt beam="2">  1       -4 0.75989423E-01 0.12500330E+03</pdfrwt>
<totfact> 0.55717825E+03</totfact>
</mgrwt>
</event>
<event>
 5    1  0.3232465E-002  0.1250089E+03  0.7818608E-02  0.1235055E+00
          4   -1    0    0  501    0  0.00000000000E+00  0.00000000000E+00  0.64357339776E+03  0.64357465084E+03  0.12700000000E+01 0.  1.
         -4   -1    0    0    0  501 -0.00000000000E+00 -0.00000000000E+00 -0.60027909810E+01  0.61356661872E+01  0.12700000000E+01 0.  1.
         25    2    1    2    0    0  0.00000000000E+00  0.00000000000E+00  0.63757060678E+03  0.64971031703E+03  0.12500886938E+03 0.  0.
    9000005    1    3    3    0    0 -0.16307274224E+01 -0.53605762665E+02  0.15201976700E+03  0.16120560357E+03  0.10000000000E+01 0.  0.
    9000005    1    3    3    0    0  0.16307274224E+01  0.53605762665E+02  0.48555083978E+03  0.48850471346E+03  0.10000000000E+01 0.  0.
<mgrwt>
<rscale>  0 0.12500887E+03</rscale>
<asrwt>0</asrwt>
<pdfrwt beam="1">  1        4 0.99021560E-01 0.12500887E+03</pdfrwt>
<pdfrwt beam="2">  1       -4 0.93382434E-03 0.12500887E+03</pdfrwt>
<totfact> 0.45863864E+03</totfact>
</mgrwt>
</event>
<event>
 5    1  0.3232465E-002  0.1249953E+03  0.7818608E-02  0.1235077E+00
          4   -1    0    0  501    0  0.00000000000E+00  0.00000000000E+00  0.61497321044E+03  0.61497452180E+03  0.12700000000E+01 0. -1.
         -4   -1    0    0    0  501 -0.00000000000E+00 -0.00000000000E+00 -0.62866126287E+01  0.64136103984E+01  0.12700000000E+01 0. -1.
         25    2    1    2    0    0  0.00000000000E+00  0.00000000000E+00  0.60868659781E+03  0.62138813220E+03  0.12499534582E+03 0.  0.
    9000005    1    3    3    0    0  0.59250828154E+02 -0.52126613995E+01  0.39959594827E+03  0.40399969597E+03  0.10000000000E+01 0.  0.
    9000005    1    3    3    0    0 -0.59250828154E+02  0.52126613995E+01  0.20909064955E+03  0.21738843622E+03  0.10000000000E+01 0.  0.
<mgrwt>
<rscale>  0 0.12499535E+03</rscale>
<asrwt>0</asrwt>
<pdfrwt beam="1">  1        4 0.94621103E-01 0.12499535E+03</pdfrwt>
<pdfrwt beam="2">  1       -4 0.97704141E-03 0.12499535E+03</pdfrwt>
<totfact> 0.47549636E+03</totfact>
</mgrwt>
</event>
<event>
 5    1  0.3232465E-002  0.1249968E+03  0.7818608E-02  0.1235074E+00
          4   -1    0    0  501    0  0.00000000000E+00  0.00000000000E+00  0.17290880096E+02  0.17337457556E+02  0.12700000000E+01 0. -1.
         -4   -1    0    0    0  501 -0.00000000000E+00 -0.00000000000E+00 -0.22555008746E+03  0.22555366291E+03  0.12700000000E+01 0. -1.
         25    2    1    2    0    0  0.00000000000E+00  0.00000000000E+00 -0.20825920737E+03  0.24289112047E+03  0.12499679576E+03 0.  0.
    9000005    1    3    3    0    0  0.18214843476E+02 -0.40491251548E+02 -0.18957928048E+03  0.19471164721E+03  0.10000000000E+01 0.  0.
    9000005    1    3    3    0    0 -0.18214843476E+02  0.40491251548E+02 -0.18679926891E+02  0.48179473258E+02  0.10000000000E+01 0.  0.
<mgrwt>
<rscale>  0 0.12499680E+03</rscale>
<asrwt>0</asrwt>
<pdfrwt beam="1">  1        4 0.26639935E-02 0.12499680E+03</pdfrwt>
<pdfrwt beam="2">  1       -4 0.34703869E-01 0.12499680E+03</pdfrwt>
<totfact> 0.83374617E+03</totfact>
</mgrwt>
</event>
<event>
 5    1  0.3232465E-002  0.1250004E+03  0.7818608E-02  0.1235069E+00
         -4   -1    0    0    0  501 -0.00000000000E+00  0.00000000000E+00  0.37420065925E+01  0.39516469147E+01  0.12700000000E+01 0. -1.
          4   -1    0    0  501    0  0.00000000000E+00 -0.00000000000E+00 -0.10152430109E+04  0.10152438053E+04  0.12700000000E+01 0. -1.
         25    2    1    2    0    0  0.00000000000E+00  0.00000000000E+00 -0.10115010043E+04  0.10191954522E+04  0.12500035192E+03 0.  0.
    9000005    1    3    3    0    0  0.11378515391E+02  0.49594098638E+02 -0.20994135459E+03  0.21602179890E+03  0.10000000000E+01 0.  0.
    9000005    1    3    3    0    0 -0.11378515391E+02 -0.49594098638E+02 -0.80155964974E+03  0.80317365328E+03  0.10000000000E+01 0.  0.
<mgrwt>
<rscale>  0 0.12500035E+03</rscale>
<asrwt>0</asrwt>
<pdfrwt beam="2">  1        4 0.15620721E+00 0.12500035E+03</pdfrwt>
<pdfrwt beam="1">  1       -4 0.59188141E-03 0.12500035E+03</pdfrwt>
<totfact> 0.29976230E+03</totfact>
</mgrwt>
</event>
<event>
 5    1  0.3232465E-002  0.1249956E+03  0.7818608E-02  0.1235076E+00
         -4   -1    0    0    0  501 -0.00000000000E+00  0.00000000000E+00  0.37198964959E+02  0.37220638012E+02  0.12700000000E+01 0. -1.
          4   -1    0    0  501    0  0.00000000000E+00 -0.00000000000E+00 -0.10494619279E+03  0.10495387693E+03  0.12700000000E+01 0. -1.
         25    2    1    2    0    0  0.00000000000E+00  0.00000000000E+00 -0.67747227835E+02  0.14217451494E+03  0.12499562320E+03 0.  0.
    9000005    1    3    3    0    0 -0.42278250560E+01  0.50153546203E+02  0.82533614337E+01  0.51013436234E+02  0.10000000000E+01 0.  0.
    9000005    1    3    3    0    0  0.42278250560E+01 -0.50153546203E+02 -0.76000589269E+02  0.91161078705E+02  0.10000000000E+01 0.  0.
<mgrwt>
<rscale>  0 0.12499562E+03</rscale>
<asrwt>0</asrwt>
<pdfrwt beam="2">  1        4 0.16147826E-01 0.12499562E+03</pdfrwt>
<pdfrwt beam="1">  1       -4 0.57251760E-02 0.12499562E+03</pdfrwt>
<totfact> 0.10089710E+04</totfact>
</mgrwt>
</event>
<event>
 5    1  0.3232465E-002  0.1249988E+03  0.7818608E-02  0.1235071E+00
         -4   -1    0    0    0  501 -0.00000000000E+00  0.00000000000E+00  0.14146452154E+03  0.14147022215E+03  0.12700000000E+01 0. -1.
          4   -1    0    0  501    0  0.00000000000E+00 -0.00000000000E+00 -0.27591558233E+02  0.27620770911E+02  0.12700000000E+01 0. -1.
         25    2    1    2    0    0  0.00000000000E+00  0.00000000000E+00  0.11387296331E+03  0.16909099306E+03  0.12499884864E+03 0.  0.
    9000005    1    3    3    0    0  0.30496680294E+02 -0.49024049105E+02  0.89282910284E+02  0.10632893759E+03  0.10000000000E+01 0.  0.
    9000005    1    3    3    0    0 -0.30496680294E+02  0.49024049105E+02  0.24590053027E+02  0.62762055475E+02  0.10000000000E+01 0.  0.
<mgrwt>
<rscale>  0 0.12499885E+03</rscale>
<asrwt>0</asrwt>
<pdfrwt beam="2">  1        4 0.42475406E-02 0.12499885E+03</pdfrwt>
<pdfrwt beam="1">  1       -4 0.21766459E-01 0.12499885E+03</pdfrwt>
<totfact> 0.95620655E+03</totfact>
</mgrwt>
</event>
<event>
 5    1  0.3232465E-002  0.1250034E+03  0.7818608E-02  0.1235064E+00
         -4   -1    0    0    0  501 -0.00000000000E+00  0.00000000000E+00  0.85262736470E+02  0.85272194357E+02  0.12700000000E+01 0.  1.
          4   -1    0    0  501    0  0.00000000000E+00 -0.00000000000E+00 -0.45795984776E+02  0.45813591014E+02  0.12700000000E+01 0.  1.
         25    2    1    2    0    0  0.00000000000E+00  0.00000000000E+00  0.39466751695E+02  0.13108578537E+03  0.12500343450E+03 0.  0.
    9000005    1    3    3    0    0  0.49700024547E+02 -0.10269037657E+00 -0.19996236520E+02  0.53581269678E+02  0.10000000000E+01 0.  0.
    9000005    1    3    3    0    0 -0.49700024547E+02  0.10269037657E+00  0.59462988215E+02  0.77504515692E+02  0.10000000000E+01 0.  0.
<mgrwt>
<rscale>  0 0.12500343E+03</rscale>
<asrwt>0</asrwt>
<pdfrwt beam="2">  1        4 0.70476181E-02 0.12500343E+03</pdfrwt>
<pdfrwt beam="1">  1       -4 0.13119426E-01 0.12500343E+03</pdfrwt>
<totfact> 0.10320451E+04</totfact>
</mgrwt>
</event>
<event>
 5    1  0.3232465E-002  0.1250011E+03  0.7818608E-02  0.1235068E+00
         -4   -1    0    0    0  501 -0.00000000000E+00  0.00000000000E+00  0.10758848063E+04  0.10758855559E+04  0.12700000000E+01 0.  1.
          4   -1    0    0  501    0  0.00000000000E+00 -0.00000000000E+00 -0.35189641194E+01  0.37411239586E+01  0.12700000000E+01 0.  1.
         25    2    1    2    0    0  0.00000000000E+00  0.00000000000E+00  0.10723658422E+04  0.10796266799E+04  0.12500107328E+03 0.  0.
    9000005    1    3    3    0    0 -0.16711031282E+02 -0.59042702158E+02  0.63838307417E+03  0.64132616400E+03  0.10000000000E+01 0.  0.
    9000005    1    3    3    0    0  0.16711031282E+02  0.59042702158E+02  0.43398276805E+03  0.43830051587E+03  0.10000000000E+01 0.  0.
<mgrwt>
<rscale>  0 0.12500107E+03</rscale>
<asrwt>0</asrwt>
<pdfrwt beam="2">  1        4 0.55852583E-03 0.12500107E+03</pdfrwt>
<pdfrwt beam="1">  1       -4 0.16553793E+00 0.12500107E+03</pdfrwt>
<totfact> 0.28086773E+03</totfact>
</mgrwt>
</event>
<event>
 5    1  0.3232465E-002  0.1250022E+03  0.7818608E-02  0.1235066E+00
          4   -1    0    0  501    0  0.00000000000E+00  0.00000000000E+00  0.30351942045E+02  0.30378500389E+02  0.12700000000E+01 0.  1.
         -4   -1    0    0    0  501 -0.00000000000E+00 -0.00000000000E+00 -0.12861707775E+03  0.12862334776E+03  0.12700000000E+01 0.  1.
         25    2    1    2    0    0  0.00000000000E+00  0.00000000000E+00 -0.98265135702E+02  0.15900184815E+03  0.12500220326E+03 0.  0.
    9000005    1    3    3    0    0  0.18045437549E+02  0.51836379649E+02 -0.87138108274E+02  0.10298882456E+03  0.10000000000E+01 0.  0.
    9000005    1    3    3    0    0 -0.18045437549E+02 -0.51836379649E+02 -0.11127027428E+02  0.56013023582E+02  0.10000000000E+01 0.  0.
<mgrwt>
<rscale>  0 0.12500220E+03</rscale>
<asrwt>0</asrwt>
<pdfrwt beam="1">  1        4 0.46720549E-02 0.12500220E+03</pdfrwt>
<pdfrwt beam="2">  1       -4 0.19789768E-01 0.12500220E+03</pdfrwt>
<totfact> 0.97530736E+03</totfact>
</mgrwt>
</event>
<event>
 5    1  0.3232465E-002  0.1250001E+03  0.7818608E-02  0.1235069E+00
          4   -1    0    0  501    0  0.00000000000E+00  0.00000000000E+00  0.41429118323E+02  0.41448579529E+02  0.12700000000E+01 0. -1.
         -4   -1    0    0    0  501 -0.00000000000E+00 -0.00000000000E+00 -0.94241831421E+02  0.94250388273E+02  0.12700000000E+01 0. -1.
         25    2    1    2    0    0  0.00000000000E+00  0.00000000000E+00 -0.52812713099E+02  0.13569896780E+03  0.12500010879E+03 0.  0.
    9000005    1    3    3    0    0 -0.51164118663E+02  0.20093530195E+02 -0.58678540893E+02  0.80409502893E+02  0.10000000000E+01 0.  0.
    9000005    1    3    3    0    0  0.51164118663E+02 -0.20093530195E+02  0.58658277941E+01  0.55289464909E+02  0.10000000000E+01 0.  0.
<mgrwt>
<rscale>  0 0.12500011E+03</rscale>
<asrwt>0</asrwt>
<pdfrwt beam="1">  1        4 0.63758658E-02 0.12500011E+03</pdfrwt>
<pdfrwt beam="2">  1       -4 0.14500898E-01 0.12500011E+03</pdfrwt>
<totfact> 0.10223334E+04</totfact>
</mgrwt>
</event>
<event>
 5    1  0.3232465E-002  0.1250062E+03  0.7818608E-02  0.1235060E+00
          4   -1    0    0  501    0  0.00000000000E+00  0.00000000000E+00  0.32433226610E+01  0.34831080781E+01  0.12700000000E+01 0. -1.
         -4   -1    0    0    0  501 -0.00000000000E+00 -0.00000000000E+00 -0.11613371777E+04  0.11613378721E+04  0.12700000000E+01 0. -1.
         25    2    1    2    0    0  0.00000000000E+00  0.00000000000E+00 -0.11580938550E+04  0.11648209802E+04  0.12500615512E+03 0.  0.
    9000005    1    3    3    0    0 -0.49847023511E+02  0.29964219378E+02 -0.36593818728E+03  0.37053250479E+03  0.10000000000E+01 0.  0.
    9000005    1    3    3    0    0  0.49847023511E+02 -0.29964219378E+02 -0.79215566777E+03  0.79428847542E+03  0.10000000000E+01 0.  0.
<mgrwt>
<rscale>  0 0.12500616E+03</rscale>
<asrwt>0</asrwt>
<pdfrwt beam="1">  1        4 0.51747209E-03 0.12500616E+03</pdfrwt>
<pdfrwt beam="2">  1       -4 0.17868544E+00 0.12500616E+03</pdfrwt>
<totfact> 0.25649179E+03</totfact>
</mgrwt>
</event>
<event>
 5    1  0.3232465E-002  0.1249912E+03  0.7818608E-02  0.1235083E+00
          4   -1    0    0  501    0  0.00000000000E+00  0.00000000000E+00  0.54113549316E+02  0.54128450187E+02  0.12700000000E+01 0.  1.
         -4   -1    0    0    0  501 -0.00000000000E+00 -0.00000000000E+00 -0.72145537197E+02  0.72156714431E+02  0.12700000000E+01 0.  1.
         25    2    1    2    0    0  0.00000000000E+00  0.00000000000E+00 -0.18031987881E+02  0.12628516462E+03  0.12499116055E+03 0.  0.
    9000005    1    3    3    0    0  0.59745353955E+02  0.32041571372E+01 -0.27228246748E+02  0.65743070837E+02  0.10000000000E+01 0.  0.
    9000005    1    3    3    0    0 -0.59745353955E+02 -0.32041571372E+01  0.91962588676E+01  0.60542093780E+02  0.10000000000E+01 0.  0.
<mgrwt>
<rscale>  0 0.12499116E+03</rscale>
<asrwt>0</asrwt>
<pdfrwt beam="1">  1        4 0.83271674E-02 0.12499116E+03</pdfrwt>
<pdfrwt beam="2">  1       -4 0.11101319E-01 0.12499116E+03</pdfrwt>
<totfact> 0.10426797E+04</totfact>
</mgrwt>
</event>
<event>
 5    1  0.3232465E-002  0.1250084E+03  0.7818608E-02  0.1235056E+00
         -4   -1    0    0    0  501 -0.00000000000E+00  0.00000000000E+00  0.25714637581E+03  0.25714951194E+03  0.12700000000E+01 0. -1.
          4   -1    0    0  501    0  0.00000000000E+00 -0.00000000000E+00 -0.15163039035E+02  0.15216131334E+02  0.12700000000E+01 0. -1.
         25    2    1    2    0    0  0.00000000000E+00  0.00000000000E+00  0.24198333677E+03  0.27236564327E+03  0.12500843316E+03 0.  0.
    9000005    1    3    3    0    0  0.36762390786E+02 -0.33470095705E+02  0.38483655210E+02  0.62878552791E+02  0.10000000000E+01 0.  0.
    9000005    1    3    3    0    0 -0.36762390786E+02  0.33470095705E+02  0.20349968156E+03  0.20948709048E+03  0.10000000000E+01 0.  0.
<mgrwt>
<rscale>  0 0.12500843E+03</rscale>
<asrwt>0</asrwt>
<pdfrwt beam="2">  1        4 0.23371006E-02 0.12500843E+03</pdfrwt>
<pdfrwt beam="1">  1       -4 0.39565304E-01 0.12500843E+03</pdfrwt>
<totfact> 0.79186526E+03</totfact>
</mgrwt>
</event>
<event>
 5    1  0.3232465E-002  0.1250006E+03  0.7818608E-02  0.1235068E+00
         -4   -1    0    0    0  501 -0.00000000000E+00  0.00000000000E+00  0.19942686764E+04  0.19942690808E+04  0.12700000000E+01 0. -1.
          4   -1    0    0  501    0  0.00000000000E+00 -0.00000000000E+00 -0.17524510838E+01  0.21642515568E+01  0.12700000000E+01 0. -1.
         25    2    1    2    0    0  0.00000000000E+00  0.00000000000E+00  0.19925162253E+04  0.19964333323E+04  0.12500056933E+03 0.  0.
    9000005    1    3    3    0    0 -0.34919114483E+02  0.49502778555E+02  0.75120469949E+03  0.75364406066E+03  0.10000000000E+01 0.  0.
    9000005    1    3    3    0    0  0.34919114483E+02 -0.49502778555E+02  0.12413115258E+04  0.12427892717E+04  0.10000000000E+01 0.  0.
<mgrwt>
<rscale>  0 0.12500057E+03</rscale>
<asrwt>0</asrwt>
<pdfrwt beam="2">  1        4 0.30131571E-03 0.12500057E+03</pdfrwt>
<pdfrwt beam="1">  1       -4 0.30684250E+00 0.12500057E+03</pdfrwt>
<totfact> 0.99076938E+02</totfact>
</mgrwt>
</event>
<event>
 5    1  0.3232465E-002  0.1250005E+03  0.7818608E-02  0.1235068E+00
         -4   -1    0    0    0  501 -0.00000000000E+00  0.00000000000E+00  0.11302693415E+03  0.11303406895E+03  0.12700000000E+01 0. -1.
          4   -1    0    0  501    0  0.00000000000E+00 -0.00000000000E+00 -0.34540727258E+02  0.34564067173E+02  0.12700000000E+01 0. -1.
         25    2    1    2    0    0  0.00000000000E+00  0.00000000000E+00  0.78486206893E+02  0.14759813612E+03  0.12500050046E+03 0.  0.
    9000005    1    3    3    0    0  0.12811542296E+02 -0.23391111049E+02 -0.27489287471E+02  0.38313713182E+02  0.10000000000E+01 0.  0.
    9000005    1    3    3    0    0 -0.12811542296E+02  0.23391111049E+02  0.10597549436E+03  0.10928442294E+03  0.10000000000E+01 0.  0.
<mgrwt>
<rscale>  0 0.12500050E+03</rscale>
<asrwt>0</asrwt>
<pdfrwt beam="2">  1        4 0.53163022E-02 0.12500050E+03</pdfrwt>
<pdfrwt beam="1">  1       -4 0.17391104E-01 0.12500050E+03</pdfrwt>
<totfact> 0.99783521E+03</totfact>
</mgrwt>
</event>
<event>
 5    1  0.3232465E-002  0.1250024E+03  0.7818608E-02  0.1235065E+00
         -4   -1    0    0    0  501 -0.00000000000E+00  0.00000000000E+00  0.12312426899E+03  0.12313081870E+03  0.12700000000E+01 0.  1.
          4   -1    0    0  501    0  0.00000000000E+00 -0.00000000000E+00 -0.31707200485E+02  0.31732624577E+02  0.12700000000E+01 0.  1.
         25    2    1    2    0    0  0.00000000000E+00  0.00000000000E+00  0.91417068508E+02  0.15486344328E+03  0.12500242258E+03 0.  0.
    9000005    1    3    3    0    0  0.56138999731E+02 -0.18068512828E+02  0.71319075772E+02  0.92549819101E+02  0.10000000000E+01 0.  0.
    9000005    1    3    3    0    0 -0.56138999731E+02  0.18068512828E+02  0.20097992735E+02  0.62313624181E+02  0.10000000000E+01 0.  0.
<mgrwt>
<rscale>  0 0.12500242E+03</rscale>
<asrwt>0</asrwt>
<pdfrwt beam="2">  1        4 0.48804904E-02 0.12500242E+03</pdfrwt>
<pdfrwt beam="1">  1       -4 0.18944655E-01 0.12500242E+03</pdfrwt>
<totfact> 0.98336955E+03</totfact>
</mgrwt>
</event>
<event>
 5    1  0.3232465E-002  0.1249975E+03  0.7818608E-02  0.1235073E+00
         -4   -1    0    0    0  501 -0.00000000000E+00  0.00000000000E+00  0.11768010551E+03  0.11768695821E+03  0.12700000000E+01 0.  1.
          4   -1    0    0  501    0  0.00000000000E+00 -0.00000000000E+00 -0.33172477272E+02  0.33196779186E+02  0.12700000000E+01 0.  1.
         25    2    1    2    0    0  0.00000000000E+00  0.00000000000E+00  0.84507628234E+02  0.15088373739E+03  0.12499745189E+03 0.  0.
    9000005    1    3    3    0    0  0.30897413488E+02 -0.12854831165E+02  0.10595814975E+03  0.11112167359E+03  0.10000000000E+01 0.  0.
    9000005    1    3    3    0    0 -0.30897413488E+02  0.12854831165E+02 -0.21450521512E+02  0.39762063800E+02  0.10000000000E+01 0.  0.
<mgrwt>
<rscale>  0 0.12499745E+03</rscale>
<asrwt>0</asrwt>
<pdfrwt beam="2">  1        4 0.51058546E-02 0.12499745E+03</pdfrwt>
<pdfrwt beam="1">  1       -4 0.18107028E-01 0.12499745E+03</pdfrwt>
<totfact> 0.99133514E+03</totfact>
</mgrwt>
</event>
<event>
 5    1  0.3232465E-002  0.1250015E+03  0.7818608E-02  0.1235067E+00
         -4   -1    0    0    0  501 -0.00000000000E+00  0.00000000000E+00  0.26372117003E+02  0.26402678940E+02  0.12700000000E+01 0. -1.
          4   -1    0    0  501    0  0.00000000000E+00 -0.00000000000E+00 -0.14800503529E+03  0.14801048399E+03  0.12700000000E+01 0. -1.
         25    2    1    2    0    0  0.00000000000E+00  0.00000000000E+00 -0.12163291828E+03  0.17441316293E+03  0.12500153836E+03 0.  0.
    9000005    1    3    3    0    0 -0.39444432528E+02  0.36732918598E+02 -0.16689700838E+02  0.56433294076E+02  0.10000000000E+01 0.  0.
    9000005    1    3    3    0    0  0.39444432528E+02 -0.36732918598E+02 -0.10494321745E+03  0.11797986885E+03  0.10000000000E+01 0.  0.
<mgrwt>
<rscale>  0 0.12500154E+03</rscale>
<asrwt>0</asrwt>
<pdfrwt beam="2">  1        4 0.22772775E-01 0.12500154E+03</pdfrwt>
<pdfrwt beam="1">  1       -4 0.40600189E-02 0.12500154E+03</pdfrwt>
<totfact> 0.94629163E+03</totfact>
</mgrwt>
</event>
<event>
 5    1  0.3232465E-002  0.1249951E+03  0.7818608E-02  0.1235077E+00
          4   -1    0    0  501    0  0.00000000000E+00  0.00000000000E+00  0.87777543874E+03  0.87777635748E+03  0.12700000000E+01 0.  1.
         -4   -1    0    0    0  501 -0.00000000000E+00 -0.00000000000E+00 -0.43582637812E+01  0.45395333666E+01  0.12700000000E+01 0.  1.
         25    2    1    2    0    0  0.00000000000E+00  0.00000000000E+00  0.87341717496E+03  0.88231589085E+03  0.12499507883E+03 0.  0.
    9000005    1    3    3    0    0  0.10574669132E+02  0.59559760183E+02  0.32605097820E+03  0.33161638839E+03  0.10000000000E+01 0.  0.
    9000005    1    3    3    0    0 -0.10574669132E+02 -0.59559760183E+02  0.54736619675E+03  0.55069950246E+03  0.10000000000E+01 0.  0.
<mgrwt>
<rscale>  0 0.12499508E+03</rscale>
<asrwt>0</asrwt>
<pdfrwt beam="1">  1        4 0.13505631E+00 0.12499508E+03</pdfrwt>
<pdfrwt beam="2">  1       -4 0.68451702E-03 0.12499508E+03</pdfrwt>
<totfact> 0.34843920E+03</totfact>
</mgrwt>
</event>
<event>
 5    1  0.3232465E-002  0.1250021E+03  0.7818608E-02  0.1235066E+00
          4   -1    0    0  501    0  0.00000000000E+00  0.00000000000E+00  0.23779677674E+03  0.23780016806E+03  0.12700000000E+01 0. -1.
         -4   -1    0    0    0  501 -0.00000000000E+00 -0.00000000000E+00 -0.16399334623E+02  0.16448436888E+02  0.12700000000E+01 0. -1.
         25    2    1    2    0    0  0.00000000000E+00  0.00000000000E+00  0.22139744212E+03  0.25424860495E+03  0.12500210295E+03 0.  0.
    9000005    1    3    3    0    0 -0.19461571723E+02  0.69362877193E+01  0.23065922950E+03  0.23158485489E+03  0.10000000000E+01 0.  0.
    9000005    1    3    3    0    0  0.19461571723E+02 -0.69362877193E+01 -0.92617873789E+01  0.22663750058E+02  0.10000000000E+01 0.  0.
<mgrwt>
<rscale>  0 0.12500210E+03</rscale>
<asrwt>0</asrwt>
<pdfrwt beam="1">  1        4 0.36588159E-01 0.12500210E+03</pdfrwt>
<pdfrwt beam="2">  1       -4 0.25270124E-02 0.12500210E+03</pdfrwt>
<totfact> 0.81716195E+03</totfact>
</mgrwt>
</event>
<event>
 5    1  0.3232465E-002  0.1250013E+03  0.7818608E-02  0.1235067E+00
         -4   -1    0    0    0  501 -0.00000000000E+00  0.00000000000E+00  0.11839853543E+04  0.11839860354E+04  0.12700000000E+01 0.  1.
          4   -1    0    0  501    0  0.00000000000E+00 -0.00000000000E+00 -0.31763837752E+01  0.34208644941E+01  0.12700000000E+01 0.  1.
         25    2    1    2    0    0  0.00000000000E+00  0.00000000000E+00  0.11808089705E+04  0.11874068999E+04  0.12500128447E+03 0.  0.
    9000005    1    3    3    0    0 -0.91472480395E+01  0.57468373076E+02  0.80681944390E+03  0.80891588012E+03  0.10000000000E+01 0.  0.
    9000005    1    3    3    0    0  0.91472480395E+01 -0.57468373076E+02  0.37398952664E+03  0.37849101982E+03  0.10000000000E+01 0.  0.
<mgrwt>
<rscale>  0 0.12500128E+03</rscale>
<asrwt>0</asrwt>
<pdfrwt beam="2">  1        4 0.50753294E-03 0.12500128E+03</pdfrwt>
<pdfrwt beam="1">  1       -4 0.18217048E+00 0.12500128E+03</pdfrwt>
<totfact> 0.25044063E+03</totfact>
</mgrwt>
</event>
<event>
 5    1  0.3232465E-002  0.1249896E+03  0.7818608E-02  0.1235086E+00
          4   -1    0    0  501    0  0.00000000000E+00  0.00000000000E+00  0.19783077850E+03  0.19783485492E+03  0.12700000000E+01 0. -1.
         -4   -1    0    0    0  501 -0.00000000000E+00 -0.00000000000E+00 -0.19717400499E+02  0.19758258588E+02  0.12700000000E+01 0. -1.
         25    2    1    2    0    0  0.00000000000E+00  0.00000000000E+00  0.17811337800E+03  0.21759311351E+03  0.12498955006E+03 0.  0.
    9000005    1    3    3    0    0 -0.29909358869E+02  0.49586385341E+02  0.48184023706E+02  0.75339760417E+02  0.10000000000E+01 0.  0.
    9000005    1    3    3    0    0  0.29909358869E+02 -0.49586385341E+02  0.12992935430E+03  0.14225335309E+03  0.10000000000E+01 0.  0.
<mgrwt>
<rscale>  0 0.12498955E+03</rscale>
<asrwt>0</asrwt>
<pdfrwt beam="1">  1        4 0.30438961E-01 0.12498955E+03</pdfrwt>
<pdfrwt beam="2">  1       -4 0.30369027E-02 0.12498955E+03</pdfrwt>
<totfact> 0.87271019E+03</totfact>
</mgrwt>
</event>
<event>
 5    1  0.3232465E-002  0.1249612E+03  0.7818608E-02  0.1235130E+00
          4   -1    0    0  501    0  0.00000000000E+00  0.00000000000E+00  0.64001749691E+03  0.64001875696E+03  0.12700000000E+01 0.  1.
         -4   -1    0    0    0  501 -0.00000000000E+00 -0.00000000000E+00 -0.60321699573E+01  0.61644119261E+01  0.12700000000E+01 0.  1.
         25    2    1    2    0    0  0.00000000000E+00  0.00000000000E+00  0.63398532696E+03  0.64618316888E+03  0.12496116577E+03 0.  0.
    9000005    1    3    3    0    0 -0.42204141205E+02  0.40873197574E+02  0.42681135637E+03  0.43083725668E+03  0.10000000000E+01 0.  0.
    9000005    1    3    3    0    0  0.42204141205E+02 -0.40873197574E+02  0.20717397058E+03  0.21534591220E+03  0.10000000000E+01 0.  0.
<mgrwt>
<rscale>  0 0.12496117E+03</rscale>
<asrwt>0</asrwt>
<pdfrwt beam="1">  1        4 0.98474506E-01 0.12496117E+03</pdfrwt>
<pdfrwt beam="2">  1       -4 0.93829547E-03 0.12496117E+03</pdfrwt>
<totfact> 0.46115471E+03</totfact>
</mgrwt>
</event>
<event>
 5    1  0.3232465E-002  0.1249984E+03  0.7818608E-02  0.1235072E+00
         -4   -1    0    0    0  501 -0.00000000000E+00  0.00000000000E+00  0.16719093861E+02  0.16767259750E+02  0.12700000000E+01 0. -1.
          4   -1    0    0  501    0  0.00000000000E+00 -0.00000000000E+00 -0.23324798527E+03  0.23325144272E+03  0.12700000000E+01 0. -1.
         25    2    1    2    0    0  0.00000000000E+00  0.00000000000E+00 -0.21652889141E+03  0.25001870247E+03  0.12499836307E+03 0.  0.
    9000005    1    3    3    0    0 -0.11478102499E+02 -0.96073411521E+01  0.13090357498E+02  0.19909929694E+02  0.10000000000E+01 0.  0.
    9000005    1    3    3    0    0  0.11478102499E+02  0.96073411521E+01 -0.22961924891E+03  0.23010877278E+03  0.10000000000E+01 0.  0.
<mgrwt>
<rscale>  0 0.12499836E+03</rscale>
<asrwt>0</asrwt>
<pdfrwt beam="2">  1        4 0.35888274E-01 0.12499836E+03</pdfrwt>
<pdfrwt beam="1">  1       -4 0.25761395E-02 0.12499836E+03</pdfrwt>
<totfact> 0.82330528E+03</totfact>
</mgrwt>
</event>
<event>
 5    1  0.3232465E-002  0.1250003E+03  0.7818608E-02  0.1235069E+00
          4   -1    0    0  501    0  0.00000000000E+00  0.00000000000E+00  0.20215762970E+02  0.20255615825E+02  0.12700000000E+01 0.  1.
         -4   -1    0    0    0  501 -0.00000000000E+00 -0.00000000000E+00 -0.19299660677E+03  0.19300078530E+03  0.12700000000E+01 0.  1.
         25    2    1    2    0    0  0.00000000000E+00  0.00000000000E+00 -0.17278084380E+03  0.21325640112E+03  0.12500029054E+03 0.  0.
    9000005    1    3    3    0    0 -0.77259116210E+01 -0.56873773855E+01  0.18960339444E+02  0.21272762955E+02  0.10000000000E+01 0.  0.
    9000005    1    3    3    0    0  0.77259116210E+01  0.56873773855E+01 -0.19174118324E+03  0.19198363817E+03  0.10000000000E+01 0.  0.
<mgrwt>
<rscale>  0 0.12500029E+03</rscale>
<asrwt>0</asrwt>
<pdfrwt beam="1">  1        4 0.31135045E-02 0.12500029E+03</pdfrwt>
<pdfrwt beam="2">  1       -4 0.29695171E-01 0.12500029E+03</pdfrwt>
<totfact> 0.87946244E+03</totfact>
</mgrwt>
</event>
<event>
 5    1  0.3232465E-002  0.1250006E+03  0.7818608E-02  0.1235068E+00
          4   -1    0    0  501    0  0.00000000000E+00  0.00000000000E+00  0.52185103854E+01  0.53708240189E+01  0.12700000000E+01 0.  1.
         -4   -1    0    0    0  501 -0.00000000000E+00 -0.00000000000E+00 -0.73762433239E+03  0.73762542569E+03  0.12700000000E+01 0.  1.
         25    2    1    2    0    0  0.00000000000E+00  0.00000000000E+00 -0.73240582200E+03  0.74299624971E+03  0.12500055594E+03 0.  0.
    9000005    1    3    3    0    0  0.68078467558E+01  0.17639236488E+02 -0.72024423357E+03  0.72049305717E+03  0.10000000000E+01 0.  0.
    9000005    1    3    3    0    0 -0.68078467558E+01 -0.17639236488E+02 -0.12161588430E+02  0.22503192539E+02  0.10000000000E+01 0.  0.
<mgrwt>
<rscale>  0 0.12500056E+03</rscale>
<asrwt>0</asrwt>
<pdfrwt beam="1">  1        4 0.81464887E-03 0.12500056E+03</pdfrwt>
<pdfrwt beam="2">  1       -4 0.11349239E+00 0.12500056E+03</pdfrwt>
<totfact> 0.40910913E+03</totfact>
</mgrwt>
</event>
<event>
 5    1  0.3232465E-002  0.1250371E+03  0.7818608E-02  0.1235011E+00
          4   -1    0    0  501    0  0.00000000000E+00  0.00000000000E+00  0.25686611735E+02  0.25717988304E+02  0.12700000000E+01 0.  1.
         -4   -1    0    0    0  501 -0.00000000000E+00 -0.00000000000E+00 -0.15203668750E+03  0.15204199172E+03  0.12700000000E+01 0.  1.
         25    2    1    2    0    0  0.00000000000E+00  0.00000000000E+00 -0.12635007576E+03  0.17775998002E+03  0.12503706991E+03 0.  0.
    9000005    1    3    3    0    0  0.47648667221E+02 -0.40382214325E+02 -0.59564896077E+02  0.86313936108E+02  0.10000000000E+01 0.  0.
    9000005    1    3    3    0    0 -0.47648667221E+02  0.40382214325E+02 -0.66785179686E+02  0.91446043914E+02  0.10000000000E+01 0.  0.
<mgrwt>
<rscale>  0 0.12503707E+03</rscale>
<asrwt>0</asrwt>
<pdfrwt beam="1">  1        4 0.39546081E-02 0.12503707E+03</pdfrwt>
<pdfrwt beam="2">  1       -4 0.23393081E-01 0.12503707E+03</pdfrwt>
<totfact> 0.93943651E+03</totfact>
</mgrwt>
</event>
<event>
 5    1  0.3232465E-002  0.1250046E+03  0.7818608E-02  0.1235062E+00
         -4   -1    0    0    0  501 -0.00000000000E+00  0.00000000000E+00  0.22310636028E+03  0.22310997489E+03  0.12700000000E+01 0. -1.
          4   -1    0    0  501    0  0.00000000000E+00 -0.00000000000E+00 -0.17482956297E+02  0.17529023387E+02  0.12700000000E+01 0. -1.
         25    2    1    2    0    0  0.00000000000E+00  0.00000000000E+00  0.20562340398E+03  0.24063899828E+03  0.12500457283E+03 0.  0.
    9000005    1    3    3    0    0 -0.42874524290E+02 -0.44388395476E+02  0.12176933703E+03  0.13651859188E+03  0.10000000000E+01 0.  0.
    9000005    1    3    3    0    0  0.42874524290E+02  0.44388395476E+02  0.83854066944E+02  0.10412040640E+03  0.10000000000E+01 0.  0.
<mgrwt>
<rscale>  0 0.12500457E+03</rscale>
<asrwt>0</asrwt>
<pdfrwt beam="2">  1        4 0.26935076E-02 0.12500457E+03</pdfrwt>
<pdfrwt beam="1">  1       -4 0.34327873E-01 0.12500457E+03</pdfrwt>
<totfact> 0.83693763E+03</totfact>
</mgrwt>
</event>
<event>
 5    1  0.3232465E-002  0.1249986E+03  0.7818608E-02  0.1235071E+00
         -4   -1    0    0    0  501 -0.00000000000E+00  0.00000000000E+00  0.33707538883E+03  0.33707778131E+03  0.12700000000E+01 0. -1.
          4   -1    0    0  501    0  0.00000000000E+00 -0.00000000000E+00 -0.11551165672E+02  0.11620771420E+02  0.12700000000E+01 0. -1.
         25    2    1    2    0    0  0.00000000000E+00  0.00000000000E+00  0.32552422315E+03  0.34869855273E+03  0.12499864325E+03 0.  0.
    9000005    1    3    3    0    0 -0.27150295480E+02 -0.43500793105E+02  0.26239906209E+03  0.26736440550E+03  0.10000000000E+01 0.  0.
    9000005    1    3    3    0    0  0.27150295480E+02  0.43500793105E+02  0.63125161069E+02  0.81334147228E+02  0.10000000000E+01 0.  0.
<mgrwt>
<rscale>  0 0.12499864E+03</rscale>
<asrwt>0</asrwt>
<pdfrwt beam="2">  1        4 0.17826408E-02 0.12499864E+03</pdfrwt>
<pdfrwt beam="1">  1       -4 0.51863287E-01 0.12499864E+03</pdfrwt>
<totfact> 0.69870067E+03</totfact>
</mgrwt>
</event>
<event>
 5    1  0.3232465E-002  0.1250010E+03  0.7818608E-02  0.1235068E+00
         -4   -1    0    0    0  501 -0.00000000000E+00  0.00000000000E+00  0.58330293523E+02  0.58344117463E+02  0.12700000000E+01 0. -1.
          4   -1    0    0  501    0  0.00000000000E+00 -0.00000000000E+00 -0.66941014544E+02  0.66953060633E+02  0.12700000000E+01 0. -1.
         25    2    1    2    0    0  0.00000000000E+00  0.00000000000E+00 -0.86107210202E+01  0.12529717810E+03  0.12500095329E+03 0.  0.
    9000005    1    3    3    0    0 -0.36229045385E+02  0.40176271535E+02  0.27051884958E+02  0.60493644325E+02  0.10000000000E+01 0.  0.
    9000005    1    3    3    0    0  0.36229045385E+02 -0.40176271535E+02 -0.35662605978E+02  0.64803533771E+02  0.10000000000E+01 0.  0.
<mgrwt>
<rscale>  0 0.12500095E+03</rscale>
<asrwt>0</asrwt>
<pdfrwt beam="2">  1        4 0.10300608E-01 0.12500095E+03</pdfrwt>
<pdfrwt beam="1">  1       -4 0.89758813E-02 0.12500095E+03</pdfrwt>
<totfact> 0.10446186E+04</totfact>
</mgrwt>
</event>
<event>
 5    1  0.3232465E-002  0.1250023E+03  0.7818608E-02  0.1235066E+00
         -4   -1    0    0    0  501 -0.00000000000E+00  0.00000000000E+00  0.26285530813E+01  0.29192792434E+01  0.12700000000E+01 0. -1.
          4   -1    0    0  501    0  0.00000000000E+00 -0.00000000000E+00 -0.14079678055E+04  0.14079683782E+04  0.12700000000E+01 0. -1.
         25    2    1    2    0    0  0.00000000000E+00  0.00000000000E+00 -0.14053392524E+04  0.14108876575E+04  0.12500227098E+03 0.  0.
    9000005    1    3    3    0    0  0.79759697182E+01 -0.45269701966E+02 -0.22481518740E+03  0.22946858280E+03  0.10000000000E+01 0.  0.
    9000005    1    3    3    0    0 -0.79759697182E+01  0.45269701966E+02 -0.11805240650E+04  0.11814190747E+04  0.10000000000E+01 0.  0.
<mgrwt>
<rscale>  0 0.12500227E+03</rscale>
<asrwt>0</asrwt>
<pdfrwt beam="2">  1        4 0.21663227E+00 0.12500227E+03</pdfrwt>
<pdfrwt beam="1">  1       -4 0.42680152E-03 0.12500227E+03</pdfrwt>
<totfact> 0.19747579E+03</totfact>
</mgrwt>
</event>
<event>
 5    1  0.3232465E-002  0.1249829E+03  0.7818608E-02  0.1235096E+00
         -4   -1    0    0    0  501 -0.00000000000E+00  0.00000000000E+00  0.12523045035E+03  0.12523688992E+03  0.12700000000E+01 0.  1.
          4   -1    0    0  501    0  0.00000000000E+00 -0.00000000000E+00 -0.31163759652E+02  0.31189626731E+02  0.12700000000E+01 0.  1.
         25    2    1    2    0    0  0.00000000000E+00  0.00000000000E+00  0.94066690702E+02  0.15642651665E+03  0.12498285007E+03 0.  0.
    9000005    1    3    3    0    0 -0.57507224092E+02  0.64134247974E+01  0.17522352699E+02  0.60466897428E+02  0.10000000000E+01 0.  0.
    9000005    1    3    3    0    0  0.57507224092E+02 -0.64134247974E+01  0.76544338003E+02  0.95959619219E+02  0.10000000000E+01 0.  0.
<mgrwt>
<rscale>  0 0.12498285E+03</rscale>
<asrwt>0</asrwt>
<pdfrwt beam="2">  1        4 0.47969097E-02 0.12498285E+03</pdfrwt>
<pdfrwt beam="1">  1       -4 0.19268708E-01 0.12498285E+03</pdfrwt>
<totfact> 0.98073997E+03</totfact>
</mgrwt>
</event>
<event>
 5    1  0.3232465E-002  0.1249810E+03  0.7818608E-02  0.1235099E+00
          4   -1    0    0  501    0  0.00000000000E+00  0.00000000000E+00  0.54253179915E+03  0.54253328560E+03  0.12700000000E+01 0. -1.
         -4   -1    0    0    0  501 -0.00000000000E+00 -0.00000000000E+00 -0.71403185356E+01  0.72523822838E+01  0.12700000000E+01 0. -1.
         25    2    1    2    0    0  0.00000000000E+00  0.00000000000E+00  0.53539148061E+03  0.54978566788E+03  0.12498097096E+03 0.  0.
    9000005    1    3    3    0    0 -0.81182306448E+01 -0.37580677048E+02  0.48435701618E+03  0.48588160295E+03  0.10000000000E+01 0.  0.
    9000005    1    3    3    0    0  0.81182306448E+01  0.37580677048E+02  0.51034464428E+02  0.63904064938E+02  0.10000000000E+01 0.  0.
<mgrwt>
<rscale>  0 0.12498097E+03</rscale>
<asrwt>0</asrwt>
<pdfrwt beam="1">  1        4 0.83475168E-01 0.12498097E+03</pdfrwt>
<pdfrwt beam="2">  1       -4 0.11072451E-02 0.12498097E+03</pdfrwt>
<totfact> 0.52220684E+03</totfact>
</mgrwt>
</event>
<event>
 5    1  0.3232465E-002  0.1250005E+03  0.7818608E-02  0.1235068E+00
         -4   -1    0    0    0  501 -0.00000000000E+00  0.00000000000E+00  0.47977753295E+02  0.47994559183E+02  0.12700000000E+01 0. -1.
          4   -1    0    0  501    0  0.00000000000E+00 -0.00000000000E+00 -0.81382625215E+02  0.81392533975E+02  0.12700000000E+01 0. -1.
         25    2    1    2    0    0  0.00000000000E+00  0.00000000000E+00 -0.33404871921E+02  0.12938709316E+03  0.12500053763E+03 0.  0.
    9000005    1    3    3    0    0  0.61070189324E+02  0.12894571534E+02 -0.13521214405E+02  0.63872225874E+02  0.10000000000E+01 0.  0.
    9000005    1    3    3    0    0 -0.61070189324E+02 -0.12894571534E+02 -0.19883657516E+02  0.65514867285E+02  0.10000000000E+01 0.  0.
<mgrwt>
<rscale>  0 0.12500054E+03</rscale>
<asrwt>0</asrwt>
<pdfrwt beam="2">  1        4 0.12522459E-01 0.12500054E+03</pdfrwt>
<pdfrwt beam="1">  1       -4 0.73832478E-02 0.12500054E+03</pdfrwt>
<totfact> 0.10357511E+04</totfact>
</mgrwt>
</event>
<event>
 5    1  0.3232465E-002  0.1249951E+03  0.7818608E-02  0.1235077E+00
         -4   -1    0    0    0  501 -0.00000000000E+00  0.00000000000E+00  0.28525528791E+03  0.28525811502E+03  0.12700000000E+01 0. -1.
          4   -1    0    0  501    0  0.00000000000E+00 -0.00000000000E+00 -0.13660456846E+02  0.13719365190E+02  0.12700000000E+01 0. -1.
         25    2    1    2    0    0  0.00000000000E+00  0.00000000000E+00  0.27159483107E+03  0.29897748021E+03  0.12499512554E+03 0.  0.
    9000005    1    3    3    0    0  0.28789241201E+02  0.14468299175E+02  0.77285425286E+01  0.33149396067E+02  0.10000000000E+01 0.  0.
    9000005    1    3    3    0    0 -0.28789241201E+02 -0.14468299175E+02  0.26386628854E+03  0.26582808414E+03  0.10000000000E+01 0.  0.
<mgrwt>
<rscale>  0 0.12499513E+03</rscale>
<asrwt>0</asrwt>
<pdfrwt beam="2">  1        4 0.21063578E-02 0.12499513E+03</pdfrwt>
<pdfrwt beam="1">  1       -4 0.43890173E-01 0.12499513E+03</pdfrwt>
<totfact> 0.75735478E+03</totfact>
</mgrwt>
</event>
<event>
 5    1  0.3232465E-002  0.1249985E+03  0.7818608E-02  0.1235072E+00
         -4   -1    0    0    0  501 -0.00000000000E+00  0.00000000000E+00  0.41340959509E+03  0.41341154581E+03  0.12700000000E+01 0.  1.
          4   -1    0    0  501    0  0.00000000000E+00 -0.00000000000E+00 -0.94039763290E+01  0.94893451194E+01  0.12700000000E+01 0.  1.
         25    2    1    2    0    0  0.00000000000E+00  0.00000000000E+00  0.40400561876E+03  0.42290089093E+03  0.12499849424E+03 0.  0.
    9000005    1    3    3    0    0 -0.26740966505E+02 -0.56251577611E+02  0.18480585090E+03  0.19502184954E+03  0.10000000000E+01 0.  0.
    9000005    1    3    3    0    0  0.26740966505E+02  0.56251577611E+02  0.21919976786E+03  0.22787904139E+03  0.10000000000E+01 0.  0.
<mgrwt>
<rscale>  0 0.12499849E+03</rscale>
<asrwt>0</asrwt>
<pdfrwt beam="2">  1        4 0.14534826E-02 0.12499849E+03</pdfrwt>
<pdfrwt beam="1">  1       -4 0.63608189E-01 0.12499849E+03</pdfrwt>
<totfact> 0.62386868E+03</totfact>
</mgrwt>
</event>
<event>
 5    1  0.3232465E-002  0.1249833E+03  0.7818608E-02  0.1235095E+00
         -4   -1    0    0    0  501 -0.00000000000E+00  0.00000000000E+00  0.65430557847E+03  0.65430681099E+03  0.12700000000E+01 0. -1.
          4   -1    0    0  501    0  0.00000000000E+00 -0.00000000000E+00 -0.58996655483E+01  0.60348118099E+01  0.12700000000E+01 0. -1.
         25    2    1    2    0    0  0.00000000000E+00  0.00000000000E+00  0.64840591292E+03  0.66034162280E+03  0.12498332248E+03 0.  0.
    9000005    1    3    3    0    0  0.14733763878E+01  0.19361181589E+02  0.63798675295E+03  0.63828294911E+03  0.10000000000E+01 0.  0.
    9000005    1    3    3    0    0 -0.14733763878E+01 -0.19361181589E+02  0.10419159969E+02  0.22058673690E+02  0.10000000000E+01 0.  0.
<mgrwt>
<rscale>  0 0.12498332E+03</rscale>
<asrwt>0</asrwt>
<pdfrwt beam="2">  1        4 0.91813152E-03 0.12498332E+03</pdfrwt>
<pdfrwt beam="1">  1       -4 0.10067289E+00 0.12498332E+03</pdfrwt>
<totfact> 0.45280886E+03</totfact>
</mgrwt>
</event>
<event>
 5    1  0.3232465E-002  0.1249985E+03  0.7818608E-02  0.1235072E+00
          4   -1    0    0  501    0  0.00000000000E+00  0.00000000000E+00  0.23565109638E+03  0.23565451858E+03  0.12700000000E+01 0.  1.
         -4   -1    0    0    0  501 -0.00000000000E+00 -0.00000000000E+00 -0.16548145138E+02  0.16596807148E+02  0.12700000000E+01 0.  1.
         25    2    1    2    0    0  0.00000000000E+00  0.00000000000E+00  0.21910295125E+03  0.25225132573E+03  0.12499851234E+03 0.  0.
    9000005    1    3    3    0    0 -0.42432821375E+02  0.11657290412E+02  0.19909220335E+03  0.20389983370E+03  0.10000000000E+01 0.  0.
    9000005    1    3    3    0    0  0.42432821375E+02 -0.11657290412E+02  0.20010747895E+02  0.48351492024E+02  0.10000000000E+01 0.  0.
<mgrwt>
<rscale>  0 0.12499851E+03</rscale>
<asrwt>0</asrwt>
<pdfrwt beam="1">  1        4 0.36258020E-01 0.12499851E+03</pdfrwt>
<pdfrwt beam="2">  1       -4 0.25498750E-02 0.12499851E+03</pdfrwt>
<totfact> 0.82008643E+03</totfact>
</mgrwt>
</event>
<event>
 5    1  0.3232465E-002  0.1249994E+03  0.7818608E-02  0.1235070E+00
          4   -1    0    0  501    0  0.00000000000E+00  0.00000000000E+00  0.25616251576E+02  0.25647714222E+02  0.12700000000E+01 0.  1.
         -4   -1    0    0    0  501 -0.00000000000E+00 -0.00000000000E+00 -0.15236200966E+03  0.15236730256E+03  0.12700000000E+01 0.  1.
         25    2    1    2    0    0  0.00000000000E+00  0.00000000000E+00 -0.12674575809E+03  0.17801501678E+03  0.12499943602E+03 0.  0.
    9000005    1    3    3    0    0  0.22926079981E+02  0.26703733968E+02 -0.13691243870E+03  0.14136728908E+03  0.10000000000E+01 0.  0.
    9000005    1    3    3    0    0 -0.22926079981E+02 -0.26703733968E+02  0.10166680609E+02  0.36647727702E+02  0.10000000000E+01 0.  0.
<mgrwt>
<rscale>  0 0.12499944E+03</rscale>
<asrwt>0</asrwt>
<pdfrwt beam="1">  1        4 0.39437892E-02 0.12499944E+03</pdfrwt>
<pdfrwt beam="2">  1       -4 0.23443136E-01 0.12499944E+03</pdfrwt>
<totfact> 0.93976721E+03</totfact>
</mgrwt>
</event>
<event>
 5    1  0.3232465E-002  0.1249954E+03  0.7818608E-02  0.1235077E+00
          4   -1    0    0  501    0  0.00000000000E+00  0.00000000000E+00  0.32337497404E+02  0.32362426336E+02  0.12700000000E+01 0. -1.
         -4   -1    0    0    0  501 -0.00000000000E+00 -0.00000000000E+00 -0.12071255950E+03  0.12071924007E+03  0.12700000000E+01 0. -1.
         25    2    1    2    0    0  0.00000000000E+00  0.00000000000E+00 -0.88375062100E+02  0.15308166640E+03  0.12499537986E+03 0.  0.
    9000005    1    3    3    0    0  0.29838773809E+02 -0.32597009006E+02  0.99220289836E+01  0.45303025039E+02  0.10000000000E+01 0.  0.
    9000005    1    3    3    0    0 -0.29838773809E+02  0.32597009006E+02 -0.98297091084E+02  0.10777864136E+03  0.10000000000E+01 0.  0.
<mgrwt>
<rscale>  0 0.12499538E+03</rscale>
<asrwt>0</asrwt>
<pdfrwt beam="1">  1        4 0.49774312E-02 0.12499538E+03</pdfrwt>
<pdfrwt beam="2">  1       -4 0.18573594E-01 0.12499538E+03</pdfrwt>
<totfact> 0.98703182E+03</totfact>
</mgrwt>
</event>
<event>
 5    1  0.3232465E-002  0.1250019E+03  0.7818608E-02  0.1235066E+00
         -4   -1    0    0    0  501 -0.00000000000E+00  0.00000000000E+00  0.59942264827E+02  0.59955717097E+02  0.12700000000E+01 0.  1.
          4   -1    0    0  501    0  0.00000000000E+00 -0.00000000000E+00 -0.65141865495E+02  0.65154244223E+02  0.12700000000E+01 0.  1.
         25    2    1    2    0    0  0.00000000000E+00  0.00000000000E+00 -0.51996006686E+01  0.12510996132E+03  0.12500186628E+03 0.  0.
    9000005    1    3    3    0    0 -0.24754367371E+02  0.18819944278E+02  0.51654063838E+02  0.60300176762E+02  0.10000000000E+01 0.  0.
    9000005    1    3    3    0    0  0.24754367371E+02 -0.18819944278E+02 -0.56853664506E+02  0.64809784557E+02  0.10000000000E+01 0.  0.
<mgrwt>
<rscale>  0 0.12500187E+03</rscale>
<asrwt>0</asrwt>
<pdfrwt beam="2">  1        4 0.10023813E-01 0.12500187E+03</pdfrwt>
<pdfrwt beam="1">  1       -4 0.92238738E-02 0.12500187E+03</pdfrwt>
<totfact> 0.10450034E+04</totfact>
</mgrwt>
</event>
<event>
 5    1  0.3232465E-002  0.1250008E+03  0.7818608E-02  0.1235068E+00
         -4   -1    0    0    0  501 -0.00000000000E+00  0.00000000000E+00  0.33504245399E+02  0.33528306843E+02  0.12700000000E+01 0. -1.
          4   -1    0    0  501    0  0.00000000000E+00 -0.00000000000E+00 -0.11652175494E+03  0.11652867576E+03  0.12700000000E+01 0. -1.
         25    2    1    2    0    0  0.00000000000E+00  0.00000000000E+00 -0.83017509544E+02  0.15005698261E+03  0.12500076455E+03 0.  0.
    9000005    1    3    3    0    0 -0.61513699663E+02 -0.10961220382E+02 -0.40185979234E+02  0.74296679101E+02  0.10000000000E+01 0.  0.
    9000005    1    3    3    0    0  0.61513699663E+02  0.10961220382E+02 -0.42831530310E+02  0.75760303505E+02  0.10000000000E+01 0.  0.
<mgrwt>
<rscale>  0 0.12500076E+03</rscale>
<asrwt>0</asrwt>
<pdfrwt beam="2">  1        4 0.17928807E-01 0.12500076E+03</pdfrwt>
<pdfrwt beam="1">  1       -4 0.51568826E-02 0.12500076E+03</pdfrwt>
<totfact> 0.99290632E+03</totfact>
</mgrwt>
</event>
<event>
 5    1  0.3232465E-002  0.1250083E+03  0.7818608E-02  0.1235056E+00
          4   -1    0    0  501    0  0.00000000000E+00  0.00000000000E+00  0.46600938799E+03  0.46601111853E+03  0.12700000000E+01 0. -1.
         -4   -1    0    0    0  501 -0.00000000000E+00 -0.00000000000E+00 -0.83336060734E+01  0.84298214801E+01  0.12700000000E+01 0. -1.
         25    2    1    2    0    0  0.00000000000E+00  0.00000000000E+00  0.45767578191E+03  0.47444094001E+03  0.12500833655E+03 0.  0.
    9000005    1    3    3    0    0  0.37288048532E+02  0.35197643726E+02  0.36443589998E+03  0.36802689831E+03  0.10000000000E+01 0.  0.
    9000005    1    3    3    0    0 -0.37288048532E+02 -0.35197643726E+02  0.93239881939E+02  0.10641404170E+03  0.10000000000E+01 0.  0.
<mgrwt>
<rscale>  0 0.12500834E+03</rscale>
<asrwt>0</asrwt>
<pdfrwt beam="1">  1        4 0.71701300E-01 0.12500834E+03</pdfrwt>
<pdfrwt beam="2">  1       -4 0.12896273E-02 0.12500834E+03</pdfrwt>
<totfact> 0.57892809E+03</totfact>
</mgrwt>
</event>
<event>
 5    1  0.3232465E-002  0.1249981E+03  0.7818608E-02  0.1235072E+00
          4   -1    0    0  501    0  0.00000000000E+00  0.00000000000E+00  0.93408235291E+02  0.93416868499E+02  0.12700000000E+01 0.  1.
         -4   -1    0    0    0  501 -0.00000000000E+00 -0.00000000000E+00 -0.41797656991E+02  0.41816946683E+02  0.12700000000E+01 0.  1.
         25    2    1    2    0    0  0.00000000000E+00  0.00000000000E+00  0.51610578300E+02  0.13523381518E+03  0.12499813189E+03 0.  0.
    9000005    1    3    3    0    0 -0.58338695349E+02  0.16002888062E+02  0.42761509886E+02  0.74088072786E+02  0.10000000000E+01 0.  0.
    9000005    1    3    3    0    0  0.58338695349E+02 -0.16002888062E+02  0.88490684136E+01  0.61145742396E+02  0.10000000000E+01 0.  0.
<mgrwt>
<rscale>  0 0.12499813E+03</rscale>
<asrwt>0</asrwt>
<pdfrwt beam="1">  1        4 0.14372645E-01 0.12499813E+03</pdfrwt>
<pdfrwt beam="2">  1       -4 0.64325568E-02 0.12499813E+03</pdfrwt>
<totfact> 0.10233576E+04</totfact>
</mgrwt>
</event>
<event>
 5    1  0.3232465E-002  0.1249989E+03  0.7818608E-02  0.1235071E+00
          4   -1    0    0  501    0  0.00000000000E+00  0.00000000000E+00  0.18948520393E+03  0.18948945988E+03  0.12700000000E+01 0.  1.
         -4   -1    0    0    0  501 -0.00000000000E+00 -0.00000000000E+00 -0.20590638511E+02  0.20629767189E+02  0.12700000000E+01 0.  1.
         25    2    1    2    0    0  0.00000000000E+00  0.00000000000E+00  0.16889456542E+03  0.21011922707E+03  0.12499886143E+03 0.  0.
    9000005    1    3    3    0    0 -0.32535763213E+02  0.22093569039E+02  0.16608212812E+03  0.17067798617E+03  0.10000000000E+01 0.  0.
    9000005    1    3    3    0    0  0.32535763213E+02 -0.22093569039E+02  0.28124372956E+01  0.39441240907E+02  0.10000000000E+01 0.  0.
<mgrwt>
<rscale>  0 0.12499886E+03</rscale>
<asrwt>0</asrwt>
<pdfrwt beam="1">  1        4 0.29154907E-01 0.12499886E+03</pdfrwt>
<pdfrwt beam="2">  1       -4 0.31711278E-02 0.12499886E+03</pdfrwt>
<totfact> 0.88458664E+03</totfact>
</mgrwt>
</event>
<event>
 5    1  0.3232465E-002  0.1250000E+03  0.7818608E-02  0.1235069E+00
          4   -1    0    0  501    0  0.00000000000E+00  0.00000000000E+00  0.35768975322E+02  0.35791514296E+02  0.12700000000E+01 0. -1.
         -4   -1    0    0    0  501 -0.00000000000E+00 -0.00000000000E+00 -0.10914720766E+03  0.10915459605E+03  0.12700000000E+01 0. -1.
         25    2    1    2    0    0  0.00000000000E+00  0.00000000000E+00 -0.73378232337E+02  0.14494611035E+03  0.12500003970E+03 0.  0.
    9000005    1    3    3    0    0  0.40786387599E+02  0.38369897214E+02 -0.68854845652E+02  0.88756792390E+02  0.10000000000E+01 0.  0.
    9000005    1    3    3    0    0 -0.40786387599E+02 -0.38369897214E+02 -0.45233866845E+01  0.56189317959E+02  0.10000000000E+01 0.  0.
<mgrwt>
<rscale>  0 0.12500004E+03</rscale>
<asrwt>0</asrwt>
<pdfrwt beam="1">  1        4 0.55052214E-02 0.12500004E+03</pdfrwt>
<pdfrwt beam="2">  1       -4 0.16794180E-01 0.12500004E+03</pdfrwt>
<totfact> 0.10032074E+04</totfact>
</mgrwt>
</event>
<event>
 5    1  0.3232465E-002  0.1250004E+03  0.7818608E-02  0.1235069E+00
          4   -1    0    0  501    0  0.00000000000E+00  0.00000000000E+00  0.21471541952E+02  0.21509068175E+02  0.12700000000E+01 0.  1.
         -4   -1    0    0    0  501 -0.00000000000E+00 -0.00000000000E+00 -0.18172955323E+03  0.18173399082E+03  0.12700000000E+01 0.  1.
         25    2    1    2    0    0  0.00000000000E+00  0.00000000000E+00 -0.16025801128E+03  0.20324305899E+03  0.12500044339E+03 0.  0.
    9000005    1    3    3    0    0 -0.19632838157E+02  0.55708764581E+02 -0.11330624115E+03  0.12778191996E+03  0.10000000000E+01 0.  0.
    9000005    1    3    3    0    0  0.19632838157E+02 -0.55708764581E+02 -0.46951770126E+02  0.75461139027E+02  0.10000000000E+01 0.  0.
<mgrwt>
<rscale>  0 0.12500044E+03</rscale>
<asrwt>0</asrwt>
<pdfrwt beam="1">  1        4 0.33065422E-02 0.12500044E+03</pdfrwt>
<pdfrwt beam="2">  1       -4 0.27961620E-01 0.12500044E+03</pdfrwt>
<totfact> 0.89590518E+03</totfact>
</mgrwt>
</event>
<event>
 5    1  0.3232465E-002  0.1250006E+03  0.7818608E-02  0.1235068E+00
          4   -1    0    0  501    0  0.00000000000E+00  0.00000000000E+00  0.66590556579E+02  0.66602666054E+02  0.12700000000E+01 0. -1.
         -4   -1    0    0    0  501 -0.00000000000E+00 -0.00000000000E+00 -0.58637010682E+02  0.58650762329E+02  0.12700000000E+01 0. -1.
         25    2    1    2    0    0  0.00000000000E+00  0.00000000000E+00  0.79535458969E+01  0.12525342838E+03  0.12500064972E+03 0.  0.
    9000005    1    3    3    0    0 -0.31406207909E+02 -0.87699654462E+01  0.57395257081E+02  0.66018767972E+02  0.10000000000E+01 0.  0.
    9000005    1    3    3    0    0  0.31406207909E+02  0.87699654462E+01 -0.49441711184E+02  0.59234660410E+02  0.10000000000E+01 0.  0.
<mgrwt>
<rscale>  0 0.12500065E+03</rscale>
<asrwt>0</asrwt>
<pdfrwt beam="1">  1        4 0.10246690E-01 0.12500065E+03</pdfrwt>
<pdfrwt beam="2">  1       -4 0.90230679E-02 0.12500065E+03</pdfrwt>
<totfact> 0.10447207E+04</totfact>
</mgrwt>
</event>
<event>
 5    1  0.3232465E-002  0.1250007E+03  0.7818608E-02  0.1235068E+00
         -4   -1    0    0    0  501 -0.00000000000E+00  0.00000000000E+00  0.47441920401E+03  0.47442090388E+03  0.12700000000E+01 0.  1.
          4   -1    0    0  501    0  0.00000000000E+00 -0.00000000000E+00 -0.81831508756E+01  0.82811145538E+01  0.12700000000E+01 0.  1.
         25    2    1    2    0    0  0.00000000000E+00  0.00000000000E+00  0.46623605314E+03  0.48270201843E+03  0.12500072541E+03 0.  0.
    9000005    1    3    3    0    0  0.46406958455E+02  0.21562273028E+02  0.37163883187E+03  0.37514658304E+03  0.10000000000E+01 0.  0.
    9000005    1    3    3    0    0 -0.46406958455E+02 -0.21562273028E+02  0.94597221263E+02  0.10755543539E+03  0.10000000000E+01 0.  0.
<mgrwt>
<rscale>  0 0.12500073E+03</rscale>
<asrwt>0</asrwt>
<pdfrwt beam="2">  1        4 0.12666124E-02 0.12500073E+03</pdfrwt>
<pdfrwt beam="1">  1       -4 0.72995255E-01 0.12500073E+03</pdfrwt>
<totfact> 0.57230982E+03</totfact>
</mgrwt>
</event>
<event>
 5    1  0.3232465E-002  0.1249998E+03  0.7818608E-02  0.1235070E+00
          4   -1    0    0  501    0  0.00000000000E+00  0.00000000000E+00  0.14201860183E+02  0.14258531925E+02  0.12700000000E+01 0. -1.
         -4   -1    0    0    0  501 -0.00000000000E+00 -0.00000000000E+00 -0.27444513157E+03  0.27444807003E+03  0.12700000000E+01 0. -1.
         25    2    1    2    0    0  0.00000000000E+00  0.00000000000E+00 -0.26024327139E+03  0.28870660196E+03  0.12499976684E+03 0.  0.
    9000005    1    3    3    0    0 -0.48470449694E+02 -0.24286550529E+02 -0.20190756250E+03  0.20906191624E+03  0.10000000000E+01 0.  0.
    9000005    1    3    3    0    0  0.48470449694E+02  0.24286550529E+02 -0.58335708892E+02  0.79644685711E+02  0.10000000000E+01 0.  0.
<mgrwt>
<rscale>  0 0.12499977E+03</rscale>
<asrwt>0</asrwt>
<pdfrwt beam="1">  1        4 0.21894872E-02 0.12499977E+03</pdfrwt>
<pdfrwt beam="2">  1       -4 0.42226909E-01 0.12499977E+03</pdfrwt>
<totfact> 0.77038057E+03</totfact>
</mgrwt>
</event>
<event>
 5    1  0.3232465E-002  0.1249996E+03  0.7818608E-02  0.1235070E+00
          4   -1    0    0  501    0  0.00000000000E+00  0.00000000000E+00  0.61546462390E+03  0.61546593421E+03  0.12700000000E+01 0. -1.
         -4   -1    0    0    0  501 -0.00000000000E+00 -0.00000000000E+00 -0.62819251638E+01  0.64090158187E+01  0.12700000000E+01 0. -1.
         25    2    1    2    0    0  0.00000000000E+00  0.00000000000E+00  0.60918269874E+03  0.62187495003E+03  0.12499957213E+03 0.  0.
    9000005    1    3    3    0    0 -0.11330649554E+02  0.16540140119E+02  0.59905448534E+03  0.59939072086E+03  0.10000000000E+01 0.  0.
    9000005    1    3    3    0    0  0.11330649554E+02 -0.16540140119E+02  0.10128213399E+02  0.22484229165E+02  0.10000000000E+01 0.  0.
<mgrwt>
<rscale>  0 0.12499957E+03</rscale>
<asrwt>0</asrwt>
<pdfrwt beam="1">  1        4 0.94696773E-01 0.12499957E+03</pdfrwt>
<pdfrwt beam="2">  1       -4 0.97632671E-03 0.12499957E+03</pdfrwt>
<totfact> 0.47515719E+03</totfact>
</mgrwt>
</event>
<event>
 5    1  0.3232465E-002  0.1250034E+03  0.7818608E-02  0.1235064E+00
         -4   -1    0    0    0  501 -0.00000000000E+00  0.00000000000E+00  0.19104619239E+02  0.19146785011E+02  0.12700000000E+01 0. -1.
          4   -1    0    0  501    0  0.00000000000E+00 -0.00000000000E+00 -0.20420778034E+03  0.20421172947E+03  0.12700000000E+01 0. -1.
         25    2    1    2    0    0  0.00000000000E+00  0.00000000000E+00 -0.18510316110E+03  0.22335851448E+03  0.12500338291E+03 0.  0.
    9000005    1    3    3    0    0  0.26498414488E+02  0.55349940103E+02 -0.11366931041E+03  0.12918008348E+03  0.10000000000E+01 0.  0.
    9000005    1    3    3    0    0 -0.26498414488E+02 -0.55349940103E+02 -0.71433850691E+02  0.94178430993E+02  0.10000000000E+01 0.  0.
<mgrwt>
<rscale>  0 0.12500338E+03</rscale>
<asrwt>0</asrwt>
<pdfrwt beam="2">  1        4 0.31420127E-01 0.12500338E+03</pdfrwt>
<pdfrwt beam="1">  1       -4 0.29427196E-02 0.12500338E+03</pdfrwt>
<totfact> 0.86333162E+03</totfact>
</mgrwt>
</event>
<event>
 5    1  0.3232465E-002  0.1250009E+03  0.7818608E-02  0.1235068E+00
          4   -1    0    0  501    0  0.00000000000E+00  0.00000000000E+00  0.39599944357E+02  0.39620304051E+02  0.12700000000E+01 0.  1.
         -4   -1    0    0    0  501 -0.00000000000E+00 -0.00000000000E+00 -0.98594404190E+02  0.98602583321E+02  0.12700000000E+01 0.  1.
         25    2    1    2    0    0  0.00000000000E+00  0.00000000000E+00 -0.58994459833E+02  0.13822288737E+03  0.12500088121E+03 0.  0.
    9000005    1    3    3    0    0 -0.42987404229E+02  0.45277123179E+02 -0.32499215361E+02  0.70392711304E+02  0.10000000000E+01 0.  0.
    9000005    1    3    3    0    0  0.42987404229E+02 -0.45277123179E+02 -0.26495244473E+02  0.67830176067E+02  0.10000000000E+01 0.  0.
<mgrwt>
<rscale>  0 0.12500088E+03</rscale>
<asrwt>0</asrwt>
<pdfrwt beam="1">  1        4 0.60944945E-02 0.12500088E+03</pdfrwt>
<pdfrwt beam="2">  1       -4 0.15170565E-01 0.12500088E+03</pdfrwt>
<totfact> 0.10170349E+04</totfact>
</mgrwt>
</event>
<event>
 5    1  0.3232465E-002  0.1250046E+03  0.7818608E-02  0.1235062E+00
         -4   -1    0    0    0  501 -0.00000000000E+00  0.00000000000E+00  0.11973618229E+02  0.12040782096E+02  0.12700000000E+01 0. -1.
          4   -1    0    0  501    0  0.00000000000E+00 -0.00000000000E+00 -0.32528104676E+03  0.32528352599E+03  0.12700000000E+01 0. -1.
         25    2    1    2    0    0  0.00000000000E+00  0.00000000000E+00 -0.31330742853E+03  0.33732430809E+03  0.12500457613E+03 0.  0.
    9000005    1    3    3    0    0 -0.36045379468E+02  0.87179806557E+01 -0.20914729366E+02  0.42587538931E+02  0.10000000000E+01 0.  0.
    9000005    1    3    3    0    0  0.36045379468E+02 -0.87179806557E+01 -0.29239269917E+03  0.29473676916E+03  0.10000000000E+01 0.  0.
<mgrwt>
<rscale>  0 0.12500458E+03</rscale>
<asrwt>0</asrwt>
<pdfrwt beam="2">  1        4 0.50048589E-01 0.12500458E+03</pdfrwt>
<pdfrwt beam="1">  1       -4 0.18474525E-02 0.12500458E+03</pdfrwt>
<totfact> 0.71134717E+03</totfact>
</mgrwt>
</event>
<event>
 5    1  0.3232465E-002  0.1249895E+03  0.7818608E-02  0.1235086E+00
         -4   -1    0    0    0  501 -0.00000000000E+00  0.00000000000E+00  0.14870647848E+03  0.14871190148E+03  0.12700000000E+01 0.  1.
          4   -1    0    0  501    0  0.00000000000E+00 -0.00000000000E+00 -0.26242516211E+02  0.26273228905E+02  0.12700000000E+01 0.  1.
         25    2    1    2    0    0  0.00000000000E+00  0.00000000000E+00  0.12246396227E+03  0.17498513039E+03  0.12498949476E+03 0.  0.
    9000005    1    3    3    0    0  0.19832776129E+02  0.12106297703E+02  0.14244025708E+03  0.14432646428E+03  0.10000000000E+01 0.  0.
    9000005    1    3    3    0    0 -0.19832776129E+02 -0.12106297703E+02 -0.19976294814E+02  0.30658666108E+02  0.10000000000E+01 0.  0.
<mgrwt>
<rscale>  0 0.12498949E+03</rscale>
<asrwt>0</asrwt>
<pdfrwt beam="2">  1        4 0.40400899E-02 0.12498949E+03</pdfrwt>
<pdfrwt beam="1">  1       -4 0.22880699E-01 0.12498949E+03</pdfrwt>
<totfact> 0.94549845E+03</totfact>
</mgrwt>
</event>
<event>
 5    1  0.3232465E-002  0.1250005E+03  0.7818608E-02  0.1235068E+00
          4   -1    0    0  501    0  0.00000000000E+00  0.00000000000E+00  0.19974318210E+02  0.20014651832E+02  0.12700000000E+01 0.  1.
         -4   -1    0    0    0  501 -0.00000000000E+00 -0.00000000000E+00 -0.19532557358E+03  0.19532970228E+03  0.12700000000E+01 0.  1.
         25    2    1    2    0    0  0.00000000000E+00  0.00000000000E+00 -0.17535125537E+03  0.21534435411E+03  0.12500051236E+03 0.  0.
    9000005    1    3    3    0    0 -0.13073347574E+02 -0.17571852690E+02  0.13154425521E+02  0.25567974784E+02  0.10000000000E+01 0.  0.
    9000005    1    3    3    0    0  0.13073347574E+02  0.17571852690E+02 -0.18850568089E+03  0.18977637933E+03  0.10000000000E+01 0.  0.
<mgrwt>
<rscale>  0 0.12500051E+03</rscale>
<asrwt>0</asrwt>
<pdfrwt beam="1">  1        4 0.30763923E-02 0.12500051E+03</pdfrwt>
<pdfrwt beam="2">  1       -4 0.30053507E-01 0.12500051E+03</pdfrwt>
<totfact> 0.87609446E+03</totfact>
</mgrwt>
</event>
<event>
 5    1  0.3232465E-002  0.1249955E+03  0.7818608E-02  0.1235076E+00
         -4   -1    0    0    0  501 -0.00000000000E+00  0.00000000000E+00  0.22253213150E+03  0.22253575544E+03  0.12700000000E+01 0.  1.
          4   -1    0    0  501    0  0.00000000000E+00 -0.00000000000E+00 -0.17525642228E+02  0.17571597409E+02  0.12700000000E+01 0.  1.
         25    2    1    2    0    0  0.00000000000E+00  0.00000000000E+00  0.20500648927E+03  0.24010735285E+03  0.12499552092E+03 0.  0.
    9000005    1    3    3    0    0  0.19907339462E+02  0.35201146359E+02  0.10990702911E+02  0.41919189162E+02  0.10000000000E+01 0.  0.
    9000005    1    3    3    0    0 -0.19907339462E+02 -0.35201146359E+02  0.19401578636E+03  0.19818816369E+03  0.10000000000E+01 0.  0.
<mgrwt>
<rscale>  0 0.12499552E+03</rscale>
<asrwt>0</asrwt>
<pdfrwt beam="2">  1        4 0.27000663E-02 0.12499552E+03</pdfrwt>
<pdfrwt beam="1">  1       -4 0.34239528E-01 0.12499552E+03</pdfrwt>
<totfact> 0.83789746E+03</totfact>
</mgrwt>
</event>
<event>
 5    1  0.3232465E-002  0.1249987E+03  0.7818608E-02  0.1235071E+00
          4   -1    0    0  501    0  0.00000000000E+00  0.00000000000E+00  0.30459881578E+03  0.30460146334E+03  0.12700000000E+01 0. -1.
         -4   -1    0    0    0  501 -0.00000000000E+00 -0.00000000000E+00 -0.12789817290E+02  0.12852716690E+02  0.12700000000E+01 0. -1.
         25    2    1    2    0    0  0.00000000000E+00  0.00000000000E+00  0.29180899849E+03  0.31745418003E+03  0.12499865929E+03 0.  0.
    9000005    1    3    3    0    0 -0.19045673080E+02  0.30598167367E+02  0.16252876464E+02  0.39549228851E+02  0.10000000000E+01 0.  0.
    9000005    1    3    3    0    0  0.19045673080E+02 -0.30598167367E+02  0.27555612202E+03  0.27790495118E+03  0.10000000000E+01 0.  0.
<mgrwt>
<rscale>  0 0.12499866E+03</rscale>
<asrwt>0</asrwt>
<pdfrwt beam="1">  1        4 0.46866398E-01 0.12499866E+03</pdfrwt>
<pdfrwt beam="2">  1       -4 0.19727063E-02 0.12499866E+03</pdfrwt>
<totfact> 0.73462125E+03</totfact>
</mgrwt>
</event>
<event>
 5    1  0.3232465E-002  0.1249987E+03  0.7818608E-02  0.1235071E+00
         -4   -1    0    0    0  501 -0.00000000000E+00  0.00000000000E+00  0.56802378268E+03  0.56802520242E+03  0.12700000000E+01 0. -1.
          4   -1    0    0  501    0  0.00000000000E+00 -0.00000000000E+00 -0.68166880266E+01  0.69339841110E+01  0.12700000000E+01 0. -1.
         25    2    1    2    0    0  0.00000000000E+00  0.00000000000E+00  0.56120709465E+03  0.57495918653E+03  0.12499865236E+03 0.  0.
    9000005    1    3    3    0    0  0.23294213500E+02  0.39726892266E+02  0.47490139416E+03  0.47713015052E+03  0.10000000000E+01 0.  0.
    9000005    1    3    3    0    0 -0.23294213500E+02 -0.39726892266E+02  0.86305700484E+02  0.97829036016E+02  0.10000000000E+01 0.  0.
<mgrwt>
<rscale>  0 0.12499865E+03</rscale>
<asrwt>0</asrwt>
<pdfrwt beam="2">  1        4 0.10578533E-02 0.12499865E+03</pdfrwt>
<pdfrwt beam="1">  1       -4 0.87397397E-01 0.12499865E+03</pdfrwt>
<totfact> 0.50488891E+03</totfact>
</mgrwt>
</event>
<event>
 5    1  0.3232465E-002  0.1249981E+03  0.7818608E-02  0.1235072E+00
         -4   -1    0    0    0  501 -0.00000000000E+00  0.00000000000E+00  0.71184640009E+02  0.71195968097E+02  0.12700000000E+01 0. -1.
          4   -1    0    0  501    0  0.00000000000E+00 -0.00000000000E+00 -0.54850208838E+02  0.54864909638E+02  0.12700000000E+01 0. -1.
         25    2    1    2    0    0  0.00000000000E+00  0.00000000000E+00  0.16334431171E+02  0.12606087773E+03  0.12499812500E+03 0.  0.
    9000005    1    3    3    0    0 -0.26994550533E+02 -0.39103116129E+01 -0.48534794393E+02  0.55683234121E+02  0.10000000000E+01 0.  0.
    9000005    1    3    3    0    0  0.26994550533E+02  0.39103116129E+01  0.64869225564E+02  0.70377643614E+02  0.10000000000E+01 0.  0.
<mgrwt>
<rscale>  0 0.12499813E+03</rscale>
<asrwt>0</asrwt>
<pdfrwt beam="2">  1        4 0.84404959E-02 0.12499813E+03</pdfrwt>
<pdfrwt beam="1">  1       -4 0.10953485E-01 0.12499813E+03</pdfrwt>
<totfact> 0.10430065E+04</totfact>
</mgrwt>
</event>
<event>
 5    1  0.3232465E-002  0.1250012E+03  0.7818608E-02  0.1235067E+00
          4   -1    0    0  501    0  0.00000000000E+00  0.00000000000E+00  0.25876933175E+03  0.25877244821E+03  0.12700000000E+01 0.  1.
         -4   -1    0    0    0  501 -0.00000000000E+00 -0.00000000000E+00 -0.15065854745E+02  0.15119288317E+02  0.12700000000E+01 0.  1.
         25    2    1    2    0    0  0.00000000000E+00  0.00000000000E+00  0.24370347700E+03  0.27389173653E+03  0.12500119453E+03 0.  0.
    9000005    1    3    3    0    0  0.42033466713E+02 -0.28623200898E+02  0.20143544358E+03  0.20775788284E+03  0.10000000000E+01 0.  0.
    9000005    1    3    3    0    0 -0.42033466713E+02  0.28623200898E+02  0.42268033421E+02  0.66133853682E+02  0.10000000000E+01 0.  0.
<mgrwt>
<rscale>  0 0.12500119E+03</rscale>
<asrwt>0</asrwt>
<pdfrwt beam="1">  1        4 0.39815010E-01 0.12500119E+03</pdfrwt>
<pdfrwt beam="2">  1       -4 0.23221742E-02 0.12500119E+03</pdfrwt>
<totfact> 0.78992956E+03</totfact>
</mgrwt>
</event>
<event>
 5    1  0.3232465E-002  0.1249997E+03  0.7818608E-02  0.1235070E+00
          4   -1    0    0  501    0  0.00000000000E+00  0.00000000000E+00  0.60801266547E+02  0.60814528804E+02  0.12700000000E+01 0. -1.
         -4   -1    0    0    0  501 -0.00000000000E+00 -0.00000000000E+00 -0.64219337621E+02  0.64231894138E+02  0.12700000000E+01 0. -1.
         25    2    1    2    0    0  0.00000000000E+00  0.00000000000E+00 -0.34180710746E+01  0.12504642294E+03  0.12499969872E+03 0.  0.
    9000005    1    3    3    0    0  0.89101436022E+01 -0.46126494969E+01 -0.63413239274E+02  0.64209859909E+02  0.10000000000E+01 0.  0.
    9000005    1    3    3    0    0 -0.89101436022E+01  0.46126494969E+01  0.59995168199E+02  0.60836563033E+02  0.10000000000E+01 0.  0.
<mgrwt>
<rscale>  0 0.12499970E+03</rscale>
<asrwt>0</asrwt>
<pdfrwt beam="1">  1        4 0.93560270E-02 0.12499970E+03</pdfrwt>
<pdfrwt beam="2">  1       -4 0.98818843E-02 0.12499970E+03</pdfrwt>
<totfact> 0.10451926E+04</totfact>
</mgrwt>
</event>
<event>
 5    1  0.3232465E-002  0.1250059E+03  0.7818608E-02  0.1235060E+00
         -4   -1    0    0    0  501 -0.00000000000E+00  0.00000000000E+00  0.20706068029E+03  0.20706457501E+03  0.12700000000E+01 0. -1.
          4   -1    0    0  501    0  0.00000000000E+00 -0.00000000000E+00 -0.18841578567E+02  0.18884331677E+02  0.12700000000E+01 0. -1.
         25    2    1    2    0    0  0.00000000000E+00  0.00000000000E+00  0.18821910173E+03  0.22594890669E+03  0.12500591257E+03 0.  0.
    9000005    1    3    3    0    0  0.20820563419E+02  0.47761210574E+02  0.15648789306E+03  0.16493662350E+03  0.10000000000E+01 0.  0.
    9000005    1    3    3    0    0 -0.20820563419E+02 -0.47761210574E+02  0.31731208668E+02  0.61012283190E+02  0.10000000000E+01 0.  0.
<mgrwt>
<rscale>  0 0.12500591E+03</rscale>
<asrwt>0</asrwt>
<pdfrwt beam="2">  1        4 0.29022927E-02 0.12500591E+03</pdfrwt>
<pdfrwt beam="1">  1       -4 0.31859078E-01 0.12500591E+03</pdfrwt>
<totfact> 0.85924212E+03</totfact>
</mgrwt>
</event>
<event>
 5    1  0.3232465E-002  0.1250057E+03  0.7818608E-02  0.1235060E+00
          4   -1    0    0  501    0  0.00000000000E+00  0.00000000000E+00  0.57739292022E+01  0.59119504761E+01  0.12700000000E+01 0. -1.
         -4   -1    0    0    0  501 -0.00000000000E+00 -0.00000000000E+00 -0.66846425081E+03  0.66846545723E+03  0.12700000000E+01 0. -1.
         25    2    1    2    0    0  0.00000000000E+00  0.00000000000E+00 -0.66269032161E+03  0.67437740771E+03  0.12500570256E+03 0.  0.
    9000005    1    3    3    0    0 -0.32984283742E+02 -0.20569832807E+02 -0.67357934193E+02  0.77776425056E+02  0.10000000000E+01 0.  0.
    9000005    1    3    3    0    0  0.32984283742E+02  0.20569832807E+02 -0.59533238741E+03  0.59660098265E+03  0.10000000000E+01 0.  0.
<mgrwt>
<rscale>  0 0.12500570E+03</rscale>
<asrwt>0</asrwt>
<pdfrwt beam="1">  1        4 0.89900715E-03 0.12500570E+03</pdfrwt>
<pdfrwt beam="2">  1       -4 0.10285130E+00 0.12500570E+03</pdfrwt>
<totfact> 0.44468698E+03</totfact>
</mgrwt>
</event>
<event>
 5    1  0.3232465E-002  0.1250001E+03  0.7818608E-02  0.1235069E+00
         -4   -1    0    0    0  501 -0.00000000000E+00  0.00000000000E+00  0.24397535902E+03  0.24397866445E+03  0.12700000000E+01 0. -1.
          4   -1    0    0  501    0  0.00000000000E+00 -0.00000000000E+00 -0.15982253185E+02  0.16032632874E+02  0.12700000000E+01 0. -1.
         25    2    1    2    0    0  0.00000000000E+00  0.00000000000E+00  0.22799310583E+03  0.26001129733E+03  0.12500007372E+03 0.  0.
    9000005    1    3    3    0    0  0.27759640236E+02  0.34137363584E+02  0.20630418313E+03  0.21094637517E+03  0.10000000000E+01 0.  0.
    9000005    1    3    3    0    0 -0.27759640236E+02 -0.34137363584E+02  0.21688922702E+02  0.49064922159E+02  0.10000000000E+01 0.  0.
<mgrwt>
<rscale>  0 0.12500007E+03</rscale>
<asrwt>0</asrwt>
<pdfrwt beam="2">  1        4 0.24629380E-02 0.12500007E+03</pdfrwt>
<pdfrwt beam="1">  1       -4 0.37538798E-01 0.12500007E+03</pdfrwt>
<totfact> 0.80904343E+03</totfact>
</mgrwt>
</event>
<event>
 5    1  0.3232465E-002  0.1249885E+03  0.7818608E-02  0.1235087E+00
          4   -1    0    0  501    0  0.00000000000E+00  0.00000000000E+00  0.12405079233E+03  0.12405729313E+03  0.12700000000E+01 0.  1.
         -4   -1    0    0    0  501 -0.00000000000E+00 -0.00000000000E+00 -0.31463209800E+02  0.31488830891E+02  0.12700000000E+01 0.  1.
         25    2    1    2    0    0  0.00000000000E+00  0.00000000000E+00  0.92587582533E+02  0.15554612402E+03  0.12498854451E+03 0.  0.
    9000005    1    3    3    0    0 -0.37949798240E+02 -0.39490951122E+02  0.83727949914E+02  0.10005544465E+03  0.10000000000E+01 0.  0.
    9000005    1    3    3    0    0  0.37949798240E+02  0.39490951122E+02  0.88596326192E+01  0.55490679372E+02  0.10000000000E+01 0.  0.
<mgrwt>
<rscale>  0 0.12498854E+03</rscale>
<asrwt>0</asrwt>
<pdfrwt beam="1">  1        4 0.19087208E-01 0.12498854E+03</pdfrwt>
<pdfrwt beam="2">  1       -4 0.48429648E-02 0.12498854E+03</pdfrwt>
<totfact> 0.98233699E+03</totfact>
</mgrwt>
</event>
<event>
 5    1  0.3232465E-002  0.1249997E+03  0.7818608E-02  0.1235070E+00
          4   -1    0    0  501    0  0.00000000000E+00  0.00000000000E+00  0.37921423307E+03  0.37921635970E+03  0.12700000000E+01 0.  1.
         -4   -1    0    0    0  501 -0.00000000000E+00 -0.00000000000E+00 -0.10259545708E+02  0.10337851717E+02  0.12700000000E+01 0.  1.
         25    2    1    2    0    0  0.00000000000E+00  0.00000000000E+00  0.36895468736E+03  0.38955421141E+03  0.12499968922E+03 0.  0.
    9000005    1    3    3    0    0 -0.21693694949E+02  0.56730583170E+02  0.23030653128E+03  0.23818285794E+03  0.10000000000E+01 0.  0.
    9000005    1    3    3    0    0  0.21693694949E+02 -0.56730583170E+02  0.13864815608E+03  0.15137135347E+03  0.10000000000E+01 0.  0.
<mgrwt>
<rscale>  0 0.12499969E+03</rscale>
<asrwt>0</asrwt>
<pdfrwt beam="1">  1        4 0.58346826E-01 0.12499969E+03</pdfrwt>
<pdfrwt beam="2">  1       -4 0.15845791E-02 0.12499969E+03</pdfrwt>
<totfact> 0.65582029E+03</totfact>
</mgrwt>
</event>
<event>
 5    1  0.3232465E-002  0.1250009E+03  0.7818608E-02  0.1235068E+00
         -4   -1    0    0    0  501 -0.00000000000E+00  0.00000000000E+00  0.19949135849E+02  0.19989520282E+02  0.12700000000E+01 0.  1.
          4   -1    0    0  501    0  0.00000000000E+00 -0.00000000000E+00 -0.19557283123E+03  0.19557695472E+03  0.12700000000E+01 0.  1.
         25    2    1    2    0    0  0.00000000000E+00  0.00000000000E+00 -0.17562369539E+03  0.21556647500E+03  0.12500089105E+03 0.  0.
    9000005    1    3    3    0    0 -0.76321577842E+01  0.47819726882E+02 -0.15593210536E+03  0.16328134490E+03  0.10000000000E+01 0.  0.
    9000005    1    3    3    0    0  0.76321577842E+01 -0.47819726882E+02 -0.19691590026E+02  0.52285130097E+02  0.10000000000E+01 0.  0.
<mgrwt>
<rscale>  0 0.12500089E+03</rscale>
<asrwt>0</asrwt>
<pdfrwt beam="2">  1        4 0.30091550E-01 0.12500089E+03</pdfrwt>
<pdfrwt beam="1">  1       -4 0.30725216E-02 0.12500089E+03</pdfrwt>
<totfact> 0.87573052E+03</totfact>
</mgrwt>
</event>
<event>
 5    1  0.3232465E-002  0.1249997E+03  0.7818608E-02  0.1235070E+00
         -4   -1    0    0    0  501 -0.00000000000E+00  0.00000000000E+00  0.36606305110E+02  0.36628328842E+02  0.12700000000E+01 0. -1.
          4   -1    0    0  501    0  0.00000000000E+00 -0.00000000000E+00 -0.10665128285E+03  0.10665884414E+03  0.12700000000E+01 0. -1.
         25    2    1    2    0    0  0.00000000000E+00  0.00000000000E+00 -0.70044977739E+02  0.14328717298E+03  0.12499966014E+03 0.  0.
    9000005    1    3    3    0    0  0.46179180045E+02 -0.28649876070E+02  0.34411763806E+00  0.54354857054E+02  0.10000000000E+01 0.  0.
    9000005    1    3    3    0    0 -0.46179180045E+02  0.28649876070E+02 -0.70389095377E+02  0.88932315929E+02  0.10000000000E+01 0.  0.
<mgrwt>
<rscale>  0 0.12499966E+03</rscale>
<asrwt>0</asrwt>
<pdfrwt beam="2">  1        4 0.16410165E-01 0.12499966E+03</pdfrwt>
<pdfrwt beam="1">  1       -4 0.56340150E-02 0.12499966E+03</pdfrwt>
<totfact> 0.10065983E+04</totfact>
</mgrwt>
</event>
<event>
 5    1  0.3232465E-002  0.1250029E+03  0.7818608E-02  0.1235065E+00
          4   -1    0    0  501    0  0.00000000000E+00  0.00000000000E+00  0.24228507096E+03  0.24228839946E+03  0.12700000000E+01 0. -1.
         -4   -1    0    0    0  501 -0.00000000000E+00 -0.00000000000E+00 -0.16094820674E+02  0.16144849102E+02  0.12700000000E+01 0. -1.
         25    2    1    2    0    0  0.00000000000E+00  0.00000000000E+00  0.22619025029E+03  0.25843324856E+03  0.12500285851E+03 0.  0.
    9000005    1    3    3    0    0  0.39335165332E+02 -0.71265531536E+01  0.13786141387E+02  0.42297762185E+02  0.10000000000E+01 0.  0.
    9000005    1    3    3    0    0 -0.39335165332E+02  0.71265531536E+01  0.21240410890E+03  0.21613548637E+03  0.10000000000E+01 0.  0.
<mgrwt>
<rscale>  0 0.12500286E+03</rscale>
<asrwt>0</asrwt>
<pdfrwt beam="1">  1        4 0.37278731E-01 0.12500286E+03</pdfrwt>
<pdfrwt beam="2">  1       -4 0.24802306E-02 0.12500286E+03</pdfrwt>
<totfact> 0.81121272E+03</totfact>
</mgrwt>
</event>
<event>
 5    1  0.3232465E-002  0.1250009E+03  0.7818608E-02  0.1235068E+00
          4   -1    0    0  501    0  0.00000000000E+00  0.00000000000E+00  0.27972081560E+02  0.28000897250E+02  0.12700000000E+01 0.  1.
         -4   -1    0    0    0  501 -0.00000000000E+00 -0.00000000000E+00 -0.13954649156E+03  0.13955227052E+03  0.12700000000E+01 0.  1.
         25    2    1    2    0    0  0.00000000000E+00  0.00000000000E+00 -0.11157441000E+03  0.16755316777E+03  0.12500086025E+03 0.  0.
    9000005    1    3    3    0    0  0.28930511327E+01  0.36267188503E+02  0.12318928479E+02  0.38424402476E+02  0.10000000000E+01 0.  0.
    9000005    1    3    3    0    0 -0.28930511327E+01 -0.36267188503E+02 -0.12389333848E+03  0.12912876530E+03  0.10000000000E+01 0.  0.
<mgrwt>
<rscale>  0 0.12500086E+03</rscale>
<asrwt>0</asrwt>
<pdfrwt beam="1">  1        4 0.43060584E-02 0.12500086E+03</pdfrwt>
<pdfrwt beam="2">  1       -4 0.21471352E-01 0.12500086E+03</pdfrwt>
<totfact> 0.95904183E+03</totfact>
</mgrwt>
</event>
<event>
 5    1  0.3232465E-002  0.1250018E+03  0.7818608E-02  0.1235066E+00
          4   -1    0    0  501    0  0.00000000000E+00  0.00000000000E+00  0.12120115501E+02  0.12186471998E+02  0.12700000000E+01 0. -1.
         -4   -1    0    0    0  501 -0.00000000000E+00 -0.00000000000E+00 -0.32135671887E+03  0.32135922837E+03  0.12700000000E+01 0. -1.
         25    2    1    2    0    0  0.00000000000E+00  0.00000000000E+00 -0.30923660337E+03  0.33354570037E+03  0.12500182948E+03 0.  0.
    9000005    1    3    3    0    0 -0.33493711718E+02  0.90564896431E+01 -0.15929077597E+02  0.38191415821E+02  0.10000000000E+01 0.  0.
    9000005    1    3    3    0    0  0.33493711718E+02 -0.90564896431E+01 -0.29330752577E+03  0.29535428455E+03  0.10000000000E+01 0.  0.
<mgrwt>
<rscale>  0 0.12500183E+03</rscale>
<asrwt>0</asrwt>
<pdfrwt beam="1">  1        4 0.18699308E-02 0.12500183E+03</pdfrwt>
<pdfrwt beam="2">  1       -4 0.49444786E-01 0.12500183E+03</pdfrwt>
<totfact> 0.71570591E+03</totfact>
</mgrwt>
</event>
<event>
 5    1  0.3232465E-002  0.1250006E+03  0.7818608E-02  0.1235068E+00
         -4   -1    0    0    0  501 -0.00000000000E+00  0.00000000000E+00  0.96306288879E+01  0.97140060107E+01  0.12700000000E+01 0.  1.
          4   -1    0    0  501    0  0.00000000000E+00 -0.00000000000E+00 -0.40377847650E+03  0.40378047376E+03  0.12700000000E+01 0.  1.
         25    2    1    2    0    0  0.00000000000E+00  0.00000000000E+00 -0.39414784762E+03  0.41349447977E+03  0.12500063607E+03 0.  0.
    9000005    1    3    3    0    0  0.39215732710E+02  0.12079868042E+02 -0.41161776464E+02  0.58129929861E+02  0.10000000000E+01 0.  0.
    9000005    1    3    3    0    0 -0.39215732710E+02 -0.12079868042E+02 -0.35298607115E+03  0.35536454991E+03  0.10000000000E+01 0.  0.
<mgrwt>
<rscale>  0 0.12500064E+03</rscale>
<asrwt>0</asrwt>
<pdfrwt beam="2">  1        4 0.62126320E-01 0.12500064E+03</pdfrwt>
<pdfrwt beam="1">  1       -4 0.14882028E-02 0.12500064E+03</pdfrwt>
<totfact> 0.63260275E+03</totfact>
</mgrwt>
</event>
<event>
 5    1  0.3232465E-002  0.1250004E+03  0.7818608E-02  0.1235069E+00
          4   -1    0    0  501    0  0.00000000000E+00  0.00000000000E+00  0.20180637500E+02  0.20220559585E+02  0.12700000000E+01 0. -1.
         -4   -1    0    0    0  501 -0.00000000000E+00 -0.00000000000E+00 -0.19333227820E+03  0.19333644947E+03  0.12700000000E+01 0. -1.
         25    2    1    2    0    0  0.00000000000E+00  0.00000000000E+00 -0.17315164070E+03  0.21355700905E+03  0.12500042176E+03 0.  0.
    9000005    1    3    3    0    0  0.34204140172E+02 -0.52017069933E+02 -0.95867275775E+02  0.11431199996E+03  0.10000000000E+01 0.  0.
    9000005    1    3    3    0    0 -0.34204140172E+02  0.52017069933E+02 -0.77284364923E+02  0.99245009098E+02  0.10000000000E+01 0.  0.
<mgrwt>
<rscale>  0 0.12500042E+03</rscale>
<asrwt>0</asrwt>
<pdfrwt beam="1">  1        4 0.31081054E-02 0.12500042E+03</pdfrwt>
<pdfrwt beam="2">  1       -4 0.29746818E-01 0.12500042E+03</pdfrwt>
<totfact> 0.87897422E+03</totfact>
</mgrwt>
</event>
<event>
 5    1  0.3232465E-002  0.1249999E+03  0.7818608E-02  0.1235069E+00
         -4   -1    0    0    0  501 -0.00000000000E+00  0.00000000000E+00  0.77988797266E+01  0.79016090127E+01  0.12700000000E+01 0.  1.
          4   -1    0    0  501    0  0.00000000000E+00 -0.00000000000E+00 -0.49749158019E+03  0.49749320122E+03  0.12700000000E+01 0.  1.
         25    2    1    2    0    0  0.00000000000E+00  0.00000000000E+00 -0.48969270046E+03  0.50539481023E+03  0.12499989329E+03 0.  0.
    9000005    1    3    3    0    0 -0.48986471188E+02 -0.34938248301E+02 -0.31308933976E+03  0.31882015342E+03  0.10000000000E+01 0.  0.
    9000005    1    3    3    0    0  0.48986471188E+02  0.34938248301E+02 -0.17660336070E+03  0.18657465681E+03  0.10000000000E+01 0.  0.
<mgrwt>
<rscale>  0 0.12499989E+03</rscale>
<asrwt>0</asrwt>
<pdfrwt beam="2">  1        4 0.76545169E-01 0.12499989E+03</pdfrwt>
<pdfrwt beam="1">  1       -4 0.12078550E-02 0.12499989E+03</pdfrwt>
<totfact> 0.55448352E+03</totfact>
</mgrwt>
</event>
<event>
 5    1  0.3232465E-002  0.1249988E+03  0.7818608E-02  0.1235071E+00
          4   -1    0    0  501    0  0.00000000000E+00  0.00000000000E+00  0.34564207805E+03  0.34564441123E+03  0.12700000000E+01 0. -1.
         -4   -1    0    0    0  501 -0.00000000000E+00 -0.00000000000E+00 -0.11263157557E+02  0.11334532110E+02  0.12700000000E+01 0. -1.
         25    2    1    2    0    0  0.00000000000E+00  0.00000000000E+00  0.33437892049E+03  0.35697894334E+03  0.12499881408E+03 0.  0.
    9000005    1    3    3    0    0  0.48826157268E+02 -0.28913886503E+02  0.92435244269E+02  0.10846787934E+03  0.10000000000E+01 0.  0.
    9000005    1    3    3    0    0 -0.48826157268E+02  0.28913886503E+02  0.24194367622E+03  0.24851106400E+03  0.10000000000E+01 0.  0.
<mgrwt>
<rscale>  0 0.12499881E+03</rscale>
<asrwt>0</asrwt>
<pdfrwt beam="1">  1        4 0.53181373E-01 0.12499881E+03</pdfrwt>
<pdfrwt beam="2">  1       -4 0.17384633E-02 0.12499881E+03</pdfrwt>
<totfact> 0.68965358E+03</totfact>
</mgrwt>
</event>
<event>
 5    1  0.3232465E-002  0.1250007E+03  0.7818608E-02  0.1235068E+00
          4   -1    0    0  501    0  0.00000000000E+00  0.00000000000E+00  0.12330389740E+02  0.12395620643E+02  0.12700000000E+01 0.  1.
         -4   -1    0    0    0  501 -0.00000000000E+00 -0.00000000000E+00 -0.31589983175E+03  0.31590238461E+03  0.12700000000E+01 0.  1.
         25    2    1    2    0    0  0.00000000000E+00  0.00000000000E+00 -0.30356944201E+03  0.32829800525E+03  0.12500069651E+03 0.  0.
    9000005    1    3    3    0    0 -0.65637944830E+01  0.11326245002E+01  0.11408315305E+02  0.13248241180E+02  0.10000000000E+01 0.  0.
    9000005    1    3    3    0    0  0.65637944830E+01 -0.11326245002E+01 -0.31497775732E+03  0.31504976407E+03  0.10000000000E+01 0.  0.
<mgrwt>
<rscale>  0 0.12500070E+03</rscale>
<asrwt>0</asrwt>
<pdfrwt beam="1">  1        4 0.19021974E-02 0.12500070E+03</pdfrwt>
<pdfrwt beam="2">  1       -4 0.48605182E-01 0.12500070E+03</pdfrwt>
<totfact> 0.72178826E+03</totfact>
</mgrwt>
</event>
<event>
 5    1  0.3232465E-002  0.1249947E+03  0.7818608E-02  0.1235078E+00
          4   -1    0    0  501    0  0.00000000000E+00  0.00000000000E+00  0.39260914572E+02  0.39281449987E+02  0.12700000000E+01 0.  1.
         -4   -1    0    0    0  501 -0.00000000000E+00 -0.00000000000E+00 -0.99435582402E+02  0.99443692347E+02  0.12700000000E+01 0.  1.
         25    2    1    2    0    0  0.00000000000E+00  0.00000000000E+00 -0.60174667830E+02  0.13872514233E+03  0.12499469776E+03 0.  0.
    9000005    1    3    3    0    0 -0.20584376050E+02  0.13764413607E+02  0.33588779635E+02  0.41741846350E+02  0.10000000000E+01 0.  0.
    9000005    1    3    3    0    0  0.20584376050E+02 -0.13764413607E+02 -0.93763447465E+02  0.96983295984E+02  0.10000000000E+01 0.  0.
<mgrwt>
<rscale>  0 0.12499470E+03</rscale>
<asrwt>0</asrwt>
<pdfrwt beam="1">  1        4 0.60423442E-02 0.12499470E+03</pdfrwt>
<pdfrwt beam="2">  1       -4 0.15299985E-01 0.12499470E+03</pdfrwt>
<totfact> 0.10161290E+04</totfact>
</mgrwt>
</event>
<event>
 5    1  0.3232465E-002  0.1250001E+03  0.7818608E-02  0.1235069E+00
          4   -1    0    0  501    0  0.00000000000E+00  0.00000000000E+00  0.12783263308E+02  0.12846194798E+02  0.12700000000E+01 0. -1.
         -4   -1    0    0    0  501 -0.00000000000E+00 -0.00000000000E+00 -0.30476135909E+03  0.30476400524E+03  0.12700000000E+01 0. -1.
         25    2    1    2    0    0  0.00000000000E+00  0.00000000000E+00 -0.29197809578E+03  0.31761020004E+03  0.12500012302E+03 0.  0.
    9000005    1    3    3    0    0  0.51433204283E+02  0.14033109963E+02 -0.22882930587E+03  0.23495989850E+03  0.10000000000E+01 0.  0.
    9000005    1    3    3    0    0 -0.51433204283E+02 -0.14033109963E+02 -0.63148789910E+02  0.82650301543E+02  0.10000000000E+01 0.  0.
<mgrwt>
<rscale>  0 0.12500012E+03</rscale>
<asrwt>0</asrwt>
<pdfrwt beam="1">  1        4 0.19717006E-02 0.12500012E+03</pdfrwt>
<pdfrwt beam="2">  1       -4 0.46891402E-01 0.12500012E+03</pdfrwt>
<totfact> 0.73441067E+03</totfact>
</mgrwt>
</event>
<event>
 5    1  0.3232465E-002  0.1250043E+03  0.7818608E-02  0.1235063E+00
          4   -1    0    0  501    0  0.00000000000E+00  0.00000000000E+00  0.22123122888E+03  0.22123487414E+03  0.12700000000E+01 0. -1.
         -4   -1    0    0    0  501 -0.00000000000E+00 -0.00000000000E+00 -0.17631451954E+02  0.17677132064E+02  0.12700000000E+01 0. -1.
         25    2    1    2    0    0  0.00000000000E+00  0.00000000000E+00  0.20359977693E+03  0.23891200620E+03  0.12500431009E+03 0.  0.
    9000005    1    3    3    0    0  0.39493631637E+01 -0.59455004049E+02  0.13781146167E+03  0.15014490981E+03  0.10000000000E+01 0.  0.
    9000005    1    3    3    0    0 -0.39493631637E+01  0.59455004049E+02  0.65788315264E+02  0.88767096388E+02  0.10000000000E+01 0.  0.
<mgrwt>
<rscale>  0 0.12500431E+03</rscale>
<asrwt>0</asrwt>
<pdfrwt beam="1">  1        4 0.34039366E-01 0.12500431E+03</pdfrwt>
<pdfrwt beam="2">  1       -4 0.27163255E-02 0.12500431E+03</pdfrwt>
<totfact> 0.83951606E+03</totfact>
</mgrwt>
</event>
<event>
 5    1  0.3232465E-002  0.1249999E+03  0.7818608E-02  0.1235069E+00
         -4   -1    0    0    0  501 -0.00000000000E+00  0.00000000000E+00  0.16169846485E+02  0.16219643503E+02  0.12700000000E+01 0.  1.
          4   -1    0    0  501    0  0.00000000000E+00 -0.00000000000E+00 -0.24115306915E+03  0.24115641327E+03  0.12700000000E+01 0.  1.
         25    2    1    2    0    0  0.00000000000E+00  0.00000000000E+00 -0.22498322267E+03  0.25737605677E+03  0.12499993647E+03 0.  0.
    9000005    1    3    3    0    0 -0.30472368722E+02 -0.30818933758E+02 -0.20518990430E+03  0.20971950019E+03  0.10000000000E+01 0.  0.
    9000005    1    3    3    0    0  0.30472368722E+02  0.30818933758E+02 -0.19793318370E+02  0.47656556585E+02  0.10000000000E+01 0.  0.
<mgrwt>
<rscale>  0 0.12499994E+03</rscale>
<asrwt>0</asrwt>
<pdfrwt beam="2">  1        4 0.37104557E-01 0.12499994E+03</pdfrwt>
<pdfrwt beam="1">  1       -4 0.24917567E-02 0.12499994E+03</pdfrwt>
<totfact> 0.81275826E+03</totfact>
</mgrwt>
</event>
<event>
 5    1  0.3232465E-002  0.1250008E+03  0.7818608E-02  0.1235068E+00
         -4   -1    0    0    0  501 -0.00000000000E+00  0.00000000000E+00  0.16706613351E+03  0.16707096057E+03  0.12700000000E+01 0.  1.
          4   -1    0    0  501    0  0.00000000000E+00 -0.00000000000E+00 -0.23359346541E+02  0.23393844721E+02  0.12700000000E+01 0.  1.
         25    2    1    2    0    0  0.00000000000E+00  0.00000000000E+00  0.14370678697E+03  0.19046480529E+03  0.12500080573E+03 0.  0.
    9000005    1    3    3    0    0 -0.38234758047E+02  0.19974899346E+02  0.29587261112E+01  0.43250981342E+02  0.10000000000E+01 0.  0.
    9000005    1    3    3    0    0  0.38234758047E+02 -0.19974899346E+02  0.14074806086E+03  0.14721382395E+03  0.10000000000E+01 0.  0.
<mgrwt>
<rscale>  0 0.12500081E+03</rscale>
<asrwt>0</asrwt>
<pdfrwt beam="2">  1        4 0.35967705E-02 0.12500081E+03</pdfrwt>
<pdfrwt beam="1">  1       -4 0.25705508E-01 0.12500081E+03</pdfrwt>
<totfact> 0.91764845E+03</totfact>
</mgrwt>
</event>
<event>
 5    1  0.3232465E-002  0.1250006E+03  0.7818608E-02  0.1235068E+00
          4   -1    0    0  501    0  0.00000000000E+00  0.00000000000E+00  0.69202476357E+02  0.69214128860E+02  0.12700000000E+01 0. -1.
         -4   -1    0    0    0  501 -0.00000000000E+00 -0.00000000000E+00 -0.56423712730E+02  0.56438003670E+02  0.12700000000E+01 0. -1.
         25    2    1    2    0    0  0.00000000000E+00  0.00000000000E+00  0.12778763627E+02  0.12565213253E+03  0.12500064644E+03 0.  0.
    9000005    1    3    3    0    0 -0.24168573373E+02  0.36916070895E+02 -0.38094783016E+02  0.58302047324E+02  0.10000000000E+01 0.  0.
    9000005    1    3    3    0    0  0.24168573373E+02 -0.36916070895E+02  0.50873546643E+02  0.67350085206E+02  0.10000000000E+01 0.  0.
<mgrwt>
<rscale>  0 0.12500065E+03</rscale>
<asrwt>0</asrwt>
<pdfrwt beam="1">  1        4 0.10648530E-01 0.12500065E+03</pdfrwt>
<pdfrwt beam="2">  1       -4 0.86825668E-02 0.12500065E+03</pdfrwt>
<totfact> 0.10438446E+04</totfact>
</mgrwt>
</event>
<event>
 5    1  0.3232465E-002  0.1250011E+03  0.7818608E-02  0.1235068E+00
          4   -1    0    0  501    0  0.00000000000E+00  0.00000000000E+00  0.83954670603E+01  0.84909815193E+01  0.12700000000E+01 0. -1.
         -4   -1    0    0    0  501 -0.00000000000E+00 -0.00000000000E+00 -0.46256090510E+03  0.46256264855E+03  0.12700000000E+01 0. -1.
         25    2    1    2    0    0  0.00000000000E+00  0.00000000000E+00 -0.45416543804E+03  0.47105363007E+03  0.12500110914E+03 0.  0.
    9000005    1    3    3    0    0  0.39600228405E+02  0.20584041489E+02 -0.62242289014E+02  0.76596236171E+02  0.10000000000E+01 0.  0.
    9000005    1    3    3    0    0 -0.39600228405E+02 -0.20584041489E+02 -0.39192314903E+03  0.39445739390E+03  0.10000000000E+01 0.  0.
<mgrwt>
<rscale>  0 0.12500111E+03</rscale>
<asrwt>0</asrwt>
<pdfrwt beam="1">  1        4 0.12990921E-02 0.12500111E+03</pdfrwt>
<pdfrwt beam="2">  1       -4 0.71170678E-01 0.12500111E+03</pdfrwt>
<totfact> 0.58180929E+03</totfact>
</mgrwt>
</event>
<event>
 5    1  0.3232465E-002  0.1249974E+03  0.7818608E-02  0.1235073E+00
         -4   -1    0    0    0  501 -0.00000000000E+00  0.00000000000E+00  0.92733882906E+03  0.92733969870E+03  0.12700000000E+01 0.  1.
          4   -1    0    0  501    0  0.00000000000E+00 -0.00000000000E+00 -0.41155265828E+01  0.43070243851E+01  0.12700000000E+01 0.  1.
         25    2    1    2    0    0  0.00000000000E+00  0.00000000000E+00  0.92322330248E+03  0.93164672308E+03  0.12499740156E+03 0.  0.
    9000005    1    3    3    0    0  0.16975952231E+02  0.22855118233E+02  0.46992935016E+02  0.54953392297E+02  0.10000000000E+01 0.  0.
    9000005    1    3    3    0    0 -0.16975952231E+02 -0.22855118233E+02  0.87623036746E+03  0.87669333079E+03  0.10000000000E+01 0.  0.
<mgrwt>
<rscale>  0 0.12499740E+03</rscale>
<asrwt>0</asrwt>
<pdfrwt beam="2">  1        4 0.64795544E-03 0.12499740E+03</pdfrwt>
<pdfrwt beam="1">  1       -4 0.14268231E+00 0.12499740E+03</pdfrwt>
<totfact> 0.32978548E+03</totfact>
</mgrwt>
</event>
<event>
 4    1  0.3232465E-002  0.1249310E+03  0.7818608E-02  0.1235177E+00
          4   -1    0    0  501    0  0.00000000000E+00  0.00000000000E+00  0.12091195907E+03  0.12091862861E+03  0.12700000000E+01 0.  1.
         -4   -1    0    0    0  501 -0.00000000000E+00 -0.00000000000E+00 -0.32250830818E+02  0.32275826689E+02  0.12700000000E+01 0.  1.
    9000005    1    1    2    0    0 -0.44763278486E+02  0.38550594934E+02  0.19469863475E+02  0.62209123562E+02  0.10000000000E+01 0.  0.
    9000005    1    1    2    0    0  0.44763278486E+02 -0.38550594934E+02  0.69191264774E+02  0.90985331739E+02  0.10000000000E+01 0.  0.
<mgrwt>
<rscale>  0 0.12493096E+03</rscale>
<asrwt>0</asrwt>
<pdfrwt beam="1">  1        4 0.18604275E-01 0.12493096E+03</pdfrwt>
<pdfrwt beam="2">  1       -4 0.49641022E-02 0.12493096E+03</pdfrwt>
<totfact> 0.98824109E+03</totfact>
</mgrwt>
</event>
<event>
 5    1  0.3232465E-002  0.1249971E+03  0.7818608E-02  0.1235074E+00
         -4   -1    0    0    0  501 -0.00000000000E+00  0.00000000000E+00  0.15449276267E+03  0.15449798257E+03  0.12700000000E+01 0.  1.
          4   -1    0    0  501    0  0.00000000000E+00 -0.00000000000E+00 -0.25261570389E+02  0.25293474228E+02  0.12700000000E+01 0.  1.
         25    2    1    2    0    0  0.00000000000E+00  0.00000000000E+00  0.12923119228E+03  0.17979145680E+03  0.12499706748E+03 0.  0.
    9000005    1    3    3    0    0 -0.38761227882E+02 -0.10135337146E+02 -0.43646185242E+01  0.40313865367E+02  0.10000000000E+01 0.  0.
    9000005    1    3    3    0    0  0.38761227882E+02  0.10135337146E+02  0.13359581081E+03  0.13947759143E+03  0.10000000000E+01 0.  0.
<mgrwt>
<rscale>  0 0.12499707E+03</rscale>
<asrwt>0</asrwt>
<pdfrwt beam="2">  1        4 0.38892511E-02 0.12499707E+03</pdfrwt>
<pdfrwt beam="1">  1       -4 0.23770973E-01 0.12499707E+03</pdfrwt>
<totfact> 0.93660713E+03</totfact>
</mgrwt>
</event>
<event>
 5    1  0.3232465E-002  0.1250015E+03  0.7818608E-02  0.1235067E+00
          4   -1    0    0  501    0  0.00000000000E+00  0.00000000000E+00  0.24901047909E+02  0.24933413063E+02  0.12700000000E+01 0.  1.
         -4   -1    0    0    0  501 -0.00000000000E+00 -0.00000000000E+00 -0.15673789539E+03  0.15674304052E+03  0.12700000000E+01 0.  1.
         25    2    1    2    0    0  0.00000000000E+00  0.00000000000E+00 -0.13183684748E+03  0.18167645358E+03  0.12500151772E+03 0.  0.
    9000005    1    3    3    0    0 -0.97585035961E+01 -0.21981651301E+02 -0.14974944618E+03  0.15167174430E+03  0.10000000000E+01 0.  0.
    9000005    1    3    3    0    0  0.97585035961E+01  0.21981651301E+02  0.17912598708E+02  0.30004709278E+02  0.10000000000E+01 0.  0.
<mgrwt>
<rscale>  0 0.12500152E+03</rscale>
<asrwt>0</asrwt>
<pdfrwt beam="1">  1        4 0.38338159E-02 0.12500152E+03</pdfrwt>
<pdfrwt beam="2">  1       -4 0.24116407E-01 0.12500152E+03</pdfrwt>
<totfact> 0.93312929E+03</totfact>
</mgrwt>
</event>
<event>
 5    1  0.3232465E-002  0.1250014E+03  0.7818608E-02  0.1235067E+00
         -4   -1    0    0    0  501 -0.00000000000E+00  0.00000000000E+00  0.70213326396E+01  0.71352653795E+01  0.12700000000E+01 0. -1.
          4   -1    0    0  501    0  0.00000000000E+00 -0.00000000000E+00 -0.55176041725E+03  0.55176187885E+03  0.12700000000E+01 0. -1.
         25    2    1    2    0    0  0.00000000000E+00  0.00000000000E+00 -0.54473908461E+03  0.55889714423E+03  0.12500139006E+03 0.  0.
    9000005    1    3    3    0    0  0.56289112156E+02 -0.23980127658E+02 -0.21549191398E+03  0.22401177572E+03  0.10000000000E+01 0.  0.
    9000005    1    3    3    0    0 -0.56289112156E+02  0.23980127658E+02 -0.32924717063E+03  0.33488536851E+03  0.10000000000E+01 0.  0.
<mgrwt>
<rscale>  0 0.12500139E+03</rscale>
<asrwt>0</asrwt>
<pdfrwt beam="2">  1        4 0.84895061E-01 0.12500139E+03</pdfrwt>
<pdfrwt beam="1">  1       -4 0.10890819E-02 0.12500139E+03</pdfrwt>
<totfact> 0.51567809E+03</totfact>
</mgrwt>
</event>
<event>
 5    1  0.3232465E-002  0.1249973E+03  0.7818608E-02  0.1235073E+00
          4   -1    0    0  501    0  0.00000000000E+00  0.00000000000E+00  0.19645845385E+03  0.19646255874E+03  0.12700000000E+01 0. -1.
         -4   -1    0    0    0  501 -0.00000000000E+00 -0.00000000000E+00 -0.19857891245E+02  0.19898460863E+02  0.12700000000E+01 0. -1.
         25    2    1    2    0    0  0.00000000000E+00  0.00000000000E+00  0.17660056260E+03  0.21636101961E+03  0.12499732835E+03 0.  0.
    9000005    1    3    3    0    0 -0.17767138795E+01  0.62349811996E+02  0.94874893594E+02  0.11354691190E+03  0.10000000000E+01 0.  0.
    9000005    1    3    3    0    0  0.17767138795E+01 -0.62349811996E+02  0.81725669009E+02  0.10281410770E+03  0.10000000000E+01 0.  0.
<mgrwt>
<rscale>  0 0.12499733E+03</rscale>
<asrwt>0</asrwt>
<pdfrwt beam="1">  1        4 0.30227815E-01 0.12499733E+03</pdfrwt>
<pdfrwt beam="2">  1       -4 0.30584966E-02 0.12499733E+03</pdfrwt>
<totfact> 0.87452685E+03</totfact>
</mgrwt>
</event>
<event>
 5    1  0.3232465E-002  0.1249985E+03  0.7818608E-02  0.1235072E+00
          4   -1    0    0  501    0  0.00000000000E+00  0.00000000000E+00  0.18084802114E+02  0.18129339963E+02  0.12700000000E+01 0. -1.
         -4   -1    0    0    0  501 -0.00000000000E+00 -0.00000000000E+00 -0.21567897094E+03  0.21568271003E+03  0.12700000000E+01 0. -1.
         25    2    1    2    0    0  0.00000000000E+00  0.00000000000E+00 -0.19759416883E+03  0.23381205000E+03  0.12499847666E+03 0.  0.
    9000005    1    3    3    0    0 -0.43142107196E+02  0.31120987262E+02 -0.37456672685E+02  0.65067346574E+02  0.10000000000E+01 0.  0.
    9000005    1    3    3    0    0  0.43142107196E+02 -0.31120987262E+02 -0.16013749614E+03  0.16874470342E+03  0.10000000000E+01 0.  0.
<mgrwt>
<rscale>  0 0.12499848E+03</rscale>
<asrwt>0</asrwt>
<pdfrwt beam="1">  1        4 0.27859910E-02 0.12499848E+03</pdfrwt>
<pdfrwt beam="2">  1       -4 0.33185092E-01 0.12499848E+03</pdfrwt>
<totfact> 0.84730550E+03</totfact>
</mgrwt>
</event>
<event>
 5    1  0.3232465E-002  0.1249954E+03  0.7818608E-02  0.1235076E+00
         -4   -1    0    0    0  501 -0.00000000000E+00  0.00000000000E+00  0.95226429968E+01  0.96069573562E+01  0.12700000000E+01 0.  1.
          4   -1    0    0  501    0  0.00000000000E+00 -0.00000000000E+00 -0.40828327705E+03  0.40828525227E+03  0.12700000000E+01 0.  1.
         25    2    1    2    0    0  0.00000000000E+00  0.00000000000E+00 -0.39876063406E+03  0.41789220963E+03  0.12499542229E+03 0.  0.
    9000005    1    3    3    0    0  0.43921700266E+02 -0.30484032505E+02 -0.91223299424E+02  0.10574063717E+03  0.10000000000E+01 0.  0.
    9000005    1    3    3    0    0 -0.43921700266E+02  0.30484032505E+02 -0.30753733463E+03  0.31215157245E+03  0.10000000000E+01 0.  0.
<mgrwt>
<rscale>  0 0.12499542E+03</rscale>
<asrwt>0</asrwt>
<pdfrwt beam="2">  1        4 0.62819436E-01 0.12499542E+03</pdfrwt>
<pdfrwt beam="1">  1       -4 0.14716600E-02 0.12499542E+03</pdfrwt>
<totfact> 0.62855389E+03</totfact>
</mgrwt>
</event>
<event>
 5    1  0.3232465E-002  0.1249815E+03  0.7818608E-02  0.1235098E+00
         -4   -1    0    0    0  501 -0.00000000000E+00  0.00000000000E+00  0.29344689830E+03  0.29344964648E+03  0.12700000000E+01 0.  1.
          4   -1    0    0  501    0  0.00000000000E+00 -0.00000000000E+00 -0.13274557365E+02  0.13335170536E+02  0.12700000000E+01 0.  1.
         25    2    1    2    0    0  0.00000000000E+00  0.00000000000E+00  0.28017234093E+03  0.30678481702E+03  0.12498153195E+03 0.  0.
    9000005    1    3    3    0    0 -0.13406175660E+02 -0.23026187807E+01 -0.96080702519E+01  0.16683603119E+02  0.10000000000E+01 0.  0.
    9000005    1    3    3    0    0  0.13406175660E+02  0.23026187807E+01  0.28978041118E+03  0.29010121390E+03  0.10000000000E+01 0.  0.
<mgrwt>
<rscale>  0 0.12498153E+03</rscale>
<asrwt>0</asrwt>
<pdfrwt beam="2">  1        4 0.20471138E-02 0.12498153E+03</pdfrwt>
<pdfrwt beam="1">  1       -4 0.45150545E-01 0.12498153E+03</pdfrwt>
<totfact> 0.74786215E+03</totfact>
</mgrwt>
</event>
<event>
 5    1  0.3232465E-002  0.1249978E+03  0.7818608E-02  0.1235073E+00
          4   -1    0    0  501    0  0.00000000000E+00  0.00000000000E+00  0.33443485500E+01  0.35773687570E+01  0.12700000000E+01 0.  1.
         -4   -1    0    0    0  501 -0.00000000000E+00 -0.00000000000E+00 -0.11284202152E+04  0.11284209299E+04  0.12700000000E+01 0.  1.
         25    2    1    2    0    0  0.00000000000E+00  0.00000000000E+00 -0.11250758667E+04  0.11319982986E+04  0.12499776950E+03 0.  0.
    9000005    1    3    3    0    0  0.17569604429E+02 -0.20124932888E+02 -0.50933163326E+02  0.57522961067E+02  0.10000000000E+01 0.  0.
    9000005    1    3    3    0    0 -0.17569604429E+02  0.20124932888E+02 -0.10741427033E+04  0.10744753376E+04  0.10000000000E+01 0.  0.
<mgrwt>
<rscale>  0 0.12499777E+03</rscale>
<asrwt>0</asrwt>
<pdfrwt beam="1">  1        4 0.53249567E-03 0.12499777E+03</pdfrwt>
<pdfrwt beam="2">  1       -4 0.17362080E+00 0.12499777E+03</pdfrwt>
<totfact> 0.26566384E+03</totfact>
</mgrwt>
</event>
<event>
 5    1  0.3232465E-002  0.1249917E+03  0.7818608E-02  0.1235082E+00
         -4   -1    0    0    0  501 -0.00000000000E+00  0.00000000000E+00  0.38083656839E+03  0.38083868596E+03  0.12700000000E+01 0.  1.
          4   -1    0    0  501    0  0.00000000000E+00 -0.00000000000E+00 -0.10214182433E+02  0.10292833564E+02  0.12700000000E+01 0.  1.
         25    2    1    2    0    0  0.00000000000E+00  0.00000000000E+00  0.37062238596E+03  0.39113151953E+03  0.12499165009E+03 0.  0.
    9000005    1    3    3    0    0  0.14780176756E+02 -0.60668922598E+02  0.19268746234E+03  0.20255525157E+03  0.10000000000E+01 0.  0.
    9000005    1    3    3    0    0 -0.14780176756E+02  0.60668922598E+02  0.17793492362E+03  0.18857626796E+03  0.10000000000E+01 0.  0.
<mgrwt>
<rscale>  0 0.12499165E+03</rscale>
<asrwt>0</asrwt>
<pdfrwt beam="2">  1        4 0.15776260E-02 0.12499165E+03</pdfrwt>
<pdfrwt beam="1">  1       -4 0.58596442E-01 0.12499165E+03</pdfrwt>
<totfact> 0.65436636E+03</totfact>
</mgrwt>
</event>
<event>
 5    1  0.3232465E-002  0.1250008E+03  0.7818608E-02  0.1235068E+00
          4   -1    0    0  501    0  0.00000000000E+00  0.00000000000E+00  0.15214452045E+02  0.15267365556E+02  0.12700000000E+01 0.  1.
         -4   -1    0    0    0  501 -0.00000000000E+00 -0.00000000000E+00 -0.25624908429E+03  0.25625223141E+03  0.12700000000E+01 0.  1.
         25    2    1    2    0    0  0.00000000000E+00  0.00000000000E+00 -0.24103463225E+03  0.27151959696E+03  0.12500079037E+03 0.  0.
    9000005    1    3    3    0    0  0.18773087602E+02  0.22482818984E+02 -0.60806662255E+00  0.29313404999E+02  0.10000000000E+01 0.  0.
    9000005    1    3    3    0    0 -0.18773087602E+02 -0.22482818984E+02 -0.24042656562E+03  0.24220619196E+03  0.10000000000E+01 0.  0.
<mgrwt>
<rscale>  0 0.12500079E+03</rscale>
<asrwt>0</asrwt>
<pdfrwt beam="1">  1        4 0.23449975E-02 0.12500079E+03</pdfrwt>
<pdfrwt beam="2">  1       -4 0.39427245E-01 0.12500079E+03</pdfrwt>
<totfact> 0.79314751E+03</totfact>
</mgrwt>
</event>
<event>
 5    1  0.3232465E-002  0.1250045E+03  0.7818608E-02  0.1235062E+00
         -4   -1    0    0    0  501 -0.00000000000E+00  0.00000000000E+00  0.14977524489E+03  0.14978062919E+03  0.12700000000E+01 0. -1.
          4   -1    0    0  501    0  0.00000000000E+00 -0.00000000000E+00 -0.26061317791E+02  0.26092243771E+02  0.12700000000E+01 0. -1.
         25    2    1    2    0    0  0.00000000000E+00  0.00000000000E+00  0.12371392709E+03  0.17587287296E+03  0.12500452666E+03 0.  0.
    9000005    1    3    3    0    0 -0.61087712093E+02  0.30864742981E+01  0.79890848517E+02  0.10062197856E+03  0.10000000000E+01 0.  0.
    9000005    1    3    3    0    0  0.61087712093E+02 -0.30864742981E+01  0.43823078577E+02  0.75250894402E+02  0.10000000000E+01 0.  0.
<mgrwt>
<rscale>  0 0.12500453E+03</rscale>
<asrwt>0</asrwt>
<pdfrwt beam="2">  1        4 0.40122266E-02 0.12500453E+03</pdfrwt>
<pdfrwt beam="1">  1       -4 0.23045139E-01 0.12500453E+03</pdfrwt>
<totfact> 0.94355637E+03</totfact>
</mgrwt>
</event>
<event>
 5    1  0.3232465E-002  0.1250029E+03  0.7818608E-02  0.1235065E+00
          4   -1    0    0  501    0  0.00000000000E+00  0.00000000000E+00  0.29695267406E+03  0.29695538980E+03  0.12700000000E+01 0.  1.
         -4   -1    0    0    0  501 -0.00000000000E+00 -0.00000000000E+00 -0.13121623010E+02  0.13182939369E+02  0.12700000000E+01 0.  1.
         25    2    1    2    0    0  0.00000000000E+00  0.00000000000E+00  0.28383105105E+03  0.31013832917E+03  0.12500287069E+03 0.  0.
    9000005    1    3    3    0    0 -0.41007397150E+02 -0.41358419882E+02  0.85704340669E+02  0.10362605621E+03  0.10000000000E+01 0.  0.
    9000005    1    3    3    0    0  0.41007397150E+02  0.41358419882E+02  0.19812671038E+03  0.20651227296E+03  0.10000000000E+01 0.  0.
<mgrwt>
<rscale>  0 0.12500287E+03</rscale>
<asrwt>0</asrwt>
<pdfrwt beam="1">  1        4 0.45689951E-01 0.12500287E+03</pdfrwt>
<pdfrwt beam="2">  1       -4 0.20236368E-02 0.12500287E+03</pdfrwt>
<totfact> 0.74339717E+03</totfact>
</mgrwt>
</event>
<event>
 5    1  0.3232465E-002  0.1250011E+03  0.7818608E-02  0.1235068E+00
          4   -1    0    0  501    0  0.00000000000E+00  0.00000000000E+00  0.46655770341E+03  0.46655943191E+03  0.12700000000E+01 0.  1.
         -4   -1    0    0    0  501 -0.00000000000E+00 -0.00000000000E+00 -0.83227270501E+01  0.84190667862E+01  0.12700000000E+01 0.  1.
         25    2    1    2    0    0  0.00000000000E+00  0.00000000000E+00  0.45823497636E+03  0.47497849870E+03  0.12500112268E+03 0.  0.
    9000005    1    3    3    0    0  0.21482690825E+01 -0.62372672871E+02  0.21689018689E+03  0.22569297408E+03  0.10000000000E+01 0.  0.
    9000005    1    3    3    0    0 -0.21482690825E+01  0.62372672871E+02  0.24134478947E+03  0.24928552462E+03  0.10000000000E+01 0.  0.
<mgrwt>
<rscale>  0 0.12500112E+03</rscale>
<asrwt>0</asrwt>
<pdfrwt beam="1">  1        4 0.71785655E-01 0.12500112E+03</pdfrwt>
<pdfrwt beam="2">  1       -4 0.12879632E-02 0.12500112E+03</pdfrwt>
<totfact> 0.57857938E+03</totfact>
</mgrwt>
</event>
<event>
 5    1  0.3232465E-002  0.1249988E+03  0.7818608E-02  0.1235071E+00
          4   -1    0    0  501    0  0.00000000000E+00  0.00000000000E+00  0.50456396233E+02  0.50472376809E+02  0.12700000000E+01 0.  1.
         -4   -1    0    0    0  501 -0.00000000000E+00 -0.00000000000E+00 -0.77383447398E+02  0.77393868176E+02  0.12700000000E+01 0.  1.
         25    2    1    2    0    0  0.00000000000E+00  0.00000000000E+00 -0.26927051165E+02  0.12786624499E+03  0.12499884208E+03 0.  0.
    9000005    1    3    3    0    0 -0.39240113461E+02 -0.41769185215E+02  0.12022375452E+02  0.58566106661E+02  0.10000000000E+01 0.  0.
    9000005    1    3    3    0    0  0.39240113461E+02  0.41769185215E+02 -0.38949426617E+02  0.69300138324E+02  0.10000000000E+01 0.  0.
<mgrwt>
<rscale>  0 0.12499884E+03</rscale>
<asrwt>0</asrwt>
<pdfrwt beam="1">  1        4 0.77645534E-02 0.12499884E+03</pdfrwt>
<pdfrwt beam="2">  1       -4 0.11907177E-01 0.12499884E+03</pdfrwt>
<totfact> 0.10390649E+04</totfact>
</mgrwt>
</event>
<event>
 5    1  0.3232465E-002  0.1250012E+03  0.7818608E-02  0.1235067E+00
         -4   -1    0    0    0  501 -0.00000000000E+00  0.00000000000E+00  0.15245053004E+03  0.15245581986E+03  0.12700000000E+01 0. -1.
          4   -1    0    0  501    0  0.00000000000E+00 -0.00000000000E+00 -0.25602103788E+02  0.25633583799E+02  0.12700000000E+01 0. -1.
         25    2    1    2    0    0  0.00000000000E+00  0.00000000000E+00  0.12684842625E+03  0.17808940366E+03  0.12500124981E+03 0.  0.
    9000005    1    3    3    0    0 -0.16270571916E+02 -0.59912842163E+02  0.73603394779E+02  0.96295066798E+02  0.10000000000E+01 0.  0.
    9000005    1    3    3    0    0  0.16270571916E+02  0.59912842163E+02  0.53245031475E+02  0.81794336866E+02  0.10000000000E+01 0.  0.
<mgrwt>
<rscale>  0 0.12500125E+03</rscale>
<asrwt>0</asrwt>
<pdfrwt beam="2">  1        4 0.39416137E-02 0.12500125E+03</pdfrwt>
<pdfrwt beam="1">  1       -4 0.23456756E-01 0.12500125E+03</pdfrwt>
<totfact> 0.93959418E+03</totfact>
</mgrwt>
</event>
<event>
 5    1  0.3232465E-002  0.1250156E+03  0.7818608E-02  0.1235045E+00
          4   -1    0    0  501    0  0.00000000000E+00  0.00000000000E+00  0.99271265592E+01  0.10008033859E+02  0.12700000000E+01 0.  1.
         -4   -1    0    0    0  501 -0.00000000000E+00 -0.00000000000E+00 -0.39191132333E+03  0.39191338106E+03  0.12700000000E+01 0.  1.
         25    2    1    2    0    0  0.00000000000E+00  0.00000000000E+00 -0.38198419677E+03  0.40192141492E+03  0.12501558778E+03 0.  0.
    9000005    1    3    3    0    0  0.54336676303E+00 -0.29528985169E+02 -0.13906809833E+02  0.32659693389E+02  0.10000000000E+01 0.  0.
    9000005    1    3    3    0    0 -0.54336676303E+00  0.29528985169E+02 -0.36807738693E+03  0.36926172153E+03  0.10000000000E+01 0.  0.
<mgrwt>
<rscale>  0 0.12501559E+03</rscale>
<asrwt>0</asrwt>
<pdfrwt beam="1">  1        4 0.15336325E-02 0.12501559E+03</pdfrwt>
<pdfrwt beam="2">  1       -4 0.60300420E-01 0.12501559E+03</pdfrwt>
<totfact> 0.64344205E+03</totfact>
</mgrwt>
</event>
<event>
 5    1  0.3232465E-002  0.1249974E+03  0.7818608E-02  0.1235073E+00
          4   -1    0    0  501    0  0.00000000000E+00  0.00000000000E+00  0.11641089400E+02  0.11710160649E+02  0.12700000000E+01 0. -1.
         -4   -1    0    0    0  501 -0.00000000000E+00 -0.00000000000E+00 -0.33448011111E+03  0.33448252216E+03  0.12700000000E+01 0. -1.
         25    2    1    2    0    0  0.00000000000E+00  0.00000000000E+00 -0.32283902171E+03  0.34619268280E+03  0.12499735873E+03 0.  0.
    9000005    1    3    3    0    0 -0.20132668073E+01 -0.24273585411E+02 -0.32080571232E+03  0.32173057866E+03  0.10000000000E+01 0.  0.
    9000005    1    3    3    0    0  0.20132668073E+01  0.24273585411E+02 -0.20333093922E+01  0.24462104141E+02  0.10000000000E+01 0.  0.
<mgrwt>
<rscale>  0 0.12499736E+03</rscale>
<asrwt>0</asrwt>
<pdfrwt beam="1">  1        4 0.17964357E-02 0.12499736E+03</pdfrwt>
<pdfrwt beam="2">  1       -4 0.51463970E-01 0.12499736E+03</pdfrwt>
<totfact> 0.70149552E+03</totfact>
</mgrwt>
</event>
<event>
 5    1  0.3232465E-002  0.1250032E+03  0.7818608E-02  0.1235064E+00
          4   -1    0    0  501    0  0.00000000000E+00  0.00000000000E+00  0.51202487500E+01  0.52754001993E+01  0.12700000000E+01 0. -1.
         -4   -1    0    0    0  501 -0.00000000000E+00 -0.00000000000E+00 -0.75139893333E+03  0.75140000660E+03  0.12700000000E+01 0. -1.
         25    2    1    2    0    0  0.00000000000E+00  0.00000000000E+00 -0.74627868458E+03  0.75667540680E+03  0.12500318471E+03 0.  0.
    9000005    1    3    3    0    0 -0.58451297109E+02 -0.48028054393E+01 -0.50378690840E+03  0.50719017158E+03  0.10000000000E+01 0.  0.
    9000005    1    3    3    0    0  0.58451297109E+02  0.48028054393E+01 -0.24249177619E+03  0.24948523522E+03  0.10000000000E+01 0.  0.
<mgrwt>
<rscale>  0 0.12500318E+03</rscale>
<asrwt>0</asrwt>
<pdfrwt beam="1">  1        4 0.79974846E-03 0.12500318E+03</pdfrwt>
<pdfrwt beam="2">  1       -4 0.11561177E+00 0.12500318E+03</pdfrwt>
<totfact> 0.40254093E+03</totfact>
</mgrwt>
</event>
<event>
 5    1  0.3232465E-002  0.1250033E+03  0.7818608E-02  0.1235064E+00
         -4   -1    0    0    0  501 -0.00000000000E+00  0.00000000000E+00  0.57411619833E+03  0.57411760301E+03  0.12700000000E+01 0.  1.
          4   -1    0    0  501    0  0.00000000000E+00 -0.00000000000E+00 -0.67436136627E+01  0.68621589338E+01  0.12700000000E+01 0.  1.
         25    2    1    2    0    0  0.00000000000E+00  0.00000000000E+00  0.56737258467E+03  0.58097976194E+03  0.12500333578E+03 0.  0.
    9000005    1    3    3    0    0 -0.70791287577E+01  0.19133753187E+02  0.55822593658E+03  0.55859950845E+03  0.10000000000E+01 0.  0.
    9000005    1    3    3    0    0  0.70791287577E+01 -0.19133753187E+02  0.91466480885E+01  0.22380253490E+02  0.10000000000E+01 0.  0.
<mgrwt>
<rscale>  0 0.12500334E+03</rscale>
<asrwt>0</asrwt>
<pdfrwt beam="2">  1        4 0.10467058E-02 0.12500334E+03</pdfrwt>
<pdfrwt beam="1">  1       -4 0.88334812E-01 0.12500334E+03</pdfrwt>
<totfact> 0.50086990E+03</totfact>
</mgrwt>
</event>
<event>
 5    1  0.3232465E-002  0.1250000E+03  0.7818608E-02  0.1235069E+00
         -4   -1    0    0    0  501 -0.00000000000E+00  0.00000000000E+00  0.17733586718E+03  0.17734041470E+03  0.12700000000E+01 0.  1.
          4   -1    0    0  501    0  0.00000000000E+00 -0.00000000000E+00 -0.22004275441E+02  0.22040894667E+02  0.12700000000E+01 0.  1.
         25    2    1    2    0    0  0.00000000000E+00  0.00000000000E+00  0.15533159173E+03  0.19938130937E+03  0.12500001254E+03 0.  0.
    9000005    1    3    3    0    0  0.27763008853E+02  0.77353409649E-01 -0.11635089123E+02  0.30119195591E+02  0.10000000000E+01 0.  0.
    9000005    1    3    3    0    0 -0.27763008853E+02 -0.77353409649E-01  0.16696668086E+03  0.16926211378E+03  0.10000000000E+01 0.  0.
<mgrwt>
<rscale>  0 0.12500001E+03</rscale>
<asrwt>0</asrwt>
<pdfrwt beam="2">  1        4 0.33884399E-02 0.12500001E+03</pdfrwt>
<pdfrwt beam="1">  1       -4 0.27285607E-01 0.12500001E+03</pdfrwt>
<totfact> 0.90239933E+03</totfact>
</mgrwt>
</event>
<event>
 5    1  0.3232465E-002  0.1249972E+03  0.7818608E-02  0.1235074E+00
          4   -1    0    0  501    0  0.00000000000E+00  0.00000000000E+00  0.25351939758E+02  0.25383730015E+02  0.12700000000E+01 0. -1.
         -4   -1    0    0    0  501 -0.00000000000E+00 -0.00000000000E+00 -0.15394297045E+03  0.15394820899E+03  0.12700000000E+01 0. -1.
         25    2    1    2    0    0  0.00000000000E+00  0.00000000000E+00 -0.12859103069E+03  0.17933193900E+03  0.12499716466E+03 0.  0.
    9000005    1    3    3    0    0 -0.47357509630E+02 -0.23962952235E+02 -0.11162100101E+03  0.12360098974E+03  0.10000000000E+01 0.  0.
    9000005    1    3    3    0    0  0.47357509630E+02  0.23962952235E+02 -0.16970029677E+02  0.55730949260E+02  0.10000000000E+01 0.  0.
<mgrwt>
<rscale>  0 0.12499716E+03</rscale>
<asrwt>0</asrwt>
<pdfrwt beam="1">  1        4 0.39031469E-02 0.12499716E+03</pdfrwt>
<pdfrwt beam="2">  1       -4 0.23686382E-01 0.12499716E+03</pdfrwt>
<totfact> 0.93743355E+03</totfact>
</mgrwt>
</event>
<event>
 5    1  0.3232465E-002  0.1250035E+03  0.7818608E-02  0.1235064E+00
          4   -1    0    0  501    0  0.00000000000E+00  0.00000000000E+00  0.80847480977E+02  0.80857455317E+02  0.12700000000E+01 0.  1.
         -4   -1    0    0    0  501 -0.00000000000E+00 -0.00000000000E+00 -0.48297697772E+02  0.48314392370E+02  0.12700000000E+01 0.  1.
         25    2    1    2    0    0  0.00000000000E+00  0.00000000000E+00  0.32549783206E+02  0.12917184769E+03  0.12500351134E+03 0.  0.
    9000005    1    3    3    0    0  0.57614970257E+02 -0.23356617256E+02  0.22847254488E+02  0.66242081829E+02  0.10000000000E+01 0.  0.
    9000005    1    3    3    0    0 -0.57614970257E+02  0.23356617256E+02  0.97025287179E+01  0.62929765858E+02  0.10000000000E+01 0.  0.
<mgrwt>
<rscale>  0 0.12500351E+03</rscale>
<asrwt>0</asrwt>
<pdfrwt beam="1">  1        4 0.12440125E-01 0.12500351E+03</pdfrwt>
<pdfrwt beam="2">  1       -4 0.74324665E-02 0.12500351E+03</pdfrwt>
<totfact> 0.10361434E+04</totfact>
</mgrwt>
</event>
<event>
 5    1  0.3232465E-002  0.1249997E+03  0.7818608E-02  0.1235070E+00
          4   -1    0    0  501    0  0.00000000000E+00  0.00000000000E+00  0.39782301506E+02  0.39802567921E+02  0.12700000000E+01 0.  1.
         -4   -1    0    0    0  501 -0.00000000000E+00 -0.00000000000E+00 -0.98140872333E+02  0.98149089258E+02  0.12700000000E+01 0.  1.
         25    2    1    2    0    0  0.00000000000E+00  0.00000000000E+00 -0.58358570827E+02  0.13795165718E+03  0.12499974772E+03 0.  0.
    9000005    1    3    3    0    0 -0.12482294607E+02 -0.44338659314E+02  0.17428185885E+02  0.49259172259E+02  0.10000000000E+01 0.  0.
    9000005    1    3    3    0    0  0.12482294607E+02  0.44338659314E+02 -0.75786756711E+02  0.88692484920E+02  0.10000000000E+01 0.  0.
<mgrwt>
<rscale>  0 0.12499975E+03</rscale>
<asrwt>0</asrwt>
<pdfrwt beam="1">  1        4 0.61225452E-02 0.12499975E+03</pdfrwt>
<pdfrwt beam="2">  1       -4 0.15100787E-01 0.12499975E+03</pdfrwt>
<totfact> 0.10176274E+04</totfact>
</mgrwt>
</event>
<event>
 5    1  0.3232465E-002  0.1249986E+03  0.7818608E-02  0.1235071E+00
         -4   -1    0    0    0  501 -0.00000000000E+00  0.00000000000E+00  0.98822648612E+01  0.99635364599E+01  0.12700000000E+01 0. -1.
          4   -1    0    0  501    0  0.00000000000E+00 -0.00000000000E+00 -0.39356926218E+03  0.39357131124E+03  0.12700000000E+01 0. -1.
         25    2    1    2    0    0  0.00000000000E+00  0.00000000000E+00 -0.38368699732E+03  0.40353484770E+03  0.12499864559E+03 0.  0.
    9000005    1    3    3    0    0  0.25677261384E+01  0.61639078411E+02 -0.15969037770E+03  0.17119575327E+03  0.10000000000E+01 0.  0.
    9000005    1    3    3    0    0 -0.25677261384E+01 -0.61639078411E+02 -0.22399661961E+03  0.23233909444E+03  0.10000000000E+01 0.  0.
<mgrwt>
<rscale>  0 0.12499865E+03</rscale>
<asrwt>0</asrwt>
<pdfrwt beam="2">  1        4 0.60555514E-01 0.12499865E+03</pdfrwt>
<pdfrwt beam="1">  1       -4 0.15267580E-02 0.12499865E+03</pdfrwt>
<totfact> 0.64212365E+03</totfact>
</mgrwt>
</event>
<event>
 5    1  0.3232465E-002  0.1249894E+03  0.7818608E-02  0.1235086E+00
         -4   -1    0    0    0  501 -0.00000000000E+00  0.00000000000E+00  0.11742607174E+03  0.11743293926E+03  0.12700000000E+01 0. -1.
          4   -1    0    0  501    0  0.00000000000E+00 -0.00000000000E+00 -0.33240015792E+02  0.33264268365E+02  0.12700000000E+01 0. -1.
         25    2    1    2    0    0  0.00000000000E+00  0.00000000000E+00  0.84186055948E+02  0.15069720763E+03  0.12498942504E+03 0.  0.
    9000005    1    3    3    0    0 -0.26592232305E+02  0.31805366052E+02  0.98462400689E+02  0.10683900261E+03  0.10000000000E+01 0.  0.
    9000005    1    3    3    0    0  0.26592232305E+02 -0.31805366052E+02 -0.14276344741E+02  0.43858205023E+02  0.10000000000E+01 0.  0.
<mgrwt>
<rscale>  0 0.12498943E+03</rscale>
<asrwt>0</asrwt>
<pdfrwt beam="2">  1        4 0.51162425E-02 0.12498943E+03</pdfrwt>
<pdfrwt beam="1">  1       -4 0.18067943E-01 0.12498943E+03</pdfrwt>
<totfact> 0.99188504E+03</totfact>
</mgrwt>
</event>
<event>
 5    1  0.3232465E-002  0.1249991E+03  0.7818608E-02  0.1235071E+00
         -4   -1    0    0    0  501 -0.00000000000E+00  0.00000000000E+00  0.33418810009E+02  0.33442932922E+02  0.12700000000E+01 0.  1.
          4   -1    0    0  501    0  0.00000000000E+00 -0.00000000000E+00 -0.11681637163E+03  0.11682327499E+03  0.12700000000E+01 0.  1.
         25    2    1    2    0    0  0.00000000000E+00  0.00000000000E+00 -0.83397561618E+02  0.15026620791E+03  0.12499911983E+03 0.  0.
    9000005    1    3    3    0    0 -0.94724756112E+01  0.60100051851E+02 -0.24551934849E+02  0.65616625420E+02  0.10000000000E+01 0.  0.
    9000005    1    3    3    0    0  0.94724756112E+01 -0.60100051851E+02 -0.58845626770E+02  0.84649582495E+02  0.10000000000E+01 0.  0.
<mgrwt>
<rscale>  0 0.12499912E+03</rscale>
<asrwt>0</asrwt>
<pdfrwt beam="2">  1        4 0.17974136E-01 0.12499912E+03</pdfrwt>
<pdfrwt beam="1">  1       -4 0.51437421E-02 0.12499912E+03</pdfrwt>
<totfact> 0.99252626E+03</totfact>
</mgrwt>
</event>
<event>
 5    1  0.3232465E-002  0.1249998E+03  0.7818608E-02  0.1235070E+00
         -4   -1    0    0    0  501 -0.00000000000E+00  0.00000000000E+00  0.29116604795E+03  0.29116881766E+03  0.12700000000E+01 0.  1.
          4   -1    0    0  501    0  0.00000000000E+00 -0.00000000000E+00 -0.13382955559E+02  0.13443079985E+02  0.12700000000E+01 0.  1.
         25    2    1    2    0    0  0.00000000000E+00  0.00000000000E+00  0.27778309239E+03  0.30461189765E+03  0.12499984708E+03 0.  0.
    9000005    1    3    3    0    0  0.45188920377E+02 -0.14185875030E+02  0.23823700929E+03  0.24290152361E+03  0.10000000000E+01 0.  0.
    9000005    1    3    3    0    0 -0.45188920377E+02  0.14185875030E+02  0.39546083095E+02  0.61710374034E+02  0.10000000000E+01 0.  0.
<mgrwt>
<rscale>  0 0.12499985E+03</rscale>
<asrwt>0</asrwt>
<pdfrwt beam="2">  1        4 0.20637541E-02 0.12499985E+03</pdfrwt>
<pdfrwt beam="1">  1       -4 0.44799618E-01 0.12499985E+03</pdfrwt>
<totfact> 0.75024199E+03</totfact>
</mgrwt>
</event>
<event>
 5    1  0.3232465E-002  0.1250006E+03  0.7818608E-02  0.1235068E+00
         -4   -1    0    0    0  501 -0.00000000000E+00  0.00000000000E+00  0.30163613215E+02  0.30190337232E+02  0.12700000000E+01 0. -1.
          4   -1    0    0  501    0  0.00000000000E+00 -0.00000000000E+00 -0.12941613613E+03  0.12942236743E+03  0.12700000000E+01 0. -1.
         25    2    1    2    0    0  0.00000000000E+00  0.00000000000E+00 -0.99252522915E+02  0.15961270466E+03  0.12500060873E+03 0.  0.
    9000005    1    3    3    0    0  0.43822222320E+02  0.22034214054E+01  0.71926550833E+01  0.44474447968E+02  0.10000000000E+01 0.  0.
    9000005    1    3    3    0    0 -0.43822222320E+02 -0.22034214054E+01 -0.10644517800E+03  0.11513825669E+03  0.10000000000E+01 0.  0.
<mgrwt>
<rscale>  0 0.12500061E+03</rscale>
<asrwt>0</asrwt>
<pdfrwt beam="2">  1        4 0.19912710E-01 0.12500061E+03</pdfrwt>
<pdfrwt beam="1">  1       -4 0.46430910E-02 0.12500061E+03</pdfrwt>
<totfact> 0.97416171E+03</totfact>
</mgrwt>
</event>
<event>
 5    1  0.3232465E-002  0.1250002E+03  0.7818608E-02  0.1235069E+00
          4   -1    0    0  501    0  0.00000000000E+00  0.00000000000E+00  0.23605091104E+01  0.26804669855E+01  0.12700000000E+01 0.  1.
         -4   -1    0    0    0  501 -0.00000000000E+00 -0.00000000000E+00 -0.15494848360E+04  0.15494853565E+04  0.12700000000E+01 0.  1.
         25    2    1    2    0    0  0.00000000000E+00  0.00000000000E+00 -0.15471243269E+04  0.15521658234E+04  0.12500024251E+03 0.  0.
    9000005    1    3    3    0    0 -0.51540925605E+02  0.14895070283E+02 -0.37563943620E+03  0.37945265339E+03  0.10000000000E+01 0.  0.
    9000005    1    3    3    0    0  0.51540925605E+02 -0.14895070283E+02 -0.11714848907E+04  0.11727131701E+04  0.10000000000E+01 0.  0.
<mgrwt>
<rscale>  0 0.12500024E+03</rscale>
<asrwt>0</asrwt>
<pdfrwt beam="1">  1        4 0.38780867E-03 0.12500024E+03</pdfrwt>
<pdfrwt beam="2">  1       -4 0.23840617E+00 0.12500024E+03</pdfrwt>
<totfact> 0.16927481E+03</totfact>
</mgrwt>
</event>
<event>
 5    1  0.3232465E-002  0.1249981E+03  0.7818608E-02  0.1235072E+00
          4   -1    0    0  501    0  0.00000000000E+00  0.00000000000E+00  0.33741295472E+01  0.36052254023E+01  0.12700000000E+01 0. -1.
         -4   -1    0    0    0  501 -0.00000000000E+00 -0.00000000000E+00 -0.11191074171E+04  0.11191081377E+04  0.12700000000E+01 0. -1.
         25    2    1    2    0    0  0.00000000000E+00  0.00000000000E+00 -0.11157332876E+04  0.11227133632E+04  0.12499810710E+03 0.  0.
    9000005    1    3    3    0    0 -0.10785740249E+01 -0.12255938150E+02 -0.75676394648E+01  0.14478967813E+02  0.10000000000E+01 0.  0.
    9000005    1    3    3    0    0  0.10785740249E+01  0.12255938150E+02 -0.11081656481E+04  0.11082343953E+04  0.10000000000E+01 0.  0.
<mgrwt>
<rscale>  0 0.12499811E+03</rscale>
<asrwt>0</asrwt>
<pdfrwt beam="1">  1        4 0.53692978E-03 0.12499811E+03</pdfrwt>
<pdfrwt beam="2">  1       -4 0.17218792E+00 0.12499811E+03</pdfrwt>
<totfact> 0.26829127E+03</totfact>
</mgrwt>
</event>
<event>
 5    1  0.3232465E-002  0.1249974E+03  0.7818608E-02  0.1235073E+00
         -4   -1    0    0    0  501 -0.00000000000E+00  0.00000000000E+00  0.37125531119E+02  0.37147247016E+02  0.12700000000E+01 0. -1.
          4   -1    0    0  501    0  0.00000000000E+00 -0.00000000000E+00 -0.10515659232E+03  0.10516426108E+03  0.12700000000E+01 0. -1.
         25    2    1    2    0    0  0.00000000000E+00  0.00000000000E+00 -0.68031061203E+02  0.14231150810E+03  0.12499736017E+03 0.  0.
    9000005    1    3    3    0    0 -0.21746710590E+02 -0.15689933661E+02 -0.98278603873E+02  0.10187628487E+03  0.10000000000E+01 0.  0.
    9000005    1    3    3    0    0  0.21746710590E+02  0.15689933661E+02  0.30247542670E+02  0.40435223226E+02  0.10000000000E+01 0.  0.
<mgrwt>
<rscale>  0 0.12499736E+03</rscale>
<asrwt>0</asrwt>
<pdfrwt beam="2">  1        4 0.16180198E-01 0.12499736E+03</pdfrwt>
<pdfrwt beam="1">  1       -4 0.57138805E-02 0.12499736E+03</pdfrwt>
<totfact> 0.10086501E+04</totfact>
</mgrwt>
</event>
<event>
 5    1  0.3232465E-002  0.1249996E+03  0.7818608E-02  0.1235070E+00
         -4   -1    0    0    0  501 -0.00000000000E+00  0.00000000000E+00  0.59171589718E+02  0.59185217155E+02  0.12700000000E+01 0.  1.
          4   -1    0    0  501    0  0.00000000000E+00 -0.00000000000E+00 -0.65987906613E+02  0.66000126660E+02  0.12700000000E+01 0.  1.
         25    2    1    2    0    0  0.00000000000E+00  0.00000000000E+00 -0.68163168953E+01  0.12518534382E+03  0.12499963252E+03 0.  0.
    9000005    1    3    3    0    0  0.22523351765E+01 -0.62028823352E+02 -0.10670075646E+02  0.62988081845E+02  0.10000000000E+01 0.  0.
    9000005    1    3    3    0    0 -0.22523351765E+01  0.62028823352E+02  0.38537587507E+01  0.62197261971E+02  0.10000000000E+01 0.  0.
<mgrwt>
<rscale>  0 0.12499963E+03</rscale>
<asrwt>0</asrwt>
<pdfrwt beam="2">  1        4 0.10153974E-01 0.12499963E+03</pdfrwt>
<pdfrwt beam="1">  1       -4 0.91053098E-02 0.12499963E+03</pdfrwt>
<totfact> 0.10448925E+04</totfact>
</mgrwt>
</event>
<event>
 5    1  0.3232465E-002  0.1250018E+03  0.7818608E-02  0.1235066E+00
          4   -1    0    0  501    0  0.00000000000E+00  0.00000000000E+00  0.92851010672E+02  0.92859695685E+02  0.12700000000E+01 0. -1.
         -4   -1    0    0    0  501 -0.00000000000E+00 -0.00000000000E+00 -0.42051051996E+02  0.42070225504E+02  0.12700000000E+01 0. -1.
         25    2    1    2    0    0  0.00000000000E+00  0.00000000000E+00  0.50799958676E+02  0.13492992119E+03  0.12500179131E+03 0.  0.
    9000005    1    3    3    0    0 -0.45400547332E+02 -0.34681333091E+02  0.52736427342E+02  0.77756898934E+02  0.10000000000E+01 0.  0.
    9000005    1    3    3    0    0  0.45400547332E+02  0.34681333091E+02 -0.19364686662E+01  0.57173022256E+02  0.10000000000E+01 0.  0.
<mgrwt>
<rscale>  0 0.12500179E+03</rscale>
<asrwt>0</asrwt>
<pdfrwt beam="1">  1        4 0.14286914E-01 0.12500179E+03</pdfrwt>
<pdfrwt beam="2">  1       -4 0.64715356E-02 0.12500179E+03</pdfrwt>
<totfact> 0.10239135E+04</totfact>
</mgrwt>
</event>
<event>
 5    1  0.3232465E-002  0.1250023E+03  0.7818608E-02  0.1235066E+00
          4   -1    0    0  501    0  0.00000000000E+00  0.00000000000E+00  0.28226413090E+01  0.30951904560E+01  0.12700000000E+01 0.  1.
         -4   -1    0    0    0  501 -0.00000000000E+00 -0.00000000000E+00 -0.13199374684E+04  0.13199380794E+04  0.12700000000E+01 0.  1.
         25    2    1    2    0    0  0.00000000000E+00  0.00000000000E+00 -0.13171148271E+04  0.13230332698E+04  0.12500226133E+03 0.  0.
    9000005    1    3    3    0    0  0.18755109591E+01 -0.40204772427E+02 -0.11645437208E+04  0.11652394685E+04  0.10000000000E+01 0.  0.
    9000005    1    3    3    0    0 -0.18755109591E+01  0.40204772427E+02 -0.15257110625E+03  0.15779380130E+03  0.10000000000E+01 0.  0.
<mgrwt>
<rscale>  0 0.12500226E+03</rscale>
<asrwt>0</asrwt>
<pdfrwt beam="1">  1        4 0.45526588E-03 0.12500226E+03</pdfrwt>
<pdfrwt beam="2">  1       -4 0.20308785E+00 0.12500226E+03</pdfrwt>
<totfact> 0.21690338E+03</totfact>
</mgrwt>
</event>
<event>
 5    1  0.3232465E-002  0.1249793E+03  0.7818608E-02  0.1235102E+00
         -4   -1    0    0    0  501 -0.00000000000E+00  0.00000000000E+00  0.74243854551E+01  0.75322240664E+01  0.12700000000E+01 0.  1.
          4   -1    0    0  501    0  0.00000000000E+00 -0.00000000000E+00 -0.52206250521E+03  0.52206404994E+03  0.12700000000E+01 0.  1.
         25    2    1    2    0    0  0.00000000000E+00  0.00000000000E+00 -0.51463811975E+03  0.52959627401E+03  0.12497927485E+03 0.  0.
    9000005    1    3    3    0    0 -0.15165321297E+02  0.24595772082E+02 -0.49206953687E+03  0.49291821643E+03  0.10000000000E+01 0.  0.
    9000005    1    3    3    0    0  0.15165321297E+02 -0.24595772082E+02 -0.22568582880E+02  0.36678057576E+02  0.10000000000E+01 0.  0.
<mgrwt>
<rscale>  0 0.12497927E+03</rscale>
<asrwt>0</asrwt>
<pdfrwt beam="2">  1        4 0.80325694E-01 0.12497927E+03</pdfrwt>
<pdfrwt beam="1">  1       -4 0.11506277E-02 0.12497927E+03</pdfrwt>
<totfact> 0.53663462E+03</totfact>
</mgrwt>
</event>
<event>
 5    1  0.3232465E-002  0.1249975E+03  0.7818608E-02  0.1235073E+00
         -4   -1    0    0    0  501 -0.00000000000E+00  0.00000000000E+00  0.54746494681E+02  0.54761223323E+02  0.12700000000E+01 0.  1.
          4   -1    0    0  501    0  0.00000000000E+00 -0.00000000000E+00 -0.71318751228E+02  0.71330058017E+02  0.12700000000E+01 0.  1.
         25    2    1    2    0    0  0.00000000000E+00  0.00000000000E+00 -0.16572256547E+02  0.12609128134E+03  0.12499748615E+03 0.  0.
    9000005    1    3    3    0    0  0.16021899896E+02  0.44767780269E+02 -0.49190153562E+02  0.68421682484E+02  0.10000000000E+01 0.  0.
    9000005    1    3    3    0    0 -0.16021899896E+02 -0.44767780269E+02  0.32617897015E+02  0.57669598856E+02  0.10000000000E+01 0.  0.
<mgrwt>
<rscale>  0 0.12499749E+03</rscale>
<asrwt>0</asrwt>
<pdfrwt beam="2">  1        4 0.10974118E-01 0.12499749E+03</pdfrwt>
<pdfrwt beam="1">  1       -4 0.84245403E-02 0.12499749E+03</pdfrwt>
<totfact> 0.10429549E+04</totfact>
</mgrwt>
</event>
<event>
 5    1  0.3232465E-002  0.1250080E+03  0.7818608E-02  0.1235057E+00
          4   -1    0    0  501    0  0.00000000000E+00  0.00000000000E+00  0.83532501662E+02  0.83542155430E+02  0.12700000000E+01 0.  1.
         -4   -1    0    0    0  501 -0.00000000000E+00 -0.00000000000E+00 -0.46748240338E+02  0.46765488072E+02  0.12700000000E+01 0.  1.
         25    2    1    2    0    0  0.00000000000E+00  0.00000000000E+00  0.36784261325E+02  0.13030764350E+03  0.12500800004E+03 0.  0.
    9000005    1    3    3    0    0  0.72254754785E+01  0.61267079146E+02  0.79740495817E+01  0.62212924298E+02  0.10000000000E+01 0.  0.
    9000005    1    3    3    0    0 -0.72254754785E+01 -0.61267079146E+02  0.28810211743E+02  0.68094719205E+02  0.10000000000E+01 0.  0.
<mgrwt>
<rscale>  0 0.12500800E+03</rscale>
<asrwt>0</asrwt>
<pdfrwt beam="1">  1        4 0.12853223E-01 0.12500800E+03</pdfrwt>
<pdfrwt beam="2">  1       -4 0.71941064E-02 0.12500800E+03</pdfrwt>
<totfact> 0.10336064E+04</totfact>
</mgrwt>
</event>
<event>
 5    1  0.3232465E-002  0.1249996E+03  0.7818608E-02  0.1235070E+00
          4   -1    0    0  501    0  0.00000000000E+00  0.00000000000E+00  0.84140056329E+02  0.84149640398E+02  0.12700000000E+01 0. -1.
         -4   -1    0    0    0  501 -0.00000000000E+00 -0.00000000000E+00 -0.46404321752E+02  0.46421697268E+02  0.12700000000E+01 0. -1.
         25    2    1    2    0    0  0.00000000000E+00  0.00000000000E+00  0.37735734578E+02  0.13057133767E+03  0.12499955422E+03 0.  0.
    9000005    1    3    3    0    0 -0.22632092910E+02 -0.42866242563E+02 -0.22329911818E+02  0.53379315683E+02  0.10000000000E+01 0.  0.
    9000005    1    3    3    0    0  0.22632092910E+02  0.42866242563E+02  0.60065646396E+02  0.77192021984E+02  0.10000000000E+01 0.  0.
<mgrwt>
<rscale>  0 0.12499955E+03</rscale>
<asrwt>0</asrwt>
<pdfrwt beam="1">  1        4 0.12946698E-01 0.12499955E+03</pdfrwt>
<pdfrwt beam="2">  1       -4 0.71412003E-02 0.12499955E+03</pdfrwt>
<totfact> 0.10332392E+04</totfact>
</mgrwt>
</event>
<event>
 5    1  0.3232465E-002  0.1249966E+03  0.7818608E-02  0.1235075E+00
          4   -1    0    0  501    0  0.00000000000E+00  0.00000000000E+00  0.47488175975E+03  0.47488345796E+03  0.12700000000E+01 0.  1.
         -4   -1    0    0    0  501 -0.00000000000E+00 -0.00000000000E+00 -0.81745336451E+01  0.82725993686E+01  0.12700000000E+01 0.  1.
         25    2    1    2    0    0  0.00000000000E+00  0.00000000000E+00  0.46670722611E+03  0.48315605733E+03  0.12499656329E+03 0.  0.
    9000005    1    3    3    0    0  0.45195310967E+02  0.26588651973E+02  0.10196209991E+03  0.11465968065E+03  0.10000000000E+01 0.  0.
    9000005    1    3    3    0    0 -0.45195310967E+02 -0.26588651973E+02  0.36474512619E+03  0.36849637668E+03  0.10000000000E+01 0.  0.
<mgrwt>
<rscale>  0 0.12499656E+03</rscale>
<asrwt>0</asrwt>
<pdfrwt beam="1">  1        4 0.73066414E-01 0.12499656E+03</pdfrwt>
<pdfrwt beam="2">  1       -4 0.12652946E-02 0.12499656E+03</pdfrwt>
<totfact> 0.57199669E+03</totfact>
</mgrwt>
</event>
<event>
 5    1  0.3232465E-002  0.1250025E+03  0.7818608E-02  0.1235065E+00
          4   -1    0    0  501    0  0.00000000000E+00  0.00000000000E+00  0.11693801180E+02  0.11762562903E+02  0.12700000000E+01 0. -1.
         -4   -1    0    0    0  501 -0.00000000000E+00 -0.00000000000E+00 -0.33300883780E+03  0.33301125950E+03  0.12700000000E+01 0. -1.
         25    2    1    2    0    0  0.00000000000E+00  0.00000000000E+00 -0.32131503662E+03  0.34477382241E+03  0.12500254340E+03 0.  0.
    9000005    1    3    3    0    0 -0.35504366309E+02  0.14486859310E+02 -0.29675908345E+03  0.29922797785E+03  0.10000000000E+01 0.  0.
    9000005    1    3    3    0    0  0.35504366309E+02 -0.14486859310E+02 -0.24555953173E+02  0.45545844551E+02  0.10000000000E+01 0.  0.
<mgrwt>
<rscale>  0 0.12500254E+03</rscale>
<asrwt>0</asrwt>
<pdfrwt beam="1">  1        4 0.18045222E-02 0.12500254E+03</pdfrwt>
<pdfrwt beam="2">  1       -4 0.51237597E-01 0.12500254E+03</pdfrwt>
<totfact> 0.70299397E+03</totfact>
</mgrwt>
</event>
<event>
 5    1  0.3232465E-002  0.1250005E+03  0.7818608E-02  0.1235069E+00
         -4   -1    0    0    0  501 -0.00000000000E+00  0.00000000000E+00  0.10515815072E+03  0.10516581937E+03  0.12700000000E+01 0. -1.
          4   -1    0    0  501    0  0.00000000000E+00 -0.00000000000E+00 -0.37126846449E+02  0.37148561577E+02  0.12700000000E+01 0. -1.
         25    2    1    2    0    0  0.00000000000E+00  0.00000000000E+00  0.68031304272E+02  0.14231438094E+03  0.12500049865E+03 0.  0.
    9000005    1    3    3    0    0  0.38291444205E+02 -0.47367442324E+02  0.18102065835E+02  0.63549933746E+02  0.10000000000E+01 0.  0.
    9000005    1    3    3    0    0 -0.38291444205E+02  0.47367442324E+02  0.49929238436E+02  0.78764447198E+02  0.10000000000E+01 0.  0.
<mgrwt>
<rscale>  0 0.12500050E+03</rscale>
<asrwt>0</asrwt>
<pdfrwt beam="2">  1        4 0.57140829E-02 0.12500050E+03</pdfrwt>
<pdfrwt beam="1">  1       -4 0.16180437E-01 0.12500050E+03</pdfrwt>
<totfact> 0.10085729E+04</totfact>
</mgrwt>
</event>
<event>
 5    1  0.3232465E-002  0.1249984E+03  0.7818608E-02  0.1235072E+00
          4   -1    0    0  501    0  0.00000000000E+00  0.00000000000E+00  0.32341929599E+03  0.32342178949E+03  0.12700000000E+01 0.  1.
         -4   -1    0    0    0  501 -0.00000000000E+00 -0.00000000000E+00 -0.12041739424E+02  0.12108525441E+02  0.12700000000E+01 0.  1.
         25    2    1    2    0    0  0.00000000000E+00  0.00000000000E+00  0.31137755657E+03  0.33553031493E+03  0.12499843802E+03 0.  0.
    9000005    1    3    3    0    0 -0.59186197497E+01 -0.49457480008E+02  0.54392294531E+02  0.73760382949E+02  0.10000000000E+01 0.  0.
    9000005    1    3    3    0    0  0.59186197497E+01  0.49457480008E+02  0.25698526203E+03  0.26176993198E+03  0.10000000000E+01 0.  0.
<mgrwt>
<rscale>  0 0.12499844E+03</rscale>
<asrwt>0</asrwt>
<pdfrwt beam="1">  1        4 0.49762145E-01 0.12499844E+03</pdfrwt>
<pdfrwt beam="2">  1       -4 0.18579044E-02 0.12499844E+03</pdfrwt>
<totfact> 0.71348757E+03</totfact>
</mgrwt>
</event>
<event>
 5    1  0.3232465E-002  0.1250005E+03  0.7818608E-02  0.1235069E+00
         -4   -1    0    0    0  501 -0.00000000000E+00  0.00000000000E+00  0.11664609853E+02  0.11733542646E+02  0.12700000000E+01 0.  1.
          4   -1    0    0  501    0  0.00000000000E+00 -0.00000000000E+00 -0.33382633128E+03  0.33382874705E+03  0.12700000000E+01 0.  1.
         25    2    1    2    0    0  0.00000000000E+00  0.00000000000E+00 -0.32216172143E+03  0.34556228970E+03  0.12500048522E+03 0.  0.
    9000005    1    3    3    0    0 -0.57107898682E+02 -0.12704914427E+02 -0.22180862978E+03  0.22939658931E+03  0.10000000000E+01 0.  0.
    9000005    1    3    3    0    0  0.57107898682E+02  0.12704914427E+02 -0.10035309165E+03  0.11616570039E+03  0.10000000000E+01 0.  0.
<mgrwt>
<rscale>  0 0.12500049E+03</rscale>
<asrwt>0</asrwt>
<pdfrwt beam="2">  1        4 0.51363378E-01 0.12500049E+03</pdfrwt>
<pdfrwt beam="1">  1       -4 0.18000440E-02 0.12500049E+03</pdfrwt>
<totfact> 0.70214782E+03</totfact>
</mgrwt>
</event>
<event>
 5    1  0.3232465E-002  0.1250021E+03  0.7818608E-02  0.1235066E+00
         -4   -1    0    0    0  501 -0.00000000000E+00  0.00000000000E+00  0.68764616903E+01  0.69927552065E+01  0.12700000000E+01 0. -1.
          4   -1    0    0  501    0  0.00000000000E+00 -0.00000000000E+00 -0.56319984430E+03  0.56320127621E+03  0.12700000000E+01 0. -1.
         25    2    1    2    0    0  0.00000000000E+00  0.00000000000E+00 -0.55632338261E+03  0.57019403141E+03  0.12500210966E+03 0.  0.
    9000005    1    3    3    0    0  0.13548276664E+02  0.45365985711E+02 -0.46422031394E+03  0.46662954079E+03  0.10000000000E+01 0.  0.
    9000005    1    3    3    0    0 -0.13548276664E+02 -0.45365985711E+02 -0.92103068670E+02  0.10356449063E+03  0.10000000000E+01 0.  0.
<mgrwt>
<rscale>  0 0.12500211E+03</rscale>
<asrwt>0</asrwt>
<pdfrwt beam="2">  1        4 0.86655150E-01 0.12500211E+03</pdfrwt>
<pdfrwt beam="1">  1       -4 0.10669734E-02 0.12500211E+03</pdfrwt>
<totfact> 0.50802435E+03</totfact>
</mgrwt>
</event>
<event>
 5    1  0.3232465E-002  0.1250036E+03  0.7818608E-02  0.1235064E+00
          4   -1    0    0  501    0  0.00000000000E+00  0.00000000000E+00  0.16083312432E+03  0.16083813845E+03  0.12700000000E+01 0.  1.
         -4   -1    0    0    0  501 -0.00000000000E+00 -0.00000000000E+00 -0.24266999728E+02  0.24300209377E+02  0.12700000000E+01 0.  1.
         25    2    1    2    0    0  0.00000000000E+00  0.00000000000E+00  0.13656612460E+03  0.18513834783E+03  0.12500360574E+03 0.  0.
    9000005    1    3    3    0    0  0.34317991173E+02  0.77483839452E+00 -0.90612520153E+01  0.35516632452E+02  0.10000000000E+01 0.  0.
    9000005    1    3    3    0    0 -0.34317991173E+02 -0.77483839452E+00  0.14562737661E+03  0.14962171537E+03  0.10000000000E+01 0.  0.
<mgrwt>
<rscale>  0 0.12500361E+03</rscale>
<asrwt>0</asrwt>
<pdfrwt beam="1">  1        4 0.24746498E-01 0.12500361E+03</pdfrwt>
<pdfrwt beam="2">  1       -4 0.37363249E-02 0.12500361E+03</pdfrwt>
<totfact> 0.92692685E+03</totfact>
</mgrwt>
</event>
<event>
 5    1  0.3232465E-002  0.1249962E+03  0.7818608E-02  0.1235075E+00
         -4   -1    0    0    0  501 -0.00000000000E+00  0.00000000000E+00  0.37195584433E+03  0.37195801246E+03  0.12700000000E+01 0. -1.
          4   -1    0    0  501    0  0.00000000000E+00 -0.00000000000E+00 -0.10460677850E+02  0.10537489315E+02  0.12700000000E+01 0. -1.
         25    2    1    2    0    0  0.00000000000E+00  0.00000000000E+00  0.36149516648E+03  0.38249550178E+03  0.12499621389E+03 0.  0.
    9000005    1    3    3    0    0 -0.28416041263E+02 -0.11063645456E+02  0.13837332068E+02  0.33501453858E+02  0.10000000000E+01 0.  0.
    9000005    1    3    3    0    0  0.28416041263E+02  0.11063645456E+02  0.34765783441E+03  0.34899404792E+03  0.10000000000E+01 0.  0.
<mgrwt>
<rscale>  0 0.12499621E+03</rscale>
<asrwt>0</asrwt>
<pdfrwt beam="2">  1        4 0.16154108E-02 0.12499621E+03</pdfrwt>
<pdfrwt beam="1">  1       -4 0.57230036E-01 0.12499621E+03</pdfrwt>
<totfact> 0.66297175E+03</totfact>
</mgrwt>
</event>
<event>
 5    1  0.3232465E-002  0.1250003E+03  0.7818608E-02  0.1235069E+00
          4   -1    0    0  501    0  0.00000000000E+00  0.00000000000E+00  0.64364338636E+01  0.65605320578E+01  0.12700000000E+01 0.  1.
         -4   -1    0    0    0  501 -0.00000000000E+00 -0.00000000000E+00 -0.60097958761E+03  0.60098092950E+03  0.12700000000E+01 0.  1.
         25    2    1    2    0    0  0.00000000000E+00  0.00000000000E+00 -0.59454315375E+03  0.60754146156E+03  0.12500026338E+03 0.  0.
    9000005    1    3    3    0    0  0.51646883229E+02 -0.33454264902E+02 -0.35021965959E+03  0.35558599290E+03  0.10000000000E+01 0.  0.
    9000005    1    3    3    0    0 -0.51646883229E+02  0.33454264902E+02 -0.24432349416E+03  0.25195546865E+03  0.10000000000E+01 0.  0.
<mgrwt>
<rscale>  0 0.12500026E+03</rscale>
<asrwt>0</asrwt>
<pdfrwt beam="1">  1        4 0.99987031E-03 0.12500026E+03</pdfrwt>
<pdfrwt beam="2">  1       -4 0.92468003E-01 0.12500026E+03</pdfrwt>
<totfact> 0.48394743E+03</totfact>
</mgrwt>
</event>
<event>
 5    1  0.3232465E-002  0.1250077E+03  0.7818608E-02  0.1235057E+00
         -4   -1    0    0    0  501 -0.00000000000E+00  0.00000000000E+00  0.87532169987E+01  0.88448690112E+01  0.12700000000E+01 0.  1.
          4   -1    0    0  501    0  0.00000000000E+00 -0.00000000000E+00 -0.44390273274E+03  0.44390454947E+03  0.12700000000E+01 0.  1.
         25    2    1    2    0    0  0.00000000000E+00  0.00000000000E+00 -0.43514951574E+03  0.45274941848E+03  0.12500773928E+03 0.  0.
    9000005    1    3    3    0    0 -0.51069324125E+02  0.32948705434E+02 -0.16483591739E+03  0.17568600604E+03  0.10000000000E+01 0.  0.
    9000005    1    3    3    0    0  0.51069324125E+02 -0.32948705434E+02 -0.27031359836E+03  0.27706341244E+03  0.10000000000E+01 0.  0.
<mgrwt>
<rscale>  0 0.12500774E+03</rscale>
<asrwt>0</asrwt>
<pdfrwt beam="2">  1        4 0.68299900E-01 0.12500774E+03</pdfrwt>
<pdfrwt beam="1">  1       -4 0.13538390E-02 0.12500774E+03</pdfrwt>
<totfact> 0.59716179E+03</totfact>
</mgrwt>
</event>
<event>
 5    1  0.3232465E-002  0.1250032E+03  0.7818608E-02  0.1235064E+00
         -4   -1    0    0    0  501 -0.00000000000E+00  0.00000000000E+00  0.52855516958E+03  0.52855669534E+03  0.12700000000E+01 0. -1.
          4   -1    0    0  501    0  0.00000000000E+00 -0.00000000000E+00 -0.73347022419E+01  0.74438402036E+01  0.12700000000E+01 0. -1.
         25    2    1    2    0    0  0.00000000000E+00  0.00000000000E+00  0.52122046734E+03  0.53600053555E+03  0.12500319409E+03 0.  0.
    9000005    1    3    3    0    0  0.23118396684E+02 -0.37983023371E+02  0.72319441186E+02  0.84901542407E+02  0.10000000000E+01 0.  0.
    9000005    1    3    3    0    0 -0.23118396684E+02  0.37983023371E+02  0.44890102615E+03  0.45109899314E+03  0.10000000000E+01 0.  0.
<mgrwt>
<rscale>  0 0.12500319E+03</rscale>
<asrwt>0</asrwt>
<pdfrwt beam="2">  1        4 0.11369280E-02 0.12500319E+03</pdfrwt>
<pdfrwt beam="1">  1       -4 0.81324717E-01 0.12500319E+03</pdfrwt>
<totfact> 0.53171754E+03</totfact>
</mgrwt>
</event>
<event>
 5    1  0.3232465E-002  0.1250166E+03  0.7818608E-02  0.1235043E+00
         -4   -1    0    0    0  501 -0.00000000000E+00  0.00000000000E+00  0.41319664391E+01  0.43227360149E+01  0.12700000000E+01 0.  1.
          4   -1    0    0  501    0  0.00000000000E+00 -0.00000000000E+00 -0.92409613828E+03  0.92409701097E+03  0.12700000000E+01 0.  1.
         25    2    1    2    0    0  0.00000000000E+00  0.00000000000E+00 -0.91996417184E+03  0.92841974698E+03  0.12501659538E+03 0.  0.
    9000005    1    3    3    0    0  0.12997484930E+01  0.62484720485E+02 -0.45621258927E+03  0.46047470750E+03  0.10000000000E+01 0.  0.
    9000005    1    3    3    0    0 -0.12997484930E+01 -0.62484720485E+02 -0.46375158256E+03  0.46794503948E+03  0.10000000000E+01 0.  0.
<mgrwt>
<rscale>  0 0.12501660E+03</rscale>
<asrwt>0</asrwt>
<pdfrwt beam="2">  1        4 0.14218322E+00 0.12501660E+03</pdfrwt>
<pdfrwt beam="1">  1       -4 0.65042959E-03 0.12501660E+03</pdfrwt>
<totfact> 0.33082812E+03</totfact>
</mgrwt>
</event>
<event>
 5    1  0.3232465E-002  0.1250182E+03  0.7818608E-02  0.1235041E+00
          4   -1    0    0  501    0  0.00000000000E+00  0.00000000000E+00  0.66931436610E+03  0.66931557099E+03  0.12700000000E+01 0.  1.
         -4   -1    0    0    0  501 -0.00000000000E+00 -0.00000000000E+00 -0.57675990525E+01  0.59057682676E+01  0.12700000000E+01 0.  1.
         25    2    1    2    0    0  0.00000000000E+00  0.00000000000E+00  0.66354676704E+03  0.67522133925E+03  0.12501817839E+03 0.  0.
    9000005    1    3    3    0    0  0.40737854492E+02 -0.34448625649E+02  0.15592128159E+03  0.16479904930E+03  0.10000000000E+01 0.  0.
    9000005    1    3    3    0    0 -0.40737854492E+02  0.34448625649E+02  0.50762548545E+03  0.51042228995E+03  0.10000000000E+01 0.  0.
<mgrwt>
<rscale>  0 0.12501818E+03</rscale>
<asrwt>0</asrwt>
<pdfrwt beam="1">  1        4 0.10298212E+00 0.12501818E+03</pdfrwt>
<pdfrwt beam="2">  1       -4 0.89804435E-03 0.12501818E+03</pdfrwt>
<totfact> 0.44409743E+03</totfact>
</mgrwt>
</event>
<event>
 5    1  0.3232465E-002  0.1250018E+03  0.7818608E-02  0.1235066E+00
         -4   -1    0    0    0  501 -0.00000000000E+00  0.00000000000E+00  0.73708476328E+01  0.74794581907E+01  0.12700000000E+01 0. -1.
          4   -1    0    0  501    0  0.00000000000E+00 -0.00000000000E+00 -0.52598960365E+03  0.52599113685E+03  0.12700000000E+01 0. -1.
         25    2    1    2    0    0  0.00000000000E+00  0.00000000000E+00 -0.51861875602E+03  0.53347059504E+03  0.12500184672E+03 0.  0.
    9000005    1    3    3    0    0  0.12891512160E+02 -0.61147070272E+02 -0.26126570013E+03  0.26863715557E+03  0.10000000000E+01 0.  0.
    9000005    1    3    3    0    0 -0.12891512160E+02  0.61147070272E+02 -0.25735305588E+03  0.26483343947E+03  0.10000000000E+01 0.  0.
<mgrwt>
<rscale>  0 0.12500185E+03</rscale>
<asrwt>0</asrwt>
<pdfrwt beam="2">  1        4 0.80929921E-01 0.12500185E+03</pdfrwt>
<pdfrwt beam="1">  1       -4 0.11424496E-02 0.12500185E+03</pdfrwt>
<totfact> 0.53355715E+03</totfact>
</mgrwt>
</event>
<event>
 5    1  0.3232465E-002  0.1250048E+03  0.7818608E-02  0.1235062E+00
         -4   -1    0    0    0  501 -0.00000000000E+00  0.00000000000E+00  0.20054342500E+02  0.20094515498E+02  0.12700000000E+01 0. -1.
          4   -1    0    0  501    0  0.00000000000E+00 -0.00000000000E+00 -0.19456100825E+03  0.19456515318E+03  0.12700000000E+01 0. -1.
         25    2    1    2    0    0  0.00000000000E+00  0.00000000000E+00 -0.17450666575E+03  0.21465966868E+03  0.12500478777E+03 0.  0.
    9000005    1    3    3    0    0 -0.61708831335E+02 -0.92431252163E+01 -0.81271613541E+02  0.10246702102E+03  0.10000000000E+01 0.  0.
    9000005    1    3    3    0    0  0.61708831335E+02  0.92431252163E+01 -0.93235052209E+02  0.11219264766E+03  0.10000000000E+01 0.  0.
<mgrwt>
<rscale>  0 0.12500479E+03</rscale>
<asrwt>0</asrwt>
<pdfrwt beam="2">  1        4 0.29935871E-01 0.12500479E+03</pdfrwt>
<pdfrwt beam="1">  1       -4 0.30886927E-02 0.12500479E+03</pdfrwt>
<totfact> 0.87711121E+03</totfact>
</mgrwt>
</event>
<event>
 5    1  0.3232465E-002  0.1249998E+03  0.7818608E-02  0.1235070E+00
         -4   -1    0    0    0  501 -0.00000000000E+00  0.00000000000E+00  0.45982391310E+02  0.45999926202E+02  0.12700000000E+01 0. -1.
          4   -1    0    0  501    0  0.00000000000E+00 -0.00000000000E+00 -0.84912224241E+02  0.84921721164E+02  0.12700000000E+01 0. -1.
         25    2    1    2    0    0  0.00000000000E+00  0.00000000000E+00 -0.38929832931E+02  0.13092164737E+03  0.12499978343E+03 0.  0.
    9000005    1    3    3    0    0 -0.47604142283E+02  0.13700292627E+02  0.20436965432E+02  0.53595913432E+02  0.10000000000E+01 0.  0.
    9000005    1    3    3    0    0  0.47604142283E+02 -0.13700292627E+02 -0.59366798363E+02  0.77325733934E+02  0.10000000000E+01 0.  0.
<mgrwt>
<rscale>  0 0.12499978E+03</rscale>
<asrwt>0</asrwt>
<pdfrwt beam="2">  1        4 0.13065498E-01 0.12499978E+03</pdfrwt>
<pdfrwt beam="1">  1       -4 0.70762934E-02 0.12499978E+03</pdfrwt>
<totfact> 0.10324820E+04</totfact>
</mgrwt>
</event>
<event>
 5    1  0.3232465E-002  0.1250014E+03  0.7818608E-02  0.1235067E+00
         -4   -1    0    0    0  501 -0.00000000000E+00  0.00000000000E+00  0.22880015199E+01  0.26168398795E+01  0.12700000000E+01 0.  1.
          4   -1    0    0  501    0  0.00000000000E+00 -0.00000000000E+00 -0.15925204355E+04  0.15925209419E+04  0.12700000000E+01 0.  1.
         25    2    1    2    0    0  0.00000000000E+00  0.00000000000E+00 -0.15902324340E+04  0.15951377818E+04  0.12500139509E+03 0.  0.
    9000005    1    3    3    0    0  0.37158352529E+02 -0.28760725222E+02 -0.13208638464E+04  0.13216997478E+04  0.10000000000E+01 0.  0.
    9000005    1    3    3    0    0 -0.37158352529E+02  0.28760725222E+02 -0.26936858760E+03  0.27343803405E+03  0.10000000000E+01 0.  0.
<mgrwt>
<rscale>  0 0.12500140E+03</rscale>
<asrwt>0</asrwt>
<pdfrwt beam="2">  1        4 0.24502765E+00 0.12500140E+03</pdfrwt>
<pdfrwt beam="1">  1       -4 0.37733572E-03 0.12500140E+03</pdfrwt>
<totfact> 0.16133717E+03</totfact>
</mgrwt>
</event>
<event>
 5    1  0.3232465E-002  0.1250172E+03  0.7818608E-02  0.1235042E+00
          4   -1    0    0  501    0  0.00000000000E+00  0.00000000000E+00  0.40718463320E+01  0.42653056809E+01  0.12700000000E+01 0. -1.
         -4   -1    0    0    0  501 -0.00000000000E+00 -0.00000000000E+00 -0.93713444730E+03  0.93713530785E+03  0.12700000000E+01 0. -1.
         25    2    1    2    0    0  0.00000000000E+00  0.00000000000E+00 -0.93306260097E+03  0.94140061353E+03  0.12501719013E+03 0.  0.
    9000005    1    3    3    0    0 -0.16971247804E+02 -0.56727190749E+02 -0.31586636036E+03  0.32136981039E+03  0.10000000000E+01 0.  0.
    9000005    1    3    3    0    0  0.16971247804E+02  0.56727190749E+02 -0.61719624060E+03  0.62003080314E+03  0.10000000000E+01 0.  0.
<mgrwt>
<rscale>  0 0.12501719E+03</rscale>
<asrwt>0</asrwt>
<pdfrwt beam="1">  1        4 0.64138633E-03 0.12501719E+03</pdfrwt>
<pdfrwt beam="2">  1       -4 0.14418931E+00 0.12501719E+03</pdfrwt>
<totfact> 0.32611071E+03</totfact>
</mgrwt>
</event>
<event>
 5    1  0.3232465E-002  0.1249947E+03  0.7818608E-02  0.1235078E+00
         -4   -1    0    0    0  501 -0.00000000000E+00  0.00000000000E+00  0.80216962324E+02  0.80227015054E+02  0.12700000000E+01 0.  1.
          4   -1    0    0  501    0  0.00000000000E+00 -0.00000000000E+00 -0.48670541575E+02  0.48687108327E+02  0.12700000000E+01 0.  1.
         25    2    1    2    0    0  0.00000000000E+00  0.00000000000E+00  0.31546420749E+02  0.12891412338E+03  0.12499469807E+03 0.  0.
    9000005    1    3    3    0    0  0.55196600219E+02 -0.18730773952E+00  0.45987190499E+02  0.71850688583E+02  0.10000000000E+01 0.  0.
    9000005    1    3    3    0    0 -0.55196600219E+02  0.18730773952E+00 -0.14440769750E+02  0.57063434797E+02  0.10000000000E+01 0.  0.
<mgrwt>
<rscale>  0 0.12499470E+03</rscale>
<asrwt>0</asrwt>
<pdfrwt beam="2">  1        4 0.74898234E-02 0.12499470E+03</pdfrwt>
<pdfrwt beam="1">  1       -4 0.12343119E-01 0.12499470E+03</pdfrwt>
<totfact> 0.10369033E+04</totfact>
</mgrwt>
</event>
<event>
 5    1  0.3232465E-002  0.1250012E+03  0.7818608E-02  0.1235067E+00
          4   -1    0    0  501    0  0.00000000000E+00  0.00000000000E+00  0.33090700803E+01  0.35444103595E+01  0.12700000000E+01 0. -1.
         -4   -1    0    0    0  501 -0.00000000000E+00 -0.00000000000E+00 -0.11397181194E+04  0.11397188270E+04  0.12700000000E+01 0. -1.
         25    2    1    2    0    0  0.00000000000E+00  0.00000000000E+00 -0.11364090493E+04  0.11432632373E+04  0.12500120996E+03 0.  0.
    9000005    1    3    3    0    0  0.29722120885E+02 -0.42828315685E+02 -0.88339816920E+03  0.88493558774E+03  0.10000000000E+01 0.  0.
    9000005    1    3    3    0    0 -0.29722120885E+02  0.42828315685E+02 -0.25301088008E+03  0.25832764957E+03  0.10000000000E+01 0.  0.
<mgrwt>
<rscale>  0 0.12500121E+03</rscale>
<asrwt>0</asrwt>
<pdfrwt beam="1">  1        4 0.52724614E-03 0.12500121E+03</pdfrwt>
<pdfrwt beam="2">  1       -4 0.17535910E+00 0.12500121E+03</pdfrwt>
<totfact> 0.26247255E+03</totfact>
</mgrwt>
</event>
<event>
 5    1  0.3232465E-002  0.1250010E+03  0.7818608E-02  0.1235068E+00
         -4   -1    0    0    0  501 -0.00000000000E+00  0.00000000000E+00  0.96645784712E+02  0.96654128741E+02  0.12700000000E+01 0. -1.
          4   -1    0    0  501    0  0.00000000000E+00 -0.00000000000E+00 -0.40398808450E+02  0.40418765743E+02  0.12700000000E+01 0. -1.
         25    2    1    2    0    0  0.00000000000E+00  0.00000000000E+00  0.56246976262E+02  0.13707289448E+03  0.12500102425E+03 0.  0.
    9000005    1    3    3    0    0 -0.46899610420E+02 -0.26366672900E+02 -0.67354839876E+01  0.54232293349E+02  0.10000000000E+01 0.  0.
    9000005    1    3    3    0    0  0.46899610420E+02  0.26366672900E+02  0.62982460250E+02  0.82840601135E+02  0.10000000000E+01 0.  0.
<mgrwt>
<rscale>  0 0.12500102E+03</rscale>
<asrwt>0</asrwt>
<pdfrwt beam="2">  1        4 0.62173784E-02 0.12500102E+03</pdfrwt>
<pdfrwt beam="1">  1       -4 0.14870759E-01 0.12500102E+03</pdfrwt>
<totfact> 0.10194326E+04</totfact>
</mgrwt>
</event>
<event>
 5    1  0.3232465E-002  0.1250003E+03  0.7818608E-02  0.1235069E+00
         -4   -1    0    0    0  501 -0.00000000000E+00  0.00000000000E+00  0.37573528866E+03  0.37573743498E+03  0.12700000000E+01 0. -1.
          4   -1    0    0  501    0  0.00000000000E+00 -0.00000000000E+00 -0.10355363072E+02  0.10432949935E+02  0.12700000000E+01 0. -1.
         25    2    1    2    0    0  0.00000000000E+00  0.00000000000E+00  0.36537992559E+03  0.38617038491E+03  0.12500030465E+03 0.  0.
    9000005    1    3    3    0    0  0.52633681303E+02 -0.14144541787E+02  0.88229585275E+02  0.10371032826E+03  0.10000000000E+01 0.  0.
    9000005    1    3    3    0    0 -0.52633681303E+02  0.14144541787E+02  0.27715034031E+03  0.28246005665E+03  0.10000000000E+01 0.  0.
<mgrwt>
<rscale>  0 0.12500030E+03</rscale>
<asrwt>0</asrwt>
<pdfrwt beam="2">  1        4 0.15992662E-02 0.12500030E+03</pdfrwt>
<pdfrwt beam="1">  1       -4 0.57811559E-01 0.12500030E+03</pdfrwt>
<totfact> 0.65919995E+03</totfact>
</mgrwt>
</event>
<event>
 5    1  0.3232465E-002  0.1249993E+03  0.7818608E-02  0.1235070E+00
         -4   -1    0    0    0  501 -0.00000000000E+00  0.00000000000E+00  0.28294995721E+02  0.28323482888E+02  0.12700000000E+01 0. -1.
          4   -1    0    0  501    0  0.00000000000E+00 -0.00000000000E+00 -0.13795193182E+03  0.13795777757E+03  0.12700000000E+01 0. -1.
         25    2    1    2    0    0  0.00000000000E+00  0.00000000000E+00 -0.10965693610E+03  0.16628126046E+03  0.12499925578E+03 0.  0.
    9000005    1    3    3    0    0 -0.65246865831E+01  0.62075692830E+02 -0.50784765727E+02  0.80473943642E+02  0.10000000000E+01 0.  0.
    9000005    1    3    3    0    0  0.65246865831E+01 -0.62075692830E+02 -0.58872170373E+02  0.85807316820E+02  0.10000000000E+01 0.  0.
<mgrwt>
<rscale>  0 0.12499926E+03</rscale>
<asrwt>0</asrwt>
<pdfrwt beam="2">  1        4 0.21226015E-01 0.12499926E+03</pdfrwt>
<pdfrwt beam="1">  1       -4 0.43557173E-02 0.12499926E+03</pdfrwt>
<totfact> 0.96146898E+03</totfact>
</mgrwt>
</event>
<event>
 5    1  0.3232465E-002  0.1249921E+03  0.7818608E-02  0.1235082E+00
          4   -1    0    0  501    0  0.00000000000E+00  0.00000000000E+00  0.16438913647E+02  0.16487898044E+02  0.12700000000E+01 0.  1.
         -4   -1    0    0    0  501 -0.00000000000E+00 -0.00000000000E+00 -0.23718799610E+03  0.23719139612E+03  0.12700000000E+01 0.  1.
         25    2    1    2    0    0  0.00000000000E+00  0.00000000000E+00 -0.22074908245E+03  0.25367929416E+03  0.12499210729E+03 0.  0.
    9000005    1    3    3    0    0 -0.18324737488E+02  0.22837840052E+02 -0.22241289499E+03  0.22433425686E+03  0.10000000000E+01 0.  0.
    9000005    1    3    3    0    0  0.18324737488E+02 -0.22837840052E+02  0.16638125392E+01  0.29345037305E+02  0.10000000000E+01 0.  0.
<mgrwt>
<rscale>  0 0.12499211E+03</rscale>
<asrwt>0</asrwt>
<pdfrwt beam="1">  1        4 0.25330934E-02 0.12499211E+03</pdfrwt>
<pdfrwt beam="2">  1       -4 0.36494488E-01 0.12499211E+03</pdfrwt>
<totfact> 0.81815728E+03</totfact>
</mgrwt>
</event>
<event>
 5    1  0.3232465E-002  0.1249923E+03  0.7818608E-02  0.1235081E+00
          4   -1    0    0  501    0  0.00000000000E+00  0.00000000000E+00  0.14550439171E+02  0.14605758456E+02  0.12700000000E+01 0.  1.
         -4   -1    0    0    0  501 -0.00000000000E+00 -0.00000000000E+00 -0.26786367565E+03  0.26786668630E+03  0.12700000000E+01 0.  1.
         25    2    1    2    0    0  0.00000000000E+00  0.00000000000E+00 -0.25331323648E+03  0.28247244476E+03  0.12499234486E+03 0.  0.
    9000005    1    3    3    0    0 -0.40653680479E+02 -0.20438038680E+02 -0.22344699182E+03  0.22803507036E+03  0.10000000000E+01 0.  0.
    9000005    1    3    3    0    0  0.40653680479E+02  0.20438038680E+02 -0.29866244656E+02  0.54437374398E+02  0.10000000000E+01 0.  0.
<mgrwt>
<rscale>  0 0.12499234E+03</rscale>
<asrwt>0</asrwt>
<pdfrwt beam="1">  1        4 0.22430162E-02 0.12499234E+03</pdfrwt>
<pdfrwt beam="2">  1       -4 0.41214279E-01 0.12499234E+03</pdfrwt>
<totfact> 0.77864663E+03</totfact>
</mgrwt>
</event>
<event>
 5    1  0.3232465E-002  0.1250029E+03  0.7818608E-02  0.1235065E+00
          4   -1    0    0  501    0  0.00000000000E+00  0.00000000000E+00  0.88045685364E+01  0.88956914915E+01  0.12700000000E+01 0.  1.
         -4   -1    0    0    0  501 -0.00000000000E+00 -0.00000000000E+00 -0.44130648371E+03  0.44130831112E+03  0.12700000000E+01 0.  1.
         25    2    1    2    0    0  0.00000000000E+00  0.00000000000E+00 -0.43250191517E+03  0.45020400261E+03  0.12500294932E+03 0.  0.
    9000005    1    3    3    0    0 -0.60562543709E+02 -0.11752789787E+02 -0.25217349024E+03  0.25961205470E+03  0.10000000000E+01 0.  0.
    9000005    1    3    3    0    0  0.60562543709E+02  0.11752789787E+02 -0.18032842494E+03  0.19059194791E+03  0.10000000000E+01 0.  0.
<mgrwt>
<rscale>  0 0.12500295E+03</rscale>
<asrwt>0</asrwt>
<pdfrwt beam="1">  1        4 0.13616994E-02 0.12500295E+03</pdfrwt>
<pdfrwt beam="2">  1       -4 0.67900438E-01 0.12500295E+03</pdfrwt>
<totfact> 0.59942239E+03</totfact>
</mgrwt>
</event>
<event>
 5    1  0.3232465E-002  0.1250011E+03  0.7818608E-02  0.1235067E+00
         -4   -1    0    0    0  501 -0.00000000000E+00  0.00000000000E+00  0.22644380883E+03  0.22644737017E+03  0.12700000000E+01 0.  1.
          4   -1    0    0  501    0  0.00000000000E+00 -0.00000000000E+00 -0.17223655441E+02  0.17270414203E+02  0.12700000000E+01 0.  1.
         25    2    1    2    0    0  0.00000000000E+00  0.00000000000E+00  0.20922015339E+03  0.24371778437E+03  0.12500114334E+03 0.  0.
    9000005    1    3    3    0    0  0.26392101260E+02  0.36612178436E+02  0.18888525158E+03  0.19420513094E+03  0.10000000000E+01 0.  0.
    9000005    1    3    3    0    0 -0.26392101260E+02 -0.36612178436E+02  0.20334901811E+02  0.49512653437E+02  0.10000000000E+01 0.  0.
<mgrwt>
<rscale>  0 0.12500114E+03</rscale>
<asrwt>0</asrwt>
<pdfrwt beam="2">  1        4 0.26536642E-02 0.12500114E+03</pdfrwt>
<pdfrwt beam="1">  1       -4 0.34841377E-01 0.12500114E+03</pdfrwt>
<totfact> 0.83244647E+03</totfact>
</mgrwt>
</event>
<event>
 5    1  0.3232465E-002  0.1250121E+03  0.7818608E-02  0.1235050E+00
         -4   -1    0    0    0  501 -0.00000000000E+00  0.00000000000E+00  0.21213644383E+03  0.21214024536E+03  0.12700000000E+01 0.  1.
          4   -1    0    0  501    0  0.00000000000E+00 -0.00000000000E+00 -0.18391553789E+02  0.18435350574E+02  0.12700000000E+01 0.  1.
         25    2    1    2    0    0  0.00000000000E+00  0.00000000000E+00  0.19374489004E+03  0.23057559593E+03  0.12501209151E+03 0.  0.
    9000005    1    3    3    0    0  0.14150675611E+02  0.55607972091E+02  0.14255757057E+03  0.15367546684E+03  0.10000000000E+01 0.  0.
    9000005    1    3    3    0    0 -0.14150675611E+02 -0.55607972091E+02  0.51187319464E+02  0.76900129091E+02  0.10000000000E+01 0.  0.
<mgrwt>
<rscale>  0 0.12501209E+03</rscale>
<asrwt>0</asrwt>
<pdfrwt beam="2">  1        4 0.28331314E-02 0.12501209E+03</pdfrwt>
<pdfrwt beam="1">  1       -4 0.32640035E-01 0.12501209E+03</pdfrwt>
<totfact> 0.85198307E+03</totfact>
</mgrwt>
</event>
<event>
 5    1  0.3232465E-002  0.1249967E+03  0.7818608E-02  0.1235075E+00
          4   -1    0    0  501    0  0.00000000000E+00  0.00000000000E+00  0.23723017366E+02  0.23756987455E+02  0.12700000000E+01 0.  1.
         -4   -1    0    0    0  501 -0.00000000000E+00 -0.00000000000E+00 -0.16449773004E+03  0.16450263247E+03  0.12700000000E+01 0.  1.
         25    2    1    2    0    0  0.00000000000E+00  0.00000000000E+00 -0.14077471267E+03  0.18825961992E+03  0.12499665901E+03 0.  0.
    9000005    1    3    3    0    0  0.88948375025E+01  0.48659797552E+02 -0.12789948610E+03  0.13713559923E+03  0.10000000000E+01 0.  0.
    9000005    1    3    3    0    0 -0.88948375025E+01 -0.48659797552E+02 -0.12875226571E+02  0.51124020687E+02  0.10000000000E+01 0.  0.
<mgrwt>
<rscale>  0 0.12499666E+03</rscale>
<asrwt>0</asrwt>
<pdfrwt beam="1">  1        4 0.36526853E-02 0.12499666E+03</pdfrwt>
<pdfrwt beam="2">  1       -4 0.25310333E-01 0.12499666E+03</pdfrwt>
<totfact> 0.92157918E+03</totfact>
</mgrwt>
</event>
<event>
 5    1  0.3232465E-002  0.1250003E+03  0.7818608E-02  0.1235069E+00
         -4   -1    0    0    0  501 -0.00000000000E+00  0.00000000000E+00  0.26176017608E+03  0.26176325693E+03  0.12700000000E+01 0. -1.
          4   -1    0    0  501    0  0.00000000000E+00 -0.00000000000E+00 -0.14892892840E+02  0.14946944743E+02  0.12700000000E+01 0. -1.
         25    2    1    2    0    0  0.00000000000E+00  0.00000000000E+00  0.24686728324E+03  0.27671020168E+03  0.12500032071E+03 0.  0.
    9000005    1    3    3    0    0 -0.11961517202E+02  0.51957356154E+02  0.51272379928E+02  0.73976359033E+02  0.10000000000E+01 0.  0.
    9000005    1    3    3    0    0  0.11961517202E+02 -0.51957356154E+02  0.19559490331E+03  0.20273384265E+03  0.10000000000E+01 0.  0.
<mgrwt>
<rscale>  0 0.12500032E+03</rscale>
<asrwt>0</asrwt>
<pdfrwt beam="2">  1        4 0.22956091E-02 0.12500032E+03</pdfrwt>
<pdfrwt beam="1">  1       -4 0.40275191E-01 0.12500032E+03</pdfrwt>
<totfact> 0.78615779E+03</totfact>
</mgrwt>
</event>
<event>
 5    1  0.3232465E-002  0.1249933E+03  0.7818608E-02  0.1235080E+00
          4   -1    0    0  501    0  0.00000000000E+00  0.00000000000E+00  0.21737201376E+02  0.21774269762E+02  0.12700000000E+01 0. -1.
         -4   -1    0    0    0  501 -0.00000000000E+00 -0.00000000000E+00 -0.17949176532E+03  0.17949625822E+03  0.12700000000E+01 0. -1.
         25    2    1    2    0    0  0.00000000000E+00  0.00000000000E+00 -0.15775456394E+03  0.20127052799E+03  0.12499329179E+03 0.  0.
    9000005    1    3    3    0    0  0.45831533026E+02  0.14663054696E+02 -0.14683066356E+02  0.50320244734E+02  0.10000000000E+01 0.  0.
    9000005    1    3    3    0    0 -0.45831533026E+02 -0.14663054696E+02 -0.14307149758E+03  0.15095028325E+03  0.10000000000E+01 0.  0.
<mgrwt>
<rscale>  0 0.12499329E+03</rscale>
<asrwt>0</asrwt>
<pdfrwt beam="1">  1        4 0.33473820E-02 0.12499329E+03</pdfrwt>
<pdfrwt beam="2">  1       -4 0.27617314E-01 0.12499329E+03</pdfrwt>
<totfact> 0.89935161E+03</totfact>
</mgrwt>
</event>
<event>
 5    1  0.3232465E-002  0.1249997E+03  0.7818608E-02  0.1235070E+00
         -4   -1    0    0    0  501 -0.00000000000E+00  0.00000000000E+00  0.47502956799E+03  0.47503126567E+03  0.12700000000E+01 0. -1.
          4   -1    0    0  501    0  0.00000000000E+00 -0.00000000000E+00 -0.81723739422E+01  0.82704652741E+01  0.12700000000E+01 0. -1.
         25    2    1    2    0    0  0.00000000000E+00  0.00000000000E+00  0.46685719405E+03  0.48330173095E+03  0.12499969400E+03 0.  0.
    9000005    1    3    3    0    0  0.58980282728E+02  0.19085315359E+02  0.20290885732E+03  0.21216957226E+03  0.10000000000E+01 0.  0.
    9000005    1    3    3    0    0 -0.58980282728E+02 -0.19085315359E+02  0.26394833673E+03  0.27113215869E+03  0.10000000000E+01 0.  0.
<mgrwt>
<rscale>  0 0.12499969E+03</rscale>
<asrwt>0</asrwt>
<pdfrwt beam="2">  1        4 0.12649644E-02 0.12499969E+03</pdfrwt>
<pdfrwt beam="1">  1       -4 0.73089147E-01 0.12499969E+03</pdfrwt>
<totfact> 0.57184013E+03</totfact>
</mgrwt>
</event>
<event>
 5    1  0.3232465E-002  0.1250039E+03  0.7818608E-02  0.1235063E+00
          4   -1    0    0  501    0  0.00000000000E+00  0.00000000000E+00  0.55739954152E+01  0.57168457115E+01  0.12700000000E+01 0.  1.
         -4   -1    0    0    0  501 -0.00000000000E+00 -0.00000000000E+00 -0.69183199192E+03  0.69183315760E+03  0.12700000000E+01 0.  1.
         25    2    1    2    0    0  0.00000000000E+00  0.00000000000E+00 -0.68625799651E+03  0.69755000331E+03  0.12500387731E+03 0.  0.
    9000005    1    3    3    0    0 -0.39691086072E+02  0.40708428554E+02 -0.19837250493E+03  0.20636184042E+03  0.10000000000E+01 0.  0.
    9000005    1    3    3    0    0  0.39691086072E+02 -0.40708428554E+02 -0.48788549157E+03  0.49118816288E+03  0.10000000000E+01 0.  0.
<mgrwt>
<rscale>  0 0.12500388E+03</rscale>
<asrwt>0</asrwt>
<pdfrwt beam="1">  1        4 0.86861645E-03 0.12500388E+03</pdfrwt>
<pdfrwt beam="2">  1       -4 0.10644670E+00 0.12500388E+03</pdfrwt>
<totfact> 0.43212692E+03</totfact>
</mgrwt>
</event>
<event>
 5    1  0.3232465E-002  0.1249996E+03  0.7818608E-02  0.1235070E+00
          4   -1    0    0  501    0  0.00000000000E+00  0.00000000000E+00  0.72416940167E+02  0.72428075518E+02  0.12700000000E+01 0. -1.
         -4   -1    0    0    0  501 -0.00000000000E+00 -0.00000000000E+00 -0.53918009199E+02  0.53932964094E+02  0.12700000000E+01 0. -1.
         25    2    1    2    0    0  0.00000000000E+00  0.00000000000E+00  0.18498930969E+02  0.12636103961E+03  0.12499960754E+03 0.  0.
    9000005    1    3    3    0    0 -0.29552830586E+02  0.14902881300E+02  0.62833960042E+02  0.71025151892E+02  0.10000000000E+01 0.  0.
    9000005    1    3    3    0    0  0.29552830586E+02 -0.14902881300E+02 -0.44335029074E+02  0.55335887719E+02  0.10000000000E+01 0.  0.
<mgrwt>
<rscale>  0 0.12499961E+03</rscale>
<asrwt>0</asrwt>
<pdfrwt beam="1">  1        4 0.11143075E-01 0.12499961E+03</pdfrwt>
<pdfrwt beam="2">  1       -4 0.82970853E-02 0.12499961E+03</pdfrwt>
<totfact> 0.10423153E+04</totfact>
</mgrwt>
</event>
<event>
 5    1  0.3232465E-002  0.1250373E+03  0.7818608E-02  0.1235011E+00
          4   -1    0    0  501    0  0.00000000000E+00  0.00000000000E+00  0.14655689256E+03  0.14656239510E+03  0.12700000000E+01 0.  1.
         -4   -1    0    0    0  501 -0.00000000000E+00 -0.00000000000E+00 -0.26648247316E+02  0.26678492930E+02  0.12700000000E+01 0.  1.
         25    2    1    2    0    0  0.00000000000E+00  0.00000000000E+00  0.11990864524E+03  0.17324088803E+03  0.12503728276E+03 0.  0.
    9000005    1    3    3    0    0 -0.44018917725E+02 -0.27800554447E+02  0.10789079103E+03  0.11979966082E+03  0.10000000000E+01 0.  0.
    9000005    1    3    3    0    0  0.44018917725E+02  0.27800554447E+02  0.12017854219E+02  0.53441227206E+02  0.10000000000E+01 0.  0.
<mgrwt>
<rscale>  0 0.12503728E+03</rscale>
<asrwt>0</asrwt>
<pdfrwt beam="1">  1        4 0.22549964E-01 0.12503728E+03</pdfrwt>
<pdfrwt beam="2">  1       -4 0.41024802E-02 0.12503728E+03</pdfrwt>
<totfact> 0.94768709E+03</totfact>
</mgrwt>
</event>
<event>
 5    1  0.3232465E-002  0.1250025E+03  0.7818608E-02  0.1235065E+00
          4   -1    0    0  501    0  0.00000000000E+00  0.00000000000E+00  0.46852195376E+03  0.46852367502E+03  0.12700000000E+01 0.  1.
         -4   -1    0    0    0  501 -0.00000000000E+00 -0.00000000000E+00 -0.82876112459E+01  0.83843544870E+01  0.12700000000E+01 0.  1.
         25    2    1    2    0    0  0.00000000000E+00  0.00000000000E+00  0.46023434251E+03  0.47690802951E+03  0.12500247429E+03 0.  0.
    9000005    1    3    3    0    0 -0.23465752037E+02  0.57591242784E+02  0.25363925029E+03  0.26115371345E+03  0.10000000000E+01 0.  0.
    9000005    1    3    3    0    0  0.23465752037E+02 -0.57591242784E+02  0.20659509223E+03  0.21575431606E+03  0.10000000000E+01 0.  0.
<mgrwt>
<rscale>  0 0.12500247E+03</rscale>
<asrwt>0</asrwt>
<pdfrwt beam="1">  1        4 0.72087883E-01 0.12500247E+03</pdfrwt>
<pdfrwt beam="2">  1       -4 0.12825912E-02 0.12500247E+03</pdfrwt>
<totfact> 0.57698467E+03</totfact>
</mgrwt>
</event>
<event>
 5    1  0.3232465E-002  0.1249938E+03  0.7818608E-02  0.1235079E+00
         -4   -1    0    0    0  501 -0.00000000000E+00  0.00000000000E+00  0.11066779981E+04  0.11066787268E+04  0.12700000000E+01 0. -1.
          4   -1    0    0  501    0  0.00000000000E+00 -0.00000000000E+00 -0.34143544676E+01  0.36428994538E+01  0.12700000000E+01 0. -1.
         25    2    1    2    0    0  0.00000000000E+00  0.00000000000E+00  0.11032636436E+04  0.11103216263E+04  0.12499378542E+03 0.  0.
    9000005    1    3    3    0    0 -0.39201073442E+01  0.71026153754E+00 -0.23286606764E+01  0.47216918141E+01  0.10000000000E+01 0.  0.
    9000005    1    3    3    0    0  0.39201073442E+01 -0.71026153754E+00  0.11055923043E+04  0.11055999344E+04  0.10000000000E+01 0.  0.
<mgrwt>
<rscale>  0 0.12499379E+03</rscale>
<asrwt>0</asrwt>
<pdfrwt beam="2">  1        4 0.54292128E-03 0.12499379E+03</pdfrwt>
<pdfrwt beam="1">  1       -4 0.17027593E+00 0.12499379E+03</pdfrwt>
<totfact> 0.27186916E+03</totfact>
</mgrwt>
</event>
<event>
 5    1  0.3232465E-002  0.1249981E+03  0.7818608E-02  0.1235072E+00
         -4   -1    0    0    0  501 -0.00000000000E+00  0.00000000000E+00  0.19403267638E+02  0.19444785806E+02  0.12700000000E+01 0. -1.
          4   -1    0    0  501    0  0.00000000000E+00 -0.00000000000E+00 -0.20105454386E+03  0.20105855492E+03  0.12700000000E+01 0. -1.
         25    2    1    2    0    0  0.00000000000E+00  0.00000000000E+00 -0.18165127622E+03  0.22050334073E+03  0.12499814846E+03 0.  0.
    9000005    1    3    3    0    0 -0.56907010892E+02 -0.24086469828E+02 -0.74412516240E+02  0.96730494109E+02  0.10000000000E+01 0.  0.
    9000005    1    3    3    0    0  0.56907010892E+02  0.24086469828E+02 -0.10723875998E+03  0.12377284662E+03  0.10000000000E+01 0.  0.
<mgrwt>
<rscale>  0 0.12499815E+03</rscale>
<asrwt>0</asrwt>
<pdfrwt beam="2">  1        4 0.30934969E-01 0.12499815E+03</pdfrwt>
<pdfrwt beam="1">  1       -4 0.29886205E-02 0.12499815E+03</pdfrwt>
<totfact> 0.86792355E+03</totfact>
</mgrwt>
</event>
<event>
 5    1  0.3232465E-002  0.1249926E+03  0.7818608E-02  0.1235081E+00
          4   -1    0    0  501    0  0.00000000000E+00  0.00000000000E+00  0.17249295071E+03  0.17249762591E+03  0.12700000000E+01 0.  1.
         -4   -1    0    0    0  501 -0.00000000000E+00 -0.00000000000E+00 -0.22620389632E+02  0.22656013045E+02  0.12700000000E+01 0.  1.
         25    2    1    2    0    0  0.00000000000E+00  0.00000000000E+00  0.14987256107E+03  0.19515363895E+03  0.12499263271E+03 0.  0.
    9000005    1    3    3    0    0  0.17242257627E+02 -0.31801136128E+02  0.15448987240E+03  0.15867176303E+03  0.10000000000E+01 0.  0.
    9000005    1    3    3    0    0 -0.17242257627E+02  0.31801136128E+02 -0.46173113277E+01  0.36481875925E+02  0.10000000000E+01 0.  0.
<mgrwt>
<rscale>  0 0.12499263E+03</rscale>
<asrwt>0</asrwt>
<pdfrwt beam="1">  1        4 0.26540477E-01 0.12499263E+03</pdfrwt>
<pdfrwt beam="2">  1       -4 0.34831598E-02 0.12499263E+03</pdfrwt>
<totfact> 0.90973254E+03</totfact>
</mgrwt>
</event>
<event>
 5    1  0.3232465E-002  0.1249840E+03  0.7818608E-02  0.1235094E+00
         -4   -1    0    0    0  501 -0.00000000000E+00  0.00000000000E+00  0.49233420047E+02  0.49249797457E+02  0.12700000000E+01 0.  1.
          4   -1    0    0  501    0  0.00000000000E+00 -0.00000000000E+00 -0.79286463962E+02  0.79296634655E+02  0.12700000000E+01 0.  1.
         25    2    1    2    0    0  0.00000000000E+00  0.00000000000E+00 -0.30053043915E+02  0.12854643211E+03  0.12498399802E+03 0.  0.
    9000005    1    3    3    0    0  0.34820208213E+01  0.30909408351E+02 -0.70762793817E+02  0.77303874304E+02  0.10000000000E+01 0.  0.
    9000005    1    3    3    0    0 -0.34820208213E+01 -0.30909408351E+02  0.40709749902E+02  0.51242557808E+02  0.10000000000E+01 0.  0.
<mgrwt>
<rscale>  0 0.12498400E+03</rscale>
<asrwt>0</asrwt>
<pdfrwt beam="2">  1        4 0.12199960E-01 0.12498400E+03</pdfrwt>
<pdfrwt beam="1">  1       -4 0.75764145E-02 0.12498400E+03</pdfrwt>
<totfact> 0.10379453E+04</totfact>
</mgrwt>
</event>
<event>
 5    1  0.3232465E-002  0.1250019E+03  0.7818608E-02  0.1235066E+00
          4   -1    0    0  501    0  0.00000000000E+00  0.00000000000E+00  0.41964462234E+01  0.43844111242E+01  0.12700000000E+01 0.  1.
         -4   -1    0    0    0  501 -0.00000000000E+00 -0.00000000000E+00 -0.91029593928E+03  0.91029682520E+03  0.12700000000E+01 0.  1.
         25    2    1    2    0    0  0.00000000000E+00  0.00000000000E+00 -0.90609949306E+03  0.91468123633E+03  0.12500189105E+03 0.  0.
    9000005    1    3    3    0    0 -0.18776504415E+02  0.23483550041E+02 -0.52173477776E+02  0.60225459931E+02  0.10000000000E+01 0.  0.
    9000005    1    3    3    0    0  0.18776504415E+02 -0.23483550041E+02 -0.85392601528E+03  0.85445577640E+03  0.10000000000E+01 0.  0.
<mgrwt>
<rscale>  0 0.12500189E+03</rscale>
<asrwt>0</asrwt>
<pdfrwt beam="1">  1        4 0.66013482E-03 0.12500189E+03</pdfrwt>
<pdfrwt beam="2">  1       -4 0.14005990E+00 0.12500189E+03</pdfrwt>
<totfact> 0.33602614E+03</totfact>
</mgrwt>
</event>
<event>
 5    1  0.3232465E-002  0.1249890E+03  0.7818608E-02  0.1235086E+00
          4   -1    0    0  501    0  0.00000000000E+00  0.00000000000E+00  0.36882900916E+03  0.36883119567E+03  0.12700000000E+01 0. -1.
         -4   -1    0    0    0  501 -0.00000000000E+00 -0.00000000000E+00 -0.10548790222E+02  0.10624964713E+02  0.12700000000E+01 0. -1.
         25    2    1    2    0    0  0.00000000000E+00  0.00000000000E+00  0.35828021894E+03  0.37945616038E+03  0.12498904900E+03 0.  0.
    9000005    1    3    3    0    0  0.52253215257E+02 -0.23934260156E+02  0.25358619157E+03  0.26001962208E+03  0.10000000000E+01 0.  0.
    9000005    1    3    3    0    0 -0.52253215257E+02  0.23934260156E+02  0.10469402737E+03  0.11943653830E+03  0.10000000000E+01 0.  0.
<mgrwt>
<rscale>  0 0.12498905E+03</rscale>
<asrwt>0</asrwt>
<pdfrwt beam="1">  1        4 0.56748950E-01 0.12498905E+03</pdfrwt>
<pdfrwt beam="2">  1       -4 0.16289186E-02 0.12498905E+03</pdfrwt>
<totfact> 0.66617232E+03</totfact>
</mgrwt>
</event>
<event>
 5    1  0.3232465E-002  0.1250010E+03  0.7818608E-02  0.1235068E+00
         -4   -1    0    0    0  501 -0.00000000000E+00  0.00000000000E+00  0.51784830856E+03  0.51784986587E+03  0.12700000000E+01 0.  1.
          4   -1    0    0  501    0  0.00000000000E+00 -0.00000000000E+00 -0.74883145290E+01  0.75952455184E+01  0.12700000000E+01 0.  1.
         25    2    1    2    0    0  0.00000000000E+00  0.00000000000E+00  0.51035999403E+03  0.52544511139E+03  0.12500096628E+03 0.  0.
    9000005    1    3    3    0    0  0.64701621572E+01  0.39243699904E+02  0.45779614473E+03  0.45952175260E+03  0.10000000000E+01 0.  0.
    9000005    1    3    3    0    0 -0.64701621572E+01 -0.39243699904E+02  0.52563849300E+02  0.65923358787E+02  0.10000000000E+01 0.  0.
<mgrwt>
<rscale>  0 0.12500097E+03</rscale>
<asrwt>0</asrwt>
<pdfrwt beam="2">  1        4 0.11603935E-02 0.12500097E+03</pdfrwt>
<pdfrwt beam="1">  1       -4 0.79677327E-01 0.12500097E+03</pdfrwt>
<totfact> 0.53941656E+03</totfact>
</mgrwt>
</event>
<event>
 5    1  0.3232465E-002  0.1250007E+03  0.7818608E-02  0.1235068E+00
          4   -1    0    0  501    0  0.00000000000E+00  0.00000000000E+00  0.61421228580E+02  0.61434357003E+02  0.12700000000E+01 0. -1.
         -4   -1    0    0    0  501 -0.00000000000E+00 -0.00000000000E+00 -0.63572171827E+02  0.63584856144E+02  0.12700000000E+01 0. -1.
         25    2    1    2    0    0  0.00000000000E+00  0.00000000000E+00 -0.21509432466E+01  0.12501921315E+03  0.12500070839E+03 0.  0.
    9000005    1    3    3    0    0  0.44176830327E+02  0.39786485265E+02 -0.20332867637E+02  0.62840928174E+02  0.10000000000E+01 0.  0.
    9000005    1    3    3    0    0 -0.44176830327E+02 -0.39786485265E+02  0.18181924390E+02  0.62178284972E+02  0.10000000000E+01 0.  0.
<mgrwt>
<rscale>  0 0.12500071E+03</rscale>
<asrwt>0</asrwt>
<pdfrwt beam="1">  1        4 0.94514054E-02 0.12500071E+03</pdfrwt>
<pdfrwt beam="2">  1       -4 0.97823197E-02 0.12500071E+03</pdfrwt>
<totfact> 0.10452278E+04</totfact>
</mgrwt>
</event>
<event>
 5    1  0.3232465E-002  0.1250042E+03  0.7818608E-02  0.1235063E+00
         -4   -1    0    0    0  501 -0.00000000000E+00  0.00000000000E+00  0.16890343804E+03  0.16890821259E+03  0.12700000000E+01 0.  1.
          4   -1    0    0  501    0  0.00000000000E+00 -0.00000000000E+00 -0.23106125479E+02  0.23141001159E+02  0.12700000000E+01 0.  1.
         25    2    1    2    0    0  0.00000000000E+00  0.00000000000E+00  0.14579731256E+03  0.19204921375E+03  0.12500417654E+03 0.  0.
    9000005    1    3    3    0    0  0.30756476487E+02 -0.51069556084E+02  0.10170049243E+03  0.11788999349E+03  0.10000000000E+01 0.  0.
    9000005    1    3    3    0    0 -0.30756476487E+02  0.51069556084E+02  0.44096820136E+02  0.74159220267E+02  0.10000000000E+01 0.  0.
<mgrwt>
<rscale>  0 0.12500418E+03</rscale>
<asrwt>0</asrwt>
<pdfrwt beam="2">  1        4 0.35578385E-02 0.12500418E+03</pdfrwt>
<pdfrwt beam="1">  1       -4 0.25988194E-01 0.12500418E+03</pdfrwt>
<totfact> 0.91483418E+03</totfact>
</mgrwt>
</event>
<event>
 5    1  0.3232465E-002  0.1249998E+03  0.7818608E-02  0.1235070E+00
         -4   -1    0    0    0  501 -0.00000000000E+00  0.00000000000E+00  0.69145913419E+01  0.70302541508E+01  0.12700000000E+01 0. -1.
          4   -1    0    0  501    0  0.00000000000E+00 -0.00000000000E+00 -0.56012443828E+03  0.56012587805E+03  0.12700000000E+01 0. -1.
         25    2    1    2    0    0  0.00000000000E+00  0.00000000000E+00 -0.55320984694E+03  0.56715613220E+03  0.12499977416E+03 0.  0.
    9000005    1    3    3    0    0  0.12035273335E+02  0.61308394416E+02 -0.28246634187E+03  0.28929535309E+03  0.10000000000E+01 0.  0.
    9000005    1    3    3    0    0 -0.12035273335E+02 -0.61308394416E+02 -0.27074350507E+03  0.27786077911E+03  0.10000000000E+01 0.  0.
<mgrwt>
<rscale>  0 0.12499977E+03</rscale>
<asrwt>0</asrwt>
<pdfrwt beam="2">  1        4 0.86181963E-01 0.12499977E+03</pdfrwt>
<pdfrwt beam="1">  1       -4 0.10727916E-02 0.12499977E+03</pdfrwt>
<totfact> 0.51008953E+03</totfact>
</mgrwt>
</event>
<event>
 5    1  0.3232465E-002  0.1249971E+03  0.7818608E-02  0.1235074E+00
          4   -1    0    0  501    0  0.00000000000E+00  0.00000000000E+00  0.71690996959E+02  0.71702245048E+02  0.12700000000E+01 0.  1.
         -4   -1    0    0    0  501 -0.00000000000E+00 -0.00000000000E+00 -0.54461878848E+02  0.54476684440E+02  0.12700000000E+01 0.  1.
         25    2    1    2    0    0  0.00000000000E+00  0.00000000000E+00  0.17229118111E+02  0.12617892949E+03  0.12499711891E+03 0.  0.
    9000005    1    3    3    0    0  0.25235295408E+02 -0.42964472747E+02  0.46684572757E+02  0.68287739648E+02  0.10000000000E+01 0.  0.
    9000005    1    3    3    0    0 -0.25235295408E+02  0.42964472747E+02 -0.29455454646E+02  0.57891189840E+02  0.10000000000E+01 0.  0.
<mgrwt>
<rscale>  0 0.12499712E+03</rscale>
<asrwt>0</asrwt>
<pdfrwt beam="1">  1        4 0.11031388E-01 0.12499712E+03</pdfrwt>
<pdfrwt beam="2">  1       -4 0.83807547E-02 0.12499712E+03</pdfrwt>
<totfact> 0.10427718E+04</totfact>
</mgrwt>
</event>
<event>
 5    1  0.3232465E-002  0.1249977E+03  0.7818608E-02  0.1235073E+00
          4   -1    0    0  501    0  0.00000000000E+00  0.00000000000E+00  0.96668807205E+00  0.15960532036E+01  0.12700000000E+01 0.  1.
         -4   -1    0    0    0  501 -0.00000000000E+00 -0.00000000000E+00 -0.30477537680E+04  0.30477540326E+04  0.12700000000E+01 0.  1.
         25    2    1    2    0    0  0.00000000000E+00  0.00000000000E+00 -0.30467870799E+04  0.30493500858E+04  0.12499774159E+03 0.  0.
    9000005    1    3    3    0    0  0.21007723177E+02 -0.58562326424E+02 -0.13806483509E+04  0.13820498324E+04  0.10000000000E+01 0.  0.
    9000005    1    3    3    0    0 -0.21007723177E+02  0.58562326424E+02 -0.16661387291E+04  0.16673002534E+04  0.10000000000E+01 0.  0.
<mgrwt>
<rscale>  0 0.12499774E+03</rscale>
<asrwt>0</asrwt>
<pdfrwt beam="1">  1        4 0.19715674E-03 0.12499774E+03</pdfrwt>
<pdfrwt beam="2">  1       -4 0.46892783E+00 0.12499774E+03</pdfrwt>
<totfact> 0.16378266E+02</totfact>
</mgrwt>
</event>
<event>
 5    1  0.3232465E-002  0.1249985E+03  0.7818608E-02  0.1235072E+00
         -4   -1    0    0    0  501 -0.00000000000E+00  0.00000000000E+00  0.50494526859E+03  0.50494686569E+03  0.12700000000E+01 0.  1.
          4   -1    0    0  501    0  0.00000000000E+00 -0.00000000000E+00 -0.76820552028E+01  0.77863259718E+01  0.12700000000E+01 0.  1.
         25    2    1    2    0    0  0.00000000000E+00  0.00000000000E+00  0.49726321339E+03  0.51273319166E+03  0.12499848977E+03 0.  0.
    9000005    1    3    3    0    0  0.38264727874E+02  0.11683346380E+02  0.44554342564E+03  0.44733727110E+03  0.10000000000E+01 0.  0.
    9000005    1    3    3    0    0 -0.38264727874E+02 -0.11683346380E+02  0.51719787744E+02  0.65395920562E+02  0.10000000000E+01 0.  0.
<mgrwt>
<rscale>  0 0.12499849E+03</rscale>
<asrwt>0</asrwt>
<pdfrwt beam="2">  1        4 0.11899984E-02 0.12499849E+03</pdfrwt>
<pdfrwt beam="1">  1       -4 0.77692028E-01 0.12499849E+03</pdfrwt>
<totfact> 0.54891609E+03</totfact>
</mgrwt>
</event>
<event>
 5    1  0.3232465E-002  0.1249996E+03  0.7818608E-02  0.1235070E+00
          4   -1    0    0  501    0  0.00000000000E+00  0.00000000000E+00  0.29197573504E+03  0.29197849707E+03  0.12700000000E+01 0. -1.
         -4   -1    0    0    0  501 -0.00000000000E+00 -0.00000000000E+00 -0.13345618987E+02  0.13405910866E+02  0.12700000000E+01 0. -1.
         25    2    1    2    0    0  0.00000000000E+00  0.00000000000E+00  0.27863011605E+03  0.30538440794E+03  0.12499958016E+03 0.  0.
    9000005    1    3    3    0    0  0.13413403384E+02  0.22968319791E+02  0.11617518739E+01  0.26642311682E+02  0.10000000000E+01 0.  0.
    9000005    1    3    3    0    0 -0.13413403384E+02 -0.22968319791E+02  0.27746836418E+03  0.27874209625E+03  0.10000000000E+01 0.  0.
<mgrwt>
<rscale>  0 0.12499958E+03</rscale>
<asrwt>0</asrwt>
<pdfrwt beam="1">  1        4 0.44924199E-01 0.12499958E+03</pdfrwt>
<pdfrwt beam="2">  1       -4 0.20580222E-02 0.12499958E+03</pdfrwt>
<totfact> 0.74929047E+03</totfact>
</mgrwt>
</event>
<event>
 5    1  0.3232465E-002  0.1249994E+03  0.7818608E-02  0.1235070E+00
          4   -1    0    0  501    0  0.00000000000E+00  0.00000000000E+00  0.24351892294E+03  0.24352223457E+03  0.12700000000E+01 0.  1.
         -4   -1    0    0    0  501 -0.00000000000E+00 -0.00000000000E+00 -0.16012119265E+02  0.16062405279E+02  0.12700000000E+01 0.  1.
         25    2    1    2    0    0  0.00000000000E+00  0.00000000000E+00  0.22750680368E+03  0.25958463985E+03  0.12499935811E+03 0.  0.
    9000005    1    3    3    0    0  0.43711319004E+02  0.42429045458E+02  0.14270116132E+03  0.15516289746E+03  0.10000000000E+01 0.  0.
    9000005    1    3    3    0    0 -0.43711319004E+02 -0.42429045458E+02  0.84805642364E+02  0.10442174239E+03  0.10000000000E+01 0.  0.
<mgrwt>
<rscale>  0 0.12499936E+03</rscale>
<asrwt>0</asrwt>
<pdfrwt beam="1">  1        4 0.37468573E-01 0.12499936E+03</pdfrwt>
<pdfrwt beam="2">  1       -4 0.24675258E-02 0.12499936E+03</pdfrwt>
<totfact> 0.80965541E+03</totfact>
</mgrwt>
</event>
<event>
 5    1  0.3232465E-002  0.1249661E+03  0.7818608E-02  0.1235122E+00
          4   -1    0    0  501    0  0.00000000000E+00  0.00000000000E+00  0.57689185077E+02  0.57703162607E+02  0.12700000000E+01 0.  1.
         -4   -1    0    0    0  501 -0.00000000000E+00 -0.00000000000E+00 -0.67647155986E+02  0.67659076354E+02  0.12700000000E+01 0.  1.
         25    2    1    2    0    0  0.00000000000E+00  0.00000000000E+00 -0.99579709097E+01  0.12536223896E+03  0.12496611450E+03 0.  0.
    9000005    1    3    3    0    0 -0.41494341471E+02 -0.69826186294E+01 -0.51305398751E+02  0.66360992142E+02  0.10000000000E+01 0.  0.
    9000005    1    3    3    0    0  0.41494341471E+02  0.69826186294E+01  0.41347427841E+02  0.59001246818E+02  0.10000000000E+01 0.  0.
<mgrwt>
<rscale>  0 0.12496611E+03</rscale>
<asrwt>0</asrwt>
<pdfrwt beam="1">  1        4 0.88772514E-02 0.12496611E+03</pdfrwt>
<pdfrwt beam="2">  1       -4 0.10409247E-01 0.12496611E+03</pdfrwt>
<totfact> 0.10452989E+04</totfact>
</mgrwt>
</event>
<event>
 5    1  0.3232465E-002  0.1249969E+03  0.7818608E-02  0.1235074E+00
         -4   -1    0    0    0  501 -0.00000000000E+00  0.00000000000E+00  0.99445004438E+02  0.99453113614E+02  0.12700000000E+01 0.  1.
          4   -1    0    0  501    0  0.00000000000E+00 -0.00000000000E+00 -0.39258579288E+02  0.39279115924E+02  0.12700000000E+01 0.  1.
         25    2    1    2    0    0  0.00000000000E+00  0.00000000000E+00  0.60186425149E+02  0.13873222954E+03  0.12499690292E+03 0.  0.
    9000005    1    3    3    0    0 -0.52320614802E+02  0.14960549607E+02  0.64190213416E+02  0.84158471208E+02  0.10000000000E+01 0.  0.
    9000005    1    3    3    0    0  0.52320614802E+02 -0.14960549607E+02 -0.40037882666E+01  0.54573758330E+02  0.10000000000E+01 0.  0.
<mgrwt>
<rscale>  0 0.12499690E+03</rscale>
<asrwt>0</asrwt>
<pdfrwt beam="2">  1        4 0.60419849E-02 0.12499690E+03</pdfrwt>
<pdfrwt beam="1">  1       -4 0.15301435E-01 0.12499690E+03</pdfrwt>
<totfact> 0.10160638E+04</totfact>
</mgrwt>
</event>
<event>
 5    1  0.3232465E-002  0.1249411E+03  0.7818608E-02  0.1235161E+00
         -4   -1    0    0    0  501 -0.00000000000E+00  0.00000000000E+00  0.17248166558E+03  0.17248634109E+03  0.12700000000E+01 0.  1.
          4   -1    0    0  501    0  0.00000000000E+00 -0.00000000000E+00 -0.22603172628E+02  0.22638823133E+02  0.12700000000E+01 0.  1.
         25    2    1    2    0    0  0.00000000000E+00  0.00000000000E+00  0.14987849295E+03  0.19512516422E+03  0.12494105435E+03 0.  0.
    9000005    1    3    3    0    0  0.30188963694E+02  0.12439147796E+02  0.15810029220E+03  0.16143979782E+03  0.10000000000E+01 0.  0.
    9000005    1    3    3    0    0 -0.30188963694E+02 -0.12439147796E+02 -0.82217992444E+01  0.33685366401E+02  0.10000000000E+01 0.  0.
<mgrwt>
<rscale>  0 0.12494105E+03</rscale>
<asrwt>0</asrwt>
<pdfrwt beam="2">  1        4 0.34805134E-02 0.12494105E+03</pdfrwt>
<pdfrwt beam="1">  1       -4 0.26538741E-01 0.12494105E+03</pdfrwt>
<totfact> 0.91083272E+03</totfact>
</mgrwt>
</event>
<event>
 5    1  0.3232465E-002  0.1249997E+03  0.7818608E-02  0.1235070E+00
          4   -1    0    0  501    0  0.00000000000E+00  0.00000000000E+00  0.94353796515E+03  0.94353881986E+03  0.12700000000E+01 0.  1.
         -4   -1    0    0    0  501 -0.00000000000E+00 -0.00000000000E+00 -0.40417113452E+01  0.42365470135E+01  0.12700000000E+01 0.  1.
         25    2    1    2    0    0  0.00000000000E+00  0.00000000000E+00  0.93949625381E+03  0.94777536687E+03  0.12499974054E+03 0.  0.
    9000005    1    3    3    0    0 -0.29767634508E+02  0.10398993948E+02  0.60660717300E+02  0.68373779790E+02  0.10000000000E+01 0.  0.
    9000005    1    3    3    0    0  0.29767634508E+02 -0.10398993948E+02  0.87883553651E+03  0.87940158708E+03  0.10000000000E+01 0.  0.
<mgrwt>
<rscale>  0 0.12499974E+03</rscale>
<asrwt>0</asrwt>
<pdfrwt beam="1">  1        4 0.14517474E+00 0.12499974E+03</pdfrwt>
<pdfrwt beam="2">  1       -4 0.63685484E-03 0.12499974E+03</pdfrwt>
<totfact> 0.32395267E+03</totfact>
</mgrwt>
</event>
<event>
 5    1  0.3232465E-002  0.1249999E+03  0.7818608E-02  0.1235069E+00
         -4   -1    0    0    0  501 -0.00000000000E+00  0.00000000000E+00  0.11065158439E+03  0.11065887234E+03  0.12700000000E+01 0. -1.
          4   -1    0    0  501    0  0.00000000000E+00 -0.00000000000E+00 -0.35282310341E+02  0.35305160005E+02  0.12700000000E+01 0. -1.
         25    2    1    2    0    0  0.00000000000E+00  0.00000000000E+00  0.75369274044E+02  0.14596403234E+03  0.12499988507E+03 0.  0.
    9000005    1    3    3    0    0  0.47571713877E+02  0.15182729067E+02 -0.61887568289E+01  0.50327765043E+02  0.10000000000E+01 0.  0.
    9000005    1    3    3    0    0 -0.47571713877E+02 -0.15182729067E+02  0.81558030873E+02  0.95636267300E+02  0.10000000000E+01 0.  0.
<mgrwt>
<rscale>  0 0.12499989E+03</rscale>
<asrwt>0</asrwt>
<pdfrwt beam="2">  1        4 0.54303661E-02 0.12499989E+03</pdfrwt>
<pdfrwt beam="1">  1       -4 0.17025639E-01 0.12499989E+03</pdfrwt>
<totfact> 0.10011464E+04</totfact>
</mgrwt>
</event>
<event>
 5    1  0.3232465E-002  0.1250156E+03  0.7818608E-02  0.1235045E+00
         -4   -1    0    0    0  501 -0.00000000000E+00  0.00000000000E+00  0.21873097139E+03  0.21873465831E+03  0.12700000000E+01 0. -1.
          4   -1    0    0  501    0  0.00000000000E+00 -0.00000000000E+00 -0.17836727298E+02  0.17881883031E+02  0.12700000000E+01 0. -1.
         25    2    1    2    0    0  0.00000000000E+00  0.00000000000E+00  0.20089424409E+03  0.23661654134E+03  0.12501556034E+03 0.  0.
    9000005    1    3    3    0    0  0.16028719418E+02  0.48618569023E+02  0.16830861375E+03  0.17592462751E+03  0.10000000000E+01 0.  0.
    9000005    1    3    3    0    0 -0.16028719418E+02 -0.48618569023E+02  0.32585630340E+02  0.60691913833E+02  0.10000000000E+01 0.  0.
<mgrwt>
<rscale>  0 0.12501556E+03</rscale>
<asrwt>0</asrwt>
<pdfrwt beam="2">  1        4 0.27478692E-02 0.12501556E+03</pdfrwt>
<pdfrwt beam="1">  1       -4 0.33654674E-01 0.12501556E+03</pdfrwt>
<totfact> 0.84274623E+03</totfact>
</mgrwt>
</event>
<event>
 5    1  0.3232465E-002  0.1249998E+03  0.7818608E-02  0.1235070E+00
         -4   -1    0    0    0  501 -0.00000000000E+00  0.00000000000E+00  0.61115194724E+02  0.61128388873E+02  0.12700000000E+01 0. -1.
          4   -1    0    0  501    0  0.00000000000E+00 -0.00000000000E+00 -0.63889610234E+02  0.63902231540E+02  0.12700000000E+01 0. -1.
         25    2    1    2    0    0  0.00000000000E+00  0.00000000000E+00 -0.27744155096E+01  0.12503062041E+03  0.12499983464E+03 0.  0.
    9000005    1    3    3    0    0  0.33329956321E+02  0.52859287518E+02 -0.88768551095E+00  0.62504225864E+02  0.10000000000E+01 0.  0.
    9000005    1    3    3    0    0 -0.33329956321E+02 -0.52859287518E+02 -0.18867299986E+01  0.62526394549E+02  0.10000000000E+01 0.  0.
<mgrwt>
<rscale>  0 0.12499983E+03</rscale>
<asrwt>0</asrwt>
<pdfrwt beam="2">  1        4 0.98311566E-02 0.12499983E+03</pdfrwt>
<pdfrwt beam="1">  1       -4 0.94043234E-02 0.12499983E+03</pdfrwt>
<totfact> 0.10452237E+04</totfact>
</mgrwt>
</event>
<event>
 5    1  0.3232465E-002  0.1250062E+03  0.7818608E-02  0.1235060E+00
         -4   -1    0    0    0  501 -0.00000000000E+00  0.00000000000E+00  0.75244746831E+01  0.76308989809E+01  0.12700000000E+01 0.  1.
          4   -1    0    0  501    0  0.00000000000E+00 -0.00000000000E+00 -0.51543804685E+03  0.51543961144E+03  0.12700000000E+01 0.  1.
         25    2    1    2    0    0  0.00000000000E+00  0.00000000000E+00 -0.50791357217E+03  0.52307051042E+03  0.12500624816E+03 0.  0.
    9000005    1    3    3    0    0  0.21933746243E+02 -0.53210888361E+02 -0.15204797033E+03  0.16257943642E+03  0.10000000000E+01 0.  0.
    9000005    1    3    3    0    0 -0.21933746243E+02  0.53210888361E+02 -0.35586560184E+03  0.36049107401E+03  0.10000000000E+01 0.  0.
<mgrwt>
<rscale>  0 0.12500625E+03</rscale>
<asrwt>0</asrwt>
<pdfrwt beam="2">  1        4 0.79306440E-01 0.12500625E+03</pdfrwt>
<pdfrwt beam="1">  1       -4 0.11659187E-02 0.12500625E+03</pdfrwt>
<totfact> 0.54110362E+03</totfact>
</mgrwt>
</event>
<event>
 5    1  0.3232465E-002  0.1249872E+03  0.7818608E-02  0.1235089E+00
          4   -1    0    0  501    0  0.00000000000E+00  0.00000000000E+00  0.28316163268E+02  0.28344629160E+02  0.12700000000E+01 0.  1.
         -4   -1    0    0    0  501 -0.00000000000E+00 -0.00000000000E+00 -0.13782231510E+03  0.13782816635E+03  0.12700000000E+01 0.  1.
         25    2    1    2    0    0  0.00000000000E+00  0.00000000000E+00 -0.10950615183E+03  0.16617279551E+03  0.12498720206E+03 0.  0.
    9000005    1    3    3    0    0  0.59954876409E+02  0.90864946592E+01 -0.34708690698E+02  0.69877355419E+02  0.10000000000E+01 0.  0.
    9000005    1    3    3    0    0 -0.59954876409E+02 -0.90864946592E+01 -0.74797461136E+02  0.96295440094E+02  0.10000000000E+01 0.  0.
<mgrwt>
<rscale>  0 0.12498720E+03</rscale>
<asrwt>0</asrwt>
<pdfrwt beam="1">  1        4 0.43589727E-02 0.12498720E+03</pdfrwt>
<pdfrwt beam="2">  1       -4 0.21206073E-01 0.12498720E+03</pdfrwt>
<totfact> 0.96193393E+03</totfact>
</mgrwt>
</event>
<event>
 5    1  0.3232465E-002  0.1250050E+03  0.7818608E-02  0.1235062E+00
         -4   -1    0    0    0  501 -0.00000000000E+00  0.00000000000E+00  0.84451745189E+01  0.85401330584E+01  0.12700000000E+01 0.  1.
          4   -1    0    0  501    0  0.00000000000E+00 -0.00000000000E+00 -0.45989696347E+03  0.45989871701E+03  0.12700000000E+01 0.  1.
         25    2    1    2    0    0  0.00000000000E+00  0.00000000000E+00 -0.45145178895E+03  0.46843885007E+03  0.12500495393E+03 0.  0.
    9000005    1    3    3    0    0 -0.23337779255E+01  0.28768233547E+02 -0.18009030077E+02  0.34035025270E+02  0.10000000000E+01 0.  0.
    9000005    1    3    3    0    0  0.23337779255E+01 -0.28768233547E+02 -0.43344275887E+03  0.43440382480E+03  0.10000000000E+01 0.  0.
<mgrwt>
<rscale>  0 0.12500495E+03</rscale>
<asrwt>0</asrwt>
<pdfrwt beam="2">  1        4 0.70760799E-01 0.12500495E+03</pdfrwt>
<pdfrwt beam="1">  1       -4 0.13066974E-02 0.12500495E+03</pdfrwt>
<totfact> 0.58392709E+03</totfact>
</mgrwt>
</event>
<event>
 5    1  0.3232465E-002  0.1249922E+03  0.7818608E-02  0.1235082E+00
         -4   -1    0    0    0  501 -0.00000000000E+00  0.00000000000E+00  0.22506233749E+03  0.22506592069E+03  0.12700000000E+01 0. -1.
          4   -1    0    0  501    0  0.00000000000E+00 -0.00000000000E+00 -0.17327164128E+02  0.17373644313E+02  0.12700000000E+01 0. -1.
         25    2    1    2    0    0  0.00000000000E+00  0.00000000000E+00  0.20773517336E+03  0.24243956500E+03  0.12499216146E+03 0.  0.
    9000005    1    3    3    0    0 -0.48134447588E+02 -0.23824042858E+02  0.41912919408E+02  0.68133713212E+02  0.10000000000E+01 0.  0.
    9000005    1    3    3    0    0  0.48134447588E+02  0.23824042858E+02  0.16582225395E+03  0.17430585179E+03  0.10000000000E+01 0.  0.
<mgrwt>
<rscale>  0 0.12499216E+03</rscale>
<asrwt>0</asrwt>
<pdfrwt beam="2">  1        4 0.26695684E-02 0.12499216E+03</pdfrwt>
<pdfrwt beam="1">  1       -4 0.34628829E-01 0.12499216E+03</pdfrwt>
<totfact> 0.83449950E+03</totfact>
</mgrwt>
</event>
<event>
 5    1  0.3232465E-002  0.1249979E+03  0.7818608E-02  0.1235073E+00
         -4   -1    0    0    0  501 -0.00000000000E+00  0.00000000000E+00  0.26142534987E+02  0.26173365003E+02  0.12700000000E+01 0.  1.
          4   -1    0    0  501    0  0.00000000000E+00 -0.00000000000E+00 -0.14929468044E+03  0.14930008207E+03  0.12700000000E+01 0.  1.
         25    2    1    2    0    0  0.00000000000E+00  0.00000000000E+00 -0.12315214545E+03  0.17547344707E+03  0.12499791878E+03 0.  0.
    9000005    1    3    3    0    0  0.44835466862E+02 -0.19502038848E+02 -0.69432689144E+01  0.49393902368E+02  0.10000000000E+01 0.  0.
    9000005    1    3    3    0    0 -0.44835466862E+02  0.19502038848E+02 -0.11620887653E+03  0.12607954471E+03  0.10000000000E+01 0.  0.
<mgrwt>
<rscale>  0 0.12499792E+03</rscale>
<asrwt>0</asrwt>
<pdfrwt beam="2">  1        4 0.22971199E-01 0.12499792E+03</pdfrwt>
<pdfrwt beam="1">  1       -4 0.40247156E-02 0.12499792E+03</pdfrwt>
<totfact> 0.94442611E+03</totfact>
</mgrwt>
</event>
<event>
 5    1  0.3232465E-002  0.1250033E+03  0.7818608E-02  0.1235064E+00
          4   -1    0    0  501    0  0.00000000000E+00  0.00000000000E+00  0.52705450279E+03  0.52705603290E+03  0.12700000000E+01 0. -1.
         -4   -1    0    0    0  501 -0.00000000000E+00 -0.00000000000E+00 -0.73559041830E+01  0.74647321686E+01  0.12700000000E+01 0. -1.
         25    2    1    2    0    0  0.00000000000E+00  0.00000000000E+00  0.51969859861E+03  0.53452076506E+03  0.12500325952E+03 0.  0.
    9000005    1    3    3    0    0 -0.18573619731E+02  0.59632743534E+02  0.25086930847E+03  0.25852940526E+03  0.10000000000E+01 0.  0.
    9000005    1    3    3    0    0  0.18573619731E+02 -0.59632743534E+02  0.26882929014E+03  0.27599135981E+03  0.10000000000E+01 0.  0.
<mgrwt>
<rscale>  0 0.12500326E+03</rscale>
<asrwt>0</asrwt>
<pdfrwt beam="1">  1        4 0.81093804E-01 0.12500326E+03</pdfrwt>
<pdfrwt beam="2">  1       -4 0.11401666E-02 0.12500326E+03</pdfrwt>
<totfact> 0.53278230E+03</totfact>
</mgrwt>
</event>
<event>
 5    1  0.3232465E-002  0.1250003E+03  0.7818608E-02  0.1235069E+00
          4   -1    0    0  501    0  0.00000000000E+00  0.00000000000E+00  0.15822333205E+02  0.15873220469E+02  0.12700000000E+01 0.  1.
         -4   -1    0    0    0  501 -0.00000000000E+00 -0.00000000000E+00 -0.24643436522E+03  0.24643763767E+03  0.12700000000E+01 0.  1.
         25    2    1    2    0    0  0.00000000000E+00  0.00000000000E+00 -0.23061203201E+03  0.26231085814E+03  0.12500030795E+03 0.  0.
    9000005    1    3    3    0    0  0.74137622144E+01 -0.55364639090E+01 -0.24499919556E+03  0.24517590038E+03  0.10000000000E+01 0.  0.
    9000005    1    3    3    0    0 -0.74137622144E+01  0.55364639090E+01  0.14387163541E+02  0.17134957763E+02  0.10000000000E+01 0.  0.
<mgrwt>
<rscale>  0 0.12500031E+03</rscale>
<asrwt>0</asrwt>
<pdfrwt beam="1">  1        4 0.24383714E-02 0.12500031E+03</pdfrwt>
<pdfrwt beam="2">  1       -4 0.37917143E-01 0.12500031E+03</pdfrwt>
<totfact> 0.80582303E+03</totfact>
</mgrwt>
</event>
<event>
 5    1  0.3232465E-002  0.1249556E+03  0.7818608E-02  0.1235139E+00
         -4   -1    0    0    0  501 -0.00000000000E+00  0.00000000000E+00  0.37486153127E+02  0.37507660234E+02  0.12700000000E+01 0.  1.
          4   -1    0    0  501    0  0.00000000000E+00 -0.00000000000E+00 -0.10407580441E+03  0.10408355280E+03  0.12700000000E+01 0.  1.
         25    2    1    2    0    0  0.00000000000E+00  0.00000000000E+00 -0.66589651280E+02  0.14159121303E+03  0.12495555190E+03 0.  0.
    9000005    1    3    3    0    0  0.52022762764E+02 -0.34146455803E+02 -0.27075568795E+02  0.67870720602E+02  0.10000000000E+01 0.  0.
    9000005    1    3    3    0    0 -0.52022762764E+02  0.34146455803E+02 -0.39514082485E+02  0.73720492430E+02  0.10000000000E+01 0.  0.
<mgrwt>
<rscale>  0 0.12495555E+03</rscale>
<asrwt>0</asrwt>
<pdfrwt beam="2">  1        4 0.16013913E-01 0.12495555E+03</pdfrwt>
<pdfrwt beam="1">  1       -4 0.57693509E-02 0.12495555E+03</pdfrwt>
<totfact> 0.10110833E+04</totfact>
</mgrwt>
</event>
<event>
 5    1  0.3232465E-002  0.1249958E+03  0.7818608E-02  0.1235076E+00
          4   -1    0    0  501    0  0.00000000000E+00  0.00000000000E+00  0.11290152723E+04  0.11290159865E+04  0.12700000000E+01 0. -1.
         -4   -1    0    0    0  501 -0.00000000000E+00 -0.00000000000E+00 -0.33423476912E+01  0.35754982994E+01  0.12700000000E+01 0. -1.
         25    2    1    2    0    0  0.00000000000E+00  0.00000000000E+00  0.11256729246E+04  0.11325914848E+04  0.12499575376E+03 0.  0.
    9000005    1    3    3    0    0 -0.12264072177E+02  0.61266345372E+02  0.57195203288E+03  0.57535562955E+03  0.10000000000E+01 0.  0.
    9000005    1    3    3    0    0  0.12264072177E+02 -0.61266345372E+02  0.55372089168E+03  0.55723585530E+03  0.10000000000E+01 0.  0.
<mgrwt>
<rscale>  0 0.12499575E+03</rscale>
<asrwt>0</asrwt>
<pdfrwt beam="1">  1        4 0.17371283E+00 0.12499575E+03</pdfrwt>
<pdfrwt beam="2">  1       -4 0.53219638E-03 0.12499575E+03</pdfrwt>
<totfact> 0.26550657E+03</totfact>
</mgrwt>
</event>
<event>
 5    1  0.3232465E-002  0.1250125E+03  0.7818608E-02  0.1235050E+00
          4   -1    0    0  501    0  0.00000000000E+00  0.00000000000E+00  0.29933441100E+02  0.29960370426E+02  0.12700000000E+01 0. -1.
         -4   -1    0    0    0  501 -0.00000000000E+00 -0.00000000000E+00 -0.13043524713E+03  0.13044142975E+03  0.12700000000E+01 0. -1.
         25    2    1    2    0    0  0.00000000000E+00  0.00000000000E+00 -0.10050180603E+03  0.16040180017E+03  0.12501249731E+03 0.  0.
    9000005    1    3    3    0    0 -0.40885408101E+02 -0.43066538194E+02 -0.75252579780E+02  0.95866021463E+02  0.10000000000E+01 0.  0.
    9000005    1    3    3    0    0  0.40885408101E+02  0.43066538194E+02 -0.25249226254E+02  0.64535778712E+02  0.10000000000E+01 0.  0.
<mgrwt>
<rscale>  0 0.12501250E+03</rscale>
<asrwt>0</asrwt>
<pdfrwt beam="1">  1        4 0.46076919E-02 0.12501250E+03</pdfrwt>
<pdfrwt beam="2">  1       -4 0.20069508E-01 0.12501250E+03</pdfrwt>
<totfact> 0.97238061E+03</totfact>
</mgrwt>
</event>
<event>
 5    1  0.3232465E-002  0.1249989E+03  0.7818608E-02  0.1235071E+00
         -4   -1    0    0    0  501 -0.00000000000E+00  0.00000000000E+00  0.11749127499E+04  0.11749134363E+04  0.12700000000E+01 0.  1.
          4   -1    0    0  501    0  0.00000000000E+00 -0.00000000000E+00 -0.32026612845E+01  0.34452778267E+01  0.12700000000E+01 0.  1.
         25    2    1    2    0    0  0.00000000000E+00  0.00000000000E+00  0.11717100887E+04  0.11783587142E+04  0.12499890949E+03 0.  0.
    9000005    1    3    3    0    0  0.33291604234E+02 -0.38140561280E+02  0.93121468317E+03  0.93259038140E+03  0.10000000000E+01 0.  0.
    9000005    1    3    3    0    0 -0.33291604234E+02  0.38140561280E+02  0.24049540549E+03  0.24576833276E+03  0.10000000000E+01 0.  0.
<mgrwt>
<rscale>  0 0.12499891E+03</rscale>
<asrwt>0</asrwt>
<pdfrwt beam="2">  1        4 0.51143367E-03 0.12499891E+03</pdfrwt>
<pdfrwt beam="1">  1       -4 0.18077419E+00 0.12499891E+03</pdfrwt>
<totfact> 0.25286999E+03</totfact>
</mgrwt>
</event>
<event>
 5    1  0.3232465E-002  0.1249988E+03  0.7818608E-02  0.1235071E+00
         -4   -1    0    0    0  501 -0.00000000000E+00  0.00000000000E+00  0.22673563295E+03  0.22673918971E+03  0.12700000000E+01 0.  1.
          4   -1    0    0  501    0  0.00000000000E+00 -0.00000000000E+00 -0.17200767696E+02  0.17247588508E+02  0.12700000000E+01 0.  1.
         25    2    1    2    0    0  0.00000000000E+00  0.00000000000E+00  0.20953486526E+03  0.24398677822E+03  0.12499875274E+03 0.  0.
    9000005    1    3    3    0    0 -0.31479988149E+02 -0.88405907782E+01  0.20871533824E+03  0.21126343298E+03  0.10000000000E+01 0.  0.
    9000005    1    3    3    0    0  0.31479988149E+02  0.88405907782E+01  0.81952702186E+00  0.32723345240E+02  0.10000000000E+01 0.  0.
<mgrwt>
<rscale>  0 0.12499875E+03</rscale>
<asrwt>0</asrwt>
<pdfrwt beam="2">  1        4 0.26501474E-02 0.12499875E+03</pdfrwt>
<pdfrwt beam="1">  1       -4 0.34886277E-01 0.12499875E+03</pdfrwt>
<totfact> 0.83209482E+03</totfact>
</mgrwt>
</event>
<event>
 5    1  0.3232465E-002  0.1250003E+03  0.7818608E-02  0.1235069E+00
         -4   -1    0    0    0  501 -0.00000000000E+00  0.00000000000E+00  0.13304240053E+02  0.13364718605E+02  0.12700000000E+01 0. -1.
          4   -1    0    0  501    0  0.00000000000E+00 -0.00000000000E+00 -0.29288307084E+03  0.29288582432E+03  0.12700000000E+01 0. -1.
         25    2    1    2    0    0  0.00000000000E+00  0.00000000000E+00 -0.27957883079E+03  0.30625054292E+03  0.12500028966E+03 0.  0.
    9000005    1    3    3    0    0 -0.30530603796E+02 -0.40116570458E+02 -0.49311422078E+02  0.70527110680E+02  0.10000000000E+01 0.  0.
    9000005    1    3    3    0    0  0.30530603796E+02  0.40116570458E+02 -0.23026740871E+03  0.23572343224E+03  0.10000000000E+01 0.  0.
<mgrwt>
<rscale>  0 0.12500029E+03</rscale>
<asrwt>0</asrwt>
<pdfrwt beam="2">  1        4 0.45063793E-01 0.12500029E+03</pdfrwt>
<pdfrwt beam="1">  1       -4 0.20516704E-02 0.12500029E+03</pdfrwt>
<totfact> 0.74820933E+03</totfact>
</mgrwt>
</event>
<event>
 5    1  0.3232465E-002  0.1249875E+03  0.7818608E-02  0.1235089E+00
         -4   -1    0    0    0  501 -0.00000000000E+00  0.00000000000E+00  0.15636275489E+02  0.15687766290E+02  0.12700000000E+01 0.  1.
          4   -1    0    0  501    0  0.00000000000E+00 -0.00000000000E+00 -0.24930600942E+03  0.24930924418E+03  0.12700000000E+01 0.  1.
         25    2    1    2    0    0  0.00000000000E+00  0.00000000000E+00 -0.23366973393E+03  0.26499701047E+03  0.12498748338E+03 0.  0.
    9000005    1    3    3    0    0  0.41075206187E+02 -0.12485751786E+02 -0.20572682680E+02  0.47616192977E+02  0.10000000000E+01 0.  0.
    9000005    1    3    3    0    0 -0.41075206187E+02  0.12485751786E+02 -0.21309705125E+03  0.21738081749E+03  0.10000000000E+01 0.  0.
<mgrwt>
<rscale>  0 0.12498748E+03</rscale>
<asrwt>0</asrwt>
<pdfrwt beam="2">  1        4 0.38358977E-01 0.12498748E+03</pdfrwt>
<pdfrwt beam="1">  1       -4 0.24097907E-02 0.12498748E+03</pdfrwt>
<totfact> 0.80232221E+03</totfact>
</mgrwt>
</event>
<event>
 5    1  0.3232465E-002  0.1249969E+03  0.7818608E-02  0.1235074E+00
         -4   -1    0    0    0  501 -0.00000000000E+00  0.00000000000E+00  0.10691781616E+02  0.10766944512E+02  0.12700000000E+01 0.  1.
          4   -1    0    0  501    0  0.00000000000E+00 -0.00000000000E+00 -0.36397689493E+03  0.36397911059E+03  0.12700000000E+01 0.  1.
         25    2    1    2    0    0  0.00000000000E+00  0.00000000000E+00 -0.35328511332E+03  0.37474605510E+03  0.12499693805E+03 0.  0.
    9000005    1    3    3    0    0  0.25770851277E+02 -0.45344453950E+02 -0.73447082972E+02  0.90087348039E+02  0.10000000000E+01 0.  0.
    9000005    1    3    3    0    0 -0.25770851277E+02  0.45344453950E+02 -0.27983803034E+03  0.28465870706E+03  0.10000000000E+01 0.  0.
<mgrwt>
<rscale>  0 0.12499694E+03</rscale>
<asrwt>0</asrwt>
<pdfrwt beam="2">  1        4 0.56002388E-01 0.12499694E+03</pdfrwt>
<pdfrwt beam="1">  1       -4 0.16508420E-02 0.12499694E+03</pdfrwt>
<totfact> 0.67089861E+03</totfact>
</mgrwt>
</event>
<event>
 5    1  0.3232465E-002  0.1249969E+03  0.7818608E-02  0.1235074E+00
          4   -1    0    0  501    0  0.00000000000E+00  0.00000000000E+00  0.12228301726E+02  0.12294074308E+02  0.12700000000E+01 0.  1.
         -4   -1    0    0    0  501 -0.00000000000E+00 -0.00000000000E+00 -0.31850374777E+03  0.31850627976E+03  0.12700000000E+01 0.  1.
         25    2    1    2    0    0  0.00000000000E+00  0.00000000000E+00 -0.30627544605E+03  0.33080035407E+03  0.12499690156E+03 0.  0.
    9000005    1    3    3    0    0  0.47573891386E+02  0.37073970059E+02 -0.19640581889E+03  0.20546045871E+03  0.10000000000E+01 0.  0.
    9000005    1    3    3    0    0 -0.47573891386E+02 -0.37073970059E+02 -0.10986962715E+03  0.12533989536E+03  0.10000000000E+01 0.  0.
<mgrwt>
<rscale>  0 0.12499690E+03</rscale>
<asrwt>0</asrwt>
<pdfrwt beam="1">  1        4 0.18865316E-02 0.12499690E+03</pdfrwt>
<pdfrwt beam="2">  1       -4 0.49005825E-01 0.12499690E+03</pdfrwt>
<totfact> 0.71894653E+03</totfact>
</mgrwt>
</event>
<event>
 5    1  0.3232465E-002  0.1249984E+03  0.7818608E-02  0.1235072E+00
         -4   -1    0    0    0  501 -0.00000000000E+00  0.00000000000E+00  0.91587940461E+02  0.91596745236E+02  0.12700000000E+01 0.  1.
          4   -1    0    0  501    0  0.00000000000E+00 -0.00000000000E+00 -0.42628895801E+02  0.42647809524E+02  0.12700000000E+01 0.  1.
         25    2    1    2    0    0  0.00000000000E+00  0.00000000000E+00  0.48959044660E+02  0.13424455476E+03  0.12499844971E+03 0.  0.
    9000005    1    3    3    0    0 -0.60670549921E+01  0.54748615954E+01 -0.42057821723E+02  0.42856080477E+02  0.10000000000E+01 0.  0.
    9000005    1    3    3    0    0  0.60670549921E+01 -0.54748615954E+01  0.91016866382E+02  0.91388474283E+02  0.10000000000E+01 0.  0.
<mgrwt>
<rscale>  0 0.12499845E+03</rscale>
<asrwt>0</asrwt>
<pdfrwt beam="2">  1        4 0.65604240E-02 0.12499845E+03</pdfrwt>
<pdfrwt beam="1">  1       -4 0.14092584E-01 0.12499845E+03</pdfrwt>
<totfact> 0.10254377E+04</totfact>
</mgrwt>
</event>
<event>
 5    1  0.3232465E-002  0.1249766E+03  0.7818608E-02  0.1235106E+00
          4   -1    0    0  501    0  0.00000000000E+00  0.00000000000E+00  0.11843792874E+04  0.11843799683E+04  0.12700000000E+01 0. -1.
         -4   -1    0    0    0  501 -0.00000000000E+00 -0.00000000000E+00 -0.31738937094E+01  0.34185525122E+01  0.12700000000E+01 0. -1.
         25    2    1    2    0    0  0.00000000000E+00  0.00000000000E+00  0.11812053937E+04  0.11877985209E+04  0.12497657369E+03 0.  0.
    9000005    1    3    3    0    0 -0.18977036163E+02  0.53849005922E+02  0.83178073732E+03  0.83373859112E+03  0.10000000000E+01 0.  0.
    9000005    1    3    3    0    0  0.18977036163E+02 -0.53849005922E+02  0.34942465640E+03  0.35405992973E+03  0.10000000000E+01 0.  0.
<mgrwt>
<rscale>  0 0.12497657E+03</rscale>
<asrwt>0</asrwt>
<pdfrwt beam="1">  1        4 0.18223091E+00 0.12497657E+03</pdfrwt>
<pdfrwt beam="2">  1       -4 0.50716408E-03 0.12497657E+03</pdfrwt>
<totfact> 0.25047198E+03</totfact>
</mgrwt>
</event>
<event>
 5    1  0.3232465E-002  0.1250009E+03  0.7818608E-02  0.1235068E+00
         -4   -1    0    0    0  501 -0.00000000000E+00  0.00000000000E+00  0.10221104441E+02  0.10299702714E+02  0.12700000000E+01 0.  1.
          4   -1    0    0  501    0  0.00000000000E+00 -0.00000000000E+00 -0.38063670997E+03  0.38063882865E+03  0.12700000000E+01 0.  1.
         25    2    1    2    0    0  0.00000000000E+00  0.00000000000E+00 -0.37041560553E+03  0.39093853136E+03  0.12500085794E+03 0.  0.
    9000005    1    3    3    0    0 -0.10560141598E+02  0.59203393913E+02 -0.13206397216E+03  0.14511530307E+03  0.10000000000E+01 0.  0.
    9000005    1    3    3    0    0  0.10560141598E+02 -0.59203393913E+02 -0.23835163336E+03  0.24582322829E+03  0.10000000000E+01 0.  0.
<mgrwt>
<rscale>  0 0.12500086E+03</rscale>
<asrwt>0</asrwt>
<pdfrwt beam="2">  1        4 0.58565692E-01 0.12500086E+03</pdfrwt>
<pdfrwt beam="1">  1       -4 0.15786869E-02 0.12500086E+03</pdfrwt>
<totfact> 0.65442507E+03</totfact>
</mgrwt>
</event>
<event>
 5    1  0.3232465E-002  0.1250026E+03  0.7818608E-02  0.1235065E+00
         -4   -1    0    0    0  501 -0.00000000000E+00  0.00000000000E+00  0.17481294059E+02  0.17527365517E+02  0.12700000000E+01 0. -1.
          4   -1    0    0  501    0  0.00000000000E+00 -0.00000000000E+00 -0.22312043868E+03  0.22312405307E+03  0.12700000000E+01 0. -1.
         25    2    1    2    0    0  0.00000000000E+00  0.00000000000E+00 -0.20563914462E+03  0.24065141858E+03  0.12500258984E+03 0.  0.
    9000005    1    3    3    0    0  0.26733690306E+02 -0.55826054110E+01  0.53941800203E+01  0.27855930404E+02  0.10000000000E+01 0.  0.
    9000005    1    3    3    0    0 -0.26733690306E+02  0.55826054110E+01 -0.21103332464E+03  0.21279548818E+03  0.10000000000E+01 0.  0.
<mgrwt>
<rscale>  0 0.12500259E+03</rscale>
<asrwt>0</asrwt>
<pdfrwt beam="2">  1        4 0.34330041E-01 0.12500259E+03</pdfrwt>
<pdfrwt beam="1">  1       -4 0.26932520E-02 0.12500259E+03</pdfrwt>
<totfact> 0.83695615E+03</totfact>
</mgrwt>
</event>
<event>
 5    1  0.3232465E-002  0.1249971E+03  0.7818608E-02  0.1235074E+00
         -4   -1    0    0    0  501 -0.00000000000E+00  0.00000000000E+00  0.21494975059E+02  0.21532460445E+02  0.12700000000E+01 0.  1.
          4   -1    0    0  501    0  0.00000000000E+00 -0.00000000000E+00 -0.18152208571E+03  0.18152652837E+03  0.12700000000E+01 0.  1.
         25    2    1    2    0    0  0.00000000000E+00  0.00000000000E+00 -0.16002711065E+03  0.20305898881E+03  0.12499710714E+03 0.  0.
    9000005    1    3    3    0    0 -0.25010664958E+02 -0.42088015628E+02 -0.14310091250E+03  0.15124749776E+03  0.10000000000E+01 0.  0.
    9000005    1    3    3    0    0  0.25010664958E+02  0.42088015628E+02 -0.16926198156E+02  0.51811491053E+02  0.10000000000E+01 0.  0.
<mgrwt>
<rscale>  0 0.12499711E+03</rscale>
<asrwt>0</asrwt>
<pdfrwt beam="2">  1        4 0.27929699E-01 0.12499711E+03</pdfrwt>
<pdfrwt beam="1">  1       -4 0.33101446E-02 0.12499711E+03</pdfrwt>
<totfact> 0.89627936E+03</totfact>
</mgrwt>
</event>
<event>
 5    1  0.3232465E-002  0.1250029E+03  0.7818608E-02  0.1235065E+00
         -4   -1    0    0    0  501 -0.00000000000E+00  0.00000000000E+00  0.81430414823E+01  0.82414819410E+01  0.12700000000E+01 0.  1.
          4   -1    0    0  501    0  0.00000000000E+00 -0.00000000000E+00 -0.47674506394E+03  0.47674675551E+03  0.12700000000E+01 0.  1.
         25    2    1    2    0    0  0.00000000000E+00  0.00000000000E+00 -0.46860202245E+03  0.48498823745E+03  0.12500294003E+03 0.  0.
    9000005    1    3    3    0    0 -0.37904744786E+02 -0.35472286851E+02 -0.99320205384E+02  0.11207388638E+03  0.10000000000E+01 0.  0.
    9000005    1    3    3    0    0  0.37904744786E+02  0.35472286851E+02 -0.36928181707E+03  0.37291435106E+03  0.10000000000E+01 0.  0.
<mgrwt>
<rscale>  0 0.12500294E+03</rscale>
<asrwt>0</asrwt>
<pdfrwt beam="2">  1        4 0.73353075E-01 0.12500294E+03</pdfrwt>
<pdfrwt beam="1">  1       -4 0.12604784E-02 0.12500294E+03</pdfrwt>
<totfact> 0.57044520E+03</totfact>
</mgrwt>
</event>
<event>
 5    1  0.3232465E-002  0.1250004E+03  0.7818608E-02  0.1235069E+00
         -4   -1    0    0    0  501 -0.00000000000E+00  0.00000000000E+00  0.45932542891E+03  0.45932718464E+03  0.12700000000E+01 0. -1.
          4   -1    0    0  501    0  0.00000000000E+00 -0.00000000000E+00 -0.84551752556E+01  0.85500227253E+01  0.12700000000E+01 0. -1.
         25    2    1    2    0    0  0.00000000000E+00  0.00000000000E+00  0.45087025366E+03  0.46787720736E+03  0.12500038214E+03 0.  0.
    9000005    1    3    3    0    0  0.52561364939E+02 -0.18834839327E+02  0.33049469232E+03  0.33517933992E+03  0.10000000000E+01 0.  0.
    9000005    1    3    3    0    0 -0.52561364939E+02  0.18834839327E+02  0.12037556134E+03  0.13269786745E+03  0.10000000000E+01 0.  0.
<mgrwt>
<rscale>  0 0.12500038E+03</rscale>
<asrwt>0</asrwt>
<pdfrwt beam="2">  1        4 0.13082268E-02 0.12500038E+03</pdfrwt>
<pdfrwt beam="1">  1       -4 0.70672906E-01 0.12500038E+03</pdfrwt>
<totfact> 0.58445278E+03</totfact>
</mgrwt>
</event>
<event>
 5    1  0.3232465E-002  0.1249980E+03  0.7818608E-02  0.1235072E+00
         -4   -1    0    0    0  501 -0.00000000000E+00  0.00000000000E+00  0.36888073770E+02  0.36909929375E+02  0.12700000000E+01 0.  1.
          4   -1    0    0  501    0  0.00000000000E+00 -0.00000000000E+00 -0.10583430840E+03  0.10584192806E+03  0.12700000000E+01 0.  1.
         25    2    1    2    0    0  0.00000000000E+00  0.00000000000E+00 -0.68946234630E+02  0.14275185743E+03  0.12499803811E+03 0.  0.
    9000005    1    3    3    0    0 -0.62402035306E+02  0.21583052801E+01 -0.31571569458E+02  0.69974540299E+02  0.10000000000E+01 0.  0.
    9000005    1    3    3    0    0  0.62402035306E+02 -0.21583052801E+01 -0.37374665172E+02  0.72777317131E+02  0.10000000000E+01 0.  0.
<mgrwt>
<rscale>  0 0.12499804E+03</rscale>
<asrwt>0</asrwt>
<pdfrwt beam="2">  1        4 0.16284468E-01 0.12499804E+03</pdfrwt>
<pdfrwt beam="1">  1       -4 0.56773557E-02 0.12499804E+03</pdfrwt>
<totfact> 0.10077312E+04</totfact>
</mgrwt>
</event>
<event>
 5    1  0.3232465E-002  0.1250004E+03  0.7818608E-02  0.1235069E+00
          4   -1    0    0  501    0  0.00000000000E+00  0.00000000000E+00  0.11309220388E+04  0.11309227519E+04  0.12700000000E+01 0.  1.
         -4   -1    0    0    0  501 -0.00000000000E+00 -0.00000000000E+00 -0.33365857471E+01  0.35701126659E+01  0.12700000000E+01 0.  1.
         25    2    1    2    0    0  0.00000000000E+00  0.00000000000E+00  0.11275854531E+04  0.11344928646E+04  0.12500042317E+03 0.  0.
    9000005    1    3    3    0    0  0.48947482012E+02 -0.38020865132E+02  0.49127950076E+03  0.49517470659E+03  0.10000000000E+01 0.  0.
    9000005    1    3    3    0    0 -0.48947482012E+02  0.38020865132E+02  0.63630595231E+03  0.63931815798E+03  0.10000000000E+01 0.  0.
<mgrwt>
<rscale>  0 0.12500042E+03</rscale>
<asrwt>0</asrwt>
<pdfrwt beam="1">  1        4 0.17400601E+00 0.12500042E+03</pdfrwt>
<pdfrwt beam="2">  1       -4 0.53133938E-03 0.12500042E+03</pdfrwt>
<totfact> 0.26494202E+03</totfact>
</mgrwt>
</event>
<event>
 5    1  0.3232465E-002  0.1250059E+03  0.7818608E-02  0.1235060E+00
         -4   -1    0    0    0  501 -0.00000000000E+00  0.00000000000E+00  0.55399467064E+02  0.55414022151E+02  0.12700000000E+01 0.  1.
          4   -1    0    0  501    0  0.00000000000E+00 -0.00000000000E+00 -0.70487738894E+02  0.70499178963E+02  0.12700000000E+01 0.  1.
         25    2    1    2    0    0  0.00000000000E+00  0.00000000000E+00 -0.15088271830E+02  0.12591320111E+03  0.12500591293E+03 0.  0.
    9000005    1    3    3    0    0 -0.41930841532E+02 -0.32368416447E+02  0.25858423051E+02  0.58953947260E+02  0.10000000000E+01 0.  0.
    9000005    1    3    3    0    0  0.41930841532E+02  0.32368416447E+02 -0.40946694881E+02  0.66959253853E+02  0.10000000000E+01 0.  0.
<mgrwt>
<rscale>  0 0.12500591E+03</rscale>
<asrwt>0</asrwt>
<pdfrwt beam="2">  1        4 0.10846267E-01 0.12500591E+03</pdfrwt>
<pdfrwt beam="1">  1       -4 0.85249945E-02 0.12500591E+03</pdfrwt>
<totfact> 0.10431468E+04</totfact>
</mgrwt>
</event>
<event>
 5    1  0.3232465E-002  0.1249999E+03  0.7818608E-02  0.1235069E+00
         -4   -1    0    0    0  501 -0.00000000000E+00  0.00000000000E+00  0.29010429297E+02  0.29038214615E+02  0.12700000000E+01 0.  1.
          4   -1    0    0  501    0  0.00000000000E+00 -0.00000000000E+00 -0.13455432659E+03  0.13456031994E+03  0.12700000000E+01 0.  1.
         25    2    1    2    0    0  0.00000000000E+00  0.00000000000E+00 -0.10554389729E+03  0.16359853456E+03  0.12499986502E+03 0.  0.
    9000005    1    3    3    0    0 -0.39620642342E+02  0.33636779004E+02 -0.98185505572E+02  0.11109735238E+03  0.10000000000E+01 0.  0.
    9000005    1    3    3    0    0  0.39620642342E+02 -0.33636779004E+02 -0.73583917161E+01  0.52501182177E+02  0.10000000000E+01 0.  0.
<mgrwt>
<rscale>  0 0.12499987E+03</rscale>
<asrwt>0</asrwt>
<pdfrwt beam="2">  1        4 0.20703264E-01 0.12499987E+03</pdfrwt>
<pdfrwt beam="1">  1       -4 0.44657414E-02 0.12499987E+03</pdfrwt>
<totfact> 0.96653761E+03</totfact>
</mgrwt>
</event>
<event>
 5    1  0.3232465E-002  0.1249872E+03  0.7818608E-02  0.1235089E+00
          4   -1    0    0  501    0  0.00000000000E+00  0.00000000000E+00  0.23619304936E+02  0.23653423974E+02  0.12700000000E+01 0.  1.
         -4   -1    0    0    0  501 -0.00000000000E+00 -0.00000000000E+00 -0.16519398123E+03  0.16519886299E+03  0.12700000000E+01 0.  1.
         25    2    1    2    0    0  0.00000000000E+00  0.00000000000E+00 -0.14157467629E+03  0.18885228697E+03  0.12498718864E+03 0.  0.
    9000005    1    3    3    0    0  0.45136654115E+02  0.42884317367E+02 -0.78792232438E+02  0.10042707859E+03  0.10000000000E+01 0.  0.
    9000005    1    3    3    0    0 -0.45136654115E+02 -0.42884317367E+02 -0.62782443853E+02  0.88425208379E+02  0.10000000000E+01 0.  0.
<mgrwt>
<rscale>  0 0.12498719E+03</rscale>
<asrwt>0</asrwt>
<pdfrwt beam="1">  1        4 0.36367394E-02 0.12498719E+03</pdfrwt>
<pdfrwt beam="2">  1       -4 0.25417458E-01 0.12498719E+03</pdfrwt>
<totfact> 0.92073820E+03</totfact>
</mgrwt>
</event>
<event>
 5    1  0.3232465E-002  0.1250012E+03  0.7818608E-02  0.1235067E+00
          4   -1    0    0  501    0  0.00000000000E+00  0.00000000000E+00  0.77440028353E+02  0.77450441518E+02  0.12700000000E+01 0.  1.
         -4   -1    0    0    0  501 -0.00000000000E+00 -0.00000000000E+00 -0.50421463263E+02  0.50437454908E+02  0.12700000000E+01 0.  1.
         25    2    1    2    0    0  0.00000000000E+00  0.00000000000E+00  0.27018565090E+02  0.12788789643E+03  0.12500124476E+03 0.  0.
    9000005    1    3    3    0    0 -0.33667863053E+02  0.52185631610E+02  0.20631556600E+02  0.65448653744E+02  0.10000000000E+01 0.  0.
    9000005    1    3    3    0    0  0.33667863053E+02 -0.52185631610E+02  0.63870084900E+01  0.62439242681E+02  0.10000000000E+01 0.  0.
<mgrwt>
<rscale>  0 0.12500124E+03</rscale>
<asrwt>0</asrwt>
<pdfrwt beam="1">  1        4 0.11915882E-01 0.12500124E+03</pdfrwt>
<pdfrwt beam="2">  1       -4 0.77591794E-02 0.12500124E+03</pdfrwt>
<totfact> 0.10389617E+04</totfact>
</mgrwt>
</event>
<event>
 5    1  0.3232465E-002  0.1250001E+03  0.7818608E-02  0.1235069E+00
         -4   -1    0    0    0  501 -0.00000000000E+00  0.00000000000E+00  0.22214870393E+02  0.22251143040E+02  0.12700000000E+01 0.  1.
          4   -1    0    0  501    0  0.00000000000E+00 -0.00000000000E+00 -0.17565763638E+03  0.17566222735E+03  0.12700000000E+01 0.  1.
         25    2    1    2    0    0  0.00000000000E+00  0.00000000000E+00 -0.15344276599E+03  0.19791337039E+03  0.12500007899E+03 0.  0.
    9000005    1    3    3    0    0 -0.11341190661E+02 -0.61165090198E+02 -0.86150242141E+02  0.10626690494E+03  0.10000000000E+01 0.  0.
    9000005    1    3    3    0    0  0.11341190661E+02  0.61165090198E+02 -0.67292523845E+02  0.91646465453E+02  0.10000000000E+01 0.  0.
<mgrwt>
<rscale>  0 0.12500008E+03</rscale>
<asrwt>0</asrwt>
<pdfrwt beam="2">  1        4 0.27027394E-01 0.12500008E+03</pdfrwt>
<pdfrwt beam="1">  1       -4 0.34208158E-02 0.12500008E+03</pdfrwt>
<totfact> 0.90488194E+03</totfact>
</mgrwt>
</event>
<event>
 5    1  0.3232465E-002  0.1249993E+03  0.7818608E-02  0.1235070E+00
         -4   -1    0    0    0  501 -0.00000000000E+00  0.00000000000E+00  0.46908006721E+02  0.46925195732E+02  0.12700000000E+01 0. -1.
          4   -1    0    0  501    0  0.00000000000E+00 -0.00000000000E+00 -0.83236484113E+02  0.83246172209E+02  0.12700000000E+01 0. -1.
         25    2    1    2    0    0  0.00000000000E+00  0.00000000000E+00 -0.36328477392E+02  0.13017136794E+03  0.12499930705E+03 0.  0.
    9000005    1    3    3    0    0 -0.55283575061E+02  0.86522926711E+01 -0.47137555824E+02  0.73171613411E+02  0.10000000000E+01 0.  0.
    9000005    1    3    3    0    0  0.55283575061E+02 -0.86522926711E+01  0.10809078433E+02  0.56999754531E+02  0.10000000000E+01 0.  0.
<mgrwt>
<rscale>  0 0.12499931E+03</rscale>
<asrwt>0</asrwt>
<pdfrwt beam="2">  1        4 0.12807680E-01 0.12499931E+03</pdfrwt>
<pdfrwt beam="1">  1       -4 0.72186839E-02 0.12499931E+03</pdfrwt>
<totfact> 0.10341005E+04</totfact>
</mgrwt>
</event>
<event>
 5    1  0.3232465E-002  0.1249931E+03  0.7818608E-02  0.1235080E+00
         -4   -1    0    0    0  501 -0.00000000000E+00  0.00000000000E+00  0.24381404688E+02  0.24414458720E+02  0.12700000000E+01 0.  1.
          4   -1    0    0  501    0  0.00000000000E+00 -0.00000000000E+00 -0.16005266244E+03  0.16005770102E+03  0.12700000000E+01 0.  1.
         25    2    1    2    0    0  0.00000000000E+00  0.00000000000E+00 -0.13567125775E+03  0.18447215974E+03  0.12499314996E+03 0.  0.
    9000005    1    3    3    0    0  0.14264746717E+02  0.55429475481E+02 -0.10484737770E+03  0.11945661289E+03  0.10000000000E+01 0.  0.
    9000005    1    3    3    0    0 -0.14264746717E+02 -0.55429475481E+02 -0.30823880051E+02  0.65015546851E+02  0.10000000000E+01 0.  0.
<mgrwt>
<rscale>  0 0.12499315E+03</rscale>
<asrwt>0</asrwt>
<pdfrwt beam="2">  1        4 0.24626416E-01 0.12499315E+03</pdfrwt>
<pdfrwt beam="1">  1       -4 0.37539156E-02 0.12499315E+03</pdfrwt>
<totfact> 0.92832389E+03</totfact>
</mgrwt>
</event>
<event>
 5    1  0.3232465E-002  0.1249639E+03  0.7818608E-02  0.1235126E+00
          4   -1    0    0  501    0  0.00000000000E+00  0.00000000000E+00  0.26136858929E+03  0.26137167476E+03  0.12700000000E+01 0.  1.
         -4   -1    0    0    0  501 -0.00000000000E+00 -0.00000000000E+00 -0.14906567422E+02  0.14960569919E+02  0.12700000000E+01 0.  1.
         25    2    1    2    0    0  0.00000000000E+00  0.00000000000E+00  0.24646202187E+03  0.27633224468E+03  0.12496391970E+03 0.  0.
    9000005    1    3    3    0    0  0.19128538768E+02 -0.97461892531E+01 -0.65045555911E+01  0.22454363581E+02  0.10000000000E+01 0.  0.
    9000005    1    3    3    0    0 -0.19128538768E+02  0.97461892531E+01  0.25296657746E+03  0.25387788110E+03  0.10000000000E+01 0.  0.
<mgrwt>
<rscale>  0 0.12496392E+03</rscale>
<asrwt>0</asrwt>
<pdfrwt beam="1">  1        4 0.40214945E-01 0.12496392E+03</pdfrwt>
<pdfrwt beam="2">  1       -4 0.22977094E-02 0.12496392E+03</pdfrwt>
<totfact> 0.78730088E+03</totfact>
</mgrwt>
</event>
<event>
 5    1  0.3232465E-002  0.1250012E+03  0.7818608E-02  0.1235067E+00
         -4   -1    0    0    0  501 -0.00000000000E+00  0.00000000000E+00  0.83447113917E+01  0.84408002115E+01  0.12700000000E+01 0. -1.
          4   -1    0    0  501    0  0.00000000000E+00 -0.00000000000E+00 -0.46534348923E+03  0.46534522225E+03  0.12700000000E+01 0. -1.
         25    2    1    2    0    0  0.00000000000E+00  0.00000000000E+00 -0.45699877784E+03  0.47378602246E+03  0.12500124852E+03 0.  0.
    9000005    1    3    3    0    0 -0.62215894934E+01  0.35858072370E+02 -0.35948013509E+02  0.51164139836E+02  0.10000000000E+01 0.  0.
    9000005    1    3    3    0    0  0.62215894934E+01 -0.35858072370E+02 -0.42105076433E+03  0.42262188262E+03  0.10000000000E+01 0.  0.
<mgrwt>
<rscale>  0 0.12500125E+03</rscale>
<asrwt>0</asrwt>
<pdfrwt beam="2">  1        4 0.71598811E-01 0.12500125E+03</pdfrwt>
<pdfrwt beam="1">  1       -4 0.12913269E-02 0.12500125E+03</pdfrwt>
<totfact> 0.57955618E+03</totfact>
</mgrwt>
</event>
<event>
 5    1  0.3232465E-002  0.1250064E+03  0.7818608E-02  0.1235059E+00
          4   -1    0    0  501    0  0.00000000000E+00  0.00000000000E+00  0.41035110761E+02  0.41054758740E+02  0.12700000000E+01 0.  1.
         -4   -1    0    0    0  501 -0.00000000000E+00 -0.00000000000E+00 -0.95155989259E+02  0.95164463913E+02  0.12700000000E+01 0.  1.
         25    2    1    2    0    0  0.00000000000E+00  0.00000000000E+00 -0.54120878498E+02  0.13621922265E+03  0.12500642836E+03 0.  0.
    9000005    1    3    3    0    0  0.47830914825E+02  0.29414579283E+02 -0.56955475983E+02  0.79987124788E+02  0.10000000000E+01 0.  0.
    9000005    1    3    3    0    0 -0.47830914825E+02 -0.29414579283E+02  0.28345974848E+01  0.56232097865E+02  0.10000000000E+01 0.  0.
<mgrwt>
<rscale>  0 0.12500643E+03</rscale>
<asrwt>0</asrwt>
<pdfrwt beam="1">  1        4 0.63152573E-02 0.12500643E+03</pdfrwt>
<pdfrwt beam="2">  1       -4 0.14641546E-01 0.12500643E+03</pdfrwt>
<totfact> 0.10210956E+04</totfact>
</mgrwt>
</event>
<event>
 5    1  0.3232465E-002  0.1249994E+03  0.7818608E-02  0.1235070E+00
         -4   -1    0    0    0  501 -0.00000000000E+00  0.00000000000E+00  0.62485413159E+02  0.62498318038E+02  0.12700000000E+01 0.  1.
          4   -1    0    0  501    0  0.00000000000E+00 -0.00000000000E+00 -0.62488190673E+02  0.62501094979E+02  0.12700000000E+01 0.  1.
         25    2    1    2    0    0  0.00000000000E+00  0.00000000000E+00 -0.27775139154E-02  0.12499941302E+03  0.12499941299E+03 0.  0.
    9000005    1    3    3    0    0  0.24474693535E+01  0.16141531441E+02  0.60320035049E+02  0.62498366154E+02  0.10000000000E+01 0.  0.
    9000005    1    3    3    0    0 -0.24474693535E+01 -0.16141531441E+02 -0.60322812563E+02  0.62501046864E+02  0.10000000000E+01 0.  0.
<mgrwt>
<rscale>  0 0.12499941E+03</rscale>
<asrwt>0</asrwt>
<pdfrwt beam="2">  1        4 0.96155531E-02 0.12499941E+03</pdfrwt>
<pdfrwt beam="1">  1       -4 0.96151258E-02 0.12499941E+03</pdfrwt>
<totfact> 0.10453014E+04</totfact>
</mgrwt>
</event>
