<event>
 5    1  0.3340698E-002  0.1250010E+03  0.7818608E-02  0.1235068E+00
          4   -1    0    0  501    0  0.00000000000E+00  0.00000000000E+00  0.10308970609E+03  0.10309752859E+03  0.12700000000E+01 0. -1.
         -4   -1    0    0    0  501 -0.00000000000E+00 -0.00000000000E+00 -0.37872485436E+02  0.37893773276E+02  0.12700000000E+01 0. -1.
         25    2    1    2    0    0  0.00000000000E+00  0.00000000000E+00  0.65217220655E+02  0.14099130187E+03  0.12500104533E+03 0.  0.
    9000005    1    3    3    0    0 -0.97938355283E+00 -0.99973924078E+00 -0.37860338599E+02  0.37899391942E+02  0.10000000000E+01 0.  0.
    9000005    1    3    3    0    0  0.97938355283E+00  0.99973924078E+00  0.10307755925E+03  0.10309190993E+03  0.10000000000E+01 0.  0.
<mgrwt>
<rscale>  0 0.12500105E+03</rscale>
<asrwt>0</asrwt>
<pdfrwt beam="1">  1        4 0.15862194E-01 0.12500105E+03</pdfrwt>
<pdfrwt beam="2">  1       -4 0.58287755E-02 0.12500105E+03</pdfrwt>
<totfact> 0.10112844E+04</totfact>
</mgrwt>
</event>
<event>
 5    1  0.3340698E-002  0.1249895E+03  0.7818608E-02  0.1235086E+00
          4   -1    0    0  501    0  0.00000000000E+00  0.00000000000E+00  0.39152638477E+02  0.39173230652E+02  0.12700000000E+01 0.  1.
         -4   -1    0    0    0  501 -0.00000000000E+00 -0.00000000000E+00 -0.99702140447E+02  0.99710228711E+02  0.12700000000E+01 0.  1.
         25    2    1    2    0    0  0.00000000000E+00  0.00000000000E+00 -0.60549501969E+02  0.13888345936E+03  0.12498949194E+03 0.  0.
    9000005    1    3    3    0    0 -0.12503480578E+02  0.60121810623E+02 -0.17430183759E+02  0.63841839298E+02  0.10000000000E+01 0.  0.
    9000005    1    3    3    0    0  0.12503480578E+02 -0.60121810623E+02 -0.43119318210E+02  0.75041620065E+02  0.10000000000E+01 0.  0.
<mgrwt>
<rscale>  0 0.12498949E+03</rscale>
<asrwt>0</asrwt>
<pdfrwt beam="1">  1        4 0.60256891E-02 0.12498949E+03</pdfrwt>
<pdfrwt beam="2">  1       -4 0.15340997E-01 0.12498949E+03</pdfrwt>
<totfact> 0.10159184E+04</totfact>
</mgrwt>
</event>
<event>
 5    1  0.3340698E-002  0.1250036E+03  0.7818608E-02  0.1235064E+00
         -4   -1    0    0    0  501 -0.00000000000E+00  0.00000000000E+00  0.21339545707E+03  0.21339923617E+03  0.12700000000E+01 0.  1.
          4   -1    0    0  501    0  0.00000000000E+00 -0.00000000000E+00 -0.18280285585E+02  0.18324348312E+02  0.12700000000E+01 0.  1.
         25    2    1    2    0    0  0.00000000000E+00  0.00000000000E+00  0.19511517148E+03  0.23172358448E+03  0.12500355780E+03 0.  0.
    9000005    1    3    3    0    0  0.20097592530E+02  0.58358501682E+02  0.79409480717E+02  0.10058078132E+03  0.10000000000E+01 0.  0.
    9000005    1    3    3    0    0 -0.20097592530E+02 -0.58358501682E+02  0.11570569077E+03  0.13114280316E+03  0.10000000000E+01 0.  0.
<mgrwt>
<rscale>  0 0.12500356E+03</rscale>
<asrwt>0</asrwt>
<pdfrwt beam="2">  1        4 0.28160319E-02 0.12500356E+03</pdfrwt>
<pdfrwt beam="1">  1       -4 0.32833748E-01 0.12500356E+03</pdfrwt>
<totfact> 0.85038891E+03</totfact>
</mgrwt>
</event>
<event>
 5    1  0.3340698E-002  0.1249958E+03  0.7818608E-02  0.1235076E+00
         -4   -1    0    0    0  501 -0.00000000000E+00  0.00000000000E+00  0.43130055747E+02  0.43148749793E+02  0.12700000000E+01 0. -1.
          4   -1    0    0  501    0  0.00000000000E+00 -0.00000000000E+00 -0.90520226540E+02  0.90529135160E+02  0.12700000000E+01 0. -1.
         25    2    1    2    0    0  0.00000000000E+00  0.00000000000E+00 -0.47390170793E+02  0.13367788495E+03  0.12499579448E+03 0.  0.
    9000005    1    3    3    0    0 -0.97417368448E+01  0.24560753215E+02 -0.84257590975E+02  0.88308967111E+02  0.10000000000E+01 0.  0.
    9000005    1    3    3    0    0  0.97417368448E+01 -0.24560753215E+02  0.36867420182E+02  0.45368917842E+02  0.10000000000E+01 0.  0.
<mgrwt>
<rscale>  0 0.12499579E+03</rscale>
<asrwt>0</asrwt>
<pdfrwt beam="2">  1        4 0.13928312E-01 0.12499579E+03</pdfrwt>
<pdfrwt beam="1">  1       -4 0.66375165E-02 0.12499579E+03</pdfrwt>
<totfact> 0.10266987E+04</totfact>
</mgrwt>
</event>
<event>
 5    1  0.3340698E-002  0.1249993E+03  0.7818608E-02  0.1235070E+00
         -4   -1    0    0    0  501 -0.00000000000E+00  0.00000000000E+00  0.24537552645E+03  0.24537881303E+03  0.12700000000E+01 0.  1.
          4   -1    0    0  501    0  0.00000000000E+00 -0.00000000000E+00 -0.15890557919E+02  0.15941227399E+02  0.12700000000E+01 0.  1.
         25    2    1    2    0    0  0.00000000000E+00  0.00000000000E+00  0.22948496854E+03  0.26132004043E+03  0.12499925098E+03 0.  0.
    9000005    1    3    3    0    0  0.60077888807E+02  0.11011686249E+02  0.87118965204E+02  0.10640171078E+03  0.10000000000E+01 0.  0.
    9000005    1    3    3    0    0 -0.60077888807E+02 -0.11011686249E+02  0.14236600333E+03  0.15491832965E+03  0.10000000000E+01 0.  0.
<mgrwt>
<rscale>  0 0.12499925E+03</rscale>
<asrwt>0</asrwt>
<pdfrwt beam="2">  1        4 0.24488519E-02 0.12499925E+03</pdfrwt>
<pdfrwt beam="1">  1       -4 0.37754228E-01 0.12499925E+03</pdfrwt>
<totfact> 0.80722515E+03</totfact>
</mgrwt>
</event>
<event>
 5    1  0.3340698E-002  0.1250010E+03  0.7818608E-02  0.1235068E+00
          4   -1    0    0  501    0  0.00000000000E+00  0.00000000000E+00  0.91413442664E+02  0.91422264245E+02  0.12700000000E+01 0. -1.
         -4   -1    0    0    0  501 -0.00000000000E+00 -0.00000000000E+00 -0.42712023482E+02  0.42730900411E+02  0.12700000000E+01 0. -1.
         25    2    1    2    0    0  0.00000000000E+00  0.00000000000E+00  0.48701419181E+02  0.13415316466E+03  0.12500097342E+03 0.  0.
    9000005    1    3    3    0    0 -0.43914817109E+02  0.15650168440E+02  0.69013454493E+02  0.83290430632E+02  0.10000000000E+01 0.  0.
    9000005    1    3    3    0    0  0.43914817109E+02 -0.15650168440E+02 -0.20312035311E+02  0.50862734024E+02  0.10000000000E+01 0.  0.
<mgrwt>
<rscale>  0 0.12500097E+03</rscale>
<asrwt>0</asrwt>
<pdfrwt beam="1">  1        4 0.14065737E-01 0.12500097E+03</pdfrwt>
<pdfrwt beam="2">  1       -4 0.65732112E-02 0.12500097E+03</pdfrwt>
<totfact> 0.10255726E+04</totfact>
</mgrwt>
</event>
<event>
 5    1  0.3340698E-002  0.1249998E+03  0.7818608E-02  0.1235070E+00
         -4   -1    0    0    0  501 -0.00000000000E+00  0.00000000000E+00  0.94062978165E+02  0.94071551286E+02  0.12700000000E+01 0.  1.
          4   -1    0    0  501    0  0.00000000000E+00 -0.00000000000E+00 -0.41507702184E+02  0.41527126563E+02  0.12700000000E+01 0.  1.
         25    2    1    2    0    0  0.00000000000E+00  0.00000000000E+00  0.52555275982E+02  0.13559867785E+03  0.12499977760E+03 0.  0.
    9000005    1    3    3    0    0  0.40280898643E+02  0.42403291459E+02  0.23963024404E+01  0.58543421385E+02  0.10000000000E+01 0.  0.
    9000005    1    3    3    0    0 -0.40280898643E+02 -0.42403291459E+02  0.50158973541E+02  0.77055256464E+02  0.10000000000E+01 0.  0.
<mgrwt>
<rscale>  0 0.12499978E+03</rscale>
<asrwt>0</asrwt>
<pdfrwt beam="2">  1        4 0.63879541E-02 0.12499978E+03</pdfrwt>
<pdfrwt beam="1">  1       -4 0.14473381E-01 0.12499978E+03</pdfrwt>
<totfact> 0.10225519E+04</totfact>
</mgrwt>
</event>
<event>
 5    1  0.3340698E-002  0.1250074E+03  0.7818608E-02  0.1235058E+00
          4   -1    0    0  501    0  0.00000000000E+00  0.00000000000E+00  0.38450263374E+02  0.38471231505E+02  0.12700000000E+01 0.  1.
         -4   -1    0    0    0  501 -0.00000000000E+00 -0.00000000000E+00 -0.10155173108E+03  0.10155967204E+03  0.12700000000E+01 0.  1.
         25    2    1    2    0    0  0.00000000000E+00  0.00000000000E+00 -0.63101467703E+02  0.14003090355E+03  0.12500743466E+03 0.  0.
    9000005    1    3    3    0    0  0.22376457950E+02  0.39291688465E+02  0.16775316997E+02  0.48238510686E+02  0.10000000000E+01 0.  0.
    9000005    1    3    3    0    0 -0.22376457950E+02 -0.39291688465E+02 -0.79876784700E+02  0.91792392859E+02  0.10000000000E+01 0.  0.
<mgrwt>
<rscale>  0 0.12500743E+03</rscale>
<asrwt>0</asrwt>
<pdfrwt beam="1">  1        4 0.59176489E-02 0.12500743E+03</pdfrwt>
<pdfrwt beam="2">  1       -4 0.15625567E-01 0.12500743E+03</pdfrwt>
<totfact> 0.10131248E+04</totfact>
</mgrwt>
</event>
<event>
 5    1  0.3340698E-002  0.1250040E+03  0.7818608E-02  0.1235063E+00
         -4   -1    0    0    0  501 -0.00000000000E+00  0.00000000000E+00  0.86348035367E+02  0.86357374391E+02  0.12700000000E+01 0.  1.
          4   -1    0    0  501    0  0.00000000000E+00 -0.00000000000E+00 -0.45220657413E+02  0.45238487562E+02  0.12700000000E+01 0.  1.
         25    2    1    2    0    0  0.00000000000E+00  0.00000000000E+00  0.41127377953E+02  0.13159586195E+03  0.12500403860E+03 0.  0.
    9000005    1    3    3    0    0 -0.27044453541E+02  0.38384879663E+02 -0.22850547496E+02  0.52229770964E+02  0.10000000000E+01 0.  0.
    9000005    1    3    3    0    0  0.27044453541E+02 -0.38384879663E+02  0.63977925449E+02  0.79366090989E+02  0.10000000000E+01 0.  0.
<mgrwt>
<rscale>  0 0.12500404E+03</rscale>
<asrwt>0</asrwt>
<pdfrwt beam="2">  1        4 0.69591142E-02 0.12500404E+03</pdfrwt>
<pdfrwt beam="1">  1       -4 0.13286403E-01 0.12500404E+03</pdfrwt>
<totfact> 0.10309393E+04</totfact>
</mgrwt>
</event>
<event>
 5    1  0.3340698E-002  0.1250020E+03  0.7818608E-02  0.1235066E+00
         -4   -1    0    0    0  501 -0.00000000000E+00  0.00000000000E+00  0.37959190986E+02  0.37980430228E+02  0.12700000000E+01 0.  1.
          4   -1    0    0  501    0  0.00000000000E+00 -0.00000000000E+00 -0.10285593046E+03  0.10286377074E+03  0.12700000000E+01 0.  1.
         25    2    1    2    0    0  0.00000000000E+00  0.00000000000E+00 -0.64896739478E+02  0.14084420097E+03  0.12500200859E+03 0.  0.
    9000005    1    3    3    0    0  0.61993717436E+02 -0.75345385065E+01 -0.29833647477E+02  0.69217315708E+02  0.10000000000E+01 0.  0.
    9000005    1    3    3    0    0 -0.61993717436E+02  0.75345385065E+01 -0.35063092001E+02  0.71626885264E+02  0.10000000000E+01 0.  0.
<mgrwt>
<rscale>  0 0.12500201E+03</rscale>
<asrwt>0</asrwt>
<pdfrwt beam="2">  1        4 0.15826226E-01 0.12500201E+03</pdfrwt>
<pdfrwt beam="1">  1       -4 0.58421124E-02 0.12500201E+03</pdfrwt>
<totfact> 0.10115661E+04</totfact>
</mgrwt>
</event>
<event>
 5    1  0.3340698E-002  0.1249983E+03  0.7818608E-02  0.1235072E+00
          4   -1    0    0  501    0  0.00000000000E+00  0.00000000000E+00  0.21589983185E+03  0.21590356712E+03  0.12700000000E+01 0.  1.
         -4   -1    0    0    0  501 -0.00000000000E+00 -0.00000000000E+00 -0.18066214299E+02  0.18110797859E+02  0.12700000000E+01 0.  1.
         25    2    1    2    0    0  0.00000000000E+00  0.00000000000E+00  0.19783361755E+03  0.23401436498E+03  0.12499833111E+03 0.  0.
    9000005    1    3    3    0    0  0.33435084001E+02 -0.37032973592E+02  0.28473586474E+02  0.57455122503E+02  0.10000000000E+01 0.  0.
    9000005    1    3    3    0    0 -0.33435084001E+02  0.37032973592E+02  0.16936003108E+03  0.17655924247E+03  0.10000000000E+01 0.  0.
<mgrwt>
<rscale>  0 0.12499833E+03</rscale>
<asrwt>0</asrwt>
<pdfrwt beam="1">  1        4 0.33219075E-01 0.12499833E+03</pdfrwt>
<pdfrwt beam="2">  1       -4 0.27831344E-02 0.12499833E+03</pdfrwt>
<totfact> 0.84700127E+03</totfact>
</mgrwt>
</event>
<event>
 5    1  0.3340698E-002  0.1250007E+03  0.7818608E-02  0.1235068E+00
         -4   -1    0    0    0  501 -0.00000000000E+00  0.00000000000E+00  0.89600718579E+02  0.89609718613E+02  0.12700000000E+01 0. -1.
          4   -1    0    0  501    0  0.00000000000E+00 -0.00000000000E+00 -0.43576252899E+02  0.43594755610E+02  0.12700000000E+01 0. -1.
         25    2    1    2    0    0  0.00000000000E+00  0.00000000000E+00  0.46024465680E+02  0.13320447422E+03  0.12500072205E+03 0.  0.
    9000005    1    3    3    0    0  0.44145183707E+02  0.15825355948E+02 -0.21002992671E+02  0.51394210146E+02  0.10000000000E+01 0.  0.
    9000005    1    3    3    0    0 -0.44145183707E+02 -0.15825355948E+02  0.67027458351E+02  0.81810264077E+02  0.10000000000E+01 0.  0.
<mgrwt>
<rscale>  0 0.12500072E+03</rscale>
<asrwt>0</asrwt>
<pdfrwt beam="2">  1        4 0.67061545E-02 0.12500072E+03</pdfrwt>
<pdfrwt beam="1">  1       -4 0.13786841E-01 0.12500072E+03</pdfrwt>
<totfact> 0.10275889E+04</totfact>
</mgrwt>
</event>
<event>
 5    1  0.3340698E-002  0.1250012E+03  0.7818608E-02  0.1235067E+00
         -4   -1    0    0    0  501 -0.00000000000E+00  0.00000000000E+00  0.15777800307E+02  0.15828830737E+02  0.12700000000E+01 0. -1.
          4   -1    0    0  501    0  0.00000000000E+00 -0.00000000000E+00 -0.24713113834E+03  0.24713440157E+03  0.12700000000E+01 0. -1.
         25    2    1    2    0    0  0.00000000000E+00  0.00000000000E+00 -0.23135333804E+03  0.26296323230E+03  0.12500117809E+03 0.  0.
    9000005    1    3    3    0    0 -0.54756319385E+02 -0.22520390563E+02 -0.15774518940E+03  0.16849322623E+03  0.10000000000E+01 0.  0.
    9000005    1    3    3    0    0  0.54756319385E+02  0.22520390563E+02 -0.73608148632E+02  0.94470006080E+02  0.10000000000E+01 0.  0.
<mgrwt>
<rscale>  0 0.12500118E+03</rscale>
<asrwt>0</asrwt>
<pdfrwt beam="2">  1        4 0.38024349E-01 0.12500118E+03</pdfrwt>
<pdfrwt beam="1">  1       -4 0.24315305E-02 0.12500118E+03</pdfrwt>
<totfact> 0.80489894E+03</totfact>
</mgrwt>
</event>
<event>
 5    1  0.3340698E-002  0.1250005E+03  0.7818608E-02  0.1235069E+00
          4   -1    0    0  501    0  0.00000000000E+00  0.00000000000E+00  0.41182744315E+02  0.41202321893E+02  0.12700000000E+01 0.  1.
         -4   -1    0    0    0  501 -0.00000000000E+00 -0.00000000000E+00 -0.94805937179E+02  0.94814443121E+02  0.12700000000E+01 0.  1.
         25    2    1    2    0    0  0.00000000000E+00  0.00000000000E+00 -0.53623192864E+02  0.13601676501E+03  0.12500045421E+03 0.  0.
    9000005    1    3    3    0    0  0.35951370481E+02  0.77615080826E+01 -0.81786796351E+02  0.89681782457E+02  0.10000000000E+01 0.  0.
    9000005    1    3    3    0    0 -0.35951370481E+02 -0.77615080826E+01  0.28163603487E+02  0.46334982558E+02  0.10000000000E+01 0.  0.
<mgrwt>
<rscale>  0 0.12500045E+03</rscale>
<asrwt>0</asrwt>
<pdfrwt beam="1">  1        4 0.63379671E-02 0.12500045E+03</pdfrwt>
<pdfrwt beam="2">  1       -4 0.14587689E-01 0.12500045E+03</pdfrwt>
<totfact> 0.10216580E+04</totfact>
</mgrwt>
</event>
<event>
 5    1  0.3340698E-002  0.1250005E+03  0.7818608E-02  0.1235068E+00
         -4   -1    0    0    0  501 -0.00000000000E+00  0.00000000000E+00  0.25678048537E+02  0.25709435557E+02  0.12700000000E+01 0. -1.
          4   -1    0    0  501    0  0.00000000000E+00 -0.00000000000E+00 -0.15199837915E+03  0.15200368471E+03  0.12700000000E+01 0. -1.
         25    2    1    2    0    0  0.00000000000E+00  0.00000000000E+00 -0.12632033062E+03  0.17771312027E+03  0.12500050875E+03 0.  0.
    9000005    1    3    3    0    0 -0.53191153699E+02  0.22930894562E+02 -0.29813604560E+02  0.65153478603E+02  0.10000000000E+01 0.  0.
    9000005    1    3    3    0    0  0.53191153699E+02 -0.22930894562E+02 -0.96506726056E+02  0.11255964166E+03  0.10000000000E+01 0.  0.
<mgrwt>
<rscale>  0 0.12500051E+03</rscale>
<asrwt>0</asrwt>
<pdfrwt beam="2">  1        4 0.23387188E-01 0.12500051E+03</pdfrwt>
<pdfrwt beam="1">  1       -4 0.39532916E-02 0.12500051E+03</pdfrwt>
<totfact> 0.94029203E+03</totfact>
</mgrwt>
</event>
<event>
 5    1  0.3340698E-002  0.1249831E+03  0.7818608E-02  0.1235096E+00
         -4   -1    0    0    0  501 -0.00000000000E+00  0.00000000000E+00  0.21052248016E+03  0.21052631084E+03  0.12700000000E+01 0.  1.
          4   -1    0    0  501    0  0.00000000000E+00 -0.00000000000E+00 -0.18524279276E+02  0.18567762997E+02  0.12700000000E+01 0.  1.
         25    2    1    2    0    0  0.00000000000E+00  0.00000000000E+00  0.19199820089E+03  0.22909407383E+03  0.12498314095E+03 0.  0.
    9000005    1    3    3    0    0 -0.18974515609E+02 -0.51952803488E+02  0.42713624172E+02  0.69889768369E+02  0.10000000000E+01 0.  0.
    9000005    1    3    3    0    0  0.18974515609E+02  0.51952803488E+02  0.14928457672E+03  0.15920430546E+03  0.10000000000E+01 0.  0.
<mgrwt>
<rscale>  0 0.12498314E+03</rscale>
<asrwt>0</asrwt>
<pdfrwt beam="2">  1        4 0.28535288E-02 0.12498314E+03</pdfrwt>
<pdfrwt beam="1">  1       -4 0.32391712E-01 0.12498314E+03</pdfrwt>
<totfact> 0.85481050E+03</totfact>
</mgrwt>
</event>
<event>
 5    1  0.3340698E-002  0.1250115E+03  0.7818608E-02  0.1235051E+00
          4   -1    0    0  501    0  0.00000000000E+00  0.00000000000E+00  0.16555845819E+02  0.16604485261E+02  0.12700000000E+01 0.  1.
         -4   -1    0    0    0  501 -0.00000000000E+00 -0.00000000000E+00 -0.23559092797E+03  0.23559435104E+03  0.12700000000E+01 0.  1.
         25    2    1    2    0    0  0.00000000000E+00  0.00000000000E+00 -0.21903508215E+03  0.25219883630E+03  0.12501154274E+03 0.  0.
    9000005    1    3    3    0    0 -0.26176702535E+02 -0.56747808905E+02 -0.10818256891E+03  0.12493999275E+03  0.10000000000E+01 0.  0.
    9000005    1    3    3    0    0  0.26176702535E+02  0.56747808905E+02 -0.11085251323E+03  0.12725884355E+03  0.10000000000E+01 0.  0.
<mgrwt>
<rscale>  0 0.12501154E+03</rscale>
<asrwt>0</asrwt>
<pdfrwt beam="1">  1        4 0.25510582E-02 0.12501154E+03</pdfrwt>
<pdfrwt beam="2">  1       -4 0.36248760E-01 0.12501154E+03</pdfrwt>
<totfact> 0.81992383E+03</totfact>
</mgrwt>
</event>
<event>
 5    1  0.3340698E-002  0.1249969E+03  0.7818608E-02  0.1235074E+00
         -4   -1    0    0    0  501 -0.00000000000E+00  0.00000000000E+00  0.15355309302E+02  0.15407739087E+02  0.12700000000E+01 0.  1.
          4   -1    0    0  501    0  0.00000000000E+00 -0.00000000000E+00 -0.25389046512E+03  0.25389364147E+03  0.12700000000E+01 0.  1.
         25    2    1    2    0    0  0.00000000000E+00  0.00000000000E+00 -0.23853515582E+03  0.26930138056E+03  0.12499685200E+03 0.  0.
    9000005    1    3    3    0    0 -0.11709922734E+02  0.56006242320E+02 -0.65138088177E+02  0.86705201693E+02  0.10000000000E+01 0.  0.
    9000005    1    3    3    0    0  0.11709922734E+02 -0.56006242320E+02 -0.17339706764E+03  0.18259617887E+03  0.10000000000E+01 0.  0.
<mgrwt>
<rscale>  0 0.12499685E+03</rscale>
<asrwt>0</asrwt>
<pdfrwt beam="2">  1        4 0.39064346E-01 0.12499685E+03</pdfrwt>
<pdfrwt beam="1">  1       -4 0.23666329E-02 0.12499685E+03</pdfrwt>
<totfact> 0.79623785E+03</totfact>
</mgrwt>
</event>
<event>
 5    1  0.3340698E-002  0.1250013E+03  0.7818608E-02  0.1235067E+00
         -4   -1    0    0    0  501 -0.00000000000E+00  0.00000000000E+00  0.13737347317E+03  0.13737934354E+03  0.12700000000E+01 0.  1.
          4   -1    0    0  501    0  0.00000000000E+00 -0.00000000000E+00 -0.28415189769E+02  0.28443556557E+02  0.12700000000E+01 0.  1.
         25    2    1    2    0    0  0.00000000000E+00  0.00000000000E+00  0.10895828340E+03  0.16582290009E+03  0.12500130669E+03 0.  0.
    9000005    1    3    3    0    0 -0.51165750918E+02 -0.82460558032E+01  0.81554590037E+01  0.52473259999E+02  0.10000000000E+01 0.  0.
    9000005    1    3    3    0    0  0.51165750918E+02  0.82460558032E+01  0.10080282440E+03  0.11334964009E+03  0.10000000000E+01 0.  0.
<mgrwt>
<rscale>  0 0.12500131E+03</rscale>
<asrwt>0</asrwt>
<pdfrwt beam="2">  1        4 0.43742014E-02 0.12500131E+03</pdfrwt>
<pdfrwt beam="1">  1       -4 0.21137014E-01 0.12500131E+03</pdfrwt>
<totfact> 0.96228950E+03</totfact>
</mgrwt>
</event>
<event>
 5    1  0.3340698E-002  0.1250022E+03  0.7818608E-02  0.1235066E+00
          4   -1    0    0  501    0  0.00000000000E+00  0.00000000000E+00  0.61592667765E+02  0.61605759652E+02  0.12700000000E+01 0.  1.
         -4   -1    0    0    0  501 -0.00000000000E+00 -0.00000000000E+00 -0.63396770404E+02  0.63409489807E+02  0.12700000000E+01 0.  1.
         25    2    1    2    0    0  0.00000000000E+00  0.00000000000E+00 -0.18041026391E+01  0.12501524946E+03  0.12500223122E+03 0.  0.
    9000005    1    3    3    0    0 -0.34319532347E+02  0.17612246762E+01 -0.53103820842E+02  0.63260951629E+02  0.10000000000E+01 0.  0.
    9000005    1    3    3    0    0  0.34319532347E+02 -0.17612246762E+01  0.51299718203E+02  0.61754297831E+02  0.10000000000E+01 0.  0.
<mgrwt>
<rscale>  0 0.12500223E+03</rscale>
<asrwt>0</asrwt>
<pdfrwt beam="1">  1        4 0.94777805E-02 0.12500223E+03</pdfrwt>
<pdfrwt beam="2">  1       -4 0.97553348E-02 0.12500223E+03</pdfrwt>
<totfact> 0.10452004E+04</totfact>
</mgrwt>
</event>
<event>
 5    1  0.3340698E-002  0.1250067E+03  0.7818608E-02  0.1235059E+00
         -4   -1    0    0    0  501 -0.00000000000E+00  0.00000000000E+00  0.45739775812E+02  0.45757403677E+02  0.12700000000E+01 0.  1.
          4   -1    0    0  501    0  0.00000000000E+00 -0.00000000000E+00 -0.85371983825E+02  0.85381429610E+02  0.12700000000E+01 0.  1.
         25    2    1    2    0    0  0.00000000000E+00  0.00000000000E+00 -0.39632208014E+02  0.13113883329E+03  0.12500672655E+03 0.  0.
    9000005    1    3    3    0    0  0.35252477930E+02  0.18387332089E+02  0.30765709532E+02  0.50282800882E+02  0.10000000000E+01 0.  0.
    9000005    1    3    3    0    0 -0.35252477930E+02 -0.18387332089E+02 -0.70397917546E+02  0.80856032405E+02  0.10000000000E+01 0.  0.
<mgrwt>
<rscale>  0 0.12500673E+03</rscale>
<asrwt>0</asrwt>
<pdfrwt beam="2">  1        4 0.13136234E-01 0.12500673E+03</pdfrwt>
<pdfrwt beam="1">  1       -4 0.70389712E-02 0.12500673E+03</pdfrwt>
<totfact> 0.10318548E+04</totfact>
</mgrwt>
</event>
<event>
 5    1  0.3340698E-002  0.1249995E+03  0.7818608E-02  0.1235070E+00
          4   -1    0    0  501    0  0.00000000000E+00  0.00000000000E+00  0.62169891200E+02  0.62182861560E+02  0.12700000000E+01 0. -1.
         -4   -1    0    0    0  501 -0.00000000000E+00 -0.00000000000E+00 -0.62805412000E+02  0.62818251141E+02  0.12700000000E+01 0. -1.
         25    2    1    2    0    0  0.00000000000E+00  0.00000000000E+00 -0.63552079998E+00  0.12500111270E+03  0.12499949716E+03 0.  0.
    9000005    1    3    3    0    0 -0.11792696289E+02 -0.27739244728E+02  0.54424934545E+02  0.62222237858E+02  0.10000000000E+01 0.  0.
    9000005    1    3    3    0    0  0.11792696289E+02  0.27739244728E+02 -0.55060455345E+02  0.62778874844E+02  0.10000000000E+01 0.  0.
<mgrwt>
<rscale>  0 0.12499950E+03</rscale>
<asrwt>0</asrwt>
<pdfrwt beam="1">  1        4 0.95665840E-02 0.12499950E+03</pdfrwt>
<pdfrwt beam="2">  1       -4 0.96643564E-02 0.12499950E+03</pdfrwt>
<totfact> 0.10452957E+04</totfact>
</mgrwt>
</event>
<event>
 5    1  0.3340698E-002  0.1250030E+03  0.7818608E-02  0.1235065E+00
          4   -1    0    0  501    0  0.00000000000E+00  0.00000000000E+00  0.14012452102E+02  0.14069886776E+02  0.12700000000E+01 0.  1.
         -4   -1    0    0    0  501 -0.00000000000E+00 -0.00000000000E+00 -0.27815422465E+03  0.27815712393E+03  0.12700000000E+01 0.  1.
         25    2    1    2    0    0  0.00000000000E+00  0.00000000000E+00 -0.26414177255E+03  0.29222701070E+03  0.12500299908E+03 0.  0.
    9000005    1    3    3    0    0 -0.49515625620E+02 -0.15918889155E+02 -0.21306100261E+03  0.21931985557E+03  0.10000000000E+01 0.  0.
    9000005    1    3    3    0    0  0.49515625620E+02  0.15918889155E+02 -0.51080769937E+02  0.72907155134E+02  0.10000000000E+01 0.  0.
<mgrwt>
<rscale>  0 0.12500300E+03</rscale>
<asrwt>0</asrwt>
<pdfrwt beam="1">  1        4 0.21604031E-02 0.12500300E+03</pdfrwt>
<pdfrwt beam="2">  1       -4 0.42797595E-01 0.12500300E+03</pdfrwt>
<totfact> 0.76579229E+03</totfact>
</mgrwt>
</event>
<event>
 5    1  0.3340698E-002  0.1250477E+03  0.7818608E-02  0.1234995E+00
          4   -1    0    0  501    0  0.00000000000E+00  0.00000000000E+00  0.32709143508E+02  0.32733789408E+02  0.12700000000E+01 0. -1.
         -4   -1    0    0    0  501 -0.00000000000E+00 -0.00000000000E+00 -0.11944186942E+03  0.11944862105E+03  0.12700000000E+01 0. -1.
         25    2    1    2    0    0  0.00000000000E+00  0.00000000000E+00 -0.86732725912E+02  0.15218241046E+03  0.12504767214E+03 0.  0.
    9000005    1    3    3    0    0  0.25990501103E+02  0.28601823707E+02 -0.10316851409E+03  0.11017401130E+03  0.10000000000E+01 0.  0.
    9000005    1    3    3    0    0 -0.25990501103E+02 -0.28601823707E+02  0.16435788174E+02  0.42008399158E+02  0.10000000000E+01 0.  0.
<mgrwt>
<rscale>  0 0.12504767E+03</rscale>
<asrwt>0</asrwt>
<pdfrwt beam="1">  1        4 0.50345912E-02 0.12504767E+03</pdfrwt>
<pdfrwt beam="2">  1       -4 0.18378087E-01 0.12504767E+03</pdfrwt>
<totfact> 0.98764457E+03</totfact>
</mgrwt>
</event>
<event>
 4    1  0.3340698E-002  0.1250767E+03  0.7818608E-02  0.1234950E+00
          4   -1    0    0  501    0  0.00000000000E+00  0.00000000000E+00  0.41103825349E+02  0.41123440497E+02  0.12700000000E+01 0.  1.
         -4   -1    0    0    0  501 -0.00000000000E+00 -0.00000000000E+00 -0.95103782401E+02  0.95112261707E+02  0.12700000000E+01 0.  1.
    9000005    1    1    2    0    0 -0.21628950664E+02  0.45877469100E+01 -0.90709282815E+02  0.93370407075E+02  0.10000000000E+01 0.  0.
    9000005    1    1    2    0    0  0.21628950664E+02 -0.45877469100E+01  0.36709325763E+02  0.42865295129E+02  0.10000000000E+01 0.  0.
<mgrwt>
<rscale>  0 0.12507666E+03</rscale>
<asrwt>0</asrwt>
<pdfrwt beam="1">  1        4 0.63258266E-02 0.12507666E+03</pdfrwt>
<pdfrwt beam="2">  1       -4 0.14633512E-01 0.12507666E+03</pdfrwt>
<totfact> 0.10194457E+04</totfact>
</mgrwt>
</event>
<event>
 5    1  0.3340698E-002  0.1250081E+03  0.7818608E-02  0.1235057E+00
         -4   -1    0    0    0  501 -0.00000000000E+00  0.00000000000E+00  0.47421348531E+02  0.47438351536E+02  0.12700000000E+01 0.  1.
          4   -1    0    0  501    0  0.00000000000E+00 -0.00000000000E+00 -0.82347209488E+02  0.82357002195E+02  0.12700000000E+01 0.  1.
         25    2    1    2    0    0  0.00000000000E+00  0.00000000000E+00 -0.34925860958E+02  0.12979535373E+03  0.12500807209E+03 0.  0.
    9000005    1    3    3    0    0  0.23757686428E+01 -0.61011061949E+02 -0.36196569626E+01  0.61172672602E+02  0.10000000000E+01 0.  0.
    9000005    1    3    3    0    0 -0.23757686428E+01  0.61011061949E+02 -0.31306203995E+02  0.68622681129E+02  0.10000000000E+01 0.  0.
<mgrwt>
<rscale>  0 0.12500807E+03</rscale>
<asrwt>0</asrwt>
<pdfrwt beam="2">  1        4 0.12670863E-01 0.12500807E+03</pdfrwt>
<pdfrwt beam="1">  1       -4 0.72976533E-02 0.12500807E+03</pdfrwt>
<totfact> 0.10347002E+04</totfact>
</mgrwt>
</event>
<event>
 5    1  0.3340698E-002  0.1250012E+03  0.7818608E-02  0.1235067E+00
         -4   -1    0    0    0  501 -0.00000000000E+00  0.00000000000E+00  0.22644035182E+01  0.25962325191E+01  0.12700000000E+01 0.  1.
          4   -1    0    0  501    0  0.00000000000E+00 -0.00000000000E+00 -0.16069993267E+04  0.16069998286E+04  0.12700000000E+01 0.  1.
         25    2    1    2    0    0  0.00000000000E+00  0.00000000000E+00 -0.16047349232E+04  0.16095960611E+04  0.12500122433E+03 0.  0.
    9000005    1    3    3    0    0 -0.51085418433E+02  0.33539288729E+02 -0.97061480423E+03  0.97253724970E+03  0.10000000000E+01 0.  0.
    9000005    1    3    3    0    0  0.51085418433E+02 -0.33539288729E+02 -0.63412011900E+03  0.63705881140E+03  0.10000000000E+01 0.  0.
<mgrwt>
<rscale>  0 0.12500122E+03</rscale>
<asrwt>0</asrwt>
<pdfrwt beam="2">  1        4 0.24725538E+00 0.12500122E+03</pdfrwt>
<pdfrwt beam="1">  1       -4 0.37393497E-03 0.12500122E+03</pdfrwt>
<totfact> 0.15873081E+03</totfact>
</mgrwt>
</event>
<event>
 5    1  0.3340698E-002  0.1250370E+03  0.7818608E-02  0.1235011E+00
          4   -1    0    0  501    0  0.00000000000E+00  0.00000000000E+00  0.36393843579E+03  0.36394065168E+03  0.12700000000E+01 0. -1.
         -4   -1    0    0    0  501 -0.00000000000E+00 -0.00000000000E+00 -0.10699824687E+02  0.10774931477E+02  0.12700000000E+01 0. -1.
         25    2    1    2    0    0  0.00000000000E+00  0.00000000000E+00  0.35323861111E+03  0.37471558316E+03  0.12503700207E+03 0.  0.
    9000005    1    3    3    0    0  0.46532883172E+02  0.41737007809E+02  0.17504508271E+03  0.18587379595E+03  0.10000000000E+01 0.  0.
    9000005    1    3    3    0    0 -0.46532883172E+02 -0.41737007809E+02  0.17819352839E+03  0.18884178721E+03  0.10000000000E+01 0.  0.
<mgrwt>
<rscale>  0 0.12503700E+03</rscale>
<asrwt>0</asrwt>
<pdfrwt beam="1">  1        4 0.55996469E-01 0.12503700E+03</pdfrwt>
<pdfrwt beam="2">  1       -4 0.16520750E-02 0.12503700E+03</pdfrwt>
<totfact> 0.67033632E+03</totfact>
</mgrwt>
</event>
<event>
 5    1  0.3340698E-002  0.1249864E+03  0.7818608E-02  0.1235090E+00
         -4   -1    0    0    0  501 -0.00000000000E+00  0.00000000000E+00  0.16993140984E+03  0.16993615552E+03  0.12700000000E+01 0. -1.
          4   -1    0    0  501    0  0.00000000000E+00 -0.00000000000E+00 -0.22959614430E+02  0.22994712322E+02  0.12700000000E+01 0. -1.
         25    2    1    2    0    0  0.00000000000E+00  0.00000000000E+00  0.14697179541E+03  0.19293086784E+03  0.12498644374E+03 0.  0.
    9000005    1    3    3    0    0 -0.30560186421E+01 -0.53617527183E+02  0.24181388487E+02  0.58906010053E+02  0.10000000000E+01 0.  0.
    9000005    1    3    3    0    0  0.30560186421E+01  0.53617527183E+02  0.12279040693E+03  0.13402485778E+03  0.10000000000E+01 0.  0.
<mgrwt>
<rscale>  0 0.12498644E+03</rscale>
<asrwt>0</asrwt>
<pdfrwt beam="2">  1        4 0.35353133E-02 0.12498644E+03</pdfrwt>
<pdfrwt beam="1">  1       -4 0.26146359E-01 0.12498644E+03</pdfrwt>
<totfact> 0.91367573E+03</totfact>
</mgrwt>
</event>
<event>
 5    1  0.3340698E-002  0.1250009E+03  0.7818608E-02  0.1235068E+00
          4   -1    0    0  501    0  0.00000000000E+00  0.00000000000E+00  0.17290156697E+02  0.17336736100E+02  0.12700000000E+01 0. -1.
         -4   -1    0    0    0  501 -0.00000000000E+00 -0.00000000000E+00 -0.22557420568E+03  0.22557778075E+03  0.12700000000E+01 0. -1.
         25    2    1    2    0    0  0.00000000000E+00  0.00000000000E+00 -0.20828404898E+03  0.24291451685E+03  0.12500086974E+03 0.  0.
    9000005    1    3    3    0    0  0.43020637071E+02  0.37562065561E+02 -0.54841070059E+02  0.79184764623E+02  0.10000000000E+01 0.  0.
    9000005    1    3    3    0    0 -0.43020637071E+02 -0.37562065561E+02 -0.15344297892E+03  0.16372975223E+03  0.10000000000E+01 0.  0.
<mgrwt>
<rscale>  0 0.12500087E+03</rscale>
<asrwt>0</asrwt>
<pdfrwt beam="1">  1        4 0.26638823E-02 0.12500087E+03</pdfrwt>
<pdfrwt beam="2">  1       -4 0.34707580E-01 0.12500087E+03</pdfrwt>
<totfact> 0.83363593E+03</totfact>
</mgrwt>
</event>
<event>
 5    1  0.3340698E-002  0.1249997E+03  0.7818608E-02  0.1235070E+00
         -4   -1    0    0    0  501 -0.00000000000E+00  0.00000000000E+00  0.40800593560E+02  0.40820354418E+02  0.12700000000E+01 0.  1.
          4   -1    0    0  501    0  0.00000000000E+00 -0.00000000000E+00 -0.95692348213E+02  0.95700775371E+02  0.12700000000E+01 0.  1.
         25    2    1    2    0    0  0.00000000000E+00  0.00000000000E+00 -0.54891754653E+02  0.13652112979E+03  0.12499965660E+03 0.  0.
    9000005    1    3    3    0    0 -0.13547350594E+01  0.55832262283E+02 -0.58068630782E+02  0.80573213289E+02  0.10000000000E+01 0.  0.
    9000005    1    3    3    0    0  0.13547350594E+01 -0.55832262283E+02  0.31768761291E+01  0.55947916500E+02  0.10000000000E+01 0.  0.
<mgrwt>
<rscale>  0 0.12499966E+03</rscale>
<asrwt>0</asrwt>
<pdfrwt beam="2">  1        4 0.14724068E-01 0.12499966E+03</pdfrwt>
<pdfrwt beam="1">  1       -4 0.62791828E-02 0.12499966E+03</pdfrwt>
<totfact> 0.10206187E+04</totfact>
</mgrwt>
</event>
<event>
 5    1  0.3340698E-002  0.1249972E+03  0.7818608E-02  0.1235074E+00
          4   -1    0    0  501    0  0.00000000000E+00  0.00000000000E+00  0.86513268118E+02  0.86522589307E+02  0.12700000000E+01 0. -1.
         -4   -1    0    0    0  501 -0.00000000000E+00 -0.00000000000E+00 -0.45129354276E+02  0.45147220483E+02  0.12700000000E+01 0. -1.
         25    2    1    2    0    0  0.00000000000E+00  0.00000000000E+00  0.41383913841E+02  0.13166980979E+03  0.12499724191E+03 0.  0.
    9000005    1    3    3    0    0 -0.54976248527E+00  0.32134613194E+02 -0.35761264986E+02  0.48091617537E+02  0.10000000000E+01 0.  0.
    9000005    1    3    3    0    0  0.54976248527E+00 -0.32134613194E+02  0.77145178828E+02  0.83578192253E+02  0.10000000000E+01 0.  0.
<mgrwt>
<rscale>  0 0.12499724E+03</rscale>
<asrwt>0</asrwt>
<pdfrwt beam="1">  1        4 0.13311825E-01 0.12499724E+03</pdfrwt>
<pdfrwt beam="2">  1       -4 0.69450690E-02 0.12499724E+03</pdfrwt>
<totfact> 0.10309393E+04</totfact>
</mgrwt>
</event>
<event>
 5    1  0.3340698E-002  0.1249947E+03  0.7818608E-02  0.1235078E+00
         -4   -1    0    0    0  501 -0.00000000000E+00  0.00000000000E+00  0.31836079662E+01  0.34275734394E+01  0.12700000000E+01 0.  1.
          4   -1    0    0  501    0  0.00000000000E+00 -0.00000000000E+00 -0.11813660808E+04  0.11813667634E+04  0.12700000000E+01 0.  1.
         25    2    1    2    0    0  0.00000000000E+00  0.00000000000E+00 -0.11781824728E+04  0.11847943368E+04  0.12499472554E+03 0.  0.
    9000005    1    3    3    0    0  0.83845650633E+01  0.57428348302E+02 -0.36951854281E+03  0.37404982235E+03  0.10000000000E+01 0.  0.
    9000005    1    3    3    0    0 -0.83845650633E+01 -0.57428348302E+02 -0.80866392998E+03  0.81074451449E+03  0.10000000000E+01 0.  0.
<mgrwt>
<rscale>  0 0.12499473E+03</rscale>
<asrwt>0</asrwt>
<pdfrwt beam="2">  1        4 0.18176711E+00 0.12499473E+03</pdfrwt>
<pdfrwt beam="1">  1       -4 0.50860587E-03 0.12499473E+03</pdfrwt>
<totfact> 0.25117208E+03</totfact>
</mgrwt>
</event>
<event>
 5    1  0.3340698E-002  0.1249969E+03  0.7818608E-02  0.1235074E+00
         -4   -1    0    0    0  501 -0.00000000000E+00  0.00000000000E+00  0.48621276803E+03  0.48621442666E+03  0.12700000000E+01 0.  1.
          4   -1    0    0  501    0  0.00000000000E+00 -0.00000000000E+00 -0.79817613663E+01  0.80821664490E+01  0.12700000000E+01 0.  1.
         25    2    1    2    0    0  0.00000000000E+00  0.00000000000E+00  0.47823100666E+03  0.49429659311E+03  0.12499690487E+03 0.  0.
    9000005    1    3    3    0    0  0.18835334904E+02 -0.54741982512E+02  0.33215925408E+03  0.33716794711E+03  0.10000000000E+01 0.  0.
    9000005    1    3    3    0    0 -0.18835334904E+02  0.54741982512E+02  0.14607175259E+03  0.15712864600E+03  0.10000000000E+01 0.  0.
<mgrwt>
<rscale>  0 0.12499690E+03</rscale>
<asrwt>0</asrwt>
<pdfrwt beam="2">  1        4 0.12358142E-02 0.12499690E+03</pdfrwt>
<pdfrwt beam="1">  1       -4 0.74809826E-01 0.12499690E+03</pdfrwt>
<totfact> 0.56313438E+03</totfact>
</mgrwt>
</event>
<event>
 5    1  0.3340698E-002  0.1250011E+03  0.7818608E-02  0.1235068E+00
         -4   -1    0    0    0  501 -0.00000000000E+00  0.00000000000E+00  0.17029112552E+03  0.17029586117E+03  0.12700000000E+01 0. -1.
          4   -1    0    0  501    0  0.00000000000E+00 -0.00000000000E+00 -0.22916436682E+02  0.22951600602E+02  0.12700000000E+01 0. -1.
         25    2    1    2    0    0  0.00000000000E+00  0.00000000000E+00  0.14737468884E+03  0.19324746177E+03  0.12500113028E+03 0.  0.
    9000005    1    3    3    0    0  0.50158674902E+02 -0.25622905163E+01  0.13117695681E+03  0.14046655117E+03  0.10000000000E+01 0.  0.
    9000005    1    3    3    0    0 -0.50158674902E+02  0.25622905163E+01  0.16197732031E+02  0.52780910598E+02  0.10000000000E+01 0.  0.
<mgrwt>
<rscale>  0 0.12500113E+03</rscale>
<asrwt>0</asrwt>
<pdfrwt beam="2">  1        4 0.35286750E-02 0.12500113E+03</pdfrwt>
<pdfrwt beam="1">  1       -4 0.26201703E-01 0.12500113E+03</pdfrwt>
<totfact> 0.91283008E+03</totfact>
</mgrwt>
</event>
<event>
 5    1  0.3340698E-002  0.1249983E+03  0.7818608E-02  0.1235072E+00
          4   -1    0    0  501    0  0.00000000000E+00  0.00000000000E+00  0.77053758764E+03  0.77053863425E+03  0.12700000000E+01 0. -1.
         -4   -1    0    0    0  501 -0.00000000000E+00 -0.00000000000E+00 -0.49887682242E+01  0.51478838754E+01  0.12700000000E+01 0. -1.
         25    2    1    2    0    0  0.00000000000E+00  0.00000000000E+00  0.76554881941E+03  0.77568651812E+03  0.12499831794E+03 0.  0.
    9000005    1    3    3    0    0  0.55003775691E+02 -0.18838966562E+01  0.19908722527E+03  0.20655674201E+03  0.10000000000E+01 0.  0.
    9000005    1    3    3    0    0 -0.55003775691E+02  0.18838966562E+01  0.56646159415E+03  0.56912977611E+03  0.10000000000E+01 0.  0.
<mgrwt>
<rscale>  0 0.12499832E+03</rscale>
<asrwt>0</asrwt>
<pdfrwt beam="1">  1        4 0.11855660E+00 0.12499832E+03</pdfrwt>
<pdfrwt beam="2">  1       -4 0.77982277E-03 0.12499832E+03</pdfrwt>
<totfact> 0.39374878E+03</totfact>
</mgrwt>
</event>
<event>
 5    1  0.3340698E-002  0.1249973E+03  0.7818608E-02  0.1235073E+00
         -4   -1    0    0    0  501 -0.00000000000E+00  0.00000000000E+00  0.35660461050E+03  0.35660687196E+03  0.12700000000E+01 0.  1.
          4   -1    0    0  501    0  0.00000000000E+00 -0.00000000000E+00 -0.10914423092E+02  0.10988063134E+02  0.12700000000E+01 0.  1.
         25    2    1    2    0    0  0.00000000000E+00  0.00000000000E+00  0.34569018741E+03  0.36759493510E+03  0.12499732252E+03 0.  0.
    9000005    1    3    3    0    0 -0.43739676584E+02 -0.22624318147E+02  0.59706964161E+02  0.77401166971E+02  0.10000000000E+01 0.  0.
    9000005    1    3    3    0    0  0.43739676584E+02  0.22624318147E+02  0.28598322325E+03  0.29019376812E+03  0.10000000000E+01 0.  0.
<mgrwt>
<rscale>  0 0.12499732E+03</rscale>
<asrwt>0</asrwt>
<pdfrwt beam="2">  1        4 0.16849807E-02 0.12499732E+03</pdfrwt>
<pdfrwt beam="1">  1       -4 0.54868084E-01 0.12499732E+03</pdfrwt>
<totfact> 0.67835320E+03</totfact>
</mgrwt>
</event>
<event>
 5    1  0.3340698E-002  0.1250003E+03  0.7818608E-02  0.1235069E+00
          4   -1    0    0  501    0  0.00000000000E+00  0.00000000000E+00  0.61002532009E+02  0.61015750520E+02  0.12700000000E+01 0.  1.
         -4   -1    0    0    0  501 -0.00000000000E+00 -0.00000000000E+00 -0.64008115314E+02  0.64020713258E+02  0.12700000000E+01 0.  1.
         25    2    1    2    0    0  0.00000000000E+00  0.00000000000E+00 -0.30055833055E+01  0.12503646378E+03  0.12500033497E+03 0.  0.
    9000005    1    3    3    0    0  0.11768164298E+02  0.19488560202E+02  0.56711772014E+02  0.61118890326E+02  0.10000000000E+01 0.  0.
    9000005    1    3    3    0    0 -0.11768164298E+02 -0.19488560202E+02 -0.59717355319E+02  0.63917573452E+02  0.10000000000E+01 0.  0.
<mgrwt>
<rscale>  0 0.12500033E+03</rscale>
<asrwt>0</asrwt>
<pdfrwt beam="1">  1        4 0.93869908E-02 0.12500033E+03</pdfrwt>
<pdfrwt beam="2">  1       -4 0.98493882E-02 0.12500033E+03</pdfrwt>
<totfact> 0.10451991E+04</totfact>
</mgrwt>
</event>
<event>
 5    1  0.3340698E-002  0.1250014E+03  0.7818608E-02  0.1235067E+00
          4   -1    0    0  501    0  0.00000000000E+00  0.00000000000E+00  0.93626571299E+02  0.93635184376E+02  0.12700000000E+01 0.  1.
         -4   -1    0    0    0  501 -0.00000000000E+00 -0.00000000000E+00 -0.41702317725E+02  0.41721651497E+02  0.12700000000E+01 0.  1.
         25    2    1    2    0    0  0.00000000000E+00  0.00000000000E+00  0.51924253574E+02  0.13535683587E+03  0.12500137963E+03 0.  0.
    9000005    1    3    3    0    0  0.60052748619E+02  0.16797353371E+02  0.30407394730E+02  0.69383667756E+02  0.10000000000E+01 0.  0.
    9000005    1    3    3    0    0 -0.60052748619E+02 -0.16797353371E+02  0.21516858844E+02  0.65973168117E+02  0.10000000000E+01 0.  0.
<mgrwt>
<rscale>  0 0.12500138E+03</rscale>
<asrwt>0</asrwt>
<pdfrwt beam="1">  1        4 0.14406238E-01 0.12500138E+03</pdfrwt>
<pdfrwt beam="2">  1       -4 0.64178909E-02 0.12500138E+03</pdfrwt>
<totfact> 0.10230237E+04</totfact>
</mgrwt>
</event>
<event>
 5    1  0.3340698E-002  0.1249985E+03  0.7818608E-02  0.1235072E+00
         -4   -1    0    0    0  501 -0.00000000000E+00  0.00000000000E+00  0.11013780544E+03  0.11014512739E+03  0.12700000000E+01 0.  1.
          4   -1    0    0  501    0  0.00000000000E+00 -0.00000000000E+00 -0.35446227875E+02  0.35468971942E+02  0.12700000000E+01 0.  1.
         25    2    1    2    0    0  0.00000000000E+00  0.00000000000E+00  0.74691577563E+02  0.14561409933E+03  0.12499853665E+03 0.  0.
    9000005    1    3    3    0    0 -0.18623259017E+02 -0.25868667393E+02  0.99961476480E+02  0.10492526154E+03  0.10000000000E+01 0.  0.
    9000005    1    3    3    0    0  0.18623259017E+02  0.25868667393E+02 -0.25269898918E+02  0.40688837787E+02  0.10000000000E+01 0.  0.
<mgrwt>
<rscale>  0 0.12499854E+03</rscale>
<asrwt>0</asrwt>
<pdfrwt beam="2">  1        4 0.54555787E-02 0.12499854E+03</pdfrwt>
<pdfrwt beam="1">  1       -4 0.16946590E-01 0.12499854E+03</pdfrwt>
<totfact> 0.10018856E+04</totfact>
</mgrwt>
</event>
<event>
 5    1  0.3340698E-002  0.1250034E+03  0.7818608E-02  0.1235064E+00
          4   -1    0    0  501    0  0.00000000000E+00  0.00000000000E+00  0.89370079908E+01  0.90267941057E+01  0.12700000000E+01 0. -1.
         -4   -1    0    0    0  501 -0.00000000000E+00 -0.00000000000E+00 -0.43483510330E+03  0.43483695791E+03  0.12700000000E+01 0. -1.
         25    2    1    2    0    0  0.00000000000E+00  0.00000000000E+00 -0.42589809531E+03  0.44386375201E+03  0.12500337101E+03 0.  0.
    9000005    1    3    3    0    0 -0.14344914637E+02 -0.51723599047E+02 -0.99303385040E+02  0.11288609106E+03  0.10000000000E+01 0.  0.
    9000005    1    3    3    0    0  0.14344914637E+02  0.51723599047E+02 -0.32659471027E+03  0.33097766095E+03  0.10000000000E+01 0.  0.
<mgrwt>
<rscale>  0 0.12500337E+03</rscale>
<asrwt>0</asrwt>
<pdfrwt beam="1">  1        4 0.13819739E-02 0.12500337E+03</pdfrwt>
<pdfrwt beam="2">  1       -4 0.66904741E-01 0.12500337E+03</pdfrwt>
<totfact> 0.60494603E+03</totfact>
</mgrwt>
</event>
<event>
 5    1  0.3340698E-002  0.1249962E+03  0.7818608E-02  0.1235075E+00
          4   -1    0    0  501    0  0.00000000000E+00  0.00000000000E+00  0.21631221775E+03  0.21631594590E+03  0.12700000000E+01 0.  1.
         -4   -1    0    0    0  501 -0.00000000000E+00 -0.00000000000E+00 -0.18031064675E+02  0.18075734931E+02  0.12700000000E+01 0.  1.
         25    2    1    2    0    0  0.00000000000E+00  0.00000000000E+00  0.19828115308E+03  0.23439168083E+03  0.12499617744E+03 0.  0.
    9000005    1    3    3    0    0  0.59810679578E+02 -0.18100473638E+02  0.98656804990E+02  0.11678659901E+03  0.10000000000E+01 0.  0.
    9000005    1    3    3    0    0 -0.59810679578E+02  0.18100473638E+02  0.99624348087E+02  0.11760508182E+03  0.10000000000E+01 0.  0.
<mgrwt>
<rscale>  0 0.12499618E+03</rscale>
<asrwt>0</asrwt>
<pdfrwt beam="1">  1        4 0.33282525E-01 0.12499618E+03</pdfrwt>
<pdfrwt beam="2">  1       -4 0.27777330E-02 0.12499618E+03</pdfrwt>
<totfact> 0.84646997E+03</totfact>
</mgrwt>
</event>
<event>
 5    1  0.3340698E-002  0.1250000E+03  0.7818608E-02  0.1235069E+00
         -4   -1    0    0    0  501 -0.00000000000E+00  0.00000000000E+00  0.96674791696E+02  0.96683133221E+02  0.12700000000E+01 0. -1.
          4   -1    0    0  501    0  0.00000000000E+00 -0.00000000000E+00 -0.40386019788E+02  0.40405983397E+02  0.12700000000E+01 0. -1.
         25    2    1    2    0    0  0.00000000000E+00  0.00000000000E+00  0.56288771908E+02  0.13708911662E+03  0.12500000021E+03 0.  0.
    9000005    1    3    3    0    0  0.23546440881E+01 -0.13566708793E+02 -0.38706992676E+02  0.41095391692E+02  0.10000000000E+01 0.  0.
    9000005    1    3    3    0    0 -0.23546440881E+01  0.13566708793E+02  0.94995764585E+02  0.95993724927E+02  0.10000000000E+01 0.  0.
<mgrwt>
<rscale>  0 0.12500000E+03</rscale>
<asrwt>0</asrwt>
<pdfrwt beam="2">  1        4 0.62154112E-02 0.12500000E+03</pdfrwt>
<pdfrwt beam="1">  1       -4 0.14875222E-01 0.12500000E+03</pdfrwt>
<totfact> 0.10194223E+04</totfact>
</mgrwt>
</event>
<event>
 5    1  0.3340698E-002  0.1249981E+03  0.7818608E-02  0.1235072E+00
         -4   -1    0    0    0  501 -0.00000000000E+00  0.00000000000E+00  0.10616848480E+03  0.10617608048E+03  0.12700000000E+01 0. -1.
          4   -1    0    0  501    0  0.00000000000E+00 -0.00000000000E+00 -0.36771934562E+02  0.36793859154E+02  0.12700000000E+01 0. -1.
         25    2    1    2    0    0  0.00000000000E+00  0.00000000000E+00  0.69396550242E+02  0.14296993963E+03  0.12499808980E+03 0.  0.
    9000005    1    3    3    0    0 -0.41865733257E+02 -0.44657342717E+02  0.49080457144E+02  0.78465974494E+02  0.10000000000E+01 0.  0.
    9000005    1    3    3    0    0  0.41865733257E+02  0.44657342717E+02  0.20316093098E+02  0.64503965138E+02  0.10000000000E+01 0.  0.
<mgrwt>
<rscale>  0 0.12499809E+03</rscale>
<asrwt>0</asrwt>
<pdfrwt beam="2">  1        4 0.56594915E-02 0.12499809E+03</pdfrwt>
<pdfrwt beam="1">  1       -4 0.16335884E-01 0.12499809E+03</pdfrwt>
<totfact> 0.10072832E+04</totfact>
</mgrwt>
</event>
<event>
 5    1  0.3340698E-002  0.1249961E+03  0.7818608E-02  0.1235075E+00
         -4   -1    0    0    0  501 -0.00000000000E+00  0.00000000000E+00  0.42417562100E+02  0.42436570014E+02  0.12700000000E+01 0. -1.
          4   -1    0    0  501    0  0.00000000000E+00 -0.00000000000E+00 -0.92040701171E+02  0.92049462638E+02  0.12700000000E+01 0. -1.
         25    2    1    2    0    0  0.00000000000E+00  0.00000000000E+00 -0.49623139070E+02  0.13448603265E+03  0.12499614813E+03 0.  0.
    9000005    1    3    3    0    0 -0.55469367349E+02 -0.25510161734E+02 -0.39141542096E+02  0.72530541039E+02  0.10000000000E+01 0.  0.
    9000005    1    3    3    0    0  0.55469367349E+02  0.25510161734E+02 -0.10481596975E+02  0.61955491613E+02  0.10000000000E+01 0.  0.
<mgrwt>
<rscale>  0 0.12499615E+03</rscale>
<asrwt>0</asrwt>
<pdfrwt beam="2">  1        4 0.14162244E-01 0.12499615E+03</pdfrwt>
<pdfrwt beam="1">  1       -4 0.65279149E-02 0.12499615E+03</pdfrwt>
<totfact> 0.10249806E+04</totfact>
</mgrwt>
</event>
<event>
 5    1  0.3340698E-002  0.1250093E+03  0.7818608E-02  0.1235055E+00
         -4   -1    0    0    0  501 -0.00000000000E+00  0.00000000000E+00  0.66401880203E+01  0.67605470891E+01  0.12700000000E+01 0. -1.
          4   -1    0    0  501    0  0.00000000000E+00 -0.00000000000E+00 -0.58295632374E+03  0.58295770712E+03  0.12700000000E+01 0. -1.
         25    2    1    2    0    0  0.00000000000E+00  0.00000000000E+00 -0.57631613572E+03  0.58971825421E+03  0.12500932387E+03 0.  0.
    9000005    1    3    3    0    0 -0.32075883099E+02 -0.43030874873E+02 -0.43921152560E+03  0.44247969749E+03  0.10000000000E+01 0.  0.
    9000005    1    3    3    0    0  0.32075883099E+02  0.43030874873E+02 -0.13710461012E+03  0.14723855672E+03  0.10000000000E+01 0.  0.
<mgrwt>
<rscale>  0 0.12500932E+03</rscale>
<asrwt>0</asrwt>
<pdfrwt beam="2">  1        4 0.89694913E-01 0.12500932E+03</pdfrwt>
<pdfrwt beam="1">  1       -4 0.10309326E-02 0.12500932E+03</pdfrwt>
<totfact> 0.49513013E+03</totfact>
</mgrwt>
</event>
<event>
 5    1  0.3340698E-002  0.1250000E+03  0.7818608E-02  0.1235069E+00
         -4   -1    0    0    0  501 -0.00000000000E+00  0.00000000000E+00  0.47600965203E+03  0.47601134622E+03  0.12700000000E+01 0.  1.
          4   -1    0    0  501    0  0.00000000000E+00 -0.00000000000E+00 -0.81553797402E+01  0.82536730434E+01  0.12700000000E+01 0.  1.
         25    2    1    2    0    0  0.00000000000E+00  0.00000000000E+00  0.46785427229E+03  0.48426501926E+03  0.12499995511E+03 0.  0.
    9000005    1    3    3    0    0 -0.66387331950E+01  0.48963572075E+02  0.85707527786E+02  0.98935759399E+02  0.10000000000E+01 0.  0.
    9000005    1    3    3    0    0  0.66387331950E+01 -0.48963572075E+02  0.38214674451E+03  0.38532925986E+03  0.10000000000E+01 0.  0.
<mgrwt>
<rscale>  0 0.12499996E+03</rscale>
<asrwt>0</asrwt>
<pdfrwt beam="2">  1        4 0.12623650E-02 0.12499996E+03</pdfrwt>
<pdfrwt beam="1">  1       -4 0.73239957E-01 0.12499996E+03</pdfrwt>
<totfact> 0.57106263E+03</totfact>
</mgrwt>
</event>
<event>
 5    1  0.3340698E-002  0.1249995E+03  0.7818608E-02  0.1235070E+00
          4   -1    0    0  501    0  0.00000000000E+00  0.00000000000E+00  0.13222772051E+03  0.13223381932E+03  0.12700000000E+01 0. -1.
         -4   -1    0    0    0  501 -0.00000000000E+00 -0.00000000000E+00 -0.29521151826E+02  0.29548456899E+02  0.12700000000E+01 0. -1.
         25    2    1    2    0    0  0.00000000000E+00  0.00000000000E+00  0.10270656869E+03  0.16178227622E+03  0.12499946259E+03 0.  0.
    9000005    1    3    3    0    0  0.27605253360E+02  0.24768538709E+01  0.12384397574E+03  0.12691144607E+03  0.10000000000E+01 0.  0.
    9000005    1    3    3    0    0 -0.27605253360E+02 -0.24768538709E+01 -0.21137407051E+02  0.34870830145E+02  0.10000000000E+01 0.  0.
<mgrwt>
<rscale>  0 0.12499946E+03</rscale>
<asrwt>0</asrwt>
<pdfrwt beam="1">  1        4 0.20345296E-01 0.12499946E+03</pdfrwt>
<pdfrwt beam="2">  1       -4 0.45442852E-02 0.12499946E+03</pdfrwt>
<totfact> 0.97001444E+03</totfact>
</mgrwt>
</event>
<event>
 5    1  0.3340698E-002  0.1249990E+03  0.7818608E-02  0.1235071E+00
         -4   -1    0    0    0  501 -0.00000000000E+00  0.00000000000E+00  0.12771059710E+03  0.12771691162E+03  0.12700000000E+01 0. -1.
          4   -1    0    0  501    0  0.00000000000E+00 -0.00000000000E+00 -0.30565981715E+02  0.30592354245E+02  0.12700000000E+01 0. -1.
         25    2    1    2    0    0  0.00000000000E+00  0.00000000000E+00  0.97144615389E+02  0.15830926586E+03  0.12499898943E+03 0.  0.
    9000005    1    3    3    0    0 -0.32990401932E+02  0.31672834265E+02  0.10250806579E+03  0.11225167528E+03  0.10000000000E+01 0.  0.
    9000005    1    3    3    0    0  0.32990401932E+02 -0.31672834265E+02 -0.53634504046E+01  0.46057590582E+02  0.10000000000E+01 0.  0.
<mgrwt>
<rscale>  0 0.12499899E+03</rscale>
<asrwt>0</asrwt>
<pdfrwt beam="2">  1        4 0.47049731E-02 0.12499899E+03</pdfrwt>
<pdfrwt beam="1">  1       -4 0.19650298E-01 0.12499899E+03</pdfrwt>
<totfact> 0.97671958E+03</totfact>
</mgrwt>
</event>
<event>
 5    1  0.3340698E-002  0.1249990E+03  0.7818608E-02  0.1235071E+00
          4   -1    0    0  501    0  0.00000000000E+00  0.00000000000E+00  0.30814600588E+01  0.33329110540E+01  0.12700000000E+01 0.  1.
         -4   -1    0    0    0  501 -0.00000000000E+00 -0.00000000000E+00 -0.12176976345E+04  0.12176982968E+04  0.12700000000E+01 0.  1.
         25    2    1    2    0    0  0.00000000000E+00  0.00000000000E+00 -0.12146161744E+04  0.12210312078E+04  0.12499903710E+03 0.  0.
    9000005    1    3    3    0    0  0.23993877687E+02  0.33290014526E+02 -0.14692468692E+03  0.15255095824E+03  0.10000000000E+01 0.  0.
    9000005    1    3    3    0    0 -0.23993877687E+02 -0.33290014526E+02 -0.10676914875E+04  0.10684802496E+04  0.10000000000E+01 0.  0.
<mgrwt>
<rscale>  0 0.12499904E+03</rscale>
<asrwt>0</asrwt>
<pdfrwt beam="1">  1        4 0.49346508E-03 0.12499904E+03</pdfrwt>
<pdfrwt beam="2">  1       -4 0.18735712E+00 0.12499904E+03</pdfrwt>
<totfact> 0.24169376E+03</totfact>
</mgrwt>
</event>
<event>
 5    1  0.3340698E-002  0.1249419E+03  0.7818608E-02  0.1235160E+00
          4   -1    0    0  501    0  0.00000000000E+00  0.00000000000E+00  0.10854783075E+02  0.10928824987E+02  0.12700000000E+01 0. -1.
         -4   -1    0    0    0  501 -0.00000000000E+00 -0.00000000000E+00 -0.35823248993E+03  0.35823474112E+03  0.12700000000E+01 0. -1.
         25    2    1    2    0    0  0.00000000000E+00  0.00000000000E+00 -0.34737770686E+03  0.36916356610E+03  0.12494185575E+03 0.  0.
    9000005    1    3    3    0    0 -0.22407877481E+02 -0.38285727949E+01 -0.34559061626E+03  0.34633891637E+03  0.10000000000E+01 0.  0.
    9000005    1    3    3    0    0  0.22407877481E+02  0.38285727949E+01 -0.17870905968E+01  0.22824649737E+02  0.10000000000E+01 0.  0.
<mgrwt>
<rscale>  0 0.12494186E+03</rscale>
<asrwt>0</asrwt>
<pdfrwt beam="1">  1        4 0.16758356E-02 0.12494186E+03</pdfrwt>
<pdfrwt beam="2">  1       -4 0.55118551E-01 0.12494186E+03</pdfrwt>
<totfact> 0.67753598E+03</totfact>
</mgrwt>
</event>
<event>
 5    1  0.3340698E-002  0.1249955E+03  0.7818608E-02  0.1235076E+00
         -4   -1    0    0    0  501 -0.00000000000E+00  0.00000000000E+00  0.22784009091E+02  0.22819377079E+02  0.12700000000E+01 0.  1.
          4   -1    0    0  501    0  0.00000000000E+00 -0.00000000000E+00 -0.17126404640E+03  0.17126875515E+03  0.12700000000E+01 0.  1.
         25    2    1    2    0    0  0.00000000000E+00  0.00000000000E+00 -0.14848003731E+03  0.19408813222E+03  0.12499552629E+03 0.  0.
    9000005    1    3    3    0    0  0.28461357898E+02 -0.54166182486E+02 -0.54540988413E+02  0.81974042450E+02  0.10000000000E+01 0.  0.
    9000005    1    3    3    0    0 -0.28461357898E+02  0.54166182486E+02 -0.93939048895E+02  0.11211408977E+03  0.10000000000E+01 0.  0.
<mgrwt>
<rscale>  0 0.12499553E+03</rscale>
<asrwt>0</asrwt>
<pdfrwt beam="2">  1        4 0.26351397E-01 0.12499553E+03</pdfrwt>
<pdfrwt beam="1">  1       -4 0.35083151E-02 0.12499553E+03</pdfrwt>
<totfact> 0.91149949E+03</totfact>
</mgrwt>
</event>
<event>
 5    1  0.3340698E-002  0.1250028E+03  0.7818608E-02  0.1235065E+00
         -4   -1    0    0    0  501 -0.00000000000E+00  0.00000000000E+00  0.17393171125E+03  0.17393634778E+03  0.12700000000E+01 0. -1.
          4   -1    0    0  501    0  0.00000000000E+00 -0.00000000000E+00 -0.22436629745E+02  0.22472544456E+02  0.12700000000E+01 0. -1.
         25    2    1    2    0    0  0.00000000000E+00  0.00000000000E+00  0.15149508151E+03  0.19640889224E+03  0.12500277288E+03 0.  0.
    9000005    1    3    3    0    0  0.47605607188E+02  0.52096121235E+01  0.12663051410E+02  0.49545804719E+02  0.10000000000E+01 0.  0.
    9000005    1    3    3    0    0 -0.47605607188E+02 -0.52096121235E+01  0.13883203010E+03  0.14686308752E+03  0.10000000000E+01 0.  0.
<mgrwt>
<rscale>  0 0.12500277E+03</rscale>
<asrwt>0</asrwt>
<pdfrwt beam="2">  1        4 0.34549084E-02 0.12500277E+03</pdfrwt>
<pdfrwt beam="1">  1       -4 0.26761845E-01 0.12500277E+03</pdfrwt>
<totfact> 0.90738357E+03</totfact>
</mgrwt>
</event>
<event>
 5    1  0.3340698E-002  0.1249945E+03  0.7818608E-02  0.1235078E+00
         -4   -1    0    0    0  501 -0.00000000000E+00  0.00000000000E+00  0.16875399125E+02  0.16923120151E+02  0.12700000000E+01 0. -1.
          4   -1    0    0  501    0  0.00000000000E+00 -0.00000000000E+00 -0.23107942239E+03  0.23108291229E+03  0.12700000000E+01 0. -1.
         25    2    1    2    0    0  0.00000000000E+00  0.00000000000E+00 -0.21420402326E+03  0.24800603244E+03  0.12499451406E+03 0.  0.
    9000005    1    3    3    0    0 -0.22621127276E+02  0.23491879590E+02 -0.21286449039E+03  0.21535058643E+03  0.10000000000E+01 0.  0.
    9000005    1    3    3    0    0  0.22621127276E+02 -0.23491879590E+02 -0.13395328740E+01  0.32655446012E+02  0.10000000000E+01 0.  0.
<mgrwt>
<rscale>  0 0.12499451E+03</rscale>
<asrwt>0</asrwt>
<pdfrwt beam="2">  1        4 0.35554617E-01 0.12499451E+03</pdfrwt>
<pdfrwt beam="1">  1       -4 0.26001547E-02 0.12499451E+03</pdfrwt>
<totfact> 0.82629375E+03</totfact>
</mgrwt>
</event>
<event>
 5    1  0.3340698E-002  0.1250044E+03  0.7818608E-02  0.1235062E+00
         -4   -1    0    0    0  501 -0.00000000000E+00  0.00000000000E+00  0.25988825858E+02  0.26019837999E+02  0.12700000000E+01 0. -1.
          4   -1    0    0  501    0  0.00000000000E+00 -0.00000000000E+00 -0.15019221883E+03  0.15019758819E+03  0.12700000000E+01 0. -1.
         25    2    1    2    0    0  0.00000000000E+00  0.00000000000E+00 -0.12420339297E+03  0.17621742619E+03  0.12500439379E+03 0.  0.
    9000005    1    3    3    0    0  0.19652220463E+02  0.51417259511E+02 -0.10381470933E+03  0.11750931120E+03  0.10000000000E+01 0.  0.
    9000005    1    3    3    0    0 -0.19652220463E+02 -0.51417259511E+02 -0.20388683640E+02  0.58708114986E+02  0.10000000000E+01 0.  0.
<mgrwt>
<rscale>  0 0.12500439E+03</rscale>
<asrwt>0</asrwt>
<pdfrwt beam="2">  1        4 0.23109293E-01 0.12500439E+03</pdfrwt>
<pdfrwt beam="1">  1       -4 0.40010796E-02 0.12500439E+03</pdfrwt>
<totfact> 0.94293051E+03</totfact>
</mgrwt>
</event>
<event>
 5    1  0.3340698E-002  0.1249892E+03  0.7818608E-02  0.1235086E+00
          4   -1    0    0  501    0  0.00000000000E+00  0.00000000000E+00  0.12733948072E+03  0.12734581363E+03  0.12700000000E+01 0.  1.
         -4   -1    0    0    0  501 -0.00000000000E+00 -0.00000000000E+00 -0.30650348794E+02  0.30676648794E+02  0.12700000000E+01 0.  1.
         25    2    1    2    0    0  0.00000000000E+00  0.00000000000E+00  0.96689131926E+02  0.15802246243E+03  0.12498924113E+03 0.  0.
    9000005    1    3    3    0    0  0.36986083930E+02 -0.21475695799E+02 -0.92520909389E+01  0.43769591056E+02  0.10000000000E+01 0.  0.
    9000005    1    3    3    0    0 -0.36986083930E+02  0.21475695799E+02  0.10594122287E+03  0.11425287137E+03  0.10000000000E+01 0.  0.
<mgrwt>
<rscale>  0 0.12498924E+03</rscale>
<asrwt>0</asrwt>
<pdfrwt beam="1">  1        4 0.19593200E-01 0.12498924E+03</pdfrwt>
<pdfrwt beam="2">  1       -4 0.47179485E-02 0.12498924E+03</pdfrwt>
<totfact> 0.97749040E+03</totfact>
</mgrwt>
</event>
<event>
 5    1  0.3340698E-002  0.1250028E+03  0.7818608E-02  0.1235065E+00
          4   -1    0    0  501    0  0.00000000000E+00  0.00000000000E+00  0.13562749316E+03  0.13563343909E+03  0.12700000000E+01 0.  1.
         -4   -1    0    0    0  501 -0.00000000000E+00 -0.00000000000E+00 -0.28782024814E+02  0.28810030413E+02  0.12700000000E+01 0.  1.
         25    2    1    2    0    0  0.00000000000E+00  0.00000000000E+00  0.10684546834E+03  0.16444346950E+03  0.12500280220E+03 0.  0.
    9000005    1    3    3    0    0  0.18218984313E+02  0.59769826765E+02  0.52067329986E+02  0.81341074697E+02  0.10000000000E+01 0.  0.
    9000005    1    3    3    0    0 -0.18218984313E+02 -0.59769826765E+02  0.54778138357E+02  0.83102394808E+02  0.10000000000E+01 0.  0.
<mgrwt>
<rscale>  0 0.12500280E+03</rscale>
<asrwt>0</asrwt>
<pdfrwt beam="1">  1        4 0.20868380E-01 0.12500280E+03</pdfrwt>
<pdfrwt beam="2">  1       -4 0.44306154E-02 0.12500280E+03</pdfrwt>
<totfact> 0.96486819E+03</totfact>
</mgrwt>
</event>
<event>
 5    1  0.3340698E-002  0.1249972E+03  0.7818608E-02  0.1235074E+00
          4   -1    0    0  501    0  0.00000000000E+00  0.00000000000E+00  0.87435947359E+02  0.87445170196E+02  0.12700000000E+01 0. -1.
         -4   -1    0    0    0  501 -0.00000000000E+00 -0.00000000000E+00 -0.44652931636E+02  0.44670988390E+02  0.12700000000E+01 0. -1.
         25    2    1    2    0    0  0.00000000000E+00  0.00000000000E+00  0.42783015722E+02  0.13211615859E+03  0.12499717167E+03 0.  0.
    9000005    1    3    3    0    0 -0.39715256208E+02  0.27713180495E+02 -0.20351469954E+02  0.52540501312E+02  0.10000000000E+01 0.  0.
    9000005    1    3    3    0    0  0.39715256208E+02 -0.27713180495E+02  0.63134485676E+02  0.79575657273E+02  0.10000000000E+01 0.  0.
<mgrwt>
<rscale>  0 0.12499717E+03</rscale>
<asrwt>0</asrwt>
<pdfrwt beam="1">  1        4 0.13453783E-01 0.12499717E+03</pdfrwt>
<pdfrwt beam="2">  1       -4 0.68717802E-02 0.12499717E+03</pdfrwt>
<totfact> 0.10299877E+04</totfact>
</mgrwt>
</event>
<event>
 5    1  0.3340698E-002  0.1249991E+03  0.7818608E-02  0.1235071E+00
         -4   -1    0    0    0  501 -0.00000000000E+00  0.00000000000E+00  0.20218933082E+02  0.20258779701E+02  0.12700000000E+01 0. -1.
          4   -1    0    0  501    0  0.00000000000E+00 -0.00000000000E+00 -0.19296260498E+03  0.19296678424E+03  0.12700000000E+01 0. -1.
         25    2    1    2    0    0  0.00000000000E+00  0.00000000000E+00 -0.17274367189E+03  0.21322556394E+03  0.12499905975E+03 0.  0.
    9000005    1    3    3    0    0 -0.63310034563E+01  0.60309030873E+02 -0.11212518270E+03  0.12747673280E+03  0.10000000000E+01 0.  0.
    9000005    1    3    3    0    0  0.63310034563E+01 -0.60309030873E+02 -0.60618489194E+02  0.85748831139E+02  0.10000000000E+01 0.  0.
<mgrwt>
<rscale>  0 0.12499906E+03</rscale>
<asrwt>0</asrwt>
<pdfrwt beam="2">  1        4 0.29689940E-01 0.12499906E+03</pdfrwt>
<pdfrwt beam="1">  1       -4 0.31139918E-02 0.12499906E+03</pdfrwt>
<totfact> 0.87953647E+03</totfact>
</mgrwt>
</event>
<event>
 5    1  0.3340698E-002  0.1249995E+03  0.7818608E-02  0.1235070E+00
         -4   -1    0    0    0  501 -0.00000000000E+00  0.00000000000E+00  0.27052451100E+02  0.27082245301E+02  0.12700000000E+01 0.  1.
          4   -1    0    0  501    0  0.00000000000E+00 -0.00000000000E+00 -0.14428225587E+03  0.14428784515E+03  0.12700000000E+01 0.  1.
         25    2    1    2    0    0  0.00000000000E+00  0.00000000000E+00 -0.11722980477E+03  0.17137009045E+03  0.12499952310E+03 0.  0.
    9000005    1    3    3    0    0  0.25829905263E+01 -0.48853464008E+02 -0.11192216662E+03  0.12215115295E+03  0.10000000000E+01 0.  0.
    9000005    1    3    3    0    0 -0.25829905263E+01  0.48853464008E+02 -0.53076381403E+01  0.49218937496E+02  0.10000000000E+01 0.  0.
<mgrwt>
<rscale>  0 0.12499952E+03</rscale>
<asrwt>0</asrwt>
<pdfrwt beam="2">  1        4 0.22199991E-01 0.12499952E+03</pdfrwt>
<pdfrwt beam="1">  1       -4 0.41646374E-02 0.12499952E+03</pdfrwt>
<totfact> 0.95194904E+03</totfact>
</mgrwt>
</event>
<event>
 5    1  0.3340698E-002  0.1250138E+03  0.7818608E-02  0.1235048E+00
         -4   -1    0    0    0  501 -0.00000000000E+00  0.00000000000E+00  0.25749192895E+02  0.25780493299E+02  0.12700000000E+01 0. -1.
          4   -1    0    0  501    0  0.00000000000E+00 -0.00000000000E+00 -0.15161124474E+03  0.15161656384E+03  0.12700000000E+01 0. -1.
         25    2    1    2    0    0  0.00000000000E+00  0.00000000000E+00 -0.12586205184E+03  0.17739705714E+03  0.12501383838E+03 0.  0.
    9000005    1    3    3    0    0 -0.17940636132E+02 -0.46204019360E+02 -0.89068674785E+01  0.50368741479E+02  0.10000000000E+01 0.  0.
    9000005    1    3    3    0    0  0.17940636132E+02  0.46204019360E+02 -0.11695518436E+03  0.12702831566E+03  0.10000000000E+01 0.  0.
<mgrwt>
<rscale>  0 0.12501384E+03</rscale>
<asrwt>0</asrwt>
<pdfrwt beam="2">  1        4 0.23327623E-01 0.12501384E+03</pdfrwt>
<pdfrwt beam="1">  1       -4 0.39642313E-02 0.12501384E+03</pdfrwt>
<totfact> 0.94058455E+03</totfact>
</mgrwt>
</event>
<event>
 5    1  0.3340698E-002  0.1250034E+03  0.7818608E-02  0.1235064E+00
          4   -1    0    0  501    0  0.00000000000E+00  0.00000000000E+00  0.21536328606E+03  0.21536703063E+03  0.12700000000E+01 0.  1.
         -4   -1    0    0    0  501 -0.00000000000E+00 -0.00000000000E+00 -0.18112793935E+02  0.18157263123E+02  0.12700000000E+01 0.  1.
         25    2    1    2    0    0  0.00000000000E+00  0.00000000000E+00  0.19725049213E+03  0.23352429376E+03  0.12500335647E+03 0.  0.
    9000005    1    3    3    0    0 -0.59085191225E+02 -0.99569731718E+01  0.65455366432E+02  0.88744611846E+02  0.10000000000E+01 0.  0.
    9000005    1    3    3    0    0  0.59085191225E+02  0.99569731718E+01  0.13179512570E+03  0.14477968191E+03  0.10000000000E+01 0.  0.
<mgrwt>
<rscale>  0 0.12500336E+03</rscale>
<asrwt>0</asrwt>
<pdfrwt beam="1">  1        4 0.33136520E-01 0.12500336E+03</pdfrwt>
<pdfrwt beam="2">  1       -4 0.27902926E-02 0.12500336E+03</pdfrwt>
<totfact> 0.84765015E+03</totfact>
</mgrwt>
</event>
<event>
 5    1  0.3340698E-002  0.1249943E+03  0.7818608E-02  0.1235078E+00
          4   -1    0    0  501    0  0.00000000000E+00  0.00000000000E+00  0.16978667504E+02  0.17026099090E+02  0.12700000000E+01 0. -1.
         -4   -1    0    0    0  501 -0.00000000000E+00 -0.00000000000E+00 -0.22967691940E+03  0.22968043061E+03  0.12700000000E+01 0. -1.
         25    2    1    2    0    0  0.00000000000E+00  0.00000000000E+00 -0.21269825190E+03  0.24670652970E+03  0.12499426162E+03 0.  0.
    9000005    1    3    3    0    0  0.67958380613E+01 -0.15710993967E+02  0.12270563132E+02  0.21085195421E+02  0.10000000000E+01 0.  0.
    9000005    1    3    3    0    0 -0.67958380613E+01  0.15710993967E+02 -0.22496881503E+03  0.22562133428E+03  0.10000000000E+01 0.  0.
<mgrwt>
<rscale>  0 0.12499426E+03</rscale>
<asrwt>0</asrwt>
<pdfrwt beam="1">  1        4 0.26160215E-02 0.12499426E+03</pdfrwt>
<pdfrwt beam="2">  1       -4 0.35338827E-01 0.12499426E+03</pdfrwt>
<totfact> 0.82819169E+03</totfact>
</mgrwt>
</event>
<event>
 5    1  0.3340698E-002  0.1250035E+03  0.7818608E-02  0.1235064E+00
         -4   -1    0    0    0  501 -0.00000000000E+00  0.00000000000E+00  0.36958396327E+03  0.36958614531E+03  0.12700000000E+01 0. -1.
          4   -1    0    0  501    0  0.00000000000E+00 -0.00000000000E+00 -0.10529544145E+02  0.10605856868E+02  0.12700000000E+01 0. -1.
         25    2    1    2    0    0  0.00000000000E+00  0.00000000000E+00  0.35905441913E+03  0.38019200218E+03  0.12500353046E+03 0.  0.
    9000005    1    3    3    0    0 -0.54361247942E+02 -0.64605518858E+01  0.27120494416E+03  0.27667671703E+03  0.10000000000E+01 0.  0.
    9000005    1    3    3    0    0  0.54361247942E+02  0.64605518858E+01  0.87849474963E+02  0.10351528515E+03  0.10000000000E+01 0.  0.
<mgrwt>
<rscale>  0 0.12500353E+03</rscale>
<asrwt>0</asrwt>
<pdfrwt beam="2">  1        4 0.16259678E-02 0.12500353E+03</pdfrwt>
<pdfrwt beam="1">  1       -4 0.56865115E-01 0.12500353E+03</pdfrwt>
<totfact> 0.66520777E+03</totfact>
</mgrwt>
</event>
<event>
 5    1  0.3340698E-002  0.1249996E+03  0.7818608E-02  0.1235070E+00
          4   -1    0    0  501    0  0.00000000000E+00  0.00000000000E+00  0.81615732639E+03  0.81615831449E+03  0.12700000000E+01 0.  1.
         -4   -1    0    0    0  501 -0.00000000000E+00 -0.00000000000E+00 -0.47008640998E+01  0.48693966037E+01  0.12700000000E+01 0.  1.
         25    2    1    2    0    0  0.00000000000E+00  0.00000000000E+00  0.81145646229E+03  0.82102771110E+03  0.12499964880E+03 0.  0.
    9000005    1    3    3    0    0 -0.58591259201E+02 -0.14582186523E+02  0.29988939576E+03  0.30590885163E+03  0.10000000000E+01 0.  0.
    9000005    1    3    3    0    0  0.58591259201E+02  0.14582186523E+02  0.51156706653E+03  0.51511885946E+03  0.10000000000E+01 0.  0.
<mgrwt>
<rscale>  0 0.12499965E+03</rscale>
<asrwt>0</asrwt>
<pdfrwt beam="1">  1        4 0.12557567E+00 0.12499965E+03</pdfrwt>
<pdfrwt beam="2">  1       -4 0.73625011E-03 0.12499965E+03</pdfrwt>
<totfact> 0.37343354E+03</totfact>
</mgrwt>
</event>
<event>
 5    1  0.3340698E-002  0.1249983E+03  0.7818608E-02  0.1235072E+00
         -4   -1    0    0    0  501 -0.00000000000E+00  0.00000000000E+00  0.17580988037E+02  0.17626798925E+02  0.12700000000E+01 0. -1.
          4   -1    0    0  501    0  0.00000000000E+00 -0.00000000000E+00 -0.22184310960E+03  0.22184674480E+03  0.12700000000E+01 0. -1.
         25    2    1    2    0    0  0.00000000000E+00  0.00000000000E+00 -0.20426212157E+03  0.23947354373E+03  0.12499825534E+03 0.  0.
    9000005    1    3    3    0    0  0.39520252721E+02  0.47041160325E+02 -0.12400995593E+03  0.13839866440E+03  0.10000000000E+01 0.  0.
    9000005    1    3    3    0    0 -0.39520252721E+02 -0.47041160325E+02 -0.80252165641E+02  0.10107487932E+03  0.10000000000E+01 0.  0.
<mgrwt>
<rscale>  0 0.12499826E+03</rscale>
<asrwt>0</asrwt>
<pdfrwt beam="2">  1        4 0.34133511E-01 0.12499826E+03</pdfrwt>
<pdfrwt beam="1">  1       -4 0.27085711E-02 0.12499826E+03</pdfrwt>
<totfact> 0.83879100E+03</totfact>
</mgrwt>
</event>
<event>
 5    1  0.3340698E-002  0.1250219E+03  0.7818608E-02  0.1235035E+00
          4   -1    0    0  501    0  0.00000000000E+00  0.00000000000E+00  0.37074683265E+01  0.39189566713E+01  0.12700000000E+01 0. -1.
         -4   -1    0    0    0  501 -0.00000000000E+00 -0.00000000000E+00 -0.10245463717E+04  0.10245471589E+04  0.12700000000E+01 0. -1.
         25    2    1    2    0    0  0.00000000000E+00  0.00000000000E+00 -0.10208389034E+04  0.10284661155E+04  0.12502193444E+03 0.  0.
    9000005    1    3    3    0    0  0.22732165269E+00  0.43890398646E+02 -0.14435416401E+03  0.15088254848E+03  0.10000000000E+01 0.  0.
    9000005    1    3    3    0    0 -0.22732165269E+00 -0.43890398646E+02 -0.87648473939E+03  0.87758356705E+03  0.10000000000E+01 0.  0.
<mgrwt>
<rscale>  0 0.12502193E+03</rscale>
<asrwt>0</asrwt>
<pdfrwt beam="1">  1        4 0.58670944E-03 0.12502193E+03</pdfrwt>
<pdfrwt beam="2">  1       -4 0.15763863E+00 0.12502193E+03</pdfrwt>
<totfact> 0.29662628E+03</totfact>
</mgrwt>
</event>
<event>
 5    1  0.3340698E-002  0.1249634E+03  0.7818608E-02  0.1235126E+00
         -4   -1    0    0    0  501 -0.00000000000E+00  0.00000000000E+00  0.89685492996E+02  0.89694484523E+02  0.12700000000E+01 0.  1.
          4   -1    0    0  501    0  0.00000000000E+00 -0.00000000000E+00 -0.43509068700E+02  0.43527599970E+02  0.12700000000E+01 0.  1.
         25    2    1    2    0    0  0.00000000000E+00  0.00000000000E+00  0.46176424295E+02  0.13322208449E+03  0.12496344120E+03 0.  0.
    9000005    1    3    3    0    0  0.28028048499E+02 -0.19059511245E+02  0.79036317333E+02  0.86003348360E+02  0.10000000000E+01 0.  0.
    9000005    1    3    3    0    0 -0.28028048499E+02  0.19059511245E+02 -0.32859893038E+02  0.47218736133E+02  0.10000000000E+01 0.  0.
<mgrwt>
<rscale>  0 0.12496344E+03</rscale>
<asrwt>0</asrwt>
<pdfrwt beam="2">  1        4 0.66958200E-02 0.12496344E+03</pdfrwt>
<pdfrwt beam="1">  1       -4 0.13799885E-01 0.12496344E+03</pdfrwt>
<totfact> 0.10284161E+04</totfact>
</mgrwt>
</event>
<event>
 4    1  0.3340698E-002  0.1250838E+03  0.7818608E-02  0.1234938E+00
         -4   -1    0    0    0  501 -0.00000000000E+00  0.00000000000E+00  0.12978359154E+03  0.12978980520E+03  0.12700000000E+01 0. -1.
          4   -1    0    0  501    0  0.00000000000E+00 -0.00000000000E+00 -0.30118217055E+02  0.30144981317E+02  0.12700000000E+01 0. -1.
    9000005    1    1    2    0    0 -0.10152645772E+02 -0.59231718240E+02  0.71942658577E+02  0.93745500078E+02  0.10000000000E+01 0.  0.
    9000005    1    1    2    0    0  0.10152645772E+02  0.59231718240E+02  0.27722715912E+02  0.66189286439E+02  0.10000000000E+01 0.  0.
<mgrwt>
<rscale>  0 0.12508377E+03</rscale>
<asrwt>0</asrwt>
<pdfrwt beam="2">  1        4 0.46361086E-02 0.12508377E+03</pdfrwt>
<pdfrwt beam="1">  1       -4 0.19969243E-01 0.12508377E+03</pdfrwt>
<totfact> 0.97172275E+03</totfact>
</mgrwt>
</event>
<event>
 5    1  0.3340698E-002  0.1249958E+03  0.7818608E-02  0.1235076E+00
         -4   -1    0    0    0  501 -0.00000000000E+00  0.00000000000E+00  0.49309576987E+02  0.49325929111E+02  0.12700000000E+01 0.  1.
          4   -1    0    0  501    0  0.00000000000E+00 -0.00000000000E+00 -0.79178938758E+02  0.79189123261E+02  0.12700000000E+01 0.  1.
         25    2    1    2    0    0  0.00000000000E+00  0.00000000000E+00 -0.29869361771E+02  0.12851505237E+03  0.12499575958E+03 0.  0.
    9000005    1    3    3    0    0 -0.41811942646E+02 -0.44379623329E+02 -0.86752248681E+00  0.60988048910E+02  0.10000000000E+01 0.  0.
    9000005    1    3    3    0    0  0.41811942646E+02  0.44379623329E+02 -0.29001839284E+02  0.67527003461E+02  0.10000000000E+01 0.  0.
<mgrwt>
<rscale>  0 0.12499576E+03</rscale>
<asrwt>0</asrwt>
<pdfrwt beam="2">  1        4 0.12183417E-01 0.12499576E+03</pdfrwt>
<pdfrwt beam="1">  1       -4 0.75881300E-02 0.12499576E+03</pdfrwt>
<totfact> 0.10377373E+04</totfact>
</mgrwt>
</event>
<event>
 5    1  0.3340698E-002  0.1249966E+03  0.7818608E-02  0.1235075E+00
         -4   -1    0    0    0  501 -0.00000000000E+00  0.00000000000E+00  0.32572007553E+01  0.34960344335E+01  0.12700000000E+01 0.  1.
          4   -1    0    0  501    0  0.00000000000E+00 -0.00000000000E+00 -0.11565517186E+04  0.11565524159E+04  0.12700000000E+01 0.  1.
         25    2    1    2    0    0  0.00000000000E+00  0.00000000000E+00 -0.11532945179E+04  0.11600484504E+04  0.12499664877E+03 0.  0.
    9000005    1    3    3    0    0  0.20284414226E+02 -0.12762870364E+02 -0.41041780230E+02  0.47537101772E+02  0.10000000000E+01 0.  0.
    9000005    1    3    3    0    0 -0.20284414226E+02  0.12762870364E+02 -0.11122527377E+04  0.11125113486E+04  0.10000000000E+01 0.  0.
<mgrwt>
<rscale>  0 0.12499665E+03</rscale>
<asrwt>0</asrwt>
<pdfrwt beam="2">  1        4 0.17794914E+00 0.12499665E+03</pdfrwt>
<pdfrwt beam="1">  1       -4 0.51953419E-03 0.12499665E+03</pdfrwt>
<totfact> 0.25785006E+03</totfact>
</mgrwt>
</event>
<event>
 5    1  0.3340698E-002  0.1250009E+03  0.7818608E-02  0.1235068E+00
         -4   -1    0    0    0  501 -0.00000000000E+00  0.00000000000E+00  0.37803143020E+03  0.37803356348E+03  0.12700000000E+01 0.  1.
          4   -1    0    0  501    0  0.00000000000E+00 -0.00000000000E+00 -0.10292098353E+02  0.10370158558E+02  0.12700000000E+01 0.  1.
         25    2    1    2    0    0  0.00000000000E+00  0.00000000000E+00  0.36773933185E+03  0.38840372204E+03  0.12500094043E+03 0.  0.
    9000005    1    3    3    0    0 -0.14016565440E+02  0.58021479340E+01  0.37223864983E+03  0.37254897860E+03  0.10000000000E+01 0.  0.
    9000005    1    3    3    0    0  0.14016565440E+02 -0.58021479340E+01 -0.44993179814E+01  0.15854743444E+02  0.10000000000E+01 0.  0.
<mgrwt>
<rscale>  0 0.12500094E+03</rscale>
<asrwt>0</asrwt>
<pdfrwt beam="2">  1        4 0.15895683E-02 0.12500094E+03</pdfrwt>
<pdfrwt beam="1">  1       -4 0.58164857E-01 0.12500094E+03</pdfrwt>
<totfact> 0.65695103E+03</totfact>
</mgrwt>
</event>
<event>
 5    1  0.3340698E-002  0.1250023E+03  0.7818608E-02  0.1235066E+00
          4   -1    0    0  501    0  0.00000000000E+00  0.00000000000E+00  0.12211564688E+03  0.12212225069E+03  0.12700000000E+01 0. -1.
         -4   -1    0    0    0  501 -0.00000000000E+00 -0.00000000000E+00 -0.31969202345E+02  0.31994418241E+02  0.12700000000E+01 0. -1.
         25    2    1    2    0    0  0.00000000000E+00  0.00000000000E+00  0.90146444534E+02  0.15411666893E+03  0.12500226470E+03 0.  0.
    9000005    1    3    3    0    0 -0.83809983714E+00 -0.52923542352E+02  0.41118472607E+01  0.53099068112E+02  0.10000000000E+01 0.  0.
    9000005    1    3    3    0    0  0.83809983714E+00  0.52923542352E+02  0.86034597273E+02  0.10101760081E+03  0.10000000000E+01 0.  0.
<mgrwt>
<rscale>  0 0.12500226E+03</rscale>
<asrwt>0</asrwt>
<pdfrwt beam="1">  1        4 0.18789470E-01 0.12500226E+03</pdfrwt>
<pdfrwt beam="2">  1       -4 0.49207864E-02 0.12500226E+03</pdfrwt>
<totfact> 0.98484170E+03</totfact>
</mgrwt>
</event>
<event>
 5    1  0.3340698E-002  0.1249885E+03  0.7818608E-02  0.1235087E+00
          4   -1    0    0  501    0  0.00000000000E+00  0.00000000000E+00  0.44017094780E+02  0.44035412259E+02  0.12700000000E+01 0. -1.
         -4   -1    0    0    0  501 -0.00000000000E+00 -0.00000000000E+00 -0.88686315876E+02  0.88695408696E+02  0.12700000000E+01 0. -1.
         25    2    1    2    0    0  0.00000000000E+00  0.00000000000E+00 -0.44669221097E+02  0.13273082096E+03  0.12498852555E+03 0.  0.
    9000005    1    3    3    0    0  0.55672262375E+02 -0.72103073472E+01 -0.51478030612E+02  0.76173335005E+02  0.10000000000E+01 0.  0.
    9000005    1    3    3    0    0 -0.55672262375E+02  0.72103073472E+01  0.68088095151E+01  0.56557485951E+02  0.10000000000E+01 0.  0.
<mgrwt>
<rscale>  0 0.12498853E+03</rscale>
<asrwt>0</asrwt>
<pdfrwt beam="1">  1        4 0.67739692E-02 0.12498853E+03</pdfrwt>
<pdfrwt beam="2">  1       -4 0.13646157E-01 0.12498853E+03</pdfrwt>
<totfact> 0.10288787E+04</totfact>
</mgrwt>
</event>
<event>
 5    1  0.3340698E-002  0.1250086E+03  0.7818608E-02  0.1235056E+00
          4   -1    0    0  501    0  0.00000000000E+00  0.00000000000E+00  0.57892022287E+02  0.57905950856E+02  0.12700000000E+01 0. -1.
         -4   -1    0    0    0  501 -0.00000000000E+00 -0.00000000000E+00 -0.67456039593E+02  0.67467993727E+02  0.12700000000E+01 0. -1.
         25    2    1    2    0    0  0.00000000000E+00  0.00000000000E+00 -0.95640173057E+01  0.12537394458E+03  0.12500862192E+03 0.  0.
    9000005    1    3    3    0    0 -0.48588530024E+02 -0.32578976543E+02 -0.26836130989E+02  0.64369347433E+02  0.10000000000E+01 0.  0.
    9000005    1    3    3    0    0  0.48588530024E+02  0.32578976543E+02  0.17272113684E+02  0.61004597151E+02  0.10000000000E+01 0.  0.
<mgrwt>
<rscale>  0 0.12500862E+03</rscale>
<asrwt>0</asrwt>
<pdfrwt beam="1">  1        4 0.89084560E-02 0.12500862E+03</pdfrwt>
<pdfrwt beam="2">  1       -4 0.10379843E-01 0.12500862E+03</pdfrwt>
<totfact> 0.10442711E+04</totfact>
</mgrwt>
</event>
<event>
 4    1  0.3340698E-002  0.1251275E+03  0.7818608E-02  0.1234870E+00
         -4   -1    0    0    0  501 -0.00000000000E+00  0.00000000000E+00  0.15695658571E+02  0.15746955197E+02  0.12700000000E+01 0. -1.
          4   -1    0    0  501    0  0.00000000000E+00 -0.00000000000E+00 -0.24892293753E+03  0.24892617727E+03  0.12700000000E+01 0. -1.
    9000005    1    1    2    0    0  0.47774679665E+02 -0.40315517666E+02 -0.12155841685E+03  0.13669385388E+03  0.10000000000E+01 0.  0.
    9000005    1    1    2    0    0 -0.47774679665E+02  0.40315517666E+02 -0.11166886211E+03  0.12797927858E+03  0.10000000000E+01 0.  0.
<mgrwt>
<rscale>  0 0.12512755E+03</rscale>
<asrwt>0</asrwt>
<pdfrwt beam="2">  1        4 0.38300029E-01 0.12512755E+03</pdfrwt>
<pdfrwt beam="1">  1       -4 0.24189120E-02 0.12512755E+03</pdfrwt>
<totfact> 0.80027337E+03</totfact>
</mgrwt>
</event>
<event>
 5    1  0.3340698E-002  0.1249977E+03  0.7818608E-02  0.1235073E+00
         -4   -1    0    0    0  501 -0.00000000000E+00  0.00000000000E+00  0.12490129282E+02  0.12554530238E+02  0.12700000000E+01 0. -1.
          4   -1    0    0  501    0  0.00000000000E+00 -0.00000000000E+00 -0.31186545593E+03  0.31186804181E+03  0.12700000000E+01 0. -1.
         25    2    1    2    0    0  0.00000000000E+00  0.00000000000E+00 -0.29937532665E+03  0.32442257205E+03  0.12499767617E+03 0.  0.
    9000005    1    3    3    0    0 -0.19923833424E+02 -0.46358505855E+02 -0.24536837000E+03  0.25050490454E+03  0.10000000000E+01 0.  0.
    9000005    1    3    3    0    0  0.19923833424E+02  0.46358505855E+02 -0.54006956656E+02  0.73917667514E+02  0.10000000000E+01 0.  0.
<mgrwt>
<rscale>  0 0.12499768E+03</rscale>
<asrwt>0</asrwt>
<pdfrwt beam="2">  1        4 0.47984448E-01 0.12499768E+03</pdfrwt>
<pdfrwt beam="1">  1       -4 0.19267114E-02 0.12499768E+03</pdfrwt>
<totfact> 0.72636931E+03</totfact>
</mgrwt>
</event>
<event>
 5    1  0.3340698E-002  0.1250092E+03  0.7818608E-02  0.1235055E+00
         -4   -1    0    0    0  501 -0.00000000000E+00  0.00000000000E+00  0.15578123788E+02  0.15629806165E+02  0.12700000000E+01 0.  1.
          4   -1    0    0  501    0  0.00000000000E+00 -0.00000000000E+00 -0.25032074895E+03  0.25032397060E+03  0.12700000000E+01 0.  1.
         25    2    1    2    0    0  0.00000000000E+00  0.00000000000E+00 -0.23474262516E+03  0.26595377676E+03  0.12500924488E+03 0.  0.
    9000005    1    3    3    0    0 -0.54939146687E+02 -0.29229199764E+02 -0.12962449787E+03  0.14379209437E+03  0.10000000000E+01 0.  0.
    9000005    1    3    3    0    0  0.54939146687E+02  0.29229199764E+02 -0.10511812729E+03  0.12216168239E+03  0.10000000000E+01 0.  0.
<mgrwt>
<rscale>  0 0.12500924E+03</rscale>
<asrwt>0</asrwt>
<pdfrwt beam="2">  1        4 0.38515105E-01 0.12500924E+03</pdfrwt>
<pdfrwt beam="1">  1       -4 0.24008580E-02 0.12500924E+03</pdfrwt>
<totfact> 0.80061257E+03</totfact>
</mgrwt>
</event>
<event>
 5    1  0.3340698E-002  0.1249954E+03  0.7818608E-02  0.1235076E+00
          4   -1    0    0  501    0  0.00000000000E+00  0.00000000000E+00  0.19638002914E+02  0.19679025851E+02  0.12700000000E+01 0. -1.
         -4   -1    0    0    0  501 -0.00000000000E+00 -0.00000000000E+00 -0.19864765632E+03  0.19865171597E+03  0.12700000000E+01 0. -1.
         25    2    1    2    0    0  0.00000000000E+00  0.00000000000E+00 -0.17900965340E+03  0.21833074183E+03  0.12499542718E+03 0.  0.
    9000005    1    3    3    0    0  0.43082669685E+02  0.32250770327E+02 -0.34028277723E+02  0.63680077722E+02  0.10000000000E+01 0.  0.
    9000005    1    3    3    0    0 -0.43082669685E+02 -0.32250770327E+02 -0.14498137568E+03  0.15465066410E+03  0.10000000000E+01 0.  0.
<mgrwt>
<rscale>  0 0.12499543E+03</rscale>
<asrwt>0</asrwt>
<pdfrwt beam="1">  1        4 0.30246992E-02 0.12499543E+03</pdfrwt>
<pdfrwt beam="2">  1       -4 0.30564644E-01 0.12499543E+03</pdfrwt>
<totfact> 0.87142081E+03</totfact>
</mgrwt>
</event>
<event>
 5    1  0.3340698E-002  0.1250010E+03  0.7818608E-02  0.1235068E+00
         -4   -1    0    0    0  501 -0.00000000000E+00  0.00000000000E+00  0.71803831663E+02  0.71815062080E+02  0.12700000000E+01 0.  1.
          4   -1    0    0  501    0  0.00000000000E+00 -0.00000000000E+00 -0.54379667237E+02  0.54394495207E+02  0.12700000000E+01 0.  1.
         25    2    1    2    0    0  0.00000000000E+00  0.00000000000E+00  0.17424164426E+02  0.12620955729E+03  0.12500100337E+03 0.  0.
    9000005    1    3    3    0    0  0.21555372774E+02  0.52620231373E+02 -0.17457420398E+02  0.59491884927E+02  0.10000000000E+01 0.  0.
    9000005    1    3    3    0    0 -0.21555372774E+02 -0.52620231373E+02  0.34881584824E+02  0.66717672359E+02  0.10000000000E+01 0.  0.
<mgrwt>
<rscale>  0 0.12500100E+03</rscale>
<asrwt>0</asrwt>
<pdfrwt beam="2">  1        4 0.83681071E-02 0.12500100E+03</pdfrwt>
<pdfrwt beam="1">  1       -4 0.11048748E-01 0.12500100E+03</pdfrwt>
<totfact> 0.10426134E+04</totfact>
</mgrwt>
</event>
<event>
 5    1  0.3340698E-002  0.1249998E+03  0.7818608E-02  0.1235070E+00
          4   -1    0    0  501    0  0.00000000000E+00  0.00000000000E+00  0.81230850695E+01  0.82217644728E+01  0.12700000000E+01 0.  1.
         -4   -1    0    0    0  501 -0.00000000000E+00 -0.00000000000E+00 -0.47787801497E+03  0.47787970254E+03  0.12700000000E+01 0.  1.
         25    2    1    2    0    0  0.00000000000E+00  0.00000000000E+00 -0.46975492990E+03  0.48610146701E+03  0.12499976823E+03 0.  0.
    9000005    1    3    3    0    0  0.15957263455E+02 -0.10131325556E+02 -0.46651392988E+03  0.46689776696E+03  0.10000000000E+01 0.  0.
    9000005    1    3    3    0    0 -0.15957263455E+02  0.10131325556E+02 -0.32410000200E+01  0.19203700050E+02  0.10000000000E+01 0.  0.
<mgrwt>
<rscale>  0 0.12499977E+03</rscale>
<asrwt>0</asrwt>
<pdfrwt beam="1">  1        4 0.12574263E-02 0.12499977E+03</pdfrwt>
<pdfrwt beam="2">  1       -4 0.73527393E-01 0.12499977E+03</pdfrwt>
<totfact> 0.56959380E+03</totfact>
</mgrwt>
</event>
<event>
 5    1  0.3340698E-002  0.1250270E+03  0.7818608E-02  0.1235027E+00
          4   -1    0    0  501    0  0.00000000000E+00  0.00000000000E+00  0.57965007887E+01  0.59339970840E+01  0.12700000000E+01 0.  1.
         -4   -1    0    0    0  501 -0.00000000000E+00 -0.00000000000E+00 -0.66614872922E+03  0.66614993983E+03  0.12700000000E+01 0.  1.
         25    2    1    2    0    0  0.00000000000E+00  0.00000000000E+00 -0.66035222843E+03  0.67208393692E+03  0.12502700776E+03 0.  0.
    9000005    1    3    3    0    0 -0.50742706348E+01  0.60296019128E+02 -0.24593653372E+03  0.25327285043E+03  0.10000000000E+01 0.  0.
    9000005    1    3    3    0    0  0.50742706348E+01 -0.60296019128E+02 -0.41441569471E+03  0.41881108649E+03  0.10000000000E+01 0.  0.
<mgrwt>
<rscale>  0 0.12502701E+03</rscale>
<asrwt>0</asrwt>
<pdfrwt beam="1">  1        4 0.90243964E-03 0.12502701E+03</pdfrwt>
<pdfrwt beam="2">  1       -4 0.10249503E+00 0.12502701E+03</pdfrwt>
<totfact> 0.44575537E+03</totfact>
</mgrwt>
</event>
<event>
 5    1  0.3340698E-002  0.1250418E+03  0.7818608E-02  0.1235004E+00
          4   -1    0    0  501    0  0.00000000000E+00  0.00000000000E+00  0.21599553166E+02  0.21636857372E+02  0.12700000000E+01 0. -1.
         -4   -1    0    0    0  501 -0.00000000000E+00 -0.00000000000E+00 -0.18077395873E+03  0.18077841977E+03  0.12700000000E+01 0. -1.
         25    2    1    2    0    0  0.00000000000E+00  0.00000000000E+00 -0.15917440556E+03  0.20241527714E+03  0.12504180515E+03 0.  0.
    9000005    1    3    3    0    0 -0.61301949973E+02  0.11858244226E+02 -0.74646278497E+02  0.97322216991E+02  0.10000000000E+01 0.  0.
    9000005    1    3    3    0    0  0.61301949973E+02 -0.11858244226E+02 -0.84528127067E+02  0.10509306015E+03  0.10000000000E+01 0.  0.
<mgrwt>
<rscale>  0 0.12504181E+03</rscale>
<asrwt>0</asrwt>
<pdfrwt beam="1">  1        4 0.33262210E-02 0.12504181E+03</pdfrwt>
<pdfrwt beam="2">  1       -4 0.27814590E-01 0.12504181E+03</pdfrwt>
<totfact> 0.89645874E+03</totfact>
</mgrwt>
</event>
<event>
 5    1  0.3340698E-002  0.1250026E+03  0.7818608E-02  0.1235065E+00
          4   -1    0    0  501    0  0.00000000000E+00  0.00000000000E+00  0.53863969275E+02  0.53878939170E+02  0.12700000000E+01 0.  1.
         -4   -1    0    0    0  501 -0.00000000000E+00 -0.00000000000E+00 -0.72493059019E+02  0.72504182679E+02  0.12700000000E+01 0.  1.
         25    2    1    2    0    0  0.00000000000E+00  0.00000000000E+00 -0.18629089744E+02  0.12638312185E+03  0.12500260199E+03 0.  0.
    9000005    1    3    3    0    0 -0.16271211612E+02 -0.39374629176E+02 -0.55539257428E+02  0.70005163136E+02  0.10000000000E+01 0.  0.
    9000005    1    3    3    0    0  0.16271211612E+02  0.39374629176E+02  0.36910167684E+02  0.56377958712E+02  0.10000000000E+01 0.  0.
<mgrwt>
<rscale>  0 0.12500260E+03</rscale>
<asrwt>0</asrwt>
<pdfrwt beam="1">  1        4 0.82887717E-02 0.12500260E+03</pdfrwt>
<pdfrwt beam="2">  1       -4 0.11154785E-01 0.12500260E+03</pdfrwt>
<totfact> 0.10421966E+04</totfact>
</mgrwt>
</event>
<event>
 5    1  0.3340698E-002  0.1249969E+03  0.7818608E-02  0.1235074E+00
          4   -1    0    0  501    0  0.00000000000E+00  0.00000000000E+00  0.66654654756E+02  0.66666752588E+02  0.12700000000E+01 0. -1.
         -4   -1    0    0    0  501 -0.00000000000E+00 -0.00000000000E+00 -0.58577147406E+02  0.58590913102E+02  0.12700000000E+01 0. -1.
         25    2    1    2    0    0  0.00000000000E+00  0.00000000000E+00  0.80775073501E+01  0.12525766569E+03  0.12499694672E+03 0.  0.
    9000005    1    3    3    0    0 -0.52995284513E+02 -0.37532218811E+00  0.37220024277E+02  0.64768597750E+02  0.10000000000E+01 0.  0.
    9000005    1    3    3    0    0  0.52995284513E+02  0.37532218811E+00 -0.29142516927E+02  0.60489067940E+02  0.10000000000E+01 0.  0.
<mgrwt>
<rscale>  0 0.12499695E+03</rscale>
<asrwt>0</asrwt>
<pdfrwt beam="1">  1        4 0.10256552E-01 0.12499695E+03</pdfrwt>
<pdfrwt beam="2">  1       -4 0.90138584E-02 0.12499695E+03</pdfrwt>
<totfact> 0.10447990E+04</totfact>
</mgrwt>
</event>
<event>
 5    1  0.3340698E-002  0.1250059E+03  0.7818608E-02  0.1235060E+00
          4   -1    0    0  501    0  0.00000000000E+00  0.00000000000E+00  0.35138788411E+02  0.35161731342E+02  0.12700000000E+01 0.  1.
         -4   -1    0    0    0  501 -0.00000000000E+00 -0.00000000000E+00 -0.11111402233E+03  0.11112127996E+03  0.12700000000E+01 0.  1.
         25    2    1    2    0    0  0.00000000000E+00  0.00000000000E+00 -0.75975233922E+02  0.14628301130E+03  0.12500593276E+03 0.  0.
    9000005    1    3    3    0    0 -0.94246726125E+01  0.32866119755E+02 -0.99204340394E+02  0.10493573002E+03  0.10000000000E+01 0.  0.
    9000005    1    3    3    0    0  0.94246726125E+01 -0.32866119755E+02  0.23229106472E+02  0.41347281278E+02  0.10000000000E+01 0.  0.
<mgrwt>
<rscale>  0 0.12500593E+03</rscale>
<asrwt>0</asrwt>
<pdfrwt beam="1">  1        4 0.54082906E-02 0.12500593E+03</pdfrwt>
<pdfrwt beam="2">  1       -4 0.17096788E-01 0.12500593E+03</pdfrwt>
<totfact> 0.10003649E+04</totfact>
</mgrwt>
</event>
<event>
 5    1  0.3340698E-002  0.1249982E+03  0.7818608E-02  0.1235072E+00
          4   -1    0    0  501    0  0.00000000000E+00  0.00000000000E+00  0.37016811538E+02  0.37038591178E+02  0.12700000000E+01 0.  1.
         -4   -1    0    0    0  501 -0.00000000000E+00 -0.00000000000E+00 -0.10546664801E+03  0.10547429423E+03  0.12700000000E+01 0.  1.
         25    2    1    2    0    0  0.00000000000E+00  0.00000000000E+00 -0.68449836473E+02  0.14251288541E+03  0.12499816956E+03 0.  0.
    9000005    1    3    3    0    0  0.37419197853E+01 -0.41273738088E+02 -0.87550505392E+02  0.96869058083E+02  0.10000000000E+01 0.  0.
    9000005    1    3    3    0    0 -0.37419197853E+01  0.41273738088E+02  0.19100668919E+02  0.45643827322E+02  0.10000000000E+01 0.  0.
<mgrwt>
<rscale>  0 0.12499817E+03</rscale>
<asrwt>0</asrwt>
<pdfrwt beam="1">  1        4 0.56971576E-02 0.12499817E+03</pdfrwt>
<pdfrwt beam="2">  1       -4 0.16227902E-01 0.12499817E+03</pdfrwt>
<totfact> 0.10082184E+04</totfact>
</mgrwt>
</event>
<event>
 5    1  0.3340698E-002  0.1249964E+03  0.7818608E-02  0.1235075E+00
          4   -1    0    0  501    0  0.00000000000E+00  0.00000000000E+00  0.15728691739E+03  0.15729204456E+03  0.12700000000E+01 0.  1.
         -4   -1    0    0    0  501 -0.00000000000E+00 -0.00000000000E+00 -0.24811996832E+02  0.24844477994E+02  0.12700000000E+01 0.  1.
         25    2    1    2    0    0  0.00000000000E+00  0.00000000000E+00  0.13247492056E+03  0.18213652255E+03  0.12499643303E+03 0.  0.
    9000005    1    3    3    0    0 -0.20769771585E+02 -0.57623020734E+02  0.48200101924E+02  0.77948994578E+02  0.10000000000E+01 0.  0.
    9000005    1    3    3    0    0  0.20769771585E+02  0.57623020734E+02  0.84274818633E+02  0.10418752798E+03  0.10000000000E+01 0.  0.
<mgrwt>
<rscale>  0 0.12499643E+03</rscale>
<asrwt>0</asrwt>
<pdfrwt beam="1">  1        4 0.24200881E-01 0.12499643E+03</pdfrwt>
<pdfrwt beam="2">  1       -4 0.38201232E-02 0.12499643E+03</pdfrwt>
<totfact> 0.93241284E+03</totfact>
</mgrwt>
</event>
<event>
 5    1  0.3340698E-002  0.1250052E+03  0.7818608E-02  0.1235061E+00
         -4   -1    0    0    0  501 -0.00000000000E+00  0.00000000000E+00  0.24713119623E+03  0.24713445946E+03  0.12700000000E+01 0.  1.
          4   -1    0    0  501    0  0.00000000000E+00 -0.00000000000E+00 -0.15778812589E+02  0.15829839757E+02  0.12700000000E+01 0.  1.
         25    2    1    2    0    0  0.00000000000E+00  0.00000000000E+00  0.23135238364E+03  0.26296429921E+03  0.12500518887E+03 0.  0.
    9000005    1    3    3    0    0 -0.10888146792E+02 -0.34274258285E+02  0.81584604254E+01  0.36889524232E+02  0.10000000000E+01 0.  0.
    9000005    1    3    3    0    0  0.10888146792E+02  0.34274258285E+02  0.22319392322E+03  0.22607477498E+03  0.10000000000E+01 0.  0.
<mgrwt>
<rscale>  0 0.12500519E+03</rscale>
<asrwt>0</asrwt>
<pdfrwt beam="2">  1        4 0.24316859E-02 0.12500519E+03</pdfrwt>
<pdfrwt beam="1">  1       -4 0.38024359E-01 0.12500519E+03</pdfrwt>
<totfact> 0.80482561E+03</totfact>
</mgrwt>
</event>
<event>
 5    1  0.3340698E-002  0.1249983E+03  0.7818608E-02  0.1235072E+00
          4   -1    0    0  501    0  0.00000000000E+00  0.00000000000E+00  0.92914961223E+02  0.92923640259E+02  0.12700000000E+01 0. -1.
         -4   -1    0    0    0  501 -0.00000000000E+00 -0.00000000000E+00 -0.42019761486E+02  0.42038949265E+02  0.12700000000E+01 0. -1.
         25    2    1    2    0    0  0.00000000000E+00  0.00000000000E+00  0.50895199737E+02  0.13496258952E+03  0.12499831685E+03 0.  0.
    9000005    1    3    3    0    0  0.43646797931E-01  0.34952603781E+01 -0.41919416703E+02  0.42076789883E+02  0.10000000000E+01 0.  0.
    9000005    1    3    3    0    0 -0.43646797931E-01 -0.34952603781E+01  0.92814616440E+02  0.92885799641E+02  0.10000000000E+01 0.  0.
<mgrwt>
<rscale>  0 0.12499832E+03</rscale>
<asrwt>0</asrwt>
<pdfrwt beam="1">  1        4 0.14296753E-01 0.12499832E+03</pdfrwt>
<pdfrwt beam="2">  1       -4 0.64667224E-02 0.12499832E+03</pdfrwt>
<totfact> 0.10239248E+04</totfact>
</mgrwt>
</event>
<event>
 5    1  0.3340698E-002  0.1249993E+03  0.7818608E-02  0.1235070E+00
          4   -1    0    0  501    0  0.00000000000E+00  0.00000000000E+00  0.31077594120E+03  0.31077853614E+03  0.12700000000E+01 0.  1.
         -4   -1    0    0    0  501 -0.00000000000E+00 -0.00000000000E+00 -0.12534461299E+02  0.12598635643E+02  0.12700000000E+01 0.  1.
         25    2    1    2    0    0  0.00000000000E+00  0.00000000000E+00  0.29824147990E+03  0.32337717179E+03  0.12499925960E+03 0.  0.
    9000005    1    3    3    0    0  0.41995980152E+02  0.11391790918E+02  0.33085229493E+02  0.54672366511E+02  0.10000000000E+01 0.  0.
    9000005    1    3    3    0    0 -0.41995980152E+02 -0.11391790918E+02  0.26515625041E+03  0.26870480528E+03  0.10000000000E+01 0.  0.
<mgrwt>
<rscale>  0 0.12499926E+03</rscale>
<asrwt>0</asrwt>
<pdfrwt beam="1">  1        4 0.47816818E-01 0.12499926E+03</pdfrwt>
<pdfrwt beam="2">  1       -4 0.19335148E-02 0.12499926E+03</pdfrwt>
<totfact> 0.72757441E+03</totfact>
</mgrwt>
</event>
<event>
 5    1  0.3340698E-002  0.1249991E+03  0.7818608E-02  0.1235071E+00
          4   -1    0    0  501    0  0.00000000000E+00  0.00000000000E+00  0.47248912342E+03  0.47249083023E+03  0.12700000000E+01 0.  1.
         -4   -1    0    0    0  501 -0.00000000000E+00 -0.00000000000E+00 -0.82167647517E+01  0.83143323836E+01  0.12700000000E+01 0.  1.
         25    2    1    2    0    0  0.00000000000E+00  0.00000000000E+00  0.46427235867E+03  0.48080516261E+03  0.12499912548E+03 0.  0.
    9000005    1    3    3    0    0 -0.37185694073E+02  0.41937969058E+02  0.33842866721E+03  0.34304013159E+03  0.10000000000E+01 0.  0.
    9000005    1    3    3    0    0  0.37185694073E+02 -0.41937969058E+02  0.12584369146E+03  0.13776503102E+03  0.10000000000E+01 0.  0.
<mgrwt>
<rscale>  0 0.12499913E+03</rscale>
<asrwt>0</asrwt>
<pdfrwt beam="1">  1        4 0.72698291E-01 0.12499913E+03</pdfrwt>
<pdfrwt beam="2">  1       -4 0.12717538E-02 0.12499913E+03</pdfrwt>
<totfact> 0.57386117E+03</totfact>
</mgrwt>
</event>
<event>
 5    1  0.3340698E-002  0.1249966E+03  0.7818608E-02  0.1235075E+00
          4   -1    0    0  501    0  0.00000000000E+00  0.00000000000E+00  0.14518360234E+03  0.14518915692E+03  0.12700000000E+01 0. -1.
         -4   -1    0    0    0  501 -0.00000000000E+00 -0.00000000000E+00 -0.26883067914E+02  0.26913049632E+02  0.12700000000E+01 0. -1.
         25    2    1    2    0    0  0.00000000000E+00  0.00000000000E+00  0.11830053442E+03  0.17210220655E+03  0.12499661218E+03 0.  0.
    9000005    1    3    3    0    0  0.28963673485E+02 -0.41876791634E+02  0.92693711850E+01  0.51763706412E+02  0.10000000000E+01 0.  0.
    9000005    1    3    3    0    0 -0.28963673485E+02  0.41876791634E+02  0.10903116324E+03  0.12033850014E+03  0.10000000000E+01 0.  0.
<mgrwt>
<rscale>  0 0.12499661E+03</rscale>
<asrwt>0</asrwt>
<pdfrwt beam="1">  1        4 0.22338672E-01 0.12499661E+03</pdfrwt>
<pdfrwt beam="2">  1       -4 0.41385902E-02 0.12499661E+03</pdfrwt>
<totfact> 0.95065487E+03</totfact>
</mgrwt>
</event>
<event>
 5    1  0.3340698E-002  0.1249995E+03  0.7818608E-02  0.1235070E+00
         -4   -1    0    0    0  501 -0.00000000000E+00  0.00000000000E+00  0.98489293200E+02  0.98497481059E+02  0.12700000000E+01 0.  1.
          4   -1    0    0  501    0  0.00000000000E+00 -0.00000000000E+00 -0.39641367045E+02  0.39661705475E+02  0.12700000000E+01 0.  1.
         25    2    1    2    0    0  0.00000000000E+00  0.00000000000E+00  0.58847926155E+02  0.13815918653E+03  0.12499952964E+03 0.  0.
    9000005    1    3    3    0    0 -0.16225500700E+02 -0.37621658197E+02 -0.22730206550E+02  0.46864894412E+02  0.10000000000E+01 0.  0.
    9000005    1    3    3    0    0  0.16225500700E+02  0.37621658197E+02  0.81578132705E+02  0.91294292122E+02  0.10000000000E+01 0.  0.
<mgrwt>
<rscale>  0 0.12499953E+03</rscale>
<asrwt>0</asrwt>
<pdfrwt beam="2">  1        4 0.61008663E-02 0.12499953E+03</pdfrwt>
<pdfrwt beam="1">  1       -4 0.15154393E-01 0.12499953E+03</pdfrwt>
<totfact> 0.10171989E+04</totfact>
</mgrwt>
</event>
<event>
 5    1  0.3340698E-002  0.1249994E+03  0.7818608E-02  0.1235070E+00
         -4   -1    0    0    0  501 -0.00000000000E+00  0.00000000000E+00  0.83919338944E+02  0.83928948217E+02  0.12700000000E+01 0.  1.
          4   -1    0    0  501    0  0.00000000000E+00 -0.00000000000E+00 -0.46526261451E+02  0.46543591445E+02  0.12700000000E+01 0.  1.
         25    2    1    2    0    0  0.00000000000E+00  0.00000000000E+00  0.37393077494E+02  0.13047253966E+03  0.12499936544E+03 0.  0.
    9000005    1    3    3    0    0 -0.74172202197E+01  0.39705155793E+02  0.68467667064E+02  0.79500540787E+02  0.10000000000E+01 0.  0.
    9000005    1    3    3    0    0  0.74172202197E+01 -0.39705155793E+02 -0.31074589570E+02  0.50971998875E+02  0.10000000000E+01 0.  0.
<mgrwt>
<rscale>  0 0.12499937E+03</rscale>
<asrwt>0</asrwt>
<pdfrwt beam="2">  1        4 0.71599586E-02 0.12499937E+03</pdfrwt>
<pdfrwt beam="1">  1       -4 0.12912740E-01 0.12499937E+03</pdfrwt>
<totfact> 0.10334557E+04</totfact>
</mgrwt>
</event>
<event>
 5    1  0.3340698E-002  0.1249976E+03  0.7818608E-02  0.1235073E+00
          4   -1    0    0  501    0  0.00000000000E+00  0.00000000000E+00  0.92705022628E+01  0.93570888745E+01  0.12700000000E+01 0. -1.
         -4   -1    0    0    0  501 -0.00000000000E+00 -0.00000000000E+00 -0.41930103436E+03  0.41930295767E+03  0.12700000000E+01 0. -1.
         25    2    1    2    0    0  0.00000000000E+00  0.00000000000E+00 -0.41003053209E+03  0.42866004655E+03  0.12499759300E+03 0.  0.
    9000005    1    3    3    0    0 -0.45944089265E+01  0.58073419421E+02 -0.12745826920E+03  0.14014364426E+03  0.10000000000E+01 0.  0.
    9000005    1    3    3    0    0  0.45944089265E+01 -0.58073419421E+02 -0.28257226289E+03  0.28851640229E+03  0.10000000000E+01 0.  0.
<mgrwt>
<rscale>  0 0.12499759E+03</rscale>
<asrwt>0</asrwt>
<pdfrwt beam="1">  1        4 0.14330399E-02 0.12499759E+03</pdfrwt>
<pdfrwt beam="2">  1       -4 0.64514645E-01 0.12499759E+03</pdfrwt>
<totfact> 0.61860928E+03</totfact>
</mgrwt>
</event>
<event>
 5    1  0.3340698E-002  0.1250019E+03  0.7818608E-02  0.1235066E+00
         -4   -1    0    0    0  501 -0.00000000000E+00  0.00000000000E+00  0.20998726461E+03  0.20999110504E+03  0.12700000000E+01 0.  1.
          4   -1    0    0  501    0  0.00000000000E+00 -0.00000000000E+00 -0.18577184184E+02  0.18620544358E+02  0.12700000000E+01 0.  1.
         25    2    1    2    0    0  0.00000000000E+00  0.00000000000E+00  0.19141008042E+03  0.22861164940E+03  0.12500186940E+03 0.  0.
    9000005    1    3    3    0    0  0.14989085284E+02 -0.25278500686E+02  0.19656979470E+03  0.19875703626E+03  0.10000000000E+01 0.  0.
    9000005    1    3    3    0    0 -0.14989085284E+02  0.25278500686E+02 -0.51597142736E+01  0.29854613144E+02  0.10000000000E+01 0.  0.
<mgrwt>
<rscale>  0 0.12500187E+03</rscale>
<asrwt>0</asrwt>
<pdfrwt beam="2">  1        4 0.28616593E-02 0.12500187E+03</pdfrwt>
<pdfrwt beam="1">  1       -4 0.32309362E-01 0.12500187E+03</pdfrwt>
<totfact> 0.85519670E+03</totfact>
</mgrwt>
</event>
<event>
 5    1  0.3340698E-002  0.1249993E+03  0.7818608E-02  0.1235070E+00
         -4   -1    0    0    0  501 -0.00000000000E+00  0.00000000000E+00  0.36743201470E+02  0.36765143196E+02  0.12700000000E+01 0. -1.
          4   -1    0    0  501    0  0.00000000000E+00 -0.00000000000E+00 -0.10625357743E+03  0.10626116702E+03  0.12700000000E+01 0. -1.
         25    2    1    2    0    0  0.00000000000E+00  0.00000000000E+00 -0.69510375963E+02  0.14302631022E+03  0.12499933219E+03 0.  0.
    9000005    1    3    3    0    0  0.19522930423E+02 -0.59266010574E+02 -0.38652827157E+02  0.73407396555E+02  0.10000000000E+01 0.  0.
    9000005    1    3    3    0    0 -0.19522930423E+02  0.59266010574E+02 -0.30857548807E+02  0.69618913666E+02  0.10000000000E+01 0.  0.
<mgrwt>
<rscale>  0 0.12499933E+03</rscale>
<asrwt>0</asrwt>
<pdfrwt beam="2">  1        4 0.16348976E-01 0.12499933E+03</pdfrwt>
<pdfrwt beam="1">  1       -4 0.56550719E-02 0.12499933E+03</pdfrwt>
<totfact> 0.10071396E+04</totfact>
</mgrwt>
</event>
<event>
 5    1  0.3340698E-002  0.1249974E+03  0.7818608E-02  0.1235073E+00
         -4   -1    0    0    0  501 -0.00000000000E+00  0.00000000000E+00  0.98375918071E+02  0.98384115365E+02  0.12700000000E+01 0.  1.
          4   -1    0    0  501    0  0.00000000000E+00 -0.00000000000E+00 -0.39685689816E+02  0.39706005543E+02  0.12700000000E+01 0.  1.
         25    2    1    2    0    0  0.00000000000E+00  0.00000000000E+00  0.58690228255E+02  0.13809012091E+03  0.12499735437E+03 0.  0.
    9000005    1    3    3    0    0 -0.44535595421E+02  0.35396691669E+02  0.77642505564E+00  0.56902968960E+02  0.10000000000E+01 0.  0.
    9000005    1    3    3    0    0  0.44535595421E+02 -0.35396691669E+02  0.57913803199E+02  0.81187151949E+02  0.10000000000E+01 0.  0.
<mgrwt>
<rscale>  0 0.12499735E+03</rscale>
<asrwt>0</asrwt>
<pdfrwt beam="2">  1        4 0.61076841E-02 0.12499735E+03</pdfrwt>
<pdfrwt beam="1">  1       -4 0.15136950E-01 0.12499735E+03</pdfrwt>
<totfact> 0.10173930E+04</totfact>
</mgrwt>
</event>
<event>
 5    1  0.3340698E-002  0.1249988E+03  0.7818608E-02  0.1235071E+00
          4   -1    0    0  501    0  0.00000000000E+00  0.00000000000E+00  0.13720957251E+02  0.13779606957E+02  0.12700000000E+01 0. -1.
         -4   -1    0    0    0  501 -0.00000000000E+00 -0.00000000000E+00 -0.28401961917E+03  0.28402245857E+03  0.12700000000E+01 0. -1.
         25    2    1    2    0    0  0.00000000000E+00  0.00000000000E+00 -0.27029866191E+03  0.29780206552E+03  0.12499881439E+03 0.  0.
    9000005    1    3    3    0    0  0.73094988870E+01  0.58304420330E+02 -0.84478838784E+02  0.10291019583E+03  0.10000000000E+01 0.  0.
    9000005    1    3    3    0    0 -0.73094988870E+01 -0.58304420330E+02 -0.18581982313E+03  0.19489186969E+03  0.10000000000E+01 0.  0.
<mgrwt>
<rscale>  0 0.12499881E+03</rscale>
<asrwt>0</asrwt>
<pdfrwt beam="1">  1        4 0.21156466E-02 0.12499881E+03</pdfrwt>
<pdfrwt beam="2">  1       -4 0.43700052E-01 0.12499881E+03</pdfrwt>
<totfact> 0.75877372E+03</totfact>
</mgrwt>
</event>
<event>
 5    1  0.3340698E-002  0.1249738E+03  0.7818608E-02  0.1235110E+00
         -4   -1    0    0    0  501 -0.00000000000E+00  0.00000000000E+00  0.19141460041E+02  0.19183544836E+02  0.12700000000E+01 0.  1.
          4   -1    0    0  501    0  0.00000000000E+00 -0.00000000000E+00 -0.20371907993E+03  0.20372303852E+03  0.12700000000E+01 0.  1.
         25    2    1    2    0    0  0.00000000000E+00  0.00000000000E+00 -0.18457761988E+03  0.22290658336E+03  0.12497378582E+03 0.  0.
    9000005    1    3    3    0    0  0.93861089938E+01 -0.91371245300E+01  0.16673495102E+02  0.21227141250E+02  0.10000000000E+01 0.  0.
    9000005    1    3    3    0    0 -0.93861089938E+01  0.91371245300E+01 -0.20125111499E+03  0.20167944211E+03  0.10000000000E+01 0.  0.
<mgrwt>
<rscale>  0 0.12497379E+03</rscale>
<asrwt>0</asrwt>
<pdfrwt beam="2">  1        4 0.31344937E-01 0.12497379E+03</pdfrwt>
<pdfrwt beam="1">  1       -4 0.29483820E-02 0.12497379E+03</pdfrwt>
<totfact> 0.86461104E+03</totfact>
</mgrwt>
</event>
<event>
 5    1  0.3340698E-002  0.1249967E+03  0.7818608E-02  0.1235074E+00
          4   -1    0    0  501    0  0.00000000000E+00  0.00000000000E+00  0.29822452345E+03  0.29822722761E+03  0.12700000000E+01 0. -1.
         -4   -1    0    0    0  501 -0.00000000000E+00 -0.00000000000E+00 -0.13064108746E+02  0.13125693785E+02  0.12700000000E+01 0. -1.
         25    2    1    2    0    0  0.00000000000E+00  0.00000000000E+00  0.28516041470E+03  0.31135292139E+03  0.12499671814E+03 0.  0.
    9000005    1    3    3    0    0  0.14141288656E+02  0.59093470411E+02  0.17893614301E+03  0.18897396001E+03  0.10000000000E+01 0.  0.
    9000005    1    3    3    0    0 -0.14141288656E+02 -0.59093470411E+02  0.10622427170E+03  0.12237896138E+03  0.10000000000E+01 0.  0.
<mgrwt>
<rscale>  0 0.12499672E+03</rscale>
<asrwt>0</asrwt>
<pdfrwt beam="1">  1        4 0.45885638E-01 0.12499672E+03</pdfrwt>
<pdfrwt beam="2">  1       -4 0.20148083E-02 0.12499672E+03</pdfrwt>
<totfact> 0.74201867E+03</totfact>
</mgrwt>
</event>
<event>
 5    1  0.3340698E-002  0.1250030E+03  0.7818608E-02  0.1235065E+00
          4   -1    0    0  501    0  0.00000000000E+00  0.00000000000E+00  0.56682710720E+02  0.56696936378E+02  0.12700000000E+01 0. -1.
         -4   -1    0    0    0  501 -0.00000000000E+00 -0.00000000000E+00 -0.68888843573E+02  0.68900549119E+02  0.12700000000E+01 0. -1.
         25    2    1    2    0    0  0.00000000000E+00  0.00000000000E+00 -0.12206132853E+02  0.12559748550E+03  0.12500295470E+03 0.  0.
    9000005    1    3    3    0    0  0.60740153780E+02 -0.77518220056E+01  0.64454344723E+01  0.61579222561E+02  0.10000000000E+01 0.  0.
    9000005    1    3    3    0    0 -0.60740153780E+02  0.77518220056E+01 -0.18651567325E+02  0.64018262936E+02  0.10000000000E+01 0.  0.
<mgrwt>
<rscale>  0 0.12500295E+03</rscale>
<asrwt>0</asrwt>
<pdfrwt beam="1">  1        4 0.87224117E-02 0.12500295E+03</pdfrwt>
<pdfrwt beam="2">  1       -4 0.10600278E-01 0.12500295E+03</pdfrwt>
<totfact> 0.10439107E+04</totfact>
</mgrwt>
</event>
<event>
 5    1  0.3340698E-002  0.1250006E+03  0.7818608E-02  0.1235068E+00
          4   -1    0    0  501    0  0.00000000000E+00  0.00000000000E+00  0.14356451460E+02  0.14412515343E+02  0.12700000000E+01 0. -1.
         -4   -1    0    0    0  501 -0.00000000000E+00 -0.00000000000E+00 -0.27150490301E+03  0.27150787329E+03  0.12700000000E+01 0. -1.
         25    2    1    2    0    0  0.00000000000E+00  0.00000000000E+00 -0.25714845155E+03  0.28592038864E+03  0.12500057001E+03 0.  0.
    9000005    1    3    3    0    0  0.56964229606E+02 -0.24177897045E+02 -0.10866092360E+03  0.12505075161E+03  0.10000000000E+01 0.  0.
    9000005    1    3    3    0    0 -0.56964229606E+02  0.24177897045E+02 -0.14848752795E+03  0.16086963703E+03  0.10000000000E+01 0.  0.
<mgrwt>
<rscale>  0 0.12500057E+03</rscale>
<asrwt>0</asrwt>
<pdfrwt beam="1">  1        4 0.22132261E-02 0.12500057E+03</pdfrwt>
<pdfrwt beam="2">  1       -4 0.41774522E-01 0.12500057E+03</pdfrwt>
<totfact> 0.77398619E+03</totfact>
</mgrwt>
</event>
<event>
 5    1  0.3340698E-002  0.1249972E+03  0.7818608E-02  0.1235074E+00
          4   -1    0    0  501    0  0.00000000000E+00  0.00000000000E+00  0.12301400199E+03  0.12302055757E+03  0.12700000000E+01 0.  1.
         -4   -1    0    0    0  501 -0.00000000000E+00 -0.00000000000E+00 -0.31732964544E+02  0.31758368011E+02  0.12700000000E+01 0.  1.
         25    2    1    2    0    0  0.00000000000E+00  0.00000000000E+00  0.91281037442E+02  0.15477892558E+03  0.12499715200E+03 0.  0.
    9000005    1    3    3    0    0  0.56812530116E+02  0.25937384171E+02  0.48313704724E+02  0.78965977104E+02  0.10000000000E+01 0.  0.
    9000005    1    3    3    0    0 -0.56812530116E+02 -0.25937384171E+02  0.42967332718E+02  0.75812948476E+02  0.10000000000E+01 0.  0.
<mgrwt>
<rscale>  0 0.12499715E+03</rscale>
<asrwt>0</asrwt>
<pdfrwt beam="1">  1        4 0.18927689E-01 0.12499715E+03</pdfrwt>
<pdfrwt beam="2">  1       -4 0.48844530E-02 0.12499715E+03</pdfrwt>
<totfact> 0.98365216E+03</totfact>
</mgrwt>
</event>
<event>
 5    1  0.3340698E-002  0.1249991E+03  0.7818608E-02  0.1235071E+00
         -4   -1    0    0    0  501 -0.00000000000E+00  0.00000000000E+00  0.43211397066E+02  0.43230055938E+02  0.12700000000E+01 0.  1.
          4   -1    0    0  501    0  0.00000000000E+00 -0.00000000000E+00 -0.90354660375E+02  0.90363585318E+02  0.12700000000E+01 0.  1.
         25    2    1    2    0    0  0.00000000000E+00  0.00000000000E+00 -0.47143263310E+02  0.13359364126E+03  0.12499909483E+03 0.  0.
    9000005    1    3    3    0    0  0.45624196702E+02 -0.42678341095E+02 -0.21991712614E+02  0.66239290055E+02  0.10000000000E+01 0.  0.
    9000005    1    3    3    0    0 -0.45624196702E+02  0.42678341095E+02 -0.25151550695E+02  0.67354351201E+02  0.10000000000E+01 0.  0.
<mgrwt>
<rscale>  0 0.12499909E+03</rscale>
<asrwt>0</asrwt>
<pdfrwt beam="2">  1        4 0.13902839E-01 0.12499909E+03</pdfrwt>
<pdfrwt beam="1">  1       -4 0.66500291E-02 0.12499909E+03</pdfrwt>
<totfact> 0.10268009E+04</totfact>
</mgrwt>
</event>
<event>
 5    1  0.3340698E-002  0.1250010E+03  0.7818608E-02  0.1235068E+00
          4   -1    0    0  501    0  0.00000000000E+00  0.00000000000E+00  0.13043415271E+03  0.13044033538E+03  0.12700000000E+01 0.  1.
         -4   -1    0    0    0  501 -0.00000000000E+00 -0.00000000000E+00 -0.29928160240E+02  0.29955094313E+02  0.12700000000E+01 0.  1.
         25    2    1    2    0    0  0.00000000000E+00  0.00000000000E+00  0.10050599247E+03  0.16039542969E+03  0.12500095737E+03 0.  0.
    9000005    1    3    3    0    0  0.20243691065E+02 -0.56817209473E+02  0.71231969765E+02  0.93343429532E+02  0.10000000000E+01 0.  0.
    9000005    1    3    3    0    0 -0.20243691065E+02  0.56817209473E+02  0.29274022710E+02  0.67052000162E+02  0.10000000000E+01 0.  0.
<mgrwt>
<rscale>  0 0.12500096E+03</rscale>
<asrwt>0</asrwt>
<pdfrwt beam="1">  1        4 0.20069340E-01 0.12500096E+03</pdfrwt>
<pdfrwt beam="2">  1       -4 0.46068798E-02 0.12500096E+03</pdfrwt>
<totfact> 0.97264510E+03</totfact>
</mgrwt>
</event>
<event>
 5    1  0.3340698E-002  0.1249996E+03  0.7818608E-02  0.1235070E+00
          4   -1    0    0  501    0  0.00000000000E+00  0.00000000000E+00  0.54683854710E+02  0.54698600219E+02  0.12700000000E+01 0. -1.
         -4   -1    0    0    0  501 -0.00000000000E+00 -0.00000000000E+00 -0.71402827545E+02  0.71414121023E+02  0.12700000000E+01 0. -1.
         25    2    1    2    0    0  0.00000000000E+00  0.00000000000E+00 -0.16718972836E+02  0.12611272124E+03  0.12499957762E+03 0.  0.
    9000005    1    3    3    0    0 -0.26109013239E+02 -0.48395723257E+02 -0.38312197357E+02  0.67027241239E+02  0.10000000000E+01 0.  0.
    9000005    1    3    3    0    0  0.26109013239E+02  0.48395723257E+02  0.21593224522E+02  0.59085480002E+02  0.10000000000E+01 0.  0.
<mgrwt>
<rscale>  0 0.12499958E+03</rscale>
<asrwt>0</asrwt>
<pdfrwt beam="1">  1        4 0.84149037E-02 0.12499958E+03</pdfrwt>
<pdfrwt beam="2">  1       -4 0.10987053E-01 0.12499958E+03</pdfrwt>
<totfact> 0.10428588E+04</totfact>
</mgrwt>
</event>
<event>
 5    1  0.3340698E-002  0.1249981E+03  0.7818608E-02  0.1235072E+00
         -4   -1    0    0    0  501 -0.00000000000E+00  0.00000000000E+00  0.45865176500E+03  0.45865352330E+03  0.12700000000E+01 0.  1.
          4   -1    0    0  501    0  0.00000000000E+00 -0.00000000000E+00 -0.84674230004E+01  0.85621347961E+01  0.12700000000E+01 0.  1.
         25    2    1    2    0    0  0.00000000000E+00  0.00000000000E+00  0.45018434200E+03  0.46721565810E+03  0.12499811755E+03 0.  0.
    9000005    1    3    3    0    0  0.29156675228E+01  0.46316741183E+02  0.38151690970E+03  0.38433044899E+03  0.10000000000E+01 0.  0.
    9000005    1    3    3    0    0 -0.29156675228E+01 -0.46316741183E+02  0.68667432298E+02  0.82885209110E+02  0.10000000000E+01 0.  0.
<mgrwt>
<rscale>  0 0.12499812E+03</rscale>
<asrwt>0</asrwt>
<pdfrwt beam="2">  1        4 0.13101010E-02 0.12499812E+03</pdfrwt>
<pdfrwt beam="1">  1       -4 0.70569241E-01 0.12499812E+03</pdfrwt>
<totfact> 0.58503302E+03</totfact>
</mgrwt>
</event>
<event>
 5    1  0.3340698E-002  0.1250008E+03  0.7818608E-02  0.1235068E+00
         -4   -1    0    0    0  501 -0.00000000000E+00  0.00000000000E+00  0.63984342408E+01  0.65232553785E+01  0.12700000000E+01 0.  1.
          4   -1    0    0  501    0  0.00000000000E+00 -0.00000000000E+00 -0.60448602746E+03  0.60448736156E+03  0.12700000000E+01 0.  1.
         25    2    1    2    0    0  0.00000000000E+00  0.00000000000E+00 -0.59808759322E+03  0.61101061694E+03  0.12500081943E+03 0.  0.
    9000005    1    3    3    0    0  0.43981496757E+02  0.33838317914E+02 -0.43951876583E+03  0.44300919779E+03  0.10000000000E+01 0.  0.
    9000005    1    3    3    0    0 -0.43981496757E+02 -0.33838317914E+02 -0.15856882739E+03  0.16800141915E+03  0.10000000000E+01 0.  0.
<mgrwt>
<rscale>  0 0.12500082E+03</rscale>
<asrwt>0</asrwt>
<pdfrwt beam="2">  1        4 0.93007510E-01 0.12500082E+03</pdfrwt>
<pdfrwt beam="1">  1       -4 0.99407922E-03 0.12500082E+03</pdfrwt>
<totfact> 0.48179035E+03</totfact>
</mgrwt>
</event>
<event>
 5    1  0.3340698E-002  0.1249956E+03  0.7818608E-02  0.1235076E+00
         -4   -1    0    0    0  501 -0.00000000000E+00  0.00000000000E+00  0.63094580578E+02  0.63107360889E+02  0.12700000000E+01 0. -1.
          4   -1    0    0  501    0  0.00000000000E+00 -0.00000000000E+00 -0.61881050898E+02  0.61894081787E+02  0.12700000000E+01 0. -1.
         25    2    1    2    0    0  0.00000000000E+00  0.00000000000E+00  0.12135296803E+01  0.12500144268E+03  0.12499555199E+03 0.  0.
    9000005    1    3    3    0    0 -0.28683381617E+02  0.46845705684E+02 -0.29189193865E+02  0.62211458434E+02  0.10000000000E+01 0.  0.
    9000005    1    3    3    0    0  0.28683381617E+02 -0.46845705684E+02  0.30402723545E+02  0.62789984241E+02  0.10000000000E+01 0.  0.
<mgrwt>
<rscale>  0 0.12499555E+03</rscale>
<asrwt>0</asrwt>
<pdfrwt beam="2">  1        4 0.95221472E-02 0.12499555E+03</pdfrwt>
<pdfrwt beam="1">  1       -4 0.97088440E-02 0.12499555E+03</pdfrwt>
<totfact> 0.10453882E+04</totfact>
</mgrwt>
</event>
<event>
 5    1  0.3340698E-002  0.1249848E+03  0.7818608E-02  0.1235093E+00
          4   -1    0    0  501    0  0.00000000000E+00  0.00000000000E+00  0.10987452626E+04  0.10987459966E+04  0.12700000000E+01 0. -1.
         -4   -1    0    0    0  501 -0.00000000000E+00 -0.00000000000E+00 -0.34401218891E+01  0.36670613046E+01  0.12700000000E+01 0. -1.
         25    2    1    2    0    0  0.00000000000E+00  0.00000000000E+00  0.10953051407E+04  0.11024130579E+04  0.12498479472E+03 0.  0.
    9000005    1    3    3    0    0 -0.53511762905E+02 -0.22568461652E+02  0.34431360033E+03  0.34917860702E+03  0.10000000000E+01 0.  0.
    9000005    1    3    3    0    0  0.53511762905E+02  0.22568461652E+02  0.75099154037E+03  0.75323445084E+03  0.10000000000E+01 0.  0.
<mgrwt>
<rscale>  0 0.12498479E+03</rscale>
<asrwt>0</asrwt>
<pdfrwt beam="1">  1        4 0.16905549E+00 0.12498479E+03</pdfrwt>
<pdfrwt beam="2">  1       -4 0.54676206E-03 0.12498479E+03</pdfrwt>
<totfact> 0.27421920E+03</totfact>
</mgrwt>
</event>
<event>
 5    1  0.3340698E-002  0.1250021E+03  0.7818608E-02  0.1235066E+00
          4   -1    0    0  501    0  0.00000000000E+00  0.00000000000E+00  0.85324932651E+01  0.86264906722E+01  0.12700000000E+01 0. -1.
         -4   -1    0    0    0  501 -0.00000000000E+00 -0.00000000000E+00 -0.45522111691E+03  0.45522288846E+03  0.12700000000E+01 0. -1.
         25    2    1    2    0    0  0.00000000000E+00  0.00000000000E+00 -0.44668862365E+03  0.46384937914E+03  0.12500208010E+03 0.  0.
    9000005    1    3    3    0    0  0.60503473616E+02  0.20628895379E+00 -0.28138700507E+03  0.28782001233E+03  0.10000000000E+01 0.  0.
    9000005    1    3    3    0    0 -0.60503473616E+02 -0.20628895379E+00 -0.16530161857E+03  0.17602936681E+03  0.10000000000E+01 0.  0.
<mgrwt>
<rscale>  0 0.12500208E+03</rscale>
<asrwt>0</asrwt>
<pdfrwt beam="1">  1        4 0.13200585E-02 0.12500208E+03</pdfrwt>
<pdfrwt beam="2">  1       -4 0.70041366E-01 0.12500208E+03</pdfrwt>
<totfact> 0.58779840E+03</totfact>
</mgrwt>
</event>
<event>
 5    1  0.3340698E-002  0.1249988E+03  0.7818608E-02  0.1235071E+00
         -4   -1    0    0    0  501 -0.00000000000E+00  0.00000000000E+00  0.22400547672E+03  0.22400907682E+03  0.12700000000E+01 0. -1.
          4   -1    0    0  501    0  0.00000000000E+00 -0.00000000000E+00 -0.17410993780E+02  0.17457250769E+02  0.12700000000E+01 0. -1.
         25    2    1    2    0    0  0.00000000000E+00  0.00000000000E+00  0.20659448294E+03  0.24146632759E+03  0.12499882792E+03 0.  0.
    9000005    1    3    3    0    0  0.26523427300E+02 -0.56330943602E+02  0.11361164780E+03  0.12955799442E+03  0.10000000000E+01 0.  0.
    9000005    1    3    3    0    0 -0.26523427300E+02  0.56330943602E+02  0.92982835138E+02  0.11190833317E+03  0.10000000000E+01 0.  0.
<mgrwt>
<rscale>  0 0.12499883E+03</rscale>
<asrwt>0</asrwt>
<pdfrwt beam="2">  1        4 0.26824495E-02 0.12499883E+03</pdfrwt>
<pdfrwt beam="1">  1       -4 0.34466217E-01 0.12499883E+03</pdfrwt>
<totfact> 0.83581649E+03</totfact>
</mgrwt>
</event>
<event>
 5    1  0.3340698E-002  0.1250182E+03  0.7818608E-02  0.1235041E+00
          4   -1    0    0  501    0  0.00000000000E+00  0.00000000000E+00  0.23484593231E+02  0.23518907696E+02  0.12700000000E+01 0.  1.
         -4   -1    0    0    0  501 -0.00000000000E+00 -0.00000000000E+00 -0.16622273976E+03  0.16622759131E+03  0.12700000000E+01 0.  1.
         25    2    1    2    0    0  0.00000000000E+00  0.00000000000E+00 -0.14273814653E+03  0.18974649901E+03  0.12501822032E+03 0.  0.
    9000005    1    3    3    0    0  0.61632384754E+02  0.10377916479E+02 -0.71930542434E+02  0.95295618659E+02  0.10000000000E+01 0.  0.
    9000005    1    3    3    0    0 -0.61632384754E+02 -0.10377916479E+02 -0.70807604097E+02  0.94450880350E+02  0.10000000000E+01 0.  0.
<mgrwt>
<rscale>  0 0.12501822E+03</rscale>
<asrwt>0</asrwt>
<pdfrwt beam="1">  1        4 0.36160272E-02 0.12501822E+03</pdfrwt>
<pdfrwt beam="2">  1       -4 0.25575741E-01 0.12501822E+03</pdfrwt>
<totfact> 0.91853947E+03</totfact>
</mgrwt>
</event>
<event>
 5    1  0.3340698E-002  0.1249986E+03  0.7818608E-02  0.1235072E+00
          4   -1    0    0  501    0  0.00000000000E+00  0.00000000000E+00  0.16020571734E+02  0.16070831301E+02  0.12700000000E+01 0. -1.
         -4   -1    0    0    0  501 -0.00000000000E+00 -0.00000000000E+00 -0.24338771231E+03  0.24339102573E+03  0.12700000000E+01 0. -1.
         25    2    1    2    0    0  0.00000000000E+00  0.00000000000E+00 -0.22736714058E+03  0.25946185703E+03  0.12499855454E+03 0.  0.
    9000005    1    3    3    0    0  0.14111938674E+02  0.60798243075E+02 -0.12011042137E+03  0.13536279583E+03  0.10000000000E+01 0.  0.
    9000005    1    3    3    0    0 -0.14111938674E+02 -0.60798243075E+02 -0.10725671921E+03  0.12409906120E+03  0.10000000000E+01 0.  0.
<mgrwt>
<rscale>  0 0.12499855E+03</rscale>
<asrwt>0</asrwt>
<pdfrwt beam="1">  1        4 0.24688245E-02 0.12499855E+03</pdfrwt>
<pdfrwt beam="2">  1       -4 0.37448382E-01 0.12499855E+03</pdfrwt>
<totfact> 0.80984248E+03</totfact>
</mgrwt>
</event>
<event>
 5    1  0.3340698E-002  0.1249990E+03  0.7818608E-02  0.1235071E+00
         -4   -1    0    0    0  501 -0.00000000000E+00  0.00000000000E+00  0.71721022218E+01  0.72836769752E+01  0.12700000000E+01 0.  1.
          4   -1    0    0  501    0  0.00000000000E+00 -0.00000000000E+00 -0.54032017616E+03  0.54032166870E+03  0.12700000000E+01 0.  1.
         25    2    1    2    0    0  0.00000000000E+00  0.00000000000E+00 -0.53314807394E+03  0.54760534567E+03  0.12499898346E+03 0.  0.
    9000005    1    3    3    0    0  0.44243538159E+02  0.44105233398E+02 -0.25975309968E+03  0.26716181441E+03  0.10000000000E+01 0.  0.
    9000005    1    3    3    0    0 -0.44243538159E+02 -0.44105233398E+02 -0.27339497425E+03  0.28044353127E+03  0.10000000000E+01 0.  0.
<mgrwt>
<rscale>  0 0.12499898E+03</rscale>
<asrwt>0</asrwt>
<pdfrwt beam="2">  1        4 0.83134847E-01 0.12499898E+03</pdfrwt>
<pdfrwt beam="1">  1       -4 0.11120983E-02 0.12499898E+03</pdfrwt>
<totfact> 0.52352428E+03</totfact>
</mgrwt>
</event>
<event>
 4    1  0.3340698E-002  0.1249232E+03  0.7818608E-02  0.1235189E+00
          4   -1    0    0  501    0  0.00000000000E+00  0.00000000000E+00  0.10567631203E+03  0.10568394307E+03  0.12700000000E+01 0.  1.
         -4   -1    0    0    0  501 -0.00000000000E+00 -0.00000000000E+00 -0.36899003497E+02  0.36920852632E+02  0.12700000000E+01 0.  1.
    9000005    1    1    2    0    0  0.29753973761E+02 -0.26874998083E+02  0.89050260857E+02  0.97665313368E+02  0.10000000000E+01 0.  0.
    9000005    1    1    2    0    0 -0.29753973761E+02  0.26874998083E+02 -0.20272952329E+02  0.44939482336E+02  0.10000000000E+01 0.  0.
<mgrwt>
<rscale>  0 0.12492321E+03</rscale>
<asrwt>0</asrwt>
<pdfrwt beam="1">  1        4 0.16260161E-01 0.12492321E+03</pdfrwt>
<pdfrwt beam="2">  1       -4 0.56790377E-02 0.12492321E+03</pdfrwt>
<totfact> 0.10097335E+04</totfact>
</mgrwt>
</event>
<event>
 5    1  0.3340698E-002  0.1250112E+03  0.7818608E-02  0.1235052E+00
          4   -1    0    0  501    0  0.00000000000E+00  0.00000000000E+00  0.46358041397E+03  0.46358215358E+03  0.12700000000E+01 0.  1.
         -4   -1    0    0    0  501 -0.00000000000E+00 -0.00000000000E+00 -0.83781656537E+01  0.84738751301E+01  0.12700000000E+01 0.  1.
         25    2    1    2    0    0  0.00000000000E+00  0.00000000000E+00  0.45520224832E+03  0.47205602871E+03  0.12501122897E+03 0.  0.
    9000005    1    3    3    0    0 -0.35241818166E+02  0.36734546254E+02  0.36450990258E+03  0.36804874911E+03  0.10000000000E+01 0.  0.
    9000005    1    3    3    0    0  0.35241818166E+02 -0.36734546254E+02  0.90692345733E+02  0.10400727960E+03  0.10000000000E+01 0.  0.
<mgrwt>
<rscale>  0 0.12501123E+03</rscale>
<asrwt>0</asrwt>
<pdfrwt beam="1">  1        4 0.71327584E-01 0.12501123E+03</pdfrwt>
<pdfrwt beam="2">  1       -4 0.12964442E-02 0.12501123E+03</pdfrwt>
<totfact> 0.58085218E+03</totfact>
</mgrwt>
</event>
<event>
 5    1  0.3340698E-002  0.1250009E+03  0.7818608E-02  0.1235068E+00
          4   -1    0    0  501    0  0.00000000000E+00  0.00000000000E+00  0.21201675778E+02  0.21239678806E+02  0.12700000000E+01 0.  1.
         -4   -1    0    0    0  501 -0.00000000000E+00 -0.00000000000E+00 -0.18403990923E+03  0.18404429111E+03  0.12700000000E+01 0.  1.
         25    2    1    2    0    0  0.00000000000E+00  0.00000000000E+00 -0.16283823346E+03  0.20528396992E+03  0.12500087212E+03 0.  0.
    9000005    1    3    3    0    0  0.59262499287E+02  0.54112174046E+01 -0.11275056024E+03  0.12749515258E+03  0.10000000000E+01 0.  0.
    9000005    1    3    3    0    0 -0.59262499287E+02 -0.54112174046E+01 -0.50087673213E+02  0.77788817341E+02  0.10000000000E+01 0.  0.
<mgrwt>
<rscale>  0 0.12500087E+03</rscale>
<asrwt>0</asrwt>
<pdfrwt beam="1">  1        4 0.32650568E-02 0.12500087E+03</pdfrwt>
<pdfrwt beam="2">  1       -4 0.28317092E-01 0.12500087E+03</pdfrwt>
<totfact> 0.89250169E+03</totfact>
</mgrwt>
</event>
<event>
 5    1  0.3340698E-002  0.1249987E+03  0.7818608E-02  0.1235071E+00
          4   -1    0    0  501    0  0.00000000000E+00  0.00000000000E+00  0.10518523362E+02  0.10594915465E+02  0.12700000000E+01 0.  1.
         -4   -1    0    0    0  501 -0.00000000000E+00 -0.00000000000E+00 -0.36993983330E+03  0.36994201324E+03  0.12700000000E+01 0.  1.
         25    2    1    2    0    0  0.00000000000E+00  0.00000000000E+00 -0.35942130994E+03  0.38053692871E+03  0.12499870428E+03 0.  0.
    9000005    1    3    3    0    0  0.23765713290E+01 -0.51550932717E+02 -0.28699985021E+03  0.29160428800E+03  0.10000000000E+01 0.  0.
    9000005    1    3    3    0    0 -0.23765713290E+01  0.51550932717E+02 -0.72421459726E+02  0.88932640712E+02  0.10000000000E+01 0.  0.
<mgrwt>
<rscale>  0 0.12499870E+03</rscale>
<asrwt>0</asrwt>
<pdfrwt beam="1">  1        4 0.16242787E-02 0.12499870E+03</pdfrwt>
<pdfrwt beam="2">  1       -4 0.56919855E-01 0.12499870E+03</pdfrwt>
<totfact> 0.66492705E+03</totfact>
</mgrwt>
</event>
<event>
 5    1  0.3340698E-002  0.1250070E+03  0.7818608E-02  0.1235058E+00
          4   -1    0    0  501    0  0.00000000000E+00  0.00000000000E+00  0.11398644090E+03  0.11399351564E+03  0.12700000000E+01 0. -1.
         -4   -1    0    0    0  501 -0.00000000000E+00 -0.00000000000E+00 -0.34253351467E+02  0.34276887063E+02  0.12700000000E+01 0. -1.
         25    2    1    2    0    0  0.00000000000E+00  0.00000000000E+00  0.79733089428E+02  0.14827040270E+03  0.12500698688E+03 0.  0.
    9000005    1    3    3    0    0  0.13454451788E+02 -0.15229036511E+02 -0.30231089797E+02  0.36439876733E+02  0.10000000000E+01 0.  0.
    9000005    1    3    3    0    0 -0.13454451788E+02  0.15229036511E+02  0.10996417923E+03  0.11183052597E+03  0.10000000000E+01 0.  0.
<mgrwt>
<rscale>  0 0.12500699E+03</rscale>
<asrwt>0</asrwt>
<pdfrwt beam="1">  1        4 0.17538730E-01 0.12500699E+03</pdfrwt>
<pdfrwt beam="2">  1       -4 0.52721010E-02 0.12500699E+03</pdfrwt>
<totfact> 0.99633920E+03</totfact>
</mgrwt>
</event>
<event>
 5    1  0.3340698E-002  0.1249923E+03  0.7818608E-02  0.1235081E+00
         -4   -1    0    0    0  501 -0.00000000000E+00  0.00000000000E+00  0.34488946199E+02  0.34512321132E+02  0.12700000000E+01 0.  1.
          4   -1    0    0  501    0  0.00000000000E+00 -0.00000000000E+00 -0.11318158422E+03  0.11318870927E+03  0.12700000000E+01 0.  1.
         25    2    1    2    0    0  0.00000000000E+00  0.00000000000E+00 -0.78692638021E+02  0.14770103040E+03  0.12499225217E+03 0.  0.
    9000005    1    3    3    0    0 -0.42795380996E+01 -0.61166061655E+02 -0.53583704391E+02  0.81435955947E+02  0.10000000000E+01 0.  0.
    9000005    1    3    3    0    0  0.42795380996E+01  0.61166061655E+02 -0.25108933630E+02  0.66265074457E+02  0.10000000000E+01 0.  0.
<mgrwt>
<rscale>  0 0.12499225E+03</rscale>
<asrwt>0</asrwt>
<pdfrwt beam="2">  1        4 0.17414897E-01 0.12499225E+03</pdfrwt>
<pdfrwt beam="1">  1       -4 0.53083379E-02 0.12499225E+03</pdfrwt>
<totfact> 0.99781355E+03</totfact>
</mgrwt>
</event>
<event>
 5    1  0.3340698E-002  0.1249985E+03  0.7818608E-02  0.1235072E+00
         -4   -1    0    0    0  501 -0.00000000000E+00  0.00000000000E+00  0.98030294165E+00  0.16043359553E+01  0.12700000000E+01 0. -1.
          4   -1    0    0  501    0  0.00000000000E+00 -0.00000000000E+00 -0.30219716309E+04  0.30219718978E+04  0.12700000000E+01 0. -1.
         25    2    1    2    0    0  0.00000000000E+00  0.00000000000E+00 -0.30209913280E+04  0.30235762338E+04  0.12499855000E+03 0.  0.
    9000005    1    3    3    0    0 -0.23095713988E+02  0.15768207861E+01 -0.10644339477E+03  0.10893619535E+03  0.10000000000E+01 0.  0.
    9000005    1    3    3    0    0  0.23095713988E+02 -0.15768207861E+01 -0.29145479332E+04  0.29146400384E+04  0.10000000000E+01 0.  0.
<mgrwt>
<rscale>  0 0.12499855E+03</rscale>
<asrwt>0</asrwt>
<pdfrwt beam="2">  1        4 0.46496108E+00 0.12499855E+03</pdfrwt>
<pdfrwt beam="1">  1       -4 0.19884132E-03 0.12499855E+03</pdfrwt>
<totfact> 0.17299533E+02</totfact>
</mgrwt>
</event>
<event>
 5    1  0.3340698E-002  0.1250057E+03  0.7818608E-02  0.1235060E+00
          4   -1    0    0  501    0  0.00000000000E+00  0.00000000000E+00  0.43324800091E+02  0.43343410144E+02  0.12700000000E+01 0. -1.
         -4   -1    0    0    0  501 -0.00000000000E+00 -0.00000000000E+00 -0.90127752137E+02  0.90136699547E+02  0.12700000000E+01 0. -1.
         25    2    1    2    0    0  0.00000000000E+00  0.00000000000E+00 -0.46802952047E+02  0.13348010969E+03  0.12500569332E+03 0.  0.
    9000005    1    3    3    0    0 -0.23218609540E+01  0.47692908851E+02  0.19650567800E+02  0.51644451859E+02  0.10000000000E+01 0.  0.
    9000005    1    3    3    0    0  0.23218609540E+01 -0.47692908851E+02 -0.66453519846E+02  0.81835657833E+02  0.10000000000E+01 0.  0.
<mgrwt>
<rscale>  0 0.12500569E+03</rscale>
<asrwt>0</asrwt>
<pdfrwt beam="1">  1        4 0.66674737E-02 0.12500569E+03</pdfrwt>
<pdfrwt beam="2">  1       -4 0.13867928E-01 0.12500569E+03</pdfrwt>
<totfact> 0.10268888E+04</totfact>
</mgrwt>
</event>
<event>
 5    1  0.3340698E-002  0.1249980E+03  0.7818608E-02  0.1235072E+00
         -4   -1    0    0    0  501 -0.00000000000E+00  0.00000000000E+00  0.25526558800E+03  0.25526874723E+03  0.12700000000E+01 0.  1.
          4   -1    0    0  501    0  0.00000000000E+00 -0.00000000000E+00 -0.15272591755E+02  0.15325304530E+02  0.12700000000E+01 0.  1.
         25    2    1    2    0    0  0.00000000000E+00  0.00000000000E+00  0.23999299624E+03  0.27059405176E+03  0.12499801041E+03 0.  0.
    9000005    1    3    3    0    0 -0.54089106534E+01 -0.48896568912E+02  0.20341792697E+03  0.20928445661E+03  0.10000000000E+01 0.  0.
    9000005    1    3    3    0    0  0.54089106534E+01  0.48896568912E+02  0.36575069269E+02  0.61309595153E+02  0.10000000000E+01 0.  0.
<mgrwt>
<rscale>  0 0.12499801E+03</rscale>
<asrwt>0</asrwt>
<pdfrwt beam="2">  1        4 0.23539273E-02 0.12499801E+03</pdfrwt>
<pdfrwt beam="1">  1       -4 0.39275927E-01 0.12499801E+03</pdfrwt>
<totfact> 0.79445461E+03</totfact>
</mgrwt>
</event>
<event>
 5    1  0.3340698E-002  0.1249989E+03  0.7818608E-02  0.1235071E+00
         -4   -1    0    0    0  501 -0.00000000000E+00  0.00000000000E+00  0.38258817860E+02  0.38279890858E+02  0.12700000000E+01 0.  1.
          4   -1    0    0  501    0  0.00000000000E+00 -0.00000000000E+00 -0.10204563557E+03  0.10205353810E+03  0.12700000000E+01 0.  1.
         25    2    1    2    0    0  0.00000000000E+00  0.00000000000E+00 -0.63786817710E+02  0.14033342896E+03  0.12499885267E+03 0.  0.
    9000005    1    3    3    0    0 -0.44308760107E+01 -0.55248927906E+02 -0.64297816981E+02  0.84895735850E+02  0.10000000000E+01 0.  0.
    9000005    1    3    3    0    0  0.44308760107E+01  0.55248927906E+02  0.51099927044E+00  0.55437693109E+02  0.10000000000E+01 0.  0.
<mgrwt>
<rscale>  0 0.12499885E+03</rscale>
<asrwt>0</asrwt>
<pdfrwt beam="2">  1        4 0.15701557E-01 0.12499885E+03</pdfrwt>
<pdfrwt beam="1">  1       -4 0.58882009E-02 0.12499885E+03</pdfrwt>
<totfact> 0.10126942E+04</totfact>
</mgrwt>
</event>
<event>
 5    1  0.3340698E-002  0.1250016E+03  0.7818608E-02  0.1235067E+00
         -4   -1    0    0    0  501 -0.00000000000E+00  0.00000000000E+00  0.22269228570E+03  0.22269590703E+03  0.12700000000E+01 0. -1.
          4   -1    0    0  501    0  0.00000000000E+00 -0.00000000000E+00 -0.17514717857E+02  0.17560701626E+02  0.12700000000E+01 0. -1.
         25    2    1    2    0    0  0.00000000000E+00  0.00000000000E+00  0.20517756784E+03  0.24025660866E+03  0.12500161463E+03 0.  0.
    9000005    1    3    3    0    0  0.56119280075E+02  0.25746401691E+02  0.12113412551E+03  0.13596590440E+03  0.10000000000E+01 0.  0.
    9000005    1    3    3    0    0 -0.56119280075E+02 -0.25746401691E+02  0.84043442335E+02  0.10429070426E+03  0.10000000000E+01 0.  0.
<mgrwt>
<rscale>  0 0.12500161E+03</rscale>
<asrwt>0</asrwt>
<pdfrwt beam="2">  1        4 0.26983879E-02 0.12500161E+03</pdfrwt>
<pdfrwt beam="1">  1       -4 0.34264166E-01 0.12500161E+03</pdfrwt>
<totfact> 0.83756151E+03</totfact>
</mgrwt>
</event>
<event>
 5    1  0.3340698E-002  0.1250007E+03  0.7818608E-02  0.1235068E+00
          4   -1    0    0  501    0  0.00000000000E+00  0.00000000000E+00  0.16713303266E+03  0.16713785779E+03  0.12700000000E+01 0. -1.
         -4   -1    0    0    0  501 -0.00000000000E+00 -0.00000000000E+00 -0.23349932488E+02  0.23384444556E+02  0.12700000000E+01 0. -1.
         25    2    1    2    0    0  0.00000000000E+00  0.00000000000E+00  0.14378310018E+03  0.19052230235E+03  0.12500067118E+03 0.  0.
    9000005    1    3    3    0    0  0.44600303974E+02 -0.18829550518E+01  0.13854780860E+03  0.14556520155E+03  0.10000000000E+01 0.  0.
    9000005    1    3    3    0    0 -0.44600303974E+02  0.18829550518E+01  0.52352915753E+01  0.44957100799E+02  0.10000000000E+01 0.  0.
<mgrwt>
<rscale>  0 0.12500067E+03</rscale>
<asrwt>0</asrwt>
<pdfrwt beam="1">  1        4 0.25715800E-01 0.12500067E+03</pdfrwt>
<pdfrwt beam="2">  1       -4 0.35953233E-02 0.12500067E+03</pdfrwt>
<totfact> 0.91755135E+03</totfact>
</mgrwt>
</event>
<event>
 5    1  0.3340698E-002  0.1249993E+03  0.7818608E-02  0.1235070E+00
         -4   -1    0    0    0  501 -0.00000000000E+00  0.00000000000E+00  0.15214543949E+02  0.15267457142E+02  0.12700000000E+01 0.  1.
          4   -1    0    0  501    0  0.00000000000E+00 -0.00000000000E+00 -0.25624123014E+03  0.25624437735E+03  0.12700000000E+01 0.  1.
         25    2    1    2    0    0  0.00000000000E+00  0.00000000000E+00 -0.24102668619E+03  0.27151183449E+03  0.12499925125E+03 0.  0.
    9000005    1    3    3    0    0 -0.10703026713E+02 -0.56544084819E+02 -0.17342612239E+03  0.18272768875E+03  0.10000000000E+01 0.  0.
    9000005    1    3    3    0    0  0.10703026713E+02  0.56544084819E+02 -0.67600563798E+02  0.88784145739E+02  0.10000000000E+01 0.  0.
<mgrwt>
<rscale>  0 0.12499925E+03</rscale>
<asrwt>0</asrwt>
<pdfrwt beam="2">  1        4 0.39426037E-01 0.12499925E+03</pdfrwt>
<pdfrwt beam="1">  1       -4 0.23450116E-02 0.12499925E+03</pdfrwt>
<totfact> 0.79318520E+03</totfact>
</mgrwt>
</event>
<event>
 5    1  0.3340698E-002  0.1249995E+03  0.7818608E-02  0.1235070E+00
          4   -1    0    0  501    0  0.00000000000E+00  0.00000000000E+00  0.71957740737E+01  0.73069873764E+01  0.12700000000E+01 0.  1.
         -4   -1    0    0    0  501 -0.00000000000E+00 -0.00000000000E+00 -0.53857424090E+03  0.53857573828E+03  0.12700000000E+01 0.  1.
         25    2    1    2    0    0  0.00000000000E+00  0.00000000000E+00 -0.53137846683E+03  0.54588272565E+03  0.12499950064E+03 0.  0.
    9000005    1    3    3    0    0  0.10360845760E+02 -0.60753484259E+02 -0.31083854276E+03  0.31689104222E+03  0.10000000000E+01 0.  0.
    9000005    1    3    3    0    0 -0.10360845760E+02  0.60753484259E+02 -0.22053992407E+03  0.22899168343E+03  0.10000000000E+01 0.  0.
<mgrwt>
<rscale>  0 0.12499950E+03</rscale>
<asrwt>0</asrwt>
<pdfrwt beam="1">  1        4 0.11157126E-02 0.12499950E+03</pdfrwt>
<pdfrwt beam="2">  1       -4 0.82866214E-01 0.12499950E+03</pdfrwt>
<totfact> 0.52472850E+03</totfact>
</mgrwt>
</event>
<event>
 5    1  0.3340698E-002  0.1250001E+03  0.7818608E-02  0.1235069E+00
          4   -1    0    0  501    0  0.00000000000E+00  0.00000000000E+00  0.21385672242E+02  0.21423348880E+02  0.12700000000E+01 0. -1.
         -4   -1    0    0    0  501 -0.00000000000E+00 -0.00000000000E+00 -0.18245693501E+03  0.18246135490E+03  0.12700000000E+01 0. -1.
         25    2    1    2    0    0  0.00000000000E+00  0.00000000000E+00 -0.16107126277E+03  0.20388470379E+03  0.12500008299E+03 0.  0.
    9000005    1    3    3    0    0  0.53865707854E+02  0.15050547475E+02 -0.35063343164E+02  0.66018720797E+02  0.10000000000E+01 0.  0.
    9000005    1    3    3    0    0 -0.53865707854E+02 -0.15050547475E+02 -0.12600791961E+03  0.13786598299E+03  0.10000000000E+01 0.  0.
<mgrwt>
<rscale>  0 0.12500008E+03</rscale>
<asrwt>0</asrwt>
<pdfrwt beam="1">  1        4 0.32933417E-02 0.12500008E+03</pdfrwt>
<pdfrwt beam="2">  1       -4 0.28073535E-01 0.12500008E+03</pdfrwt>
<totfact> 0.89484264E+03</totfact>
</mgrwt>
</event>
<event>
 5    1  0.3340698E-002  0.1249992E+03  0.7818608E-02  0.1235071E+00
         -4   -1    0    0    0  501 -0.00000000000E+00  0.00000000000E+00  0.30784388513E+02  0.30810574096E+02  0.12700000000E+01 0. -1.
          4   -1    0    0  501    0  0.00000000000E+00 -0.00000000000E+00 -0.12680560140E+03  0.12681196098E+03  0.12700000000E+01 0. -1.
         25    2    1    2    0    0  0.00000000000E+00  0.00000000000E+00 -0.96021212891E+02  0.15762253508E+03  0.12499916095E+03 0.  0.
    9000005    1    3    3    0    0  0.42272829370E+02 -0.23251345697E+02  0.20743105575E+01  0.48300309978E+02  0.10000000000E+01 0.  0.
    9000005    1    3    3    0    0 -0.42272829370E+02  0.23251345697E+02 -0.98095523449E+02  0.10932222510E+03  0.10000000000E+01 0.  0.
<mgrwt>
<rscale>  0 0.12499916E+03</rscale>
<asrwt>0</asrwt>
<pdfrwt beam="2">  1        4 0.19511057E-01 0.12499916E+03</pdfrwt>
<pdfrwt beam="1">  1       -4 0.47385633E-02 0.12499916E+03</pdfrwt>
<totfact> 0.97804954E+03</totfact>
</mgrwt>
</event>
<event>
 5    1  0.3340698E-002  0.1249952E+03  0.7818608E-02  0.1235077E+00
          4   -1    0    0  501    0  0.00000000000E+00  0.00000000000E+00  0.11592838528E+02  0.11662195554E+02  0.12700000000E+01 0. -1.
         -4   -1    0    0    0  501 -0.00000000000E+00 -0.00000000000E+00 -0.33585253778E+03  0.33585493897E+03  0.12700000000E+01 0. -1.
         25    2    1    2    0    0  0.00000000000E+00  0.00000000000E+00 -0.32425969925E+03  0.34751713452E+03  0.12499522483E+03 0.  0.
    9000005    1    3    3    0    0  0.55917083742E+01 -0.53543233124E+02 -0.25034756672E+03  0.25607235146E+03  0.10000000000E+01 0.  0.
    9000005    1    3    3    0    0 -0.55917083742E+01  0.53543233124E+02 -0.73912132524E+02  0.91444783067E+02  0.10000000000E+01 0.  0.
<mgrwt>
<rscale>  0 0.12499522E+03</rscale>
<asrwt>0</asrwt>
<pdfrwt beam="1">  1        4 0.17890337E-02 0.12499522E+03</pdfrwt>
<pdfrwt beam="2">  1       -4 0.51675134E-01 0.12499522E+03</pdfrwt>
<totfact> 0.70005970E+03</totfact>
</mgrwt>
</event>
<event>
 5    1  0.3340698E-002  0.1250008E+03  0.7818608E-02  0.1235068E+00
         -4   -1    0    0    0  501 -0.00000000000E+00  0.00000000000E+00  0.88214597866E+02  0.88223739304E+02  0.12700000000E+01 0.  1.
          4   -1    0    0  501    0  0.00000000000E+00 -0.00000000000E+00 -0.44261237101E+02  0.44279453584E+02  0.12700000000E+01 0.  1.
         25    2    1    2    0    0  0.00000000000E+00  0.00000000000E+00  0.43953360765E+02  0.13250319289E+03  0.12500079281E+03 0.  0.
    9000005    1    3    3    0    0 -0.58270565273E+02 -0.21819971325E+02  0.28132974090E+02  0.68293734391E+02  0.10000000000E+01 0.  0.
    9000005    1    3    3    0    0  0.58270565273E+02  0.21819971325E+02  0.15820386675E+02  0.64209458497E+02  0.10000000000E+01 0.  0.
<mgrwt>
<rscale>  0 0.12500079E+03</rscale>
<asrwt>0</asrwt>
<pdfrwt beam="2">  1        4 0.68115256E-02 0.12500079E+03</pdfrwt>
<pdfrwt beam="1">  1       -4 0.13573581E-01 0.12500079E+03</pdfrwt>
<totfact> 0.10290786E+04</totfact>
</mgrwt>
</event>
<event>
 4    1  0.3340698E-002  0.1250742E+03  0.7818608E-02  0.1234953E+00
          4   -1    0    0  501    0  0.00000000000E+00  0.00000000000E+00  0.50133721297E+01  0.51717308621E+01  0.12700000000E+01 0.  1.
         -4   -1    0    0    0  501 -0.00000000000E+00 -0.00000000000E+00 -0.76780381658E+03  0.76780486691E+03  0.12700000000E+01 0.  1.
    9000005    1    1    2    0    0  0.66737133547E+00  0.61899822465E+02 -0.32686399538E+03  0.33267567522E+03  0.10000000000E+01 0.  0.
    9000005    1    1    2    0    0 -0.66737133547E+00 -0.61899822465E+02 -0.43592644906E+03  0.44030092255E+03  0.10000000000E+01 0.  0.
<mgrwt>
<rscale>  0 0.12507421E+03</rscale>
<asrwt>0</asrwt>
<pdfrwt beam="1">  1        4 0.78355087E-03 0.12507421E+03</pdfrwt>
<pdfrwt beam="2">  1       -4 0.11813583E+00 0.12507421E+03</pdfrwt>
<totfact> 0.39434542E+03</totfact>
</mgrwt>
</event>
<event>
 5    1  0.3340698E-002  0.1249987E+03  0.7818608E-02  0.1235071E+00
         -4   -1    0    0    0  501 -0.00000000000E+00  0.00000000000E+00  0.45923458169E+02  0.45941015555E+02  0.12700000000E+01 0. -1.
          4   -1    0    0  501    0  0.00000000000E+00 -0.00000000000E+00 -0.85019700286E+02  0.85029185205E+02  0.12700000000E+01 0. -1.
         25    2    1    2    0    0  0.00000000000E+00  0.00000000000E+00 -0.39096242116E+02  0.13097020076E+03  0.12499870935E+03 0.  0.
    9000005    1    3    3    0    0  0.80911811737E+01  0.12893004457E+02 -0.83052747307E+02  0.84442025153E+02  0.10000000000E+01 0.  0.
    9000005    1    3    3    0    0 -0.80911811737E+01 -0.12893004457E+02  0.43956505191E+02  0.46528175607E+02  0.10000000000E+01 0.  0.
<mgrwt>
<rscale>  0 0.12499871E+03</rscale>
<asrwt>0</asrwt>
<pdfrwt beam="2">  1        4 0.13082034E-01 0.12499871E+03</pdfrwt>
<pdfrwt beam="1">  1       -4 0.70672276E-02 0.12499871E+03</pdfrwt>
<totfact> 0.10324029E+04</totfact>
</mgrwt>
</event>
<event>
 5    1  0.3340698E-002  0.1250045E+03  0.7818608E-02  0.1235062E+00
         -4   -1    0    0    0  501 -0.00000000000E+00  0.00000000000E+00  0.32221992428E+03  0.32222242706E+03  0.12700000000E+01 0. -1.
          4   -1    0    0  501    0  0.00000000000E+00 -0.00000000000E+00 -0.12087996400E+02  0.12154528250E+02  0.12700000000E+01 0. -1.
         25    2    1    2    0    0  0.00000000000E+00  0.00000000000E+00  0.31013192788E+03  0.33437695531E+03  0.12500454214E+03 0.  0.
    9000005    1    3    3    0    0 -0.41256824328E+02  0.23252396978E+02  0.45991777527E+02  0.66023049906E+02  0.10000000000E+01 0.  0.
    9000005    1    3    3    0    0  0.41256824328E+02 -0.23252396978E+02  0.26414015035E+03  0.26835390541E+03  0.10000000000E+01 0.  0.
<mgrwt>
<rscale>  0 0.12500454E+03</rscale>
<asrwt>0</asrwt>
<pdfrwt beam="2">  1        4 0.18650023E-02 0.12500454E+03</pdfrwt>
<pdfrwt beam="1">  1       -4 0.49577600E-01 0.12500454E+03</pdfrwt>
<totfact> 0.71470996E+03</totfact>
</mgrwt>
</event>
<event>
 5    1  0.3340698E-002  0.1249991E+03  0.7818608E-02  0.1235071E+00
         -4   -1    0    0    0  501 -0.00000000000E+00  0.00000000000E+00  0.14735696229E+02  0.14790322625E+02  0.12700000000E+01 0. -1.
          4   -1    0    0  501    0  0.00000000000E+00 -0.00000000000E+00 -0.26453706441E+03  0.26454011293E+03  0.12700000000E+01 0. -1.
         25    2    1    2    0    0  0.00000000000E+00  0.00000000000E+00 -0.24980136818E+03  0.27933043555E+03  0.12499907472E+03 0.  0.
    9000005    1    3    3    0    0  0.34875072447E+02  0.32731913195E+02 -0.21477579196E+03  0.22003929111E+03  0.10000000000E+01 0.  0.
    9000005    1    3    3    0    0 -0.34875072447E+02 -0.32731913195E+02 -0.35025576220E+02  0.59291144441E+02  0.10000000000E+01 0.  0.
<mgrwt>
<rscale>  0 0.12499907E+03</rscale>
<asrwt>0</asrwt>
<pdfrwt beam="2">  1        4 0.40702443E-01 0.12499907E+03</pdfrwt>
<pdfrwt beam="1">  1       -4 0.22714669E-02 0.12499907E+03</pdfrwt>
<totfact> 0.78268580E+03</totfact>
</mgrwt>
</event>
<event>
 5    1  0.3340698E-002  0.1250027E+03  0.7818608E-02  0.1235065E+00
         -4   -1    0    0    0  501 -0.00000000000E+00  0.00000000000E+00  0.62666619692E+01  0.63940560082E+01  0.12700000000E+01 0.  1.
          4   -1    0    0  501    0  0.00000000000E+00 -0.00000000000E+00 -0.61696473188E+03  0.61696603900E+03  0.12700000000E+01 0.  1.
         25    2    1    2    0    0  0.00000000000E+00  0.00000000000E+00 -0.61069806991E+03  0.62336009501E+03  0.12500270181E+03 0.  0.
    9000005    1    3    3    0    0  0.15702008376E+02 -0.53210756962E+02 -0.16189966354E+03  0.17114449678E+03  0.10000000000E+01 0.  0.
    9000005    1    3    3    0    0 -0.15702008376E+02  0.53210756962E+02 -0.44879840637E+03  0.45221559823E+03  0.10000000000E+01 0.  0.
<mgrwt>
<rscale>  0 0.12500270E+03</rscale>
<asrwt>0</asrwt>
<pdfrwt beam="2">  1        4 0.94927504E-01 0.12500270E+03</pdfrwt>
<pdfrwt beam="1">  1       -4 0.97400241E-03 0.12500270E+03</pdfrwt>
<totfact> 0.47422701E+03</totfact>
</mgrwt>
</event>
<event>
 5    1  0.3340698E-002  0.1250007E+03  0.7818608E-02  0.1235068E+00
          4   -1    0    0  501    0  0.00000000000E+00  0.00000000000E+00  0.27371454967E+03  0.27371749597E+03  0.12700000000E+01 0. -1.
         -4   -1    0    0    0  501 -0.00000000000E+00 -0.00000000000E+00 -0.14240130965E+02  0.14296651003E+02  0.12700000000E+01 0. -1.
         25    2    1    2    0    0  0.00000000000E+00  0.00000000000E+00  0.25947441870E+03  0.28801414697E+03  0.12500069958E+03 0.  0.
    9000005    1    3    3    0    0  0.55780934153E-01 -0.56883200473E+02  0.70115209015E+02  0.90293101303E+02  0.10000000000E+01 0.  0.
    9000005    1    3    3    0    0 -0.55780934153E-01  0.56883200473E+02  0.18935920969E+03  0.19772104567E+03  0.10000000000E+01 0.  0.
<mgrwt>
<rscale>  0 0.12500070E+03</rscale>
<asrwt>0</asrwt>
<pdfrwt beam="1">  1        4 0.42114504E-01 0.12500070E+03</pdfrwt>
<pdfrwt beam="2">  1       -4 0.21953638E-02 0.12500070E+03</pdfrwt>
<totfact> 0.77126148E+03</totfact>
</mgrwt>
</event>
<event>
 5    1  0.3340698E-002  0.1249983E+03  0.7818608E-02  0.1235072E+00
         -4   -1    0    0    0  501 -0.00000000000E+00  0.00000000000E+00  0.22364826529E+02  0.22400856360E+02  0.12700000000E+01 0.  1.
          4   -1    0    0  501    0  0.00000000000E+00 -0.00000000000E+00 -0.17447671849E+03  0.17448134054E+03  0.12700000000E+01 0.  1.
         25    2    1    2    0    0  0.00000000000E+00  0.00000000000E+00 -0.15211189197E+03  0.19688219690E+03  0.12499828710E+03 0.  0.
    9000005    1    3    3    0    0 -0.62407000587E+02  0.16516590438E+01 -0.71662281155E+02  0.95046537234E+02  0.10000000000E+01 0.  0.
    9000005    1    3    3    0    0  0.62407000587E+02 -0.16516590438E+01 -0.80449610811E+02  0.10183565967E+03  0.10000000000E+01 0.  0.
<mgrwt>
<rscale>  0 0.12499829E+03</rscale>
<asrwt>0</asrwt>
<pdfrwt beam="2">  1        4 0.26845698E-01 0.12499829E+03</pdfrwt>
<pdfrwt beam="1">  1       -4 0.34438697E-02 0.12499829E+03</pdfrwt>
<totfact> 0.90666909E+03</totfact>
</mgrwt>
</event>
<event>
 5    1  0.3340698E-002  0.1250044E+03  0.7818608E-02  0.1235062E+00
         -4   -1    0    0    0  501 -0.00000000000E+00  0.00000000000E+00  0.41189031004E+03  0.41189226796E+03  0.12700000000E+01 0.  1.
          4   -1    0    0  501    0  0.00000000000E+00 -0.00000000000E+00 -0.94398762613E+01  0.95249232978E+01  0.12700000000E+01 0.  1.
         25    2    1    2    0    0  0.00000000000E+00  0.00000000000E+00  0.40245043378E+03  0.42141719126E+03  0.12500438968E+03 0.  0.
    9000005    1    3    3    0    0 -0.50593042199E+02  0.13910225671E+02  0.31566676431E+03  0.31999946311E+03  0.10000000000E+01 0.  0.
    9000005    1    3    3    0    0  0.50593042199E+02 -0.13910225671E+02  0.86783669465E+02  0.10141772815E+03  0.10000000000E+01 0.  0.
<mgrwt>
<rscale>  0 0.12500439E+03</rscale>
<asrwt>0</asrwt>
<pdfrwt beam="2">  1        4 0.14589815E-02 0.12500439E+03</pdfrwt>
<pdfrwt beam="1">  1       -4 0.63374424E-01 0.12500439E+03</pdfrwt>
<totfact> 0.62515701E+03</totfact>
</mgrwt>
</event>
<event>
 5    1  0.3340698E-002  0.1250004E+03  0.7818608E-02  0.1235069E+00
         -4   -1    0    0    0  501 -0.00000000000E+00  0.00000000000E+00  0.14013108867E+03  0.14013684352E+03  0.12700000000E+01 0. -1.
          4   -1    0    0  501    0  0.00000000000E+00 -0.00000000000E+00 -0.27855067837E+02  0.27884004451E+02  0.12700000000E+01 0. -1.
         25    2    1    2    0    0  0.00000000000E+00  0.00000000000E+00  0.11227602083E+03  0.16802084797E+03  0.12500040199E+03 0.  0.
    9000005    1    3    3    0    0 -0.37805418792E+02 -0.48618266056E+02  0.41894350102E+02  0.74492429514E+02  0.10000000000E+01 0.  0.
    9000005    1    3    3    0    0  0.37805418792E+02  0.48618266056E+02  0.70381670728E+02  0.93528418456E+02  0.10000000000E+01 0.  0.
<mgrwt>
<rscale>  0 0.12500040E+03</rscale>
<asrwt>0</asrwt>
<pdfrwt beam="2">  1        4 0.42880636E-02 0.12500040E+03</pdfrwt>
<pdfrwt beam="1">  1       -4 0.21561297E-01 0.12500040E+03</pdfrwt>
<totfact> 0.95817466E+03</totfact>
</mgrwt>
</event>
<event>
 5    1  0.3340698E-002  0.1250019E+03  0.7818608E-02  0.1235066E+00
         -4   -1    0    0    0  501 -0.00000000000E+00  0.00000000000E+00  0.12059293516E+04  0.12059300203E+04  0.12700000000E+01 0. -1.
          4   -1    0    0  501    0  0.00000000000E+00 -0.00000000000E+00 -0.31141276913E+01  0.33631371185E+01  0.12700000000E+01 0. -1.
         25    2    1    2    0    0  0.00000000000E+00  0.00000000000E+00  0.12028152239E+04  0.12092931575E+04  0.12500191120E+03 0.  0.
    9000005    1    3    3    0    0 -0.21342184293E+02 -0.11253326735E+02  0.11591016587E+04  0.11593531737E+04  0.10000000000E+01 0.  0.
    9000005    1    3    3    0    0  0.21342184293E+02  0.11253326735E+02  0.43713565198E+02  0.49939983734E+02  0.10000000000E+01 0.  0.
<mgrwt>
<rscale>  0 0.12500191E+03</rscale>
<asrwt>0</asrwt>
<pdfrwt beam="2">  1        4 0.49830244E-03 0.12500191E+03</pdfrwt>
<pdfrwt beam="1">  1       -4 0.18554685E+00 0.12500191E+03</pdfrwt>
<totfact> 0.24469761E+03</totfact>
</mgrwt>
</event>
<event>
 5    1  0.3340698E-002  0.1249994E+03  0.7818608E-02  0.1235070E+00
         -4   -1    0    0    0  501 -0.00000000000E+00  0.00000000000E+00  0.63196239525E+02  0.63208999281E+02  0.12700000000E+01 0.  1.
          4   -1    0    0  501    0  0.00000000000E+00 -0.00000000000E+00 -0.61785326999E+02  0.61798378072E+02  0.12700000000E+01 0.  1.
         25    2    1    2    0    0  0.00000000000E+00  0.00000000000E+00  0.14109125259E+01  0.12500737735E+03  0.12499941487E+03 0.  0.
    9000005    1    3    3    0    0 -0.13670791828E+02 -0.51929858569E+02 -0.31259255956E+02  0.62142914666E+02  0.10000000000E+01 0.  0.
    9000005    1    3    3    0    0  0.13670791828E+02  0.51929858569E+02  0.32670168482E+02  0.62864462687E+02  0.10000000000E+01 0.  0.
<mgrwt>
<rscale>  0 0.12499941E+03</rscale>
<asrwt>0</asrwt>
<pdfrwt beam="2">  1        4 0.95074203E-02 0.12499941E+03</pdfrwt>
<pdfrwt beam="1">  1       -4 0.97244839E-02 0.12499941E+03</pdfrwt>
<totfact> 0.10452841E+04</totfact>
</mgrwt>
</event>
<event>
 5    1  0.3340698E-002  0.1249971E+03  0.7818608E-02  0.1235074E+00
          4   -1    0    0  501    0  0.00000000000E+00  0.00000000000E+00  0.18066998493E+03  0.18067444854E+03  0.12700000000E+01 0.  1.
         -4   -1    0    0    0  501 -0.00000000000E+00 -0.00000000000E+00 -0.21596520245E+02  0.21633829682E+02  0.12700000000E+01 0.  1.
         25    2    1    2    0    0  0.00000000000E+00  0.00000000000E+00  0.15907346468E+03  0.20230827822E+03  0.12499708904E+03 0.  0.
    9000005    1    3    3    0    0  0.17084880132E+02  0.59804793367E+02  0.69750252158E+02  0.93459103970E+02  0.10000000000E+01 0.  0.
    9000005    1    3    3    0    0 -0.17084880132E+02 -0.59804793367E+02  0.89323212527E+02  0.10884917425E+03  0.10000000000E+01 0.  0.
<mgrwt>
<rscale>  0 0.12499709E+03</rscale>
<asrwt>0</asrwt>
<pdfrwt beam="1">  1        4 0.27798597E-01 0.12499709E+03</pdfrwt>
<pdfrwt beam="2">  1       -4 0.33257547E-02 0.12499709E+03</pdfrwt>
<totfact> 0.89753495E+03</totfact>
</mgrwt>
</event>
<event>
 5    1  0.3340698E-002  0.1249982E+03  0.7818608E-02  0.1235072E+00
         -4   -1    0    0    0  501 -0.00000000000E+00  0.00000000000E+00  0.27367315048E+03  0.27367609723E+03  0.12700000000E+01 0.  1.
          4   -1    0    0  501    0  0.00000000000E+00 -0.00000000000E+00 -0.14241718031E+02  0.14298231796E+02  0.12700000000E+01 0.  1.
         25    2    1    2    0    0  0.00000000000E+00  0.00000000000E+00  0.25943143245E+03  0.28797432903E+03  0.12499818412E+03 0.  0.
    9000005    1    3    3    0    0 -0.50574737224E+02  0.32631460174E+02  0.90992191823E+02  0.10910176539E+03  0.10000000000E+01 0.  0.
    9000005    1    3    3    0    0  0.50574737224E+02 -0.32631460174E+02  0.16843924063E+03  0.17887256364E+03  0.10000000000E+01 0.  0.
<mgrwt>
<rscale>  0 0.12499818E+03</rscale>
<asrwt>0</asrwt>
<pdfrwt beam="2">  1        4 0.21956075E-02 0.12499818E+03</pdfrwt>
<pdfrwt beam="1">  1       -4 0.42108135E-01 0.12499818E+03</pdfrwt>
<totfact> 0.77135621E+03</totfact>
</mgrwt>
</event>
<event>
 5    1  0.3340698E-002  0.1250087E+03  0.7818608E-02  0.1235056E+00
          4   -1    0    0  501    0  0.00000000000E+00  0.00000000000E+00  0.79257899500E+01  0.80268951863E+01  0.12700000000E+01 0.  1.
         -4   -1    0    0    0  501 -0.00000000000E+00 -0.00000000000E+00 -0.48969573877E+03  0.48969738561E+03  0.12700000000E+01 0.  1.
         25    2    1    2    0    0  0.00000000000E+00  0.00000000000E+00 -0.48176994882E+03  0.49772428080E+03  0.12500870411E+03 0.  0.
    9000005    1    3    3    0    0  0.55527194943E+02 -0.22954009058E+02 -0.30934369644E+03  0.31512644833E+03  0.10000000000E+01 0.  0.
    9000005    1    3    3    0    0 -0.55527194943E+02  0.22954009058E+02 -0.17242625238E+03  0.18259783246E+03  0.10000000000E+01 0.  0.
<mgrwt>
<rscale>  0 0.12500870E+03</rscale>
<asrwt>0</asrwt>
<pdfrwt beam="1">  1        4 0.12272567E-02 0.12500870E+03</pdfrwt>
<pdfrwt beam="2">  1       -4 0.75345686E-01 0.12500870E+03</pdfrwt>
<totfact> 0.56030653E+03</totfact>
</mgrwt>
</event>
<event>
 5    1  0.3340698E-002  0.1250005E+03  0.7818608E-02  0.1235068E+00
         -4   -1    0    0    0  501 -0.00000000000E+00  0.00000000000E+00  0.81521514779E+01  0.82504832415E+01  0.12700000000E+01 0. -1.
          4   -1    0    0  501    0  0.00000000000E+00 -0.00000000000E+00 -0.47620009647E+03  0.47620178998E+03  0.12700000000E+01 0. -1.
         25    2    1    2    0    0  0.00000000000E+00  0.00000000000E+00 -0.46804794499E+03  0.48445227322E+03  0.12500050486E+03 0.  0.
    9000005    1    3    3    0    0 -0.57845875628E+02 -0.23011479771E+02 -0.25511238825E+03  0.26260046490E+03  0.10000000000E+01 0.  0.
    9000005    1    3    3    0    0  0.57845875628E+02  0.23011479771E+02 -0.21293555674E+03  0.22185180832E+03  0.10000000000E+01 0.  0.
<mgrwt>
<rscale>  0 0.12500050E+03</rscale>
<asrwt>0</asrwt>
<pdfrwt beam="2">  1        4 0.73269226E-01 0.12500050E+03</pdfrwt>
<pdfrwt beam="1">  1       -4 0.12618718E-02 0.12500050E+03</pdfrwt>
<totfact> 0.57090560E+03</totfact>
</mgrwt>
</event>
<event>
 5    1  0.3340698E-002  0.1250007E+03  0.7818608E-02  0.1235068E+00
          4   -1    0    0  501    0  0.00000000000E+00  0.00000000000E+00  0.12711775519E+03  0.12712409915E+03  0.12700000000E+01 0. -1.
         -4   -1    0    0    0  501 -0.00000000000E+00 -0.00000000000E+00 -0.30709476695E+02  0.30735726100E+02  0.12700000000E+01 0. -1.
         25    2    1    2    0    0  0.00000000000E+00  0.00000000000E+00  0.96408278495E+02  0.15785982525E+03  0.12500067306E+03 0.  0.
    9000005    1    3    3    0    0  0.17954864556E+02 -0.39279724579E+02  0.10524371427E+03  0.11376516742E+03  0.10000000000E+01 0.  0.
    9000005    1    3    3    0    0 -0.17954864556E+02  0.39279724579E+02 -0.88354357728E+01  0.44094657834E+02  0.10000000000E+01 0.  0.
<mgrwt>
<rscale>  0 0.12500067E+03</rscale>
<asrwt>0</asrwt>
<pdfrwt beam="1">  1        4 0.19559085E-01 0.12500067E+03</pdfrwt>
<pdfrwt beam="2">  1       -4 0.47270420E-02 0.12500067E+03</pdfrwt>
<totfact> 0.97755508E+03</totfact>
</mgrwt>
</event>
<event>
 4    1  0.3340698E-002  0.1250808E+03  0.7818608E-02  0.1234943E+00
         -4   -1    0    0    0  501 -0.00000000000E+00  0.00000000000E+00  0.66509853626E+01  0.67711525085E+01  0.12700000000E+01 0.  1.
          4   -1    0    0  501    0  0.00000000000E+00 -0.00000000000E+00 -0.58269297809E+03  0.58269436209E+03  0.12700000000E+01 0.  1.
    9000005    1    1    2    0    0  0.26038974341E+02 -0.23927445862E+00 -0.20093071975E+02  0.32906184501E+02  0.10000000000E+01 0.  0.
    9000005    1    1    2    0    0 -0.26038974341E+02  0.23927445862E+00 -0.55594892075E+03  0.55655933010E+03  0.10000000000E+01 0.  0.
<mgrwt>
<rscale>  0 0.12508084E+03</rscale>
<asrwt>0</asrwt>
<pdfrwt beam="2">  1        4 0.89654384E-01 0.12508084E+03</pdfrwt>
<pdfrwt beam="1">  1       -4 0.10325791E-02 0.12508084E+03</pdfrwt>
<totfact> 0.49451689E+03</totfact>
</mgrwt>
</event>
<event>
 5    1  0.3340698E-002  0.1250081E+03  0.7818608E-02  0.1235057E+00
          4   -1    0    0  501    0  0.00000000000E+00  0.00000000000E+00  0.18429866240E+02  0.18473572194E+02  0.12700000000E+01 0.  1.
         -4   -1    0    0    0  501 -0.00000000000E+00 -0.00000000000E+00 -0.21168289130E+03  0.21168670098E+03  0.12700000000E+01 0.  1.
         25    2    1    2    0    0  0.00000000000E+00  0.00000000000E+00 -0.19325302506E+03  0.23016027317E+03  0.12500807834E+03 0.  0.
    9000005    1    3    3    0    0 -0.61735089820E+00 -0.55171461141E+02 -0.15066657084E+03  0.16045462541E+03  0.10000000000E+01 0.  0.
    9000005    1    3    3    0    0  0.61735089820E+00  0.55171461141E+02 -0.42586454221E+02  0.69705647760E+02  0.10000000000E+01 0.  0.
<mgrwt>
<rscale>  0 0.12500808E+03</rscale>
<asrwt>0</asrwt>
<pdfrwt beam="1">  1        4 0.28390192E-02 0.12500808E+03</pdfrwt>
<pdfrwt beam="2">  1       -4 0.32570252E-01 0.12500808E+03</pdfrwt>
<totfact> 0.85269624E+03</totfact>
</mgrwt>
</event>
<event>
 5    1  0.3340698E-002  0.1249967E+03  0.7818608E-02  0.1235074E+00
          4   -1    0    0  501    0  0.00000000000E+00  0.00000000000E+00  0.18824159155E+03  0.18824587563E+03  0.12700000000E+01 0. -1.
         -4   -1    0    0    0  501 -0.00000000000E+00 -0.00000000000E+00 -0.20726210524E+02  0.20765083739E+02  0.12700000000E+01 0. -1.
         25    2    1    2    0    0  0.00000000000E+00  0.00000000000E+00  0.16751538103E+03  0.20901095936E+03  0.12499671297E+03 0.  0.
    9000005    1    3    3    0    0  0.47817963949E+02  0.28685086578E+02  0.13092403681E+03  0.14230774850E+03  0.10000000000E+01 0.  0.
    9000005    1    3    3    0    0 -0.47817963949E+02 -0.28685086578E+02  0.36591344221E+02  0.66703210869E+02  0.10000000000E+01 0.  0.
<mgrwt>
<rscale>  0 0.12499671E+03</rscale>
<asrwt>0</asrwt>
<pdfrwt beam="1">  1        4 0.28963566E-01 0.12499671E+03</pdfrwt>
<pdfrwt beam="2">  1       -4 0.31919674E-02 0.12499671E+03</pdfrwt>
<totfact> 0.88644172E+03</totfact>
</mgrwt>
</event>
<event>
 5    1  0.3340698E-002  0.1249987E+03  0.7818608E-02  0.1235071E+00
         -4   -1    0    0    0  501 -0.00000000000E+00  0.00000000000E+00  0.48749576601E+02  0.48766116503E+02  0.12700000000E+01 0. -1.
          4   -1    0    0  501    0  0.00000000000E+00 -0.00000000000E+00 -0.80092024192E+02  0.80102092602E+02  0.12700000000E+01 0. -1.
         25    2    1    2    0    0  0.00000000000E+00  0.00000000000E+00 -0.31342447591E+02  0.12886820911E+03  0.12499866518E+03 0.  0.
    9000005    1    3    3    0    0  0.94254258618E+01 -0.43326611007E+02  0.29727556265E+02  0.53392522656E+02  0.10000000000E+01 0.  0.
    9000005    1    3    3    0    0 -0.94254258618E+01  0.43326611007E+02 -0.61070003856E+02  0.75475686449E+02  0.10000000000E+01 0.  0.
<mgrwt>
<rscale>  0 0.12499867E+03</rscale>
<asrwt>0</asrwt>
<pdfrwt beam="2">  1        4 0.12323897E-01 0.12499867E+03</pdfrwt>
<pdfrwt beam="1">  1       -4 0.75019816E-02 0.12499867E+03</pdfrwt>
<totfact> 0.10369092E+04</totfact>
</mgrwt>
</event>
<event>
 5    1  0.3340698E-002  0.1249992E+03  0.7818608E-02  0.1235071E+00
         -4   -1    0    0    0  501 -0.00000000000E+00  0.00000000000E+00  0.12891541582E+02  0.12953947057E+02  0.12700000000E+01 0. -1.
          4   -1    0    0  501    0  0.00000000000E+00 -0.00000000000E+00 -0.30220956913E+03  0.30221223764E+03  0.12700000000E+01 0. -1.
         25    2    1    2    0    0  0.00000000000E+00  0.00000000000E+00 -0.28931802755E+03  0.31516618469E+03  0.12499921162E+03 0.  0.
    9000005    1    3    3    0    0  0.49532631253E+02  0.37957582851E+02 -0.15299894132E+03  0.16523902596E+03  0.10000000000E+01 0.  0.
    9000005    1    3    3    0    0 -0.49532631253E+02 -0.37957582851E+02 -0.13631908623E+03  0.14992715873E+03  0.10000000000E+01 0.  0.
<mgrwt>
<rscale>  0 0.12499921E+03</rscale>
<asrwt>0</asrwt>
<pdfrwt beam="2">  1        4 0.46498780E-01 0.12499921E+03</pdfrwt>
<pdfrwt beam="1">  1       -4 0.19883200E-02 0.12499921E+03</pdfrwt>
<totfact> 0.73736047E+03</totfact>
</mgrwt>
</event>
<event>
 5    1  0.3340698E-002  0.1249990E+03  0.7818608E-02  0.1235071E+00
         -4   -1    0    0    0  501 -0.00000000000E+00  0.00000000000E+00  0.74144530995E+01  0.75224340984E+01  0.12700000000E+01 0.  1.
          4   -1    0    0  501    0  0.00000000000E+00 -0.00000000000E+00 -0.52291716322E+03  0.52291870543E+03  0.12700000000E+01 0.  1.
         25    2    1    2    0    0  0.00000000000E+00  0.00000000000E+00 -0.51550271012E+03  0.53044113953E+03  0.12499903345E+03 0.  0.
    9000005    1    3    3    0    0 -0.39644232223E+02 -0.43949360630E+02 -0.34283219409E+03  0.34790533878E+03  0.10000000000E+01 0.  0.
    9000005    1    3    3    0    0  0.39644232223E+02  0.43949360630E+02 -0.17267051603E+03  0.18253580074E+03  0.10000000000E+01 0.  0.
<mgrwt>
<rscale>  0 0.12499903E+03</rscale>
<asrwt>0</asrwt>
<pdfrwt beam="2">  1        4 0.80457190E-01 0.12499903E+03</pdfrwt>
<pdfrwt beam="1">  1       -4 0.11491104E-02 0.12499903E+03</pdfrwt>
<totfact> 0.53578666E+03</totfact>
</mgrwt>
</event>
<event>
 5    1  0.3340698E-002  0.1250275E+03  0.7818608E-02  0.1235026E+00
         -4   -1    0    0    0  501 -0.00000000000E+00  0.00000000000E+00  0.82029500905E+02  0.82039331535E+02  0.12700000000E+01 0.  1.
          4   -1    0    0  501    0  0.00000000000E+00 -0.00000000000E+00 -0.47619875082E+02  0.47636807228E+02  0.12700000000E+01 0.  1.
         25    2    1    2    0    0  0.00000000000E+00  0.00000000000E+00  0.34409625823E+02  0.12967613876E+03  0.12502751143E+03 0.  0.
    9000005    1    3    3    0    0 -0.59063978052E+02 -0.20005226749E+02  0.21630434873E+02  0.66012410299E+02  0.10000000000E+01 0.  0.
    9000005    1    3    3    0    0  0.59063978052E+02  0.20005226749E+02  0.12779190950E+02  0.63663728464E+02  0.10000000000E+01 0.  0.
<mgrwt>
<rscale>  0 0.12502751E+03</rscale>
<asrwt>0</asrwt>
<pdfrwt beam="2">  1        4 0.73281933E-02 0.12502751E+03</pdfrwt>
<pdfrwt beam="1">  1       -4 0.12621982E-01 0.12502751E+03</pdfrwt>
<totfact> 0.10345015E+04</totfact>
</mgrwt>
</event>
<event>
 5    1  0.3340698E-002  0.1249990E+03  0.7818608E-02  0.1235071E+00
         -4   -1    0    0    0  501 -0.00000000000E+00  0.00000000000E+00  0.23935849373E+02  0.23969517834E+02  0.12700000000E+01 0.  1.
          4   -1    0    0  501    0  0.00000000000E+00 -0.00000000000E+00 -0.16304324403E+03  0.16304819019E+03  0.12700000000E+01 0.  1.
         25    2    1    2    0    0  0.00000000000E+00  0.00000000000E+00 -0.13910739466E+03  0.18701770802E+03  0.12499902346E+03 0.  0.
    9000005    1    3    3    0    0 -0.16843295617E+02 -0.37854449483E+02  0.43898885468E+00  0.41446937934E+02  0.10000000000E+01 0.  0.
    9000005    1    3    3    0    0  0.16843295617E+02  0.37854449483E+02 -0.13954638351E+03  0.14557077009E+03  0.10000000000E+01 0.  0.
<mgrwt>
<rscale>  0 0.12499902E+03</rscale>
<asrwt>0</asrwt>
<pdfrwt beam="2">  1        4 0.25086546E-01 0.12499902E+03</pdfrwt>
<pdfrwt beam="1">  1       -4 0.36854088E-02 0.12499902E+03</pdfrwt>
<totfact> 0.92370850E+03</totfact>
</mgrwt>
</event>
<event>
 5    1  0.3340698E-002  0.1250162E+03  0.7818608E-02  0.1235044E+00
         -4   -1    0    0    0  501 -0.00000000000E+00  0.00000000000E+00  0.88649274421E+01  0.89554362571E+01  0.12700000000E+01 0.  1.
          4   -1    0    0  501    0  0.00000000000E+00 -0.00000000000E+00 -0.43842527978E+03  0.43842711920E+03  0.12700000000E+01 0.  1.
         25    2    1    2    0    0  0.00000000000E+00  0.00000000000E+00 -0.42956035234E+03  0.44738255546E+03  0.12501621746E+03 0.  0.
    9000005    1    3    3    0    0  0.15389644061E+02 -0.23792047830E+02 -0.41413595918E+03  0.41510540272E+03  0.10000000000E+01 0.  0.
    9000005    1    3    3    0    0 -0.15389644061E+02  0.23792047830E+02 -0.15424393156E+02  0.32277152732E+02  0.10000000000E+01 0.  0.
<mgrwt>
<rscale>  0 0.12501622E+03</rscale>
<asrwt>0</asrwt>
<pdfrwt beam="2">  1        4 0.67457130E-01 0.12501622E+03</pdfrwt>
<pdfrwt beam="1">  1       -4 0.13709390E-02 0.12501622E+03</pdfrwt>
<totfact> 0.60169725E+03</totfact>
</mgrwt>
</event>
<event>
 5    1  0.3340698E-002  0.1249969E+03  0.7818608E-02  0.1235074E+00
         -4   -1    0    0    0  501 -0.00000000000E+00  0.00000000000E+00  0.28764605108E+02  0.28792627651E+02  0.12700000000E+01 0.  1.
          4   -1    0    0  501    0  0.00000000000E+00 -0.00000000000E+00 -0.13569675684E+03  0.13570269974E+03  0.12700000000E+01 0.  1.
         25    2    1    2    0    0  0.00000000000E+00  0.00000000000E+00 -0.10693215173E+03  0.16449532739E+03  0.12499691060E+03 0.  0.
    9000005    1    3    3    0    0 -0.60406183568E+02 -0.38821071840E+01 -0.73899168715E+02  0.95530439684E+02  0.10000000000E+01 0.  0.
    9000005    1    3    3    0    0  0.60406183568E+02  0.38821071840E+01 -0.33032983015E+02  0.68964887706E+02  0.10000000000E+01 0.  0.
<mgrwt>
<rscale>  0 0.12499691E+03</rscale>
<asrwt>0</asrwt>
<pdfrwt beam="2">  1        4 0.20879036E-01 0.12499691E+03</pdfrwt>
<pdfrwt beam="1">  1       -4 0.44279367E-02 0.12499691E+03</pdfrwt>
<totfact> 0.96489752E+03</totfact>
</mgrwt>
</event>
<event>
 5    1  0.3340698E-002  0.1250026E+03  0.7818608E-02  0.1235065E+00
         -4   -1    0    0    0  501 -0.00000000000E+00  0.00000000000E+00  0.15288542530E+03  0.15289070007E+03  0.12700000000E+01 0. -1.
          4   -1    0    0  501    0  0.00000000000E+00 -0.00000000000E+00 -0.25529757977E+02  0.25561327086E+02  0.12700000000E+01 0. -1.
         25    2    1    2    0    0  0.00000000000E+00  0.00000000000E+00  0.12735566732E+03  0.17845202716E+03  0.12500263996E+03 0.  0.
    9000005    1    3    3    0    0 -0.54289914611E+02  0.51928449015E+01  0.20117634161E+02  0.58138452601E+02  0.10000000000E+01 0.  0.
    9000005    1    3    3    0    0  0.54289914611E+02 -0.51928449015E+01  0.10723803316E+03  0.12031357456E+03  0.10000000000E+01 0.  0.
<mgrwt>
<rscale>  0 0.12500264E+03</rscale>
<asrwt>0</asrwt>
<pdfrwt beam="2">  1        4 0.39304891E-02 0.12500264E+03</pdfrwt>
<pdfrwt beam="1">  1       -4 0.23523669E-01 0.12500264E+03</pdfrwt>
<totfact> 0.93890828E+03</totfact>
</mgrwt>
</event>
<event>
 5    1  0.3340698E-002  0.1250001E+03  0.7818608E-02  0.1235069E+00
         -4   -1    0    0    0  501 -0.00000000000E+00  0.00000000000E+00  0.29640174480E+01  0.32246394266E+01  0.12700000000E+01 0.  1.
          4   -1    0    0  501    0  0.00000000000E+00 -0.00000000000E+00 -0.12621320711E+04  0.12621327101E+04  0.12700000000E+01 0.  1.
         25    2    1    2    0    0  0.00000000000E+00  0.00000000000E+00 -0.12591680537E+04  0.12653573495E+04  0.12500013823E+03 0.  0.
    9000005    1    3    3    0    0  0.15293064765E+02  0.22295427932E+02 -0.11999141637E+04  0.12002191318E+04  0.10000000000E+01 0.  0.
    9000005    1    3    3    0    0 -0.15293064765E+02 -0.22295427932E+02 -0.59253889910E+02  0.65138217707E+02  0.10000000000E+01 0.  0.
<mgrwt>
<rscale>  0 0.12500014E+03</rscale>
<asrwt>0</asrwt>
<pdfrwt beam="2">  1        4 0.19419385E+00 0.12500014E+03</pdfrwt>
<pdfrwt beam="1">  1       -4 0.47610069E-03 0.12500014E+03</pdfrwt>
<totfact> 0.23061191E+03</totfact>
</mgrwt>
</event>
<event>
 5    1  0.3340698E-002  0.1250131E+03  0.7818608E-02  0.1235049E+00
          4   -1    0    0  501    0  0.00000000000E+00  0.00000000000E+00  0.23105015704E+02  0.23139893057E+02  0.12700000000E+01 0. -1.
         -4   -1    0    0    0  501 -0.00000000000E+00 -0.00000000000E+00 -0.16893562065E+03  0.16894039429E+03  0.12700000000E+01 0. -1.
         25    2    1    2    0    0  0.00000000000E+00  0.00000000000E+00 -0.14583060494E+03  0.19208028735E+03  0.12501308511E+03 0.  0.
    9000005    1    3    3    0    0  0.29624069779E+02  0.38176191376E+02 -0.12014387836E+02  0.49803138589E+02  0.10000000000E+01 0.  0.
    9000005    1    3    3    0    0 -0.29624069779E+02 -0.38176191376E+02 -0.13381621711E+03  0.14227714876E+03  0.10000000000E+01 0.  0.
<mgrwt>
<rscale>  0 0.12501309E+03</rscale>
<asrwt>0</asrwt>
<pdfrwt beam="1">  1        4 0.35576680E-02 0.12501309E+03</pdfrwt>
<pdfrwt beam="2">  1       -4 0.25993145E-01 0.12501309E+03</pdfrwt>
<totfact> 0.91459802E+03</totfact>
</mgrwt>
</event>
<event>
 5    1  0.3340698E-002  0.1249994E+03  0.7818608E-02  0.1235070E+00
         -4   -1    0    0    0  501 -0.00000000000E+00  0.00000000000E+00  0.15742095627E+03  0.15742607908E+03  0.12700000000E+01 0. -1.
          4   -1    0    0  501    0  0.00000000000E+00 -0.00000000000E+00 -0.24792037128E+02  0.24824544406E+02  0.12700000000E+01 0. -1.
         25    2    1    2    0    0  0.00000000000E+00  0.00000000000E+00  0.13262891914E+03  0.18225062348E+03  0.12499943827E+03 0.  0.
    9000005    1    3    3    0    0 -0.60447164364E+02 -0.77662009426E+01  0.86466760209E+02  0.10579070932E+03  0.10000000000E+01 0.  0.
    9000005    1    3    3    0    0  0.60447164364E+02  0.77662009426E+01  0.46162158934E+02  0.76459914165E+02  0.10000000000E+01 0.  0.
<mgrwt>
<rscale>  0 0.12499944E+03</rscale>
<asrwt>0</asrwt>
<pdfrwt beam="2">  1        4 0.38170543E-02 0.12499944E+03</pdfrwt>
<pdfrwt beam="1">  1       -4 0.24221503E-01 0.12499944E+03</pdfrwt>
<totfact> 0.93214619E+03</totfact>
</mgrwt>
</event>
<event>
 5    1  0.3340698E-002  0.1249985E+03  0.7818608E-02  0.1235072E+00
         -4   -1    0    0    0  501 -0.00000000000E+00  0.00000000000E+00  0.19614477972E+03  0.19614889118E+03  0.12700000000E+01 0. -1.
          4   -1    0    0  501    0  0.00000000000E+00 -0.00000000000E+00 -0.19890101616E+02  0.19930605668E+02  0.12700000000E+01 0. -1.
         25    2    1    2    0    0  0.00000000000E+00  0.00000000000E+00  0.17625467810E+03  0.21607949685E+03  0.12499854961E+03 0.  0.
    9000005    1    3    3    0    0 -0.18787553430E+02  0.14237805831E+02 -0.11917978401E+02  0.26433416123E+02  0.10000000000E+01 0.  0.
    9000005    1    3    3    0    0  0.18787553430E+02 -0.14237805831E+02  0.18817265650E+03  0.18964608073E+03  0.10000000000E+01 0.  0.
<mgrwt>
<rscale>  0 0.12499855E+03</rscale>
<asrwt>0</asrwt>
<pdfrwt beam="2">  1        4 0.30634476E-02 0.12499855E+03</pdfrwt>
<pdfrwt beam="1">  1       -4 0.30179551E-01 0.12499855E+03</pdfrwt>
<totfact> 0.87495380E+03</totfact>
</mgrwt>
</event>
<event>
 5    1  0.3340698E-002  0.1250241E+03  0.7818608E-02  0.1235032E+00
          4   -1    0    0  501    0  0.00000000000E+00  0.00000000000E+00  0.10196061331E+02  0.10274851175E+02  0.12700000000E+01 0. -1.
         -4   -1    0    0    0  501 -0.00000000000E+00 -0.00000000000E+00 -0.38170623409E+03  0.38170834683E+03  0.12700000000E+01 0. -1.
         25    2    1    2    0    0  0.00000000000E+00  0.00000000000E+00 -0.37151017276E+03  0.39198319801E+03  0.12502407392E+03 0.  0.
    9000005    1    3    3    0    0 -0.56450082093E+02  0.18631026870E+02 -0.12520086492E+03  0.13860008480E+03  0.10000000000E+01 0.  0.
    9000005    1    3    3    0    0  0.56450082093E+02 -0.18631026870E+02 -0.24630930784E+03  0.25338311321E+03  0.10000000000E+01 0.  0.
<mgrwt>
<rscale>  0 0.12502407E+03</rscale>
<asrwt>0</asrwt>
<pdfrwt beam="1">  1        4 0.15748484E-02 0.12502407E+03</pdfrwt>
<pdfrwt beam="2">  1       -4 0.58730248E-01 0.12502407E+03</pdfrwt>
<totfact> 0.65305312E+03</totfact>
</mgrwt>
</event>
<event>
 5    1  0.3340698E-002  0.1250007E+03  0.7818608E-02  0.1235068E+00
         -4   -1    0    0    0  501 -0.00000000000E+00  0.00000000000E+00  0.15909948277E+03  0.15910455153E+03  0.12700000000E+01 0.  1.
          4   -1    0    0  501    0  0.00000000000E+00 -0.00000000000E+00 -0.24530627341E+02  0.24563480571E+02  0.12700000000E+01 0.  1.
         25    2    1    2    0    0  0.00000000000E+00  0.00000000000E+00  0.13456885543E+03  0.18366803210E+03  0.12500067666E+03 0.  0.
    9000005    1    3    3    0    0  0.52128669622E+02  0.13561131745E+02  0.11384152113E+03  0.12594520405E+03  0.10000000000E+01 0.  0.
    9000005    1    3    3    0    0 -0.52128669622E+02 -0.13561131745E+02  0.20727334300E+02  0.57722828049E+02  0.10000000000E+01 0.  0.
<mgrwt>
<rscale>  0 0.12500068E+03</rscale>
<asrwt>0</asrwt>
<pdfrwt beam="2">  1        4 0.37768598E-02 0.12500068E+03</pdfrwt>
<pdfrwt beam="1">  1       -4 0.24479761E-01 0.12500068E+03</pdfrwt>
<totfact> 0.92959471E+03</totfact>
</mgrwt>
</event>
<event>
 5    1  0.3340698E-002  0.1250067E+03  0.7818608E-02  0.1235059E+00
         -4   -1    0    0    0  501 -0.00000000000E+00  0.00000000000E+00  0.16936566748E+02  0.16984115909E+02  0.12700000000E+01 0. -1.
          4   -1    0    0  501    0  0.00000000000E+00 -0.00000000000E+00 -0.23029197296E+03  0.23029547480E+03  0.12700000000E+01 0. -1.
         25    2    1    2    0    0  0.00000000000E+00  0.00000000000E+00 -0.21335540622E+03  0.24727959071E+03  0.12500666629E+03 0.  0.
    9000005    1    3    3    0    0 -0.30042799241E+02 -0.36600516629E+02 -0.18735779393E+03  0.19325141798E+03  0.10000000000E+01 0.  0.
    9000005    1    3    3    0    0  0.30042799241E+02  0.36600516629E+02 -0.25997612285E+02  0.54028172728E+02  0.10000000000E+01 0.  0.
<mgrwt>
<rscale>  0 0.12500667E+03</rscale>
<asrwt>0</asrwt>
<pdfrwt beam="2">  1        4 0.35433459E-01 0.12500667E+03</pdfrwt>
<pdfrwt beam="1">  1       -4 0.26095528E-02 0.12500667E+03</pdfrwt>
<totfact> 0.82712723E+03</totfact>
</mgrwt>
</event>
<event>
 5    1  0.3340698E-002  0.1249987E+03  0.7818608E-02  0.1235071E+00
          4   -1    0    0  501    0  0.00000000000E+00  0.00000000000E+00  0.14920903949E+02  0.14974854746E+02  0.12700000000E+01 0. -1.
         -4   -1    0    0    0  501 -0.00000000000E+00 -0.00000000000E+00 -0.26126364081E+03  0.26126672752E+03  0.12700000000E+01 0. -1.
         25    2    1    2    0    0  0.00000000000E+00  0.00000000000E+00 -0.24634273686E+03  0.27624158227E+03  0.12499867107E+03 0.  0.
    9000005    1    3    3    0    0 -0.15430809719E+02  0.37577672184E+02 -0.22811463570E+03  0.23170558551E+03  0.10000000000E+01 0.  0.
    9000005    1    3    3    0    0  0.15430809719E+02 -0.37577672184E+02 -0.18228101160E+02  0.44535996758E+02  0.10000000000E+01 0.  0.
<mgrwt>
<rscale>  0 0.12499867E+03</rscale>
<asrwt>0</asrwt>
<pdfrwt beam="1">  1        4 0.22999114E-02 0.12499867E+03</pdfrwt>
<pdfrwt beam="2">  1       -4 0.40198790E-01 0.12499867E+03</pdfrwt>
<totfact> 0.78681424E+03</totfact>
</mgrwt>
</event>
<event>
 5    1  0.3340698E-002  0.1249936E+03  0.7818608E-02  0.1235079E+00
         -4   -1    0    0    0  501 -0.00000000000E+00  0.00000000000E+00  0.14019043441E+03  0.14019618683E+03  0.12700000000E+01 0. -1.
          4   -1    0    0  501    0  0.00000000000E+00 -0.00000000000E+00 -0.27840247354E+02  0.27869199356E+02  0.12700000000E+01 0. -1.
         25    2    1    2    0    0  0.00000000000E+00  0.00000000000E+00  0.11235018706E+03  0.16806538619E+03  0.12499363784E+03 0.  0.
    9000005    1    3    3    0    0 -0.11052479473E+02  0.35546829629E+02  0.12366123892E+03  0.12914656949E+03  0.10000000000E+01 0.  0.
    9000005    1    3    3    0    0  0.11052479473E+02 -0.35546829629E+02 -0.11311051858E+02  0.38918816700E+02  0.10000000000E+01 0.  0.
<mgrwt>
<rscale>  0 0.12499364E+03</rscale>
<asrwt>0</asrwt>
<pdfrwt beam="2">  1        4 0.42857846E-02 0.12499364E+03</pdfrwt>
<pdfrwt beam="1">  1       -4 0.21570429E-01 0.12499364E+03</pdfrwt>
<totfact> 0.95823676E+03</totfact>
</mgrwt>
</event>
<event>
 5    1  0.3340698E-002  0.1250030E+03  0.7818608E-02  0.1235065E+00
          4   -1    0    0  501    0  0.00000000000E+00  0.00000000000E+00  0.56296849767E+01  0.57711569843E+01  0.12700000000E+01 0. -1.
         -4   -1    0    0    0  501 -0.00000000000E+00 -0.00000000000E+00 -0.68514729318E+03  0.68514847023E+03  0.12700000000E+01 0. -1.
         25    2    1    2    0    0  0.00000000000E+00  0.00000000000E+00 -0.67951760821E+03  0.69091962721E+03  0.12500300558E+03 0.  0.
    9000005    1    3    3    0    0  0.30093516497E+02  0.50545519686E+02 -0.45635160509E+03  0.46012852200E+03  0.10000000000E+01 0.  0.
    9000005    1    3    3    0    0 -0.30093516497E+02 -0.50545519686E+02 -0.22316600312E+03  0.23079110521E+03  0.10000000000E+01 0.  0.
<mgrwt>
<rscale>  0 0.12500301E+03</rscale>
<asrwt>0</asrwt>
<pdfrwt beam="1">  1        4 0.87707893E-03 0.12500301E+03</pdfrwt>
<pdfrwt beam="2">  1       -4 0.10541818E+00 0.12500301E+03</pdfrwt>
<totfact> 0.43567540E+03</totfact>
</mgrwt>
</event>
<event>
 5    1  0.3340698E-002  0.1249962E+03  0.7818608E-02  0.1235075E+00
         -4   -1    0    0    0  501 -0.00000000000E+00  0.00000000000E+00  0.24469401686E+03  0.24469731258E+03  0.12700000000E+01 0.  1.
          4   -1    0    0  501    0  0.00000000000E+00 -0.00000000000E+00 -0.15934169773E+02  0.15984701009E+02  0.12700000000E+01 0.  1.
         25    2    1    2    0    0  0.00000000000E+00  0.00000000000E+00  0.22875984708E+03  0.26068201359E+03  0.12499617823E+03 0.  0.
    9000005    1    3    3    0    0 -0.13709016855E+02  0.33060855679E+02  0.22121176186E+03  0.22409060870E+03  0.10000000000E+01 0.  0.
    9000005    1    3    3    0    0  0.13709016855E+02 -0.33060855679E+02  0.75480852198E+01  0.36591404891E+02  0.10000000000E+01 0.  0.
<mgrwt>
<rscale>  0 0.12499618E+03</rscale>
<asrwt>0</asrwt>
<pdfrwt beam="2">  1        4 0.24555513E-02 0.12499618E+03</pdfrwt>
<pdfrwt beam="1">  1       -4 0.37649373E-01 0.12499618E+03</pdfrwt>
<totfact> 0.80817319E+03</totfact>
</mgrwt>
</event>
<event>
 5    1  0.3340698E-002  0.1249952E+03  0.7818608E-02  0.1235077E+00
          4   -1    0    0  501    0  0.00000000000E+00  0.00000000000E+00  0.51593674418E+01  0.53133767417E+01  0.12700000000E+01 0.  1.
         -4   -1    0    0    0  501 -0.00000000000E+00 -0.00000000000E+00 -0.74577236395E+03  0.74577344531E+03  0.12700000000E+01 0.  1.
         25    2    1    2    0    0  0.00000000000E+00  0.00000000000E+00 -0.74061299651E+03  0.75108682206E+03  0.12499521457E+03 0.  0.
    9000005    1    3    3    0    0  0.35155412438E+02  0.49678303135E+02 -0.28509111428E+03  0.29151634649E+03  0.10000000000E+01 0.  0.
    9000005    1    3    3    0    0 -0.35155412438E+02 -0.49678303135E+02 -0.45552188223E+03  0.45957047557E+03  0.10000000000E+01 0.  0.
<mgrwt>
<rscale>  0 0.12499521E+03</rscale>
<asrwt>0</asrwt>
<pdfrwt beam="1">  1        4 0.80567948E-03 0.12499521E+03</pdfrwt>
<pdfrwt beam="2">  1       -4 0.11474606E+00 0.12499521E+03</pdfrwt>
<totfact> 0.40526471E+03</totfact>
</mgrwt>
</event>
<event>
 5    1  0.3340698E-002  0.1249965E+03  0.7818608E-02  0.1235075E+00
          4   -1    0    0  501    0  0.00000000000E+00  0.00000000000E+00  0.13105896102E+03  0.13106511421E+03  0.12700000000E+01 0.  1.
         -4   -1    0    0    0  501 -0.00000000000E+00 -0.00000000000E+00 -0.29783218931E+02  0.29810283962E+02  0.12700000000E+01 0.  1.
         25    2    1    2    0    0  0.00000000000E+00  0.00000000000E+00  0.10127574209E+03  0.16087539817E+03  0.12499647116E+03 0.  0.
    9000005    1    3    3    0    0  0.50392902285E+02 -0.29676160737E+02  0.78979356039E+02  0.98279488181E+02  0.10000000000E+01 0.  0.
    9000005    1    3    3    0    0 -0.50392902285E+02  0.29676160737E+02  0.22296386047E+02  0.62595909991E+02  0.10000000000E+01 0.  0.
<mgrwt>
<rscale>  0 0.12499647E+03</rscale>
<asrwt>0</asrwt>
<pdfrwt beam="1">  1        4 0.20165472E-01 0.12499647E+03</pdfrwt>
<pdfrwt beam="2">  1       -4 0.45845890E-02 0.12499647E+03</pdfrwt>
<totfact> 0.97181988E+03</totfact>
</mgrwt>
</event>
<event>
 5    1  0.3340698E-002  0.1250023E+03  0.7818608E-02  0.1235066E+00
         -4   -1    0    0    0  501 -0.00000000000E+00  0.00000000000E+00  0.27952730768E+02  0.27981566385E+02  0.12700000000E+01 0.  1.
          4   -1    0    0  501    0  0.00000000000E+00 -0.00000000000E+00 -0.13964622498E+03  0.13965199981E+03  0.12700000000E+01 0.  1.
         25    2    1    2    0    0  0.00000000000E+00  0.00000000000E+00 -0.11169349421E+03  0.16763356619E+03  0.12500230344E+03 0.  0.
    9000005    1    3    3    0    0 -0.36460570984E+00  0.18078968643E+02 -0.13606775872E+03  0.13726768377E+03  0.10000000000E+01 0.  0.
    9000005    1    3    3    0    0  0.36460570984E+00 -0.18078968643E+02  0.24374264514E+02  0.30365882420E+02  0.10000000000E+01 0.  0.
<mgrwt>
<rscale>  0 0.12500230E+03</rscale>
<asrwt>0</asrwt>
<pdfrwt beam="2">  1        4 0.21486697E-01 0.12500230E+03</pdfrwt>
<pdfrwt beam="1">  1       -4 0.43030825E-02 0.12500230E+03</pdfrwt>
<totfact> 0.95885988E+03</totfact>
</mgrwt>
</event>
<event>
 5    1  0.3340698E-002  0.1249992E+03  0.7818608E-02  0.1235071E+00
         -4   -1    0    0    0  501 -0.00000000000E+00  0.00000000000E+00  0.15749092404E+02  0.15800215554E+02  0.12700000000E+01 0.  1.
          4   -1    0    0  501    0  0.00000000000E+00 -0.00000000000E+00 -0.24757227650E+03  0.24757553391E+03  0.12700000000E+01 0.  1.
         25    2    1    2    0    0  0.00000000000E+00  0.00000000000E+00 -0.23182318409E+03  0.26337574946E+03  0.12499918688E+03 0.  0.
    9000005    1    3    3    0    0  0.21834964567E+02  0.22164734472E+02 -0.23010269159E+03  0.23219881526E+03  0.10000000000E+01 0.  0.
    9000005    1    3    3    0    0 -0.21834964567E+02 -0.22164734472E+02 -0.17204925061E+01  0.31176934203E+02  0.10000000000E+01 0.  0.
<mgrwt>
<rscale>  0 0.12499919E+03</rscale>
<asrwt>0</asrwt>
<pdfrwt beam="2">  1        4 0.38092223E-01 0.12499919E+03</pdfrwt>
<pdfrwt beam="1">  1       -4 0.24271206E-02 0.12499919E+03</pdfrwt>
<totfact> 0.80436101E+03</totfact>
</mgrwt>
</event>
<event>
 5    1  0.3340698E-002  0.1250008E+03  0.7818608E-02  0.1235068E+00
          4   -1    0    0  501    0  0.00000000000E+00  0.00000000000E+00  0.20122524419E+02  0.20162561568E+02  0.12700000000E+01 0.  1.
         -4   -1    0    0    0  501 -0.00000000000E+00 -0.00000000000E+00 -0.19389071975E+03  0.19389487901E+03  0.12700000000E+01 0.  1.
         25    2    1    2    0    0  0.00000000000E+00  0.00000000000E+00 -0.17376819533E+03  0.21405744058E+03  0.12500080863E+03 0.  0.
    9000005    1    3    3    0    0 -0.28824502939E+02  0.55146651148E+02 -0.77002893688E+02  0.99007326692E+02  0.10000000000E+01 0.  0.
    9000005    1    3    3    0    0  0.28824502939E+02 -0.55146651148E+02 -0.96765301647E+02  0.11505011389E+03  0.10000000000E+01 0.  0.
<mgrwt>
<rscale>  0 0.12500081E+03</rscale>
<asrwt>0</asrwt>
<pdfrwt beam="1">  1        4 0.30991728E-02 0.12500081E+03</pdfrwt>
<pdfrwt beam="2">  1       -4 0.29832740E-01 0.12500081E+03</pdfrwt>
<totfact> 0.87815919E+03</totfact>
</mgrwt>
</event>
<event>
 5    1  0.3340698E-002  0.1250013E+03  0.7818608E-02  0.1235067E+00
          4   -1    0    0  501    0  0.00000000000E+00  0.00000000000E+00  0.10515161396E+03  0.10515928308E+03  0.12700000000E+01 0. -1.
         -4   -1    0    0    0  501 -0.00000000000E+00 -0.00000000000E+00 -0.37129610539E+02  0.37151324051E+02  0.12700000000E+01 0. -1.
         25    2    1    2    0    0  0.00000000000E+00  0.00000000000E+00  0.68022003417E+02  0.14231060713E+03  0.12500126380E+03 0.  0.
    9000005    1    3    3    0    0  0.35479321864E+02  0.20500011404E+02  0.87728322549E+02  0.96831251798E+02  0.10000000000E+01 0.  0.
    9000005    1    3    3    0    0 -0.35479321864E+02 -0.20500011404E+02 -0.19706319132E+02  0.45479355330E+02  0.10000000000E+01 0.  0.
<mgrwt>
<rscale>  0 0.12500126E+03</rscale>
<asrwt>0</asrwt>
<pdfrwt beam="1">  1        4 0.16179431E-01 0.12500126E+03</pdfrwt>
<pdfrwt beam="2">  1       -4 0.57145080E-02 0.12500126E+03</pdfrwt>
<totfact> 0.10085633E+04</totfact>
</mgrwt>
</event>
<event>
 5    1  0.3340698E-002  0.1250052E+03  0.7818608E-02  0.1235061E+00
          4   -1    0    0  501    0  0.00000000000E+00  0.00000000000E+00  0.17894566998E+03  0.17895017660E+03  0.12700000000E+01 0. -1.
         -4   -1    0    0    0  501 -0.00000000000E+00 -0.00000000000E+00 -0.21807799374E+02  0.21844747963E+02  0.12700000000E+01 0. -1.
         25    2    1    2    0    0  0.00000000000E+00  0.00000000000E+00  0.15713787061E+03  0.20079492456E+03  0.12500516530E+03 0.  0.
    9000005    1    3    3    0    0 -0.17615803030E+02 -0.26680435133E+02  0.16482269319E+03  0.16789783300E+03  0.10000000000E+01 0.  0.
    9000005    1    3    3    0    0  0.17615803030E+02  0.26680435133E+02 -0.76848225824E+01  0.32897091564E+02  0.10000000000E+01 0.  0.
<mgrwt>
<rscale>  0 0.12500517E+03</rscale>
<asrwt>0</asrwt>
<pdfrwt beam="1">  1        4 0.27533293E-01 0.12500517E+03</pdfrwt>
<pdfrwt beam="2">  1       -4 0.33582347E-02 0.12500517E+03</pdfrwt>
<totfact> 0.89991206E+03</totfact>
</mgrwt>
</event>
<event>
 5    1  0.3340698E-002  0.1249997E+03  0.7818608E-02  0.1235070E+00
          4   -1    0    0  501    0  0.00000000000E+00  0.00000000000E+00  0.16738362437E+03  0.16738844227E+03  0.12700000000E+01 0.  1.
         -4   -1    0    0    0  501 -0.00000000000E+00 -0.00000000000E+00 -0.23314554217E+02  0.23349118578E+02  0.12700000000E+01 0.  1.
         25    2    1    2    0    0  0.00000000000E+00  0.00000000000E+00  0.14406907015E+03  0.19073756085E+03  0.12499968058E+03 0.  0.
    9000005    1    3    3    0    0 -0.44389966297E+02  0.52229179663E+01  0.13867799742E+03  0.14570633119E+03  0.10000000000E+01 0.  0.
    9000005    1    3    3    0    0  0.44389966297E+02 -0.52229179663E+01  0.53910727340E+01  0.45031229666E+02  0.10000000000E+01 0.  0.
<mgrwt>
<rscale>  0 0.12499968E+03</rscale>
<asrwt>0</asrwt>
<pdfrwt beam="1">  1        4 0.25754358E-01 0.12499968E+03</pdfrwt>
<pdfrwt beam="2">  1       -4 0.35898837E-02 0.12499968E+03</pdfrwt>
<totfact> 0.91719794E+03</totfact>
</mgrwt>
</event>
<event>
 5    1  0.3340698E-002  0.1250062E+03  0.7818608E-02  0.1235060E+00
         -4   -1    0    0    0  501 -0.00000000000E+00  0.00000000000E+00  0.91345605400E+03  0.91345693686E+03  0.12700000000E+01 0. -1.
          4   -1    0    0  501    0  0.00000000000E+00 -0.00000000000E+00 -0.41815754040E+01  0.43701799573E+01  0.12700000000E+01 0. -1.
         25    2    1    2    0    0  0.00000000000E+00  0.00000000000E+00  0.90927447860E+03  0.91782711681E+03  0.12500615557E+03 0.  0.
    9000005    1    3    3    0    0 -0.32489958394E+02 -0.37469830665E+02  0.17543364222E+03  0.18231167936E+03  0.10000000000E+01 0.  0.
    9000005    1    3    3    0    0  0.32489958394E+02  0.37469830665E+02  0.73384083637E+03  0.73551543746E+03  0.10000000000E+01 0.  0.
<mgrwt>
<rscale>  0 0.12500616E+03</rscale>
<asrwt>0</asrwt>
<pdfrwt beam="2">  1        4 0.65789589E-03 0.12500616E+03</pdfrwt>
<pdfrwt beam="1">  1       -4 0.14054614E+00 0.12500616E+03</pdfrwt>
<totfact> 0.33481973E+03</totfact>
</mgrwt>
</event>
<event>
 5    1  0.3340698E-002  0.1250044E+03  0.7818608E-02  0.1235062E+00
         -4   -1    0    0    0  501 -0.00000000000E+00  0.00000000000E+00  0.11673933632E+03  0.11674624424E+03  0.12700000000E+01 0. -1.
          4   -1    0    0  501    0  0.00000000000E+00 -0.00000000000E+00 -0.33443716842E+02  0.33467821802E+02  0.12700000000E+01 0. -1.
         25    2    1    2    0    0  0.00000000000E+00  0.00000000000E+00  0.83295619478E+02  0.15021406604E+03  0.12500442157E+03 0.  0.
    9000005    1    3    3    0    0  0.31755545540E+02  0.41863942328E+02  0.82301249896E+02  0.97649885173E+02  0.10000000000E+01 0.  0.
    9000005    1    3    3    0    0 -0.31755545540E+02 -0.41863942328E+02  0.99436958163E+00  0.52564180871E+02  0.10000000000E+01 0.  0.
<mgrwt>
<rscale>  0 0.12500442E+03</rscale>
<asrwt>0</asrwt>
<pdfrwt beam="2">  1        4 0.51475729E-02 0.12500442E+03</pdfrwt>
<pdfrwt beam="1">  1       -4 0.17962283E-01 0.12500442E+03</pdfrwt>
<totfact> 0.99251168E+03</totfact>
</mgrwt>
</event>
<event>
 5    1  0.3340698E-002  0.1250014E+03  0.7818608E-02  0.1235067E+00
          4   -1    0    0  501    0  0.00000000000E+00  0.00000000000E+00  0.28471099159E+03  0.28471382410E+03  0.12700000000E+01 0.  1.
         -4   -1    0    0    0  501 -0.00000000000E+00 -0.00000000000E+00 -0.13688055502E+02  0.13746845581E+02  0.12700000000E+01 0.  1.
         25    2    1    2    0    0  0.00000000000E+00  0.00000000000E+00  0.27102293609E+03  0.29846066968E+03  0.12500135783E+03 0.  0.
    9000005    1    3    3    0    0 -0.45022190309E+02  0.38850272432E+02  0.18137650856E+03  0.19087896465E+03  0.10000000000E+01 0.  0.
    9000005    1    3    3    0    0  0.45022190309E+02 -0.38850272432E+02  0.89646427531E+02  0.10758170503E+03  0.10000000000E+01 0.  0.
<mgrwt>
<rscale>  0 0.12500136E+03</rscale>
<asrwt>0</asrwt>
<pdfrwt beam="1">  1        4 0.43806432E-01 0.12500136E+03</pdfrwt>
<pdfrwt beam="2">  1       -4 0.21105949E-02 0.12500136E+03</pdfrwt>
<totfact> 0.75790049E+03</totfact>
</mgrwt>
</event>
<event>
 5    1  0.3340698E-002  0.1249988E+03  0.7818608E-02  0.1235071E+00
          4   -1    0    0  501    0  0.00000000000E+00  0.00000000000E+00  0.69459694672E+01  0.70611183136E+01  0.12700000000E+01 0. -1.
         -4   -1    0    0    0  501 -0.00000000000E+00 -0.00000000000E+00 -0.55762687463E+03  0.55762832084E+03  0.12700000000E+01 0. -1.
         25    2    1    2    0    0  0.00000000000E+00  0.00000000000E+00 -0.55068090516E+03  0.56468943916E+03  0.12499881354E+03 0.  0.
    9000005    1    3    3    0    0  0.16056906585E+02 -0.31819574031E+02 -0.50723101119E+03  0.50848265285E+03  0.10000000000E+01 0.  0.
    9000005    1    3    3    0    0 -0.16056906585E+02  0.31819574031E+02 -0.43449893974E+02  0.56206786307E+02  0.10000000000E+01 0.  0.
<mgrwt>
<rscale>  0 0.12499881E+03</rscale>
<asrwt>0</asrwt>
<pdfrwt beam="1">  1        4 0.10775800E-02 0.12499881E+03</pdfrwt>
<pdfrwt beam="2">  1       -4 0.85797684E-01 0.12499881E+03</pdfrwt>
<totfact> 0.51176518E+03</totfact>
</mgrwt>
</event>
<event>
 5    1  0.3340698E-002  0.1250020E+03  0.7818608E-02  0.1235066E+00
         -4   -1    0    0    0  501 -0.00000000000E+00  0.00000000000E+00  0.98269697634E+02  0.98277903788E+02  0.12700000000E+01 0. -1.
          4   -1    0    0  501    0  0.00000000000E+00 -0.00000000000E+00 -0.39731555065E+02  0.39751847352E+02  0.12700000000E+01 0. -1.
         25    2    1    2    0    0  0.00000000000E+00  0.00000000000E+00  0.58538142568E+02  0.13802975114E+03  0.12500199224E+03 0.  0.
    9000005    1    3    3    0    0  0.25281199442E+02  0.26953302148E+02 -0.26379200328E+02  0.45414554405E+02  0.10000000000E+01 0.  0.
    9000005    1    3    3    0    0 -0.25281199442E+02 -0.26953302148E+02  0.84917342896E+02  0.92615196735E+02  0.10000000000E+01 0.  0.
<mgrwt>
<rscale>  0 0.12500199E+03</rscale>
<asrwt>0</asrwt>
<pdfrwt beam="2">  1        4 0.61147392E-02 0.12500199E+03</pdfrwt>
<pdfrwt beam="1">  1       -4 0.15120607E-01 0.12500199E+03</pdfrwt>
<totfact> 0.10174128E+04</totfact>
</mgrwt>
</event>
<event>
 5    1  0.3340698E-002  0.1250198E+03  0.7818608E-02  0.1235038E+00
          4   -1    0    0  501    0  0.00000000000E+00  0.00000000000E+00  0.11862474769E+02  0.11930264358E+02  0.12700000000E+01 0. -1.
         -4   -1    0    0    0  501 -0.00000000000E+00 -0.00000000000E+00 -0.32839127396E+03  0.32839372971E+03  0.12700000000E+01 0. -1.
         25    2    1    2    0    0  0.00000000000E+00  0.00000000000E+00 -0.31652879920E+03  0.34032399407E+03  0.12501975932E+03 0.  0.
    9000005    1    3    3    0    0  0.40896980771E+02  0.37791351996E+02 -0.80994522176E+02  0.98294770687E+02  0.10000000000E+01 0.  0.
    9000005    1    3    3    0    0 -0.40896980771E+02 -0.37791351996E+02 -0.23553427702E+03  0.24202922339E+03  0.10000000000E+01 0.  0.
<mgrwt>
<rscale>  0 0.12501976E+03</rscale>
<asrwt>0</asrwt>
<pdfrwt beam="1">  1        4 0.18303999E-02 0.12501976E+03</pdfrwt>
<pdfrwt beam="2">  1       -4 0.50527131E-01 0.12501976E+03</pdfrwt>
<totfact> 0.70771353E+03</totfact>
</mgrwt>
</event>
<event>
 5    1  0.3340698E-002  0.1250008E+03  0.7818608E-02  0.1235068E+00
         -4   -1    0    0    0  501 -0.00000000000E+00  0.00000000000E+00  0.37263421372E+02  0.37285056958E+02  0.12700000000E+01 0. -1.
          4   -1    0    0  501    0  0.00000000000E+00 -0.00000000000E+00 -0.10477338476E+03  0.10478108156E+03  0.12700000000E+01 0. -1.
         25    2    1    2    0    0  0.00000000000E+00  0.00000000000E+00 -0.67509963385E+02  0.14206613852E+03  0.12500077023E+03 0.  0.
    9000005    1    3    3    0    0  0.60238375476E+02  0.38496692264E+01 -0.15365214434E+02  0.62294234467E+02  0.10000000000E+01 0.  0.
    9000005    1    3    3    0    0 -0.60238375476E+02 -0.38496692264E+01 -0.52144748951E+02  0.79771904054E+02  0.10000000000E+01 0.  0.
<mgrwt>
<rscale>  0 0.12500077E+03</rscale>
<asrwt>0</asrwt>
<pdfrwt beam="2">  1        4 0.16121238E-01 0.12500077E+03</pdfrwt>
<pdfrwt beam="1">  1       -4 0.57350905E-02 0.12500077E+03</pdfrwt>
<totfact> 0.10090767E+04</totfact>
</mgrwt>
</event>
<event>
 5    1  0.3340698E-002  0.1249968E+03  0.7818608E-02  0.1235074E+00
          4   -1    0    0  501    0  0.00000000000E+00  0.00000000000E+00  0.14000371227E+02  0.14057855260E+02  0.12700000000E+01 0.  1.
         -4   -1    0    0    0  501 -0.00000000000E+00 -0.00000000000E+00 -0.27836573167E+03  0.27836862874E+03  0.12700000000E+01 0.  1.
         25    2    1    2    0    0  0.00000000000E+00  0.00000000000E+00 -0.26436536044E+03  0.29242648400E+03  0.12499681894E+03 0.  0.
    9000005    1    3    3    0    0  0.38268320331E+02  0.36906856586E+02 -0.55354254601E+02  0.76757240091E+02  0.10000000000E+01 0.  0.
    9000005    1    3    3    0    0 -0.38268320331E+02 -0.36906856586E+02 -0.20901110584E+03  0.21566924391E+03  0.10000000000E+01 0.  0.
<mgrwt>
<rscale>  0 0.12499682E+03</rscale>
<asrwt>0</asrwt>
<pdfrwt beam="1">  1        4 0.21585482E-02 0.12499682E+03</pdfrwt>
<pdfrwt beam="2">  1       -4 0.42830138E-01 0.12499682E+03</pdfrwt>
<totfact> 0.76564185E+03</totfact>
</mgrwt>
</event>
<event>
 5    1  0.3340698E-002  0.1249848E+03  0.7818608E-02  0.1235093E+00
         -4   -1    0    0    0  501 -0.00000000000E+00  0.00000000000E+00  0.17935167521E+03  0.17935617162E+03  0.12700000000E+01 0. -1.
          4   -1    0    0  501    0  0.00000000000E+00 -0.00000000000E+00 -0.21751234344E+02  0.21788278856E+02  0.12700000000E+01 0. -1.
         25    2    1    2    0    0  0.00000000000E+00  0.00000000000E+00  0.15760044086E+03  0.20114445048E+03  0.12498476307E+03 0.  0.
    9000005    1    3    3    0    0  0.49579951564E+00  0.57604065728E+01  0.17892815487E+03  0.17902433552E+03  0.10000000000E+01 0.  0.
    9000005    1    3    3    0    0 -0.49579951564E+00 -0.57604065728E+01 -0.21327714011E+02  0.22120114963E+02  0.10000000000E+01 0.  0.
<mgrwt>
<rscale>  0 0.12498476E+03</rscale>
<asrwt>0</asrwt>
<pdfrwt beam="2">  1        4 0.33495391E-02 0.12498476E+03</pdfrwt>
<pdfrwt beam="1">  1       -4 0.27595762E-01 0.12498476E+03</pdfrwt>
<totfact> 0.89973513E+03</totfact>
</mgrwt>
</event>
<event>
 5    1  0.3340698E-002  0.1249983E+03  0.7818608E-02  0.1235072E+00
          4   -1    0    0  501    0  0.00000000000E+00  0.00000000000E+00  0.12378908140E+03  0.12379559594E+03  0.12700000000E+01 0.  1.
         -4   -1    0    0    0  501 -0.00000000000E+00 -0.00000000000E+00 -0.31534702286E+02  0.31560265339E+02  0.12700000000E+01 0.  1.
         25    2    1    2    0    0  0.00000000000E+00  0.00000000000E+00  0.92254379112E+02  0.15535586127E+03  0.12499829266E+03 0.  0.
    9000005    1    3    3    0    0  0.29412757195E+02 -0.24865575261E+02 -0.15035556556E+02  0.41357890176E+02  0.10000000000E+01 0.  0.
    9000005    1    3    3    0    0 -0.29412757195E+02  0.24865575261E+02  0.10728993567E+03  0.11399797110E+03  0.10000000000E+01 0.  0.
<mgrwt>
<rscale>  0 0.12499829E+03</rscale>
<asrwt>0</asrwt>
<pdfrwt beam="1">  1        4 0.19046942E-01 0.12499829E+03</pdfrwt>
<pdfrwt beam="2">  1       -4 0.48539601E-02 0.12499829E+03</pdfrwt>
<totfact> 0.98249456E+03</totfact>
</mgrwt>
</event>
<event>
 5    1  0.3340698E-002  0.1250033E+03  0.7818608E-02  0.1235064E+00
          4   -1    0    0  501    0  0.00000000000E+00  0.00000000000E+00  0.12335126706E+02  0.12400332691E+02  0.12700000000E+01 0.  1.
         -4   -1    0    0    0  501 -0.00000000000E+00 -0.00000000000E+00 -0.31579246775E+03  0.31579502147E+03  0.12700000000E+01 0.  1.
         25    2    1    2    0    0  0.00000000000E+00  0.00000000000E+00 -0.30345734104E+03  0.32819535416E+03  0.12500333060E+03 0.  0.
    9000005    1    3    3    0    0 -0.19417598438E+02  0.28258336370E+02 -0.28890612484E+03  0.29093526028E+03  0.10000000000E+01 0.  0.
    9000005    1    3    3    0    0  0.19417598438E+02 -0.28258336370E+02 -0.14551216205E+02  0.37260093888E+02  0.10000000000E+01 0.  0.
<mgrwt>
<rscale>  0 0.12500333E+03</rscale>
<asrwt>0</asrwt>
<pdfrwt beam="1">  1        4 0.19029243E-02 0.12500333E+03</pdfrwt>
<pdfrwt beam="2">  1       -4 0.48588663E-01 0.12500333E+03</pdfrwt>
<totfact> 0.72186559E+03</totfact>
</mgrwt>
</event>
<event>
 5    1  0.3340698E-002  0.1250004E+03  0.7818608E-02  0.1235069E+00
          4   -1    0    0  501    0  0.00000000000E+00  0.00000000000E+00  0.32884949219E+03  0.32885194452E+03  0.12700000000E+01 0. -1.
         -4   -1    0    0    0  501 -0.00000000000E+00 -0.00000000000E+00 -0.11842162757E+02  0.11910067958E+02  0.12700000000E+01 0. -1.
         25    2    1    2    0    0  0.00000000000E+00  0.00000000000E+00  0.31700732943E+03  0.34076201247E+03  0.12500040893E+03 0.  0.
    9000005    1    3    3    0    0  0.43588660701E+02  0.20153477453E+02  0.49489433553E+02  0.68966209325E+02  0.10000000000E+01 0.  0.
    9000005    1    3    3    0    0 -0.43588660701E+02 -0.20153477453E+02  0.26751789588E+03  0.27179580315E+03  0.10000000000E+01 0.  0.
<mgrwt>
<rscale>  0 0.12500041E+03</rscale>
<asrwt>0</asrwt>
<pdfrwt beam="1">  1        4 0.50597639E-01 0.12500041E+03</pdfrwt>
<pdfrwt beam="2">  1       -4 0.18272834E-02 0.12500041E+03</pdfrwt>
<totfact> 0.70752307E+03</totfact>
</mgrwt>
</event>
<event>
 5    1  0.3340698E-002  0.1249987E+03  0.7818608E-02  0.1235071E+00
         -4   -1    0    0    0  501 -0.00000000000E+00  0.00000000000E+00  0.90262282089E+03  0.90262371434E+03  0.12700000000E+01 0.  1.
          4   -1    0    0  501    0  0.00000000000E+00 -0.00000000000E+00 -0.42334856179E+01  0.44198756178E+01  0.12700000000E+01 0.  1.
         25    2    1    2    0    0  0.00000000000E+00  0.00000000000E+00  0.89838933527E+03  0.90704358996E+03  0.12499870541E+03 0.  0.
    9000005    1    3    3    0    0 -0.33016773279E+02 -0.33198043117E+02  0.74952223795E+03  0.75098388969E+03  0.10000000000E+01 0.  0.
    9000005    1    3    3    0    0  0.33016773279E+02  0.33198043117E+02  0.14886709732E+03  0.15605970027E+03  0.10000000000E+01 0.  0.
<mgrwt>
<rscale>  0 0.12499871E+03</rscale>
<asrwt>0</asrwt>
<pdfrwt beam="2">  1        4 0.66571142E-03 0.12499871E+03</pdfrwt>
<pdfrwt beam="1">  1       -4 0.13887956E+00 0.12499871E+03</pdfrwt>
<totfact> 0.33892576E+03</totfact>
</mgrwt>
</event>
<event>
 5    1  0.3340698E-002  0.1250064E+03  0.7818608E-02  0.1235059E+00
         -4   -1    0    0    0  501 -0.00000000000E+00  0.00000000000E+00  0.18554849605E+03  0.18555284230E+03  0.12700000000E+01 0. -1.
          4   -1    0    0  501    0  0.00000000000E+00 -0.00000000000E+00 -0.21030867366E+02  0.21069178488E+02  0.12700000000E+01 0. -1.
         25    2    1    2    0    0  0.00000000000E+00  0.00000000000E+00  0.16451762868E+03  0.20662202079E+03  0.12500643714E+03 0.  0.
    9000005    1    3    3    0    0  0.15415990510E+02 -0.71571068519E+01 -0.17145445695E+02  0.24162848549E+02  0.10000000000E+01 0.  0.
    9000005    1    3    3    0    0 -0.15415990510E+02  0.71571068519E+01  0.18166307438E+03  0.18245917224E+03  0.10000000000E+01 0.  0.
<mgrwt>
<rscale>  0 0.12500644E+03</rscale>
<asrwt>0</asrwt>
<pdfrwt beam="2">  1        4 0.32387994E-02 0.12500644E+03</pdfrwt>
<pdfrwt beam="1">  1       -4 0.28549203E-01 0.12500644E+03</pdfrwt>
<totfact> 0.89017722E+03</totfact>
</mgrwt>
</event>
<event>
 5    1  0.3340698E-002  0.1249999E+03  0.7818608E-02  0.1235069E+00
          4   -1    0    0  501    0  0.00000000000E+00  0.00000000000E+00  0.22185176555E+02  0.22221497672E+02  0.12700000000E+01 0. -1.
         -4   -1    0    0    0  501 -0.00000000000E+00 -0.00000000000E+00 -0.17589189653E+03  0.17589648139E+03  0.12700000000E+01 0. -1.
         25    2    1    2    0    0  0.00000000000E+00  0.00000000000E+00 -0.15370671997E+03  0.19811797906E+03  0.12499991144E+03 0.  0.
    9000005    1    3    3    0    0  0.54831891366E+02 -0.26437089197E+02 -0.54450709996E+02  0.81678245665E+02  0.10000000000E+01 0.  0.
    9000005    1    3    3    0    0 -0.54831891366E+02  0.26437089197E+02 -0.99256009976E+02  0.11643973339E+03  0.10000000000E+01 0.  0.
<mgrwt>
<rscale>  0 0.12499991E+03</rscale>
<asrwt>0</asrwt>
<pdfrwt beam="1">  1        4 0.34162508E-02 0.12499991E+03</pdfrwt>
<pdfrwt beam="2">  1       -4 0.27063437E-01 0.12499991E+03</pdfrwt>
<totfact> 0.90453863E+03</totfact>
</mgrwt>
</event>
<event>
 5    1  0.3340698E-002  0.1250006E+03  0.7818608E-02  0.1235068E+00
          4   -1    0    0  501    0  0.00000000000E+00  0.00000000000E+00  0.19997104094E+02  0.20037391850E+02  0.12700000000E+01 0.  1.
         -4   -1    0    0    0  501 -0.00000000000E+00 -0.00000000000E+00 -0.19510360428E+03  0.19510773768E+03  0.12700000000E+01 0.  1.
         25    2    1    2    0    0  0.00000000000E+00  0.00000000000E+00 -0.17510650018E+03  0.21514512953E+03  0.12500056141E+03 0.  0.
    9000005    1    3    3    0    0 -0.35575795806E+01  0.55460072438E+02 -0.13674359120E+03  0.14760855578E+03  0.10000000000E+01 0.  0.
    9000005    1    3    3    0    0  0.35575795806E+01 -0.55460072438E+02 -0.38362908986E+02  0.67536573745E+02  0.10000000000E+01 0.  0.
<mgrwt>
<rscale>  0 0.12500056E+03</rscale>
<asrwt>0</asrwt>
<pdfrwt beam="1">  1        4 0.30798947E-02 0.12500056E+03</pdfrwt>
<pdfrwt beam="2">  1       -4 0.30019355E-01 0.12500056E+03</pdfrwt>
<totfact> 0.87641348E+03</totfact>
</mgrwt>
</event>
<event>
 5    1  0.3340698E-002  0.1249998E+03  0.7818608E-02  0.1235070E+00
          4   -1    0    0  501    0  0.00000000000E+00  0.00000000000E+00  0.25338727257E+01  0.28343272552E+01  0.12700000000E+01 0. -1.
         -4   -1    0    0    0  501 -0.00000000000E+00 -0.00000000000E+00 -0.14550234312E+04  0.14550239854E+04  0.12700000000E+01 0. -1.
         25    2    1    2    0    0  0.00000000000E+00  0.00000000000E+00 -0.14524895585E+04  0.14578583127E+04  0.12499976981E+03 0.  0.
    9000005    1    3    3    0    0 -0.70083997242E+01  0.21511395000E+02 -0.46849987143E+02  0.52036324590E+02  0.10000000000E+01 0.  0.
    9000005    1    3    3    0    0  0.70083997242E+01 -0.21511395000E+02 -0.14056395713E+04  0.14058219881E+04  0.10000000000E+01 0.  0.
<mgrwt>
<rscale>  0 0.12499977E+03</rscale>
<asrwt>0</asrwt>
<pdfrwt beam="1">  1        4 0.41298226E-03 0.12499977E+03</pdfrwt>
<pdfrwt beam="2">  1       -4 0.22387228E+00 0.12499977E+03</pdfrwt>
<totfact> 0.18772531E+03</totfact>
</mgrwt>
</event>
<event>
 5    1  0.3340698E-002  0.1249983E+03  0.7818608E-02  0.1235072E+00
         -4   -1    0    0    0  501 -0.00000000000E+00  0.00000000000E+00  0.53423550511E+02  0.53438643781E+02  0.12700000000E+01 0. -1.
          4   -1    0    0  501    0  0.00000000000E+00 -0.00000000000E+00 -0.73085545985E+02  0.73096579482E+02  0.12700000000E+01 0. -1.
         25    2    1    2    0    0  0.00000000000E+00  0.00000000000E+00 -0.19661995474E+02  0.12653522326E+03  0.12499827463E+03 0.  0.
    9000005    1    3    3    0    0  0.38424263274E+02  0.11235112991E+02 -0.58405273126E+02  0.70815448180E+02  0.10000000000E+01 0.  0.
    9000005    1    3    3    0    0 -0.38424263274E+02 -0.11235112991E+02  0.38743277651E+02  0.55719775083E+02  0.10000000000E+01 0.  0.
<mgrwt>
<rscale>  0 0.12499827E+03</rscale>
<asrwt>0</asrwt>
<pdfrwt beam="2">  1        4 0.11245940E-01 0.12499827E+03</pdfrwt>
<pdfrwt beam="1">  1       -4 0.82210175E-02 0.12499827E+03</pdfrwt>
<totfact> 0.10419666E+04</totfact>
</mgrwt>
</event>
<event>
 5    1  0.3340698E-002  0.1250041E+03  0.7818608E-02  0.1235063E+00
         -4   -1    0    0    0  501 -0.00000000000E+00  0.00000000000E+00  0.92786564976E+01  0.93651677188E+01  0.12700000000E+01 0.  1.
          4   -1    0    0  501    0  0.00000000000E+00 -0.00000000000E+00 -0.41897963737E+03  0.41898156217E+03  0.12700000000E+01 0.  1.
         25    2    1    2    0    0  0.00000000000E+00  0.00000000000E+00 -0.40970098088E+03  0.42834672988E+03  0.12500410902E+03 0.  0.
    9000005    1    3    3    0    0  0.30377850256E+01  0.43255905839E+02 -0.35905806033E+03  0.36166834561E+03  0.10000000000E+01 0.  0.
    9000005    1    3    3    0    0 -0.30377850256E+01 -0.43255905839E+02 -0.50642920543E+02  0.66678384271E+02  0.10000000000E+01 0.  0.
<mgrwt>
<rscale>  0 0.12500411E+03</rscale>
<asrwt>0</asrwt>
<pdfrwt beam="2">  1        4 0.64465194E-01 0.12500411E+03</pdfrwt>
<pdfrwt beam="1">  1       -4 0.14342887E-02 0.12500411E+03</pdfrwt>
<totfact> 0.61880536E+03</totfact>
</mgrwt>
</event>
<event>
 5    1  0.3340698E-002  0.1249963E+03  0.7818608E-02  0.1235075E+00
          4   -1    0    0  501    0  0.00000000000E+00  0.00000000000E+00  0.18830356293E+02  0.18873134825E+02  0.12700000000E+01 0.  1.
         -4   -1    0    0    0  501 -0.00000000000E+00 -0.00000000000E+00 -0.20715185429E+03  0.20715574729E+03  0.12700000000E+01 0.  1.
         25    2    1    2    0    0  0.00000000000E+00  0.00000000000E+00 -0.18832149799E+03  0.22602888211E+03  0.12499627572E+03 0.  0.
    9000005    1    3    3    0    0  0.74004080669E+01  0.33513999930E+02  0.27022076103E+00  0.34336966234E+02  0.10000000000E+01 0.  0.
    9000005    1    3    3    0    0 -0.74004080669E+01 -0.33513999930E+02 -0.18859171875E+03  0.19169191588E+03  0.10000000000E+01 0.  0.
<mgrwt>
<rscale>  0 0.12499628E+03</rscale>
<asrwt>0</asrwt>
<pdfrwt beam="1">  1        4 0.29005682E-02 0.12499628E+03</pdfrwt>
<pdfrwt beam="2">  1       -4 0.31873105E-01 0.12499628E+03</pdfrwt>
<totfact> 0.85930263E+03</totfact>
</mgrwt>
</event>
<event>
 5    1  0.3340698E-002  0.1250015E+03  0.7818608E-02  0.1235067E+00
          4   -1    0    0  501    0  0.00000000000E+00  0.00000000000E+00  0.49113821803E+01  0.50729256767E+01  0.12700000000E+01 0. -1.
         -4   -1    0    0    0  501 -0.00000000000E+00 -0.00000000000E+00 -0.78233436520E+03  0.78233539603E+03  0.12700000000E+01 0. -1.
         25    2    1    2    0    0  0.00000000000E+00  0.00000000000E+00 -0.77742298302E+03  0.78740832170E+03  0.12500148222E+03 0.  0.
    9000005    1    3    3    0    0 -0.51655091686E+02 -0.34780468722E+02 -0.35573046180E+03  0.36114137253E+03  0.10000000000E+01 0.  0.
    9000005    1    3    3    0    0  0.51655091686E+02  0.34780468722E+02 -0.42169252122E+03  0.42626694917E+03  0.10000000000E+01 0.  0.
<mgrwt>
<rscale>  0 0.12500148E+03</rscale>
<asrwt>0</asrwt>
<pdfrwt beam="1">  1        4 0.76810360E-03 0.12500148E+03</pdfrwt>
<pdfrwt beam="2">  1       -4 0.12037154E+00 0.12500148E+03</pdfrwt>
<totfact> 0.38831843E+03</totfact>
</mgrwt>
</event>
<event>
 5    1  0.3340698E-002  0.1250066E+03  0.7818608E-02  0.1235059E+00
         -4   -1    0    0    0  501 -0.00000000000E+00  0.00000000000E+00  0.14967914026E+04  0.14967919414E+04  0.12700000000E+01 0. -1.
          4   -1    0    0  501    0  0.00000000000E+00 -0.00000000000E+00 -0.24549604106E+01  0.27640062622E+01  0.12700000000E+01 0. -1.
         25    2    1    2    0    0  0.00000000000E+00  0.00000000000E+00  0.14943364422E+04  0.14995559477E+04  0.12500655051E+03 0.  0.
    9000005    1    3    3    0    0 -0.33018347674E+02 -0.31358498359E+02  0.23371175618E+03  0.23810869719E+03  0.10000000000E+01 0.  0.
    9000005    1    3    3    0    0  0.33018347674E+02  0.31358498359E+02  0.12606246860E+04  0.12614472505E+04  0.10000000000E+01 0.  0.
<mgrwt>
<rscale>  0 0.12500655E+03</rscale>
<asrwt>0</asrwt>
<pdfrwt beam="2">  1        4 0.40149949E-03 0.12500655E+03</pdfrwt>
<pdfrwt beam="1">  1       -4 0.23029995E+00 0.12500655E+03</pdfrwt>
<totfact> 0.17936537E+03</totfact>
</mgrwt>
</event>
<event>
 5    1  0.3340698E-002  0.1250025E+03  0.7818608E-02  0.1235065E+00
          4   -1    0    0  501    0  0.00000000000E+00  0.00000000000E+00  0.10975985191E+03  0.10976719906E+03  0.12700000000E+01 0.  1.
         -4   -1    0    0    0  501 -0.00000000000E+00 -0.00000000000E+00 -0.35570595957E+02  0.35593260552E+02  0.12700000000E+01 0.  1.
         25    2    1    2    0    0  0.00000000000E+00  0.00000000000E+00  0.74189255948E+02  0.14536045962E+03  0.12500247006E+03 0.  0.
    9000005    1    3    3    0    0  0.16771585909E+02 -0.59823248525E+02  0.44921053897E+02  0.76674691008E+02  0.10000000000E+01 0.  0.
    9000005    1    3    3    0    0 -0.16771585909E+02  0.59823248525E+02  0.29268202051E+02  0.68685768608E+02  0.10000000000E+01 0.  0.
<mgrwt>
<rscale>  0 0.12500247E+03</rscale>
<asrwt>0</asrwt>
<pdfrwt beam="1">  1        4 0.16888439E-01 0.12500247E+03</pdfrwt>
<pdfrwt beam="2">  1       -4 0.54747081E-02 0.12500247E+03</pdfrwt>
<totfact> 0.10023112E+04</totfact>
</mgrwt>
</event>
<event>
 5    1  0.3340698E-002  0.1249817E+03  0.7818608E-02  0.1235098E+00
         -4   -1    0    0    0  501 -0.00000000000E+00  0.00000000000E+00  0.14883702003E+02  0.14937787162E+02  0.12700000000E+01 0.  1.
          4   -1    0    0  501    0  0.00000000000E+00 -0.00000000000E+00 -0.26184333819E+03  0.26184641806E+03  0.12700000000E+01 0.  1.
         25    2    1    2    0    0  0.00000000000E+00  0.00000000000E+00 -0.24695963618E+03  0.27678420522E+03  0.12498173610E+03 0.  0.
    9000005    1    3    3    0    0  0.58808710270E+02  0.24290563879E+01 -0.16992007866E+03  0.17982824542E+03  0.10000000000E+01 0.  0.
    9000005    1    3    3    0    0 -0.58808710270E+02 -0.24290563879E+01 -0.77039557525E+02  0.96955959808E+02  0.10000000000E+01 0.  0.
<mgrwt>
<rscale>  0 0.12498174E+03</rscale>
<asrwt>0</asrwt>
<pdfrwt beam="2">  1        4 0.40287984E-01 0.12498174E+03</pdfrwt>
<pdfrwt beam="1">  1       -4 0.22941978E-02 0.12498174E+03</pdfrwt>
<totfact> 0.78638367E+03</totfact>
</mgrwt>
</event>
<event>
 5    1  0.3340698E-002  0.1249995E+03  0.7818608E-02  0.1235070E+00
          4   -1    0    0  501    0  0.00000000000E+00  0.00000000000E+00  0.33516844697E+03  0.33517085306E+03  0.12700000000E+01 0. -1.
         -4   -1    0    0    0  501 -0.00000000000E+00 -0.00000000000E+00 -0.11617446283E+02  0.11686657270E+02  0.12700000000E+01 0. -1.
         25    2    1    2    0    0  0.00000000000E+00  0.00000000000E+00  0.32355100069E+03  0.34685751033E+03  0.12499952972E+03 0.  0.
    9000005    1    3    3    0    0  0.68765898540E+01 -0.47066812651E+02  0.49311115200E+02  0.68521226080E+02  0.10000000000E+01 0.  0.
    9000005    1    3    3    0    0 -0.68765898540E+01  0.47066812651E+02  0.27423988549E+03  0.27833628425E+03  0.10000000000E+01 0.  0.
<mgrwt>
<rscale>  0 0.12499953E+03</rscale>
<asrwt>0</asrwt>
<pdfrwt beam="1">  1        4 0.51569885E-01 0.12499953E+03</pdfrwt>
<pdfrwt beam="2">  1       -4 0.17928085E-02 0.12499953E+03</pdfrwt>
<totfact> 0.70072385E+03</totfact>
</mgrwt>
</event>
<event>
 5    1  0.3340698E-002  0.1250002E+03  0.7818608E-02  0.1235069E+00
         -4   -1    0    0    0  501 -0.00000000000E+00  0.00000000000E+00  0.10299525118E+03  0.10300308086E+03  0.12700000000E+01 0. -1.
          4   -1    0    0  501    0  0.00000000000E+00 -0.00000000000E+00 -0.37906722100E+02  0.37927990724E+02  0.12700000000E+01 0. -1.
         25    2    1    2    0    0  0.00000000000E+00  0.00000000000E+00  0.65088529084E+02  0.14093107158E+03  0.12500020128E+03 0.  0.
    9000005    1    3    3    0    0  0.46866359538E+02  0.40783073982E+02  0.40153302395E+02  0.73979743667E+02  0.10000000000E+01 0.  0.
    9000005    1    3    3    0    0 -0.46866359538E+02 -0.40783073982E+02  0.24935226689E+02  0.66951327917E+02  0.10000000000E+01 0.  0.
<mgrwt>
<rscale>  0 0.12500020E+03</rscale>
<asrwt>0</asrwt>
<pdfrwt beam="2">  1        4 0.58340419E-02 0.12500020E+03</pdfrwt>
<pdfrwt beam="1">  1       -4 0.15847661E-01 0.12500020E+03</pdfrwt>
<totfact> 0.10114279E+04</totfact>
</mgrwt>
</event>
<event>
 5    1  0.3340698E-002  0.1249991E+03  0.7818608E-02  0.1235071E+00
         -4   -1    0    0    0  501 -0.00000000000E+00  0.00000000000E+00  0.24869568204E+01  0.27924638272E+01  0.12700000000E+01 0. -1.
          4   -1    0    0  501    0  0.00000000000E+00 -0.00000000000E+00 -0.14794743631E+04  0.14794749082E+04  0.12700000000E+01 0. -1.
         25    2    1    2    0    0  0.00000000000E+00  0.00000000000E+00 -0.14769874063E+04  0.14822673720E+04  0.12499905538E+03 0.  0.
    9000005    1    3    3    0    0 -0.73389269194E+01 -0.57845258528E+02 -0.47194531277E+03  0.47553476427E+03  0.10000000000E+01 0.  0.
    9000005    1    3    3    0    0  0.73389269194E+01  0.57845258528E+02 -0.10050420935E+04  0.10067326078E+04  0.10000000000E+01 0.  0.
<mgrwt>
<rscale>  0 0.12499906E+03</rscale>
<asrwt>0</asrwt>
<pdfrwt beam="2">  1        4 0.22763432E+00 0.12499906E+03</pdfrwt>
<pdfrwt beam="1">  1       -4 0.40615239E-03 0.12499906E+03</pdfrwt>
<totfact> 0.18281829E+03</totfact>
</mgrwt>
</event>
<event>
 5    1  0.3340698E-002  0.1250013E+03  0.7818608E-02  0.1235067E+00
         -4   -1    0    0    0  501 -0.00000000000E+00  0.00000000000E+00  0.73040501067E+03  0.73040611478E+03  0.12700000000E+01 0. -1.
          4   -1    0    0  501    0  0.00000000000E+00 -0.00000000000E+00 -0.52716520775E+01  0.54224732020E+01  0.12700000000E+01 0. -1.
         25    2    1    2    0    0  0.00000000000E+00  0.00000000000E+00  0.72513335859E+03  0.73582858799E+03  0.12500129260E+03 0.  0.
    9000005    1    3    3    0    0 -0.56155182428E+02 -0.13792210215E+02  0.22305362929E+03  0.23042905875E+03  0.10000000000E+01 0.  0.
    9000005    1    3    3    0    0  0.56155182428E+02  0.13792210215E+02  0.50207972930E+03  0.50539952923E+03  0.10000000000E+01 0.  0.
<mgrwt>
<rscale>  0 0.12500129E+03</rscale>
<asrwt>0</asrwt>
<pdfrwt beam="2">  1        4 0.82270974E-03 0.12500129E+03</pdfrwt>
<pdfrwt beam="1">  1       -4 0.11238172E+00 0.12500129E+03</pdfrwt>
<totfact> 0.41260126E+03</totfact>
</mgrwt>
</event>
<event>
 5    1  0.3340698E-002  0.1249948E+03  0.7818608E-02  0.1235077E+00
          4   -1    0    0  501    0  0.00000000000E+00  0.00000000000E+00  0.10134630257E+03  0.10135425963E+03  0.12700000000E+01 0. -1.
         -4   -1    0    0    0  501 -0.00000000000E+00 -0.00000000000E+00 -0.38520449924E+02  0.38541379871E+02  0.12700000000E+01 0. -1.
         25    2    1    2    0    0  0.00000000000E+00  0.00000000000E+00  0.62825852646E+02  0.13989563950E+03  0.12499480865E+03 0.  0.
    9000005    1    3    3    0    0 -0.59307075415E+02  0.19622741957E+02  0.33198183314E+02  0.70749562342E+02  0.10000000000E+01 0.  0.
    9000005    1    3    3    0    0  0.59307075415E+02 -0.19622741957E+02  0.29627669332E+02  0.69146077157E+02  0.10000000000E+01 0.  0.
<mgrwt>
<rscale>  0 0.12499481E+03</rscale>
<asrwt>0</asrwt>
<pdfrwt beam="1">  1        4 0.15593961E-01 0.12499481E+03</pdfrwt>
<pdfrwt beam="2">  1       -4 0.59284452E-02 0.12499481E+03</pdfrwt>
<totfact> 0.10136935E+04</totfact>
</mgrwt>
</event>
<event>
 5    1  0.3340698E-002  0.1249989E+03  0.7818608E-02  0.1235071E+00
         -4   -1    0    0    0  501 -0.00000000000E+00  0.00000000000E+00  0.22253335331E+01  0.25622274164E+01  0.12700000000E+01 0. -1.
          4   -1    0    0  501    0  0.00000000000E+00 -0.00000000000E+00 -0.16314681565E+04  0.16314686508E+04  0.12700000000E+01 0. -1.
         25    2    1    2    0    0  0.00000000000E+00  0.00000000000E+00 -0.16292428230E+04  0.16340308782E+04  0.12499893922E+03 0.  0.
    9000005    1    3    3    0    0 -0.48040020901E+02 -0.36851785827E+02 -0.61240679053E+03  0.61539334967E+03  0.10000000000E+01 0.  0.
    9000005    1    3    3    0    0  0.48040020901E+02  0.36851785827E+02 -0.10168360324E+04  0.10186375286E+04  0.10000000000E+01 0.  0.
<mgrwt>
<rscale>  0 0.12499894E+03</rscale>
<asrwt>0</asrwt>
<pdfrwt beam="2">  1        4 0.25102017E+00 0.12499894E+03</pdfrwt>
<pdfrwt beam="1">  1       -4 0.36831325E-03 0.12499894E+03</pdfrwt>
<totfact> 0.15439250E+03</totfact>
</mgrwt>
</event>
<event>
 5    1  0.3340698E-002  0.1250014E+03  0.7818608E-02  0.1235067E+00
         -4   -1    0    0    0  501 -0.00000000000E+00  0.00000000000E+00  0.66472190555E+03  0.66472311876E+03  0.12700000000E+01 0. -1.
          4   -1    0    0  501    0  0.00000000000E+00 -0.00000000000E+00 -0.58067984031E+01  0.59440565016E+01  0.12700000000E+01 0. -1.
         25    2    1    2    0    0  0.00000000000E+00  0.00000000000E+00  0.65891510715E+03  0.67066717526E+03  0.12500136620E+03 0.  0.
    9000005    1    3    3    0    0  0.34886241716E+02 -0.51843747828E+02  0.32562095589E+03  0.33156421846E+03  0.10000000000E+01 0.  0.
    9000005    1    3    3    0    0 -0.34886241716E+02  0.51843747828E+02  0.33329415126E+03  0.33910295681E+03  0.10000000000E+01 0.  0.
<mgrwt>
<rscale>  0 0.12500137E+03</rscale>
<asrwt>0</asrwt>
<pdfrwt beam="2">  1        4 0.90400482E-03 0.12500137E+03</pdfrwt>
<pdfrwt beam="1">  1       -4 0.10227561E+00 0.12500137E+03</pdfrwt>
<totfact> 0.44679655E+03</totfact>
</mgrwt>
</event>
<event>
 5    1  0.3340698E-002  0.1250012E+03  0.7818608E-02  0.1235067E+00
         -4   -1    0    0    0  501 -0.00000000000E+00  0.00000000000E+00  0.16798073394E+02  0.16846013468E+02  0.12700000000E+01 0. -1.
          4   -1    0    0  501    0  0.00000000000E+00 -0.00000000000E+00 -0.23216508083E+03  0.23216855441E+03  0.12700000000E+01 0. -1.
         25    2    1    2    0    0  0.00000000000E+00  0.00000000000E+00 -0.21536700743E+03  0.24901456788E+03  0.12500122849E+03 0.  0.
    9000005    1    3    3    0    0  0.51711271614E+02 -0.28235125072E+02 -0.14918653276E+03  0.16040230502E+03  0.10000000000E+01 0.  0.
    9000005    1    3    3    0    0 -0.51711271614E+02  0.28235125072E+02 -0.66180474677E+02  0.88612262855E+02  0.10000000000E+01 0.  0.
<mgrwt>
<rscale>  0 0.12500123E+03</rscale>
<asrwt>0</asrwt>
<pdfrwt beam="2">  1        4 0.35721657E-01 0.12500123E+03</pdfrwt>
<pdfrwt beam="1">  1       -4 0.25882741E-02 0.12500123E+03</pdfrwt>
<totfact> 0.82470606E+03</totfact>
</mgrwt>
</event>
<event>
 5    1  0.3340698E-002  0.1249985E+03  0.7818608E-02  0.1235072E+00
          4   -1    0    0  501    0  0.00000000000E+00  0.00000000000E+00  0.49136081013E+02  0.49152490855E+02  0.12700000000E+01 0. -1.
         -4   -1    0    0    0  501 -0.00000000000E+00 -0.00000000000E+00 -0.79461990306E+02  0.79472138535E+02  0.12700000000E+01 0. -1.
         25    2    1    2    0    0  0.00000000000E+00  0.00000000000E+00 -0.30325909293E+02  0.12862462939E+03  0.12499853804E+03 0.  0.
    9000005    1    3    3    0    0 -0.16872706193E+02 -0.77066360869E+01 -0.76568834227E+02  0.78790017318E+02  0.10000000000E+01 0.  0.
    9000005    1    3    3    0    0  0.16872706193E+02  0.77066360869E+01  0.46242924934E+02  0.49834612073E+02  0.10000000000E+01 0.  0.
<mgrwt>
<rscale>  0 0.12499854E+03</rscale>
<asrwt>0</asrwt>
<pdfrwt beam="1">  1        4 0.75614400E-02 0.12499854E+03</pdfrwt>
<pdfrwt beam="2">  1       -4 0.12226964E-01 0.12499854E+03</pdfrwt>
<totfact> 0.10374362E+04</totfact>
</mgrwt>
</event>
<event>
 5    1  0.3340698E-002  0.1250020E+03  0.7818608E-02  0.1235066E+00
         -4   -1    0    0    0  501 -0.00000000000E+00  0.00000000000E+00  0.76711245608E+02  0.76721757688E+02  0.12700000000E+01 0.  1.
          4   -1    0    0  501    0  0.00000000000E+00 -0.00000000000E+00 -0.50901156437E+02  0.50916997424E+02  0.12700000000E+01 0.  1.
         25    2    1    2    0    0  0.00000000000E+00  0.00000000000E+00  0.25810089171E+02  0.12763875511E+03  0.12500196440E+03 0.  0.
    9000005    1    3    3    0    0  0.26795747351E+02 -0.50466487400E+02 -0.12936791837E+02  0.58593847882E+02  0.10000000000E+01 0.  0.
    9000005    1    3    3    0    0 -0.26795747351E+02  0.50466487400E+02  0.38746881008E+02  0.69044907230E+02  0.10000000000E+01 0.  0.
<mgrwt>
<rscale>  0 0.12500196E+03</rscale>
<asrwt>0</asrwt>
<pdfrwt beam="2">  1        4 0.78329743E-02 0.12500196E+03</pdfrwt>
<pdfrwt beam="1">  1       -4 0.11803757E-01 0.12500196E+03</pdfrwt>
<totfact> 0.10394836E+04</totfact>
</mgrwt>
</event>
<event>
 5    1  0.3340698E-002  0.1250083E+03  0.7818608E-02  0.1235056E+00
         -4   -1    0    0    0  501 -0.00000000000E+00  0.00000000000E+00  0.47431237118E+01  0.49102059575E+01  0.12700000000E+01 0. -1.
          4   -1    0    0  501    0  0.00000000000E+00 -0.00000000000E+00 -0.80924630432E+03  0.80924730086E+03  0.12700000000E+01 0. -1.
         25    2    1    2    0    0  0.00000000000E+00  0.00000000000E+00 -0.80450318061E+03  0.81415750682E+03  0.12500831294E+03 0.  0.
    9000005    1    3    3    0    0  0.31873088168E+02 -0.16739872291E+02 -0.69545402596E+02  0.78317814678E+02  0.10000000000E+01 0.  0.
    9000005    1    3    3    0    0 -0.31873088168E+02  0.16739872291E+02 -0.73495777801E+03  0.73583969214E+03  0.10000000000E+01 0.  0.
<mgrwt>
<rscale>  0 0.12500831E+03</rscale>
<asrwt>0</asrwt>
<pdfrwt beam="2">  1        4 0.12451225E+00 0.12500831E+03</pdfrwt>
<pdfrwt beam="1">  1       -4 0.74264112E-03 0.12500831E+03</pdfrwt>
<totfact> 0.37633657E+03</totfact>
</mgrwt>
</event>
<event>
 5    1  0.3340698E-002  0.1249975E+03  0.7818608E-02  0.1235073E+00
         -4   -1    0    0    0  501 -0.00000000000E+00  0.00000000000E+00  0.10816041108E+02  0.10890346425E+02  0.12700000000E+01 0.  1.
          4   -1    0    0  501    0  0.00000000000E+00 -0.00000000000E+00 -0.35982746797E+03  0.35982970918E+03  0.12700000000E+01 0.  1.
         25    2    1    2    0    0  0.00000000000E+00  0.00000000000E+00 -0.34901142686E+03  0.37072005560E+03  0.12499753415E+03 0.  0.
    9000005    1    3    3    0    0 -0.33362647519E+02 -0.94736639936E+00 -0.33119338767E+03  0.33287238363E+03  0.10000000000E+01 0.  0.
    9000005    1    3    3    0    0  0.33362647519E+02  0.94736639936E+00 -0.17818039198E+02  0.37847671969E+02  0.10000000000E+01 0.  0.
<mgrwt>
<rscale>  0 0.12499753E+03</rscale>
<asrwt>0</asrwt>
<pdfrwt beam="2">  1        4 0.55363951E-01 0.12499753E+03</pdfrwt>
<pdfrwt beam="1">  1       -4 0.16698948E-02 0.12499753E+03</pdfrwt>
<totfact> 0.67507357E+03</totfact>
</mgrwt>
</event>
<event>
 5    1  0.3340698E-002  0.1250004E+03  0.7818608E-02  0.1235069E+00
         -4   -1    0    0    0  501 -0.00000000000E+00  0.00000000000E+00  0.47251260611E+03  0.47251431284E+03  0.12700000000E+01 0.  1.
          4   -1    0    0  501    0  0.00000000000E+00 -0.00000000000E+00 -0.82165169668E+01  0.83140875065E+01  0.12700000000E+01 0.  1.
         25    2    1    2    0    0  0.00000000000E+00  0.00000000000E+00  0.46429608915E+03  0.48082840034E+03  0.12500036872E+03 0.  0.
    9000005    1    3    3    0    0 -0.35622987749E+02  0.51038248071E+02  0.25369356554E+03  0.26121892201E+03  0.10000000000E+01 0.  0.
    9000005    1    3    3    0    0  0.35622987749E+02 -0.51038248071E+02  0.21060252361E+03  0.21960947833E+03  0.10000000000E+01 0.  0.
<mgrwt>
<rscale>  0 0.12500037E+03</rscale>
<asrwt>0</asrwt>
<pdfrwt beam="2">  1        4 0.12717161E-02 0.12500037E+03</pdfrwt>
<pdfrwt beam="1">  1       -4 0.72701889E-01 0.12500037E+03</pdfrwt>
<totfact> 0.57382675E+03</totfact>
</mgrwt>
</event>
<event>
 5    1  0.3340698E-002  0.1249988E+03  0.7818608E-02  0.1235071E+00
         -4   -1    0    0    0  501 -0.00000000000E+00  0.00000000000E+00  0.22697386333E+02  0.22732889090E+02  0.12700000000E+01 0. -1.
          4   -1    0    0  501    0  0.00000000000E+00 -0.00000000000E+00 -0.17192554244E+03  0.17193023307E+03  0.12700000000E+01 0. -1.
         25    2    1    2    0    0  0.00000000000E+00  0.00000000000E+00 -0.14922815611E+03  0.19466312216E+03  0.12499875421E+03 0.  0.
    9000005    1    3    3    0    0 -0.18035318127E+02  0.59541471666E+02 -0.83789404218E+02  0.10436533815E+03  0.10000000000E+01 0.  0.
    9000005    1    3    3    0    0  0.18035318127E+02 -0.59541471666E+02 -0.65438751888E+02  0.90297784008E+02  0.10000000000E+01 0.  0.
<mgrwt>
<rscale>  0 0.12499875E+03</rscale>
<asrwt>0</asrwt>
<pdfrwt beam="2">  1        4 0.26453174E-01 0.12499875E+03</pdfrwt>
<pdfrwt beam="1">  1       -4 0.34949975E-02 0.12499875E+03</pdfrwt>
<totfact> 0.91044758E+03</totfact>
</mgrwt>
</event>
<event>
 5    1  0.3340698E-002  0.1249960E+03  0.7818608E-02  0.1235076E+00
          4   -1    0    0  501    0  0.00000000000E+00  0.00000000000E+00  0.11015748499E+03  0.11016480563E+03  0.12700000000E+01 0. -1.
         -4   -1    0    0    0  501 -0.00000000000E+00 -0.00000000000E+00 -0.35438460367E+02  0.35461209416E+02  0.12700000000E+01 0. -1.
         25    2    1    2    0    0  0.00000000000E+00  0.00000000000E+00  0.74719024625E+02  0.14562601505E+03  0.12499601441E+03 0.  0.
    9000005    1    3    3    0    0 -0.45581507438E+02 -0.41994711496E+02  0.46663205983E+02  0.77586625178E+02  0.10000000000E+01 0.  0.
    9000005    1    3    3    0    0  0.45581507438E+02  0.41994711496E+02  0.28055818642E+02  0.68039389869E+02  0.10000000000E+01 0.  0.
<mgrwt>
<rscale>  0 0.12499601E+03</rscale>
<asrwt>0</asrwt>
<pdfrwt beam="1">  1        4 0.16949618E-01 0.12499601E+03</pdfrwt>
<pdfrwt beam="2">  1       -4 0.54543839E-02 0.12499601E+03</pdfrwt>
<totfact> 0.10019184E+04</totfact>
</mgrwt>
</event>
<event>
 5    1  0.3340698E-002  0.1249928E+03  0.7818608E-02  0.1235080E+00
          4   -1    0    0  501    0  0.00000000000E+00  0.00000000000E+00  0.53509608980E+02  0.53524677983E+02  0.12700000000E+01 0. -1.
         -4   -1    0    0    0  501 -0.00000000000E+00 -0.00000000000E+00 -0.72961652849E+02  0.72972705079E+02  0.12700000000E+01 0. -1.
         25    2    1    2    0    0  0.00000000000E+00  0.00000000000E+00 -0.19452043869E+02  0.12649738306E+03  0.12499282344E+03 0.  0.
    9000005    1    3    3    0    0 -0.49054829828E+02  0.12154973424E+02 -0.46920030070E+02  0.68968173313E+02  0.10000000000E+01 0.  0.
    9000005    1    3    3    0    0  0.49054829828E+02 -0.12154973424E+02  0.27467986201E+02  0.57529209749E+02  0.10000000000E+01 0.  0.
<mgrwt>
<rscale>  0 0.12499282E+03</rscale>
<asrwt>0</asrwt>
<pdfrwt beam="1">  1        4 0.82342569E-02 0.12499282E+03</pdfrwt>
<pdfrwt beam="2">  1       -4 0.11226879E-01 0.12499282E+03</pdfrwt>
<totfact> 0.10421773E+04</totfact>
</mgrwt>
</event>
<event>
 5    1  0.3340698E-002  0.1249946E+03  0.7818608E-02  0.1235078E+00
         -4   -1    0    0    0  501 -0.00000000000E+00  0.00000000000E+00  0.20612691058E+02  0.20651777954E+02  0.12700000000E+01 0. -1.
          4   -1    0    0  501    0  0.00000000000E+00 -0.00000000000E+00 -0.18926989688E+03  0.18927415768E+03  0.12700000000E+01 0. -1.
         25    2    1    2    0    0  0.00000000000E+00  0.00000000000E+00 -0.16865720583E+03  0.20992593564E+03  0.12499458139E+03 0.  0.
    9000005    1    3    3    0    0 -0.21115599512E+02 -0.59210892154E+01 -0.18260308029E+03  0.18391795119E+03  0.10000000000E+01 0.  0.
    9000005    1    3    3    0    0  0.21115599512E+02  0.59210892154E+01  0.13945874462E+02  0.26007984443E+02  0.10000000000E+01 0.  0.
<mgrwt>
<rscale>  0 0.12499458E+03</rscale>
<asrwt>0</asrwt>
<pdfrwt beam="2">  1        4 0.29121779E-01 0.12499458E+03</pdfrwt>
<pdfrwt beam="1">  1       -4 0.31745178E-02 0.12499458E+03</pdfrwt>
<totfact> 0.88498699E+03</totfact>
</mgrwt>
</event>
<event>
 5    1  0.3340698E-002  0.1249990E+03  0.7818608E-02  0.1235071E+00
         -4   -1    0    0    0  501 -0.00000000000E+00  0.00000000000E+00  0.17370414495E+03  0.17370878755E+03  0.12700000000E+01 0. -1.
          4   -1    0    0  501    0  0.00000000000E+00 -0.00000000000E+00 -0.22464704422E+02  0.22500574321E+02  0.12700000000E+01 0. -1.
         25    2    1    2    0    0  0.00000000000E+00  0.00000000000E+00  0.15123944052E+03  0.19620936187E+03  0.12499898126E+03 0.  0.
    9000005    1    3    3    0    0  0.25224663512E+02  0.50968974827E+02  0.34957043736E+02  0.66761627833E+02  0.10000000000E+01 0.  0.
    9000005    1    3    3    0    0 -0.25224663512E+02 -0.50968974827E+02  0.11628239679E+03  0.12944773404E+03  0.10000000000E+01 0.  0.
<mgrwt>
<rscale>  0 0.12499898E+03</rscale>
<asrwt>0</asrwt>
<pdfrwt beam="2">  1        4 0.34592248E-02 0.12499898E+03</pdfrwt>
<pdfrwt beam="1">  1       -4 0.26726830E-01 0.12499898E+03</pdfrwt>
<totfact> 0.90780061E+03</totfact>
</mgrwt>
</event>
<event>
 5    1  0.3340698E-002  0.1249985E+03  0.7818608E-02  0.1235072E+00
         -4   -1    0    0    0  501 -0.00000000000E+00  0.00000000000E+00  0.41509138945E+02  0.41528562652E+02  0.12700000000E+01 0. -1.
          4   -1    0    0  501    0  0.00000000000E+00 -0.00000000000E+00 -0.94057837381E+02  0.94066410970E+02  0.12700000000E+01 0. -1.
         25    2    1    2    0    0  0.00000000000E+00  0.00000000000E+00 -0.52548698437E+02  0.13559497362E+03  0.12499852465E+03 0.  0.
    9000005    1    3    3    0    0  0.42281376233E+02  0.19684335175E+02  0.18844496995E+02  0.50312055160E+02  0.10000000000E+01 0.  0.
    9000005    1    3    3    0    0 -0.42281376233E+02 -0.19684335175E+02 -0.71393195432E+02  0.85282918462E+02  0.10000000000E+01 0.  0.
<mgrwt>
<rscale>  0 0.12499852E+03</rscale>
<asrwt>0</asrwt>
<pdfrwt beam="2">  1        4 0.14472590E-01 0.12499852E+03</pdfrwt>
<pdfrwt beam="1">  1       -4 0.63881750E-02 0.12499852E+03</pdfrwt>
<totfact> 0.10225886E+04</totfact>
</mgrwt>
</event>
<event>
 5    1  0.3340698E-002  0.1250061E+03  0.7818608E-02  0.1235060E+00
          4   -1    0    0  501    0  0.00000000000E+00  0.00000000000E+00  0.74111453013E+02  0.74122333798E+02  0.12700000000E+01 0. -1.
         -4   -1    0    0    0  501 -0.00000000000E+00 -0.00000000000E+00 -0.52690537548E+02  0.52705840730E+02  0.12700000000E+01 0. -1.
         25    2    1    2    0    0  0.00000000000E+00  0.00000000000E+00  0.21420915466E+02  0.12682817453E+03  0.12500612079E+03 0.  0.
    9000005    1    3    3    0    0  0.46409508579E+02  0.41669925730E+02  0.67280235819E+01  0.62741465541E+02  0.10000000000E+01 0.  0.
    9000005    1    3    3    0    0 -0.46409508579E+02 -0.41669925730E+02  0.14692891884E+02  0.64086708987E+02  0.10000000000E+01 0.  0.
<mgrwt>
<rscale>  0 0.12500612E+03</rscale>
<asrwt>0</asrwt>
<pdfrwt beam="1">  1        4 0.11403776E-01 0.12500612E+03</pdfrwt>
<pdfrwt beam="2">  1       -4 0.81082507E-02 0.12500612E+03</pdfrwt>
<totfact> 0.10411442E+04</totfact>
</mgrwt>
</event>
<event>
 5    1  0.3340698E-002  0.1249963E+03  0.7818608E-02  0.1235075E+00
         -4   -1    0    0    0  501 -0.00000000000E+00  0.00000000000E+00  0.11002382319E+02  0.11075437539E+02  0.12700000000E+01 0. -1.
          4   -1    0    0  501    0  0.00000000000E+00 -0.00000000000E+00 -0.35376686635E+03  0.35376914595E+03  0.12700000000E+01 0. -1.
         25    2    1    2    0    0  0.00000000000E+00  0.00000000000E+00 -0.34276448403E+03  0.36484458349E+03  0.12499631430E+03 0.  0.
    9000005    1    3    3    0    0 -0.36577915116E+01  0.98907782192E+01  0.84007647742E+01  0.13519607291E+02  0.10000000000E+01 0.  0.
    9000005    1    3    3    0    0  0.36577915116E+01 -0.98907782192E+01 -0.35116524881E+03  0.35132497620E+03  0.10000000000E+01 0.  0.
<mgrwt>
<rscale>  0 0.12499631E+03</rscale>
<asrwt>0</asrwt>
<pdfrwt beam="2">  1        4 0.54431458E-01 0.12499631E+03</pdfrwt>
<pdfrwt beam="1">  1       -4 0.16984695E-02 0.12499631E+03</pdfrwt>
<totfact> 0.68127317E+03</totfact>
</mgrwt>
</event>
<event>
 5    1  0.3340698E-002  0.1249996E+03  0.7818608E-02  0.1235070E+00
          4   -1    0    0  501    0  0.00000000000E+00  0.00000000000E+00  0.25200536260E+03  0.25200856271E+03  0.12700000000E+01 0. -1.
         -4   -1    0    0    0  501 -0.00000000000E+00 -0.00000000000E+00 -0.15471246371E+02  0.15523284583E+02  0.12700000000E+01 0. -1.
         25    2    1    2    0    0  0.00000000000E+00  0.00000000000E+00  0.23653411623E+03  0.26753184730E+03  0.12499960470E+03 0.  0.
    9000005    1    3    3    0    0  0.25225869258E+02 -0.55598089395E+02  0.14680030632E+03  0.15899315067E+03  0.10000000000E+01 0.  0.
    9000005    1    3    3    0    0 -0.25225869258E+02  0.55598089395E+02  0.89733809914E+02  0.10853869663E+03  0.10000000000E+01 0.  0.
<mgrwt>
<rscale>  0 0.12499960E+03</rscale>
<asrwt>0</asrwt>
<pdfrwt beam="1">  1        4 0.38774303E-01 0.12499960E+03</pdfrwt>
<pdfrwt beam="2">  1       -4 0.23844410E-02 0.12499960E+03</pdfrwt>
<totfact> 0.79861259E+03</totfact>
</mgrwt>
</event>
<event>
 5    1  0.3340698E-002  0.1249981E+03  0.7818608E-02  0.1235072E+00
          4   -1    0    0  501    0  0.00000000000E+00  0.00000000000E+00  0.18448014313E+01  0.22396857639E+01  0.12700000000E+01 0.  1.
         -4   -1    0    0    0  501 -0.00000000000E+00 -0.00000000000E+00 -0.19122707548E+04  0.19122711766E+04  0.12700000000E+01 0.  1.
         25    2    1    2    0    0  0.00000000000E+00  0.00000000000E+00 -0.19104259534E+04  0.19145108623E+04  0.12499807404E+03 0.  0.
    9000005    1    3    3    0    0  0.51486640437E+02 -0.12731085851E+01 -0.14972971512E+04  0.14981829842E+04  0.10000000000E+01 0.  0.
    9000005    1    3    3    0    0 -0.51486640437E+02  0.12731085851E+01 -0.41312880219E+03  0.41632787817E+03  0.10000000000E+01 0.  0.
<mgrwt>
<rscale>  0 0.12499807E+03</rscale>
<asrwt>0</asrwt>
<pdfrwt beam="1">  1        4 0.31422529E-03 0.12499807E+03</pdfrwt>
<pdfrwt beam="2">  1       -4 0.29422448E+00 0.12499807E+03</pdfrwt>
<totfact> 0.11019208E+03</totfact>
</mgrwt>
</event>
<event>
 5    1  0.3340698E-002  0.1250006E+03  0.7818608E-02  0.1235068E+00
         -4   -1    0    0    0  501 -0.00000000000E+00  0.00000000000E+00  0.70691198427E+02  0.70702605575E+02  0.12700000000E+01 0. -1.
          4   -1    0    0  501    0  0.00000000000E+00 -0.00000000000E+00 -0.55235333424E+02  0.55249931751E+02  0.12700000000E+01 0. -1.
         25    2    1    2    0    0  0.00000000000E+00  0.00000000000E+00  0.15455865003E+02  0.12595253733E+03  0.12500063158E+03 0.  0.
    9000005    1    3    3    0    0 -0.39348657070E+02  0.12458552440E+02  0.55008144954E+02  0.68778109551E+02  0.10000000000E+01 0.  0.
    9000005    1    3    3    0    0  0.39348657070E+02 -0.12458552440E+02 -0.39552279951E+02  0.57174427775E+02  0.10000000000E+01 0.  0.
<mgrwt>
<rscale>  0 0.12500063E+03</rscale>
<asrwt>0</asrwt>
<pdfrwt beam="2">  1        4 0.84997440E-02 0.12500063E+03</pdfrwt>
<pdfrwt beam="1">  1       -4 0.10877569E-01 0.12500063E+03</pdfrwt>
<totfact> 0.10431849E+04</totfact>
</mgrwt>
</event>
<event>
 5    1  0.3340698E-002  0.1249993E+03  0.7818608E-02  0.1235070E+00
         -4   -1    0    0    0  501 -0.00000000000E+00  0.00000000000E+00  0.97360115054E+02  0.97368397867E+02  0.12700000000E+01 0.  1.
          4   -1    0    0  501    0  0.00000000000E+00 -0.00000000000E+00 -0.40101143018E+02  0.40121248378E+02  0.12700000000E+01 0.  1.
         25    2    1    2    0    0  0.00000000000E+00  0.00000000000E+00  0.57258972035E+02  0.13748964625E+03  0.12499925178E+03 0.  0.
    9000005    1    3    3    0    0  0.13898937030E+02 -0.42306481429E+01  0.95482091725E+02  0.96586275808E+02  0.10000000000E+01 0.  0.
    9000005    1    3    3    0    0 -0.13898937030E+02  0.42306481429E+01 -0.38223119690E+02  0.40903370437E+02  0.10000000000E+01 0.  0.
<mgrwt>
<rscale>  0 0.12499925E+03</rscale>
<asrwt>0</asrwt>
<pdfrwt beam="2">  1        4 0.61715904E-02 0.12499925E+03</pdfrwt>
<pdfrwt beam="1">  1       -4 0.14980663E-01 0.12499925E+03</pdfrwt>
<totfact> 0.10186030E+04</totfact>
</mgrwt>
</event>
<event>
 5    1  0.3340698E-002  0.1250002E+03  0.7818608E-02  0.1235069E+00
          4   -1    0    0  501    0  0.00000000000E+00  0.00000000000E+00  0.56820968677E+02  0.56835159728E+02  0.12700000000E+01 0. -1.
         -4   -1    0    0    0  501 -0.00000000000E+00 -0.00000000000E+00 -0.68718226721E+02  0.68729961325E+02  0.12700000000E+01 0. -1.
         25    2    1    2    0    0  0.00000000000E+00  0.00000000000E+00 -0.11897258045E+02  0.12556512105E+03  0.12500021950E+03 0.  0.
    9000005    1    3    3    0    0  0.47682123222E+02  0.60545624743E+01 -0.46066831198E+02  0.66583748305E+02  0.10000000000E+01 0.  0.
    9000005    1    3    3    0    0 -0.47682123222E+02 -0.60545624743E+01  0.34169573153E+02  0.58981372748E+02  0.10000000000E+01 0.  0.
<mgrwt>
<rscale>  0 0.12500022E+03</rscale>
<asrwt>0</asrwt>
<pdfrwt beam="1">  1        4 0.87436818E-02 0.12500022E+03</pdfrwt>
<pdfrwt beam="2">  1       -4 0.10574029E-01 0.12500022E+03</pdfrwt>
<totfact> 0.10440465E+04</totfact>
</mgrwt>
</event>
<event>
 5    1  0.3340698E-002  0.1250010E+03  0.7818608E-02  0.1235068E+00
         -4   -1    0    0    0  501 -0.00000000000E+00  0.00000000000E+00  0.28389779319E+02  0.28418171472E+02  0.12700000000E+01 0.  1.
          4   -1    0    0  501    0  0.00000000000E+00 -0.00000000000E+00 -0.13749564153E+03  0.13750150669E+03  0.12700000000E+01 0.  1.
         25    2    1    2    0    0  0.00000000000E+00  0.00000000000E+00 -0.10910586221E+03  0.16591967816E+03  0.12500100172E+03 0.  0.
    9000005    1    3    3    0    0 -0.61993079619E+02  0.35246510660E+01 -0.63914963265E+02  0.89116146769E+02  0.10000000000E+01 0.  0.
    9000005    1    3    3    0    0  0.61993079619E+02 -0.35246510660E+01 -0.45190898950E+02  0.76803531388E+02  0.10000000000E+01 0.  0.
<mgrwt>
<rscale>  0 0.12500100E+03</rscale>
<asrwt>0</asrwt>
<pdfrwt beam="2">  1        4 0.21155810E-01 0.12500100E+03</pdfrwt>
<pdfrwt beam="1">  1       -4 0.43702936E-02 0.12500100E+03</pdfrwt>
<totfact> 0.96211338E+03</totfact>
</mgrwt>
</event>
<event>
 5    1  0.3340698E-002  0.1250357E+03  0.7818608E-02  0.1235014E+00
         -4   -1    0    0    0  501 -0.00000000000E+00  0.00000000000E+00  0.19782028235E+03  0.19782435899E+03  0.12700000000E+01 0. -1.
          4   -1    0    0  501    0  0.00000000000E+00 -0.00000000000E+00 -0.19733045047E+02  0.19773870811E+02  0.12700000000E+01 0. -1.
         25    2    1    2    0    0  0.00000000000E+00  0.00000000000E+00  0.17808723731E+03  0.21759822980E+03  0.12503569699E+03 0.  0.
    9000005    1    3    3    0    0  0.56647288422E+02  0.88191221515E+00  0.43072699388E+02  0.71175490777E+02  0.10000000000E+01 0.  0.
    9000005    1    3    3    0    0 -0.56647288422E+02 -0.88191221515E+00  0.13501453792E+03  0.14642273903E+03  0.10000000000E+01 0.  0.
<mgrwt>
<rscale>  0 0.12503570E+03</rscale>
<asrwt>0</asrwt>
<pdfrwt beam="2">  1        4 0.30393071E-02 0.12503570E+03</pdfrwt>
<pdfrwt beam="1">  1       -4 0.30437344E-01 0.12503570E+03</pdfrwt>
<totfact> 0.87180283E+03</totfact>
</mgrwt>
</event>
<event>
 5    1  0.3340698E-002  0.1250012E+03  0.7818608E-02  0.1235067E+00
         -4   -1    0    0    0  501 -0.00000000000E+00  0.00000000000E+00  0.70077503394E+02  0.70089010422E+02  0.12700000000E+01 0. -1.
          4   -1    0    0  501    0  0.00000000000E+00 -0.00000000000E+00 -0.55719621620E+02  0.55734093098E+02  0.12700000000E+01 0. -1.
         25    2    1    2    0    0  0.00000000000E+00  0.00000000000E+00  0.14357881774E+02  0.12582310352E+03  0.12500121844E+03 0.  0.
    9000005    1    3    3    0    0 -0.23674356699E+02 -0.57177373705E+02 -0.15729914881E+01  0.61912854328E+02  0.10000000000E+01 0.  0.
    9000005    1    3    3    0    0  0.23674356699E+02  0.57177373705E+02  0.15930873262E+02  0.63910249192E+02  0.10000000000E+01 0.  0.
<mgrwt>
<rscale>  0 0.12500122E+03</rscale>
<asrwt>0</asrwt>
<pdfrwt beam="2">  1        4 0.85742479E-02 0.12500122E+03</pdfrwt>
<pdfrwt beam="1">  1       -4 0.10783153E-01 0.12500122E+03</pdfrwt>
<totfact> 0.10434551E+04</totfact>
</mgrwt>
</event>
<event>
 5    1  0.3340698E-002  0.1250012E+03  0.7818608E-02  0.1235067E+00
          4   -1    0    0  501    0  0.00000000000E+00  0.00000000000E+00  0.14032423677E+03  0.14032998369E+03  0.12700000000E+01 0. -1.
         -4   -1    0    0    0  501 -0.00000000000E+00 -0.00000000000E+00 -0.27817036915E+02  0.27846013049E+02  0.12700000000E+01 0. -1.
         25    2    1    2    0    0  0.00000000000E+00  0.00000000000E+00  0.11250719985E+03  0.16817599674E+03  0.12500118345E+03 0.  0.
    9000005    1    3    3    0    0  0.45806309305E+02  0.10381519429E+02  0.11171473505E+03  0.12119065948E+03  0.10000000000E+01 0.  0.
    9000005    1    3    3    0    0 -0.45806309305E+02 -0.10381519429E+02  0.79246480517E+00  0.46985337269E+02  0.10000000000E+01 0.  0.
<mgrwt>
<rscale>  0 0.12500118E+03</rscale>
<asrwt>0</asrwt>
<pdfrwt beam="1">  1        4 0.21591016E-01 0.12500118E+03</pdfrwt>
<pdfrwt beam="2">  1       -4 0.42822151E-02 0.12500118E+03</pdfrwt>
<totfact> 0.95786721E+03</totfact>
</mgrwt>
</event>
<event>
 5    1  0.3340698E-002  0.1250016E+03  0.7818608E-02  0.1235067E+00
          4   -1    0    0  501    0  0.00000000000E+00  0.00000000000E+00  0.99615310704E+03  0.99615391660E+03  0.12700000000E+01 0.  1.
         -4   -1    0    0    0  501 -0.00000000000E+00 -0.00000000000E+00 -0.38177759208E+01  0.40234702660E+01  0.12700000000E+01 0.  1.
         25    2    1    2    0    0  0.00000000000E+00  0.00000000000E+00  0.99233533112E+03  0.10001773869E+04  0.12500158326E+03 0.  0.
    9000005    1    3    3    0    0 -0.28616014218E+02 -0.28664196329E+02  0.11538256359E+03  0.12228919986E+03  0.10000000000E+01 0.  0.
    9000005    1    3    3    0    0  0.28616014218E+02  0.28664196329E+02  0.87695276752E+03  0.87788818701E+03  0.10000000000E+01 0.  0.
<mgrwt>
<rscale>  0 0.12500158E+03</rscale>
<asrwt>0</asrwt>
<pdfrwt beam="1">  1        4 0.15327024E+00 0.12500158E+03</pdfrwt>
<pdfrwt beam="2">  1       -4 0.60323495E-03 0.12500158E+03</pdfrwt>
<totfact> 0.30597563E+03</totfact>
</mgrwt>
</event>
<event>
 5    1  0.3340698E-002  0.1250033E+03  0.7818608E-02  0.1235064E+00
         -4   -1    0    0    0  501 -0.00000000000E+00  0.00000000000E+00  0.99472235599E+02  0.99480342556E+02  0.12700000000E+01 0. -1.
          4   -1    0    0  501    0  0.00000000000E+00 -0.00000000000E+00 -0.39251825583E+02  0.39272365750E+02  0.12700000000E+01 0. -1.
         25    2    1    2    0    0  0.00000000000E+00  0.00000000000E+00  0.60220410016E+02  0.13875270831E+03  0.12500326508E+03 0.  0.
    9000005    1    3    3    0    0 -0.98338041440E+01  0.18944801999E+02  0.95306046246E+02  0.97672164293E+02  0.10000000000E+01 0.  0.
    9000005    1    3    3    0    0  0.98338041440E+01 -0.18944801999E+02 -0.35085636230E+02  0.41080544013E+02  0.10000000000E+01 0.  0.
<mgrwt>
<rscale>  0 0.12500327E+03</rscale>
<asrwt>0</asrwt>
<pdfrwt beam="2">  1        4 0.60409462E-02 0.12500327E+03</pdfrwt>
<pdfrwt beam="1">  1       -4 0.15305624E-01 0.12500327E+03</pdfrwt>
<totfact> 0.10158755E+04</totfact>
</mgrwt>
</event>
<event>
 5    1  0.3340698E-002  0.1250018E+03  0.7818608E-02  0.1235066E+00
          4   -1    0    0  501    0  0.00000000000E+00  0.00000000000E+00  0.41927706624E+03  0.41927898967E+03  0.12700000000E+01 0.  1.
         -4   -1    0    0    0  501 -0.00000000000E+00 -0.00000000000E+00 -0.92716659245E+01  0.93582417694E+01  0.12700000000E+01 0.  1.
         25    2    1    2    0    0  0.00000000000E+00  0.00000000000E+00  0.41000540032E+03  0.42863723144E+03  0.12500179152E+03 0.  0.
    9000005    1    3    3    0    0 -0.50006575603E+02 -0.37468131623E+02  0.20815197887E+03  0.21733100285E+03  0.10000000000E+01 0.  0.
    9000005    1    3    3    0    0  0.50006575603E+02  0.37468131623E+02  0.20185342145E+03  0.21130622859E+03  0.10000000000E+01 0.  0.
<mgrwt>
<rscale>  0 0.12500179E+03</rscale>
<asrwt>0</asrwt>
<pdfrwt beam="1">  1        4 0.64510949E-01 0.12500179E+03</pdfrwt>
<pdfrwt beam="2">  1       -4 0.14332183E-02 0.12500179E+03</pdfrwt>
<totfact> 0.61857280E+03</totfact>
</mgrwt>
</event>
<event>
 5    1  0.3340698E-002  0.1249975E+03  0.7818608E-02  0.1235073E+00
          4   -1    0    0  501    0  0.00000000000E+00  0.00000000000E+00  0.48424156457E+01  0.50061851030E+01  0.12700000000E+01 0. -1.
         -4   -1    0    0    0  501 -0.00000000000E+00 -0.00000000000E+00 -0.79306450370E+03  0.79306552058E+03  0.12700000000E+01 0. -1.
         25    2    1    2    0    0  0.00000000000E+00  0.00000000000E+00 -0.78822208805E+03  0.79807170568E+03  0.12499754922E+03 0.  0.
    9000005    1    3    3    0    0 -0.80394292734E+01  0.22287840921E+02 -0.76330547666E+03  0.76367377261E+03  0.10000000000E+01 0.  0.
    9000005    1    3    3    0    0  0.80394292734E+01 -0.22287840921E+02 -0.24916611390E+02  0.34397933065E+02  0.10000000000E+01 0.  0.
<mgrwt>
<rscale>  0 0.12499755E+03</rscale>
<asrwt>0</asrwt>
<pdfrwt beam="1">  1        4 0.75766352E-03 0.12499755E+03</pdfrwt>
<pdfrwt beam="2">  1       -4 0.12202250E+00 0.12499755E+03</pdfrwt>
<totfact> 0.38353036E+03</totfact>
</mgrwt>
</event>
<event>
 5    1  0.3340698E-002  0.1249975E+03  0.7818608E-02  0.1235073E+00
          4   -1    0    0  501    0  0.00000000000E+00  0.00000000000E+00  0.50515668499E+02  0.50531630330E+02  0.12700000000E+01 0.  1.
         -4   -1    0    0    0  501 -0.00000000000E+00 -0.00000000000E+00 -0.77290991045E+02  0.77301424286E+02  0.12700000000E+01 0.  1.
         25    2    1    2    0    0  0.00000000000E+00  0.00000000000E+00 -0.26775322546E+02  0.12783305462E+03  0.12499748780E+03 0.  0.
    9000005    1    3    3    0    0 -0.52120363286E+02  0.34462469846E+02 -0.12418054579E+02  0.63713437958E+02  0.10000000000E+01 0.  0.
    9000005    1    3    3    0    0  0.52120363286E+02 -0.34462469846E+02 -0.14357267967E+02  0.64119616658E+02  0.10000000000E+01 0.  0.
<mgrwt>
<rscale>  0 0.12499749E+03</rscale>
<asrwt>0</asrwt>
<pdfrwt beam="1">  1        4 0.77736717E-02 0.12499749E+03</pdfrwt>
<pdfrwt beam="2">  1       -4 0.11892952E-01 0.12499749E+03</pdfrwt>
<totfact> 0.10391684E+04</totfact>
</mgrwt>
</event>
<event>
 5    1  0.3340698E-002  0.1250047E+03  0.7818608E-02  0.1235062E+00
          4   -1    0    0  501    0  0.00000000000E+00  0.00000000000E+00  0.23593718981E+02  0.23627874965E+02  0.12700000000E+01 0.  1.
         -4   -1    0    0    0  501 -0.00000000000E+00 -0.00000000000E+00 -0.16541934776E+03  0.16542422287E+03  0.12700000000E+01 0.  1.
         25    2    1    2    0    0  0.00000000000E+00  0.00000000000E+00 -0.14182562878E+03  0.18905209784E+03  0.12500474679E+03 0.  0.
    9000005    1    3    3    0    0 -0.20574666269E+02 -0.31712471809E+02 -0.14617528173E+03  0.15098745229E+03  0.10000000000E+01 0.  0.
    9000005    1    3    3    0    0  0.20574666269E+02  0.31712471809E+02  0.43496529464E+01  0.38064645553E+02  0.10000000000E+01 0.  0.
<mgrwt>
<rscale>  0 0.12500475E+03</rscale>
<asrwt>0</asrwt>
<pdfrwt beam="1">  1        4 0.36328054E-02 0.12500475E+03</pdfrwt>
<pdfrwt beam="2">  1       -4 0.25452132E-01 0.12500475E+03</pdfrwt>
<totfact> 0.92002725E+03</totfact>
</mgrwt>
</event>
<event>
 5    1  0.3340698E-002  0.1250029E+03  0.7818608E-02  0.1235065E+00
          4   -1    0    0  501    0  0.00000000000E+00  0.00000000000E+00  0.22793930181E+02  0.22829282798E+02  0.12700000000E+01 0.  1.
         -4   -1    0    0    0  501 -0.00000000000E+00 -0.00000000000E+00 -0.17120993480E+03  0.17121464503E+03  0.12700000000E+01 0.  1.
         25    2    1    2    0    0  0.00000000000E+00  0.00000000000E+00 -0.14841600461E+03  0.19404392783E+03  0.12500294197E+03 0.  0.
    9000005    1    3    3    0    0  0.48842654551E+02 -0.19415992948E+02 -0.21730386587E+02  0.56884052132E+02  0.10000000000E+01 0.  0.
    9000005    1    3    3    0    0 -0.48842654551E+02  0.19415992948E+02 -0.12668561803E+03  0.13715987570E+03  0.10000000000E+01 0.  0.
<mgrwt>
<rscale>  0 0.12500294E+03</rscale>
<asrwt>0</asrwt>
<pdfrwt beam="1">  1        4 0.35098404E-02 0.12500294E+03</pdfrwt>
<pdfrwt beam="2">  1       -4 0.26343071E-01 0.12500294E+03</pdfrwt>
<totfact> 0.91142403E+03</totfact>
</mgrwt>
</event>
<event>
 5    1  0.3340698E-002  0.1249975E+03  0.7818608E-02  0.1235073E+00
         -4   -1    0    0    0  501 -0.00000000000E+00  0.00000000000E+00  0.95132305290E+02  0.95140782054E+02  0.12700000000E+01 0.  1.
          4   -1    0    0  501    0  0.00000000000E+00 -0.00000000000E+00 -0.41039489715E+02  0.41059135598E+02  0.12700000000E+01 0.  1.
         25    2    1    2    0    0  0.00000000000E+00  0.00000000000E+00  0.54092815575E+02  0.13619991765E+03  0.12499753946E+03 0.  0.
    9000005    1    3    3    0    0 -0.26886475914E+02  0.53955470038E+02  0.91082946286E+01  0.60975703073E+02  0.10000000000E+01 0.  0.
    9000005    1    3    3    0    0  0.26886475914E+02 -0.53955470038E+02  0.44984520947E+02  0.75224214579E+02  0.10000000000E+01 0.  0.
<mgrwt>
<rscale>  0 0.12499754E+03</rscale>
<asrwt>0</asrwt>
<pdfrwt beam="2">  1        4 0.63159310E-02 0.12499754E+03</pdfrwt>
<pdfrwt beam="1">  1       -4 0.14637902E-01 0.12499754E+03</pdfrwt>
<totfact> 0.10213408E+04</totfact>
</mgrwt>
</event>
<event>
 5    1  0.3340698E-002  0.1250021E+03  0.7818608E-02  0.1235066E+00
          4   -1    0    0  501    0  0.00000000000E+00  0.00000000000E+00  0.44799111597E+01  0.46564475728E+01  0.12700000000E+01 0.  1.
         -4   -1    0    0    0  501 -0.00000000000E+00 -0.00000000000E+00 -0.85495159725E+03  0.85495254052E+03  0.12700000000E+01 0.  1.
         25    2    1    2    0    0  0.00000000000E+00  0.00000000000E+00 -0.85047168609E+03  0.85960898809E+03  0.12500209425E+03 0.  0.
    9000005    1    3    3    0    0 -0.53120377796E+02 -0.54491582572E+01 -0.20198863028E+03  0.20893031045E+03  0.10000000000E+01 0.  0.
    9000005    1    3    3    0    0  0.53120377796E+02  0.54491582572E+01 -0.64848305581E+03  0.65067867764E+03  0.10000000000E+01 0.  0.
<mgrwt>
<rscale>  0 0.12500209E+03</rscale>
<asrwt>0</asrwt>
<pdfrwt beam="1">  1        4 0.70287006E-03 0.12500209E+03</pdfrwt>
<pdfrwt beam="2">  1       -4 0.13154454E+00 0.12500209E+03</pdfrwt>
<totfact> 0.35735708E+03</totfact>
</mgrwt>
</event>
<event>
 5    1  0.3340698E-002  0.1249994E+03  0.7818608E-02  0.1235070E+00
         -4   -1    0    0    0  501 -0.00000000000E+00  0.00000000000E+00  0.16715525179E+04  0.16715530004E+04  0.12700000000E+01 0. -1.
          4   -1    0    0  501    0  0.00000000000E+00 -0.00000000000E+00 -0.21638087822E+01  0.25089775698E+01  0.12700000000E+01 0. -1.
         25    2    1    2    0    0  0.00000000000E+00  0.00000000000E+00  0.16693887091E+04  0.16740619780E+04  0.12499937522E+03 0.  0.
    9000005    1    3    3    0    0  0.93395042896E+01  0.61782232201E+02  0.84768165652E+03  0.84998203590E+03  0.10000000000E+01 0.  0.
    9000005    1    3    3    0    0 -0.93395042896E+01 -0.61782232201E+02  0.82170705263E+03  0.82407994206E+03  0.10000000000E+01 0.  0.
<mgrwt>
<rscale>  0 0.12499938E+03</rscale>
<asrwt>0</asrwt>
<pdfrwt beam="2">  1        4 0.35948233E-03 0.12499938E+03</pdfrwt>
<pdfrwt beam="1">  1       -4 0.25718844E+00 0.12499938E+03</pdfrwt>
<totfact> 0.14745495E+03</totfact>
</mgrwt>
</event>
<event>
 5    1  0.3340698E-002  0.1250003E+03  0.7818608E-02  0.1235069E+00
          4   -1    0    0  501    0  0.00000000000E+00  0.00000000000E+00  0.24415676188E+02  0.24448683885E+02  0.12700000000E+01 0.  1.
         -4   -1    0    0    0  501 -0.00000000000E+00 -0.00000000000E+00 -0.15984654859E+03  0.15985159366E+03  0.12700000000E+01 0.  1.
         25    2    1    2    0    0  0.00000000000E+00  0.00000000000E+00 -0.13543087240E+03  0.18430027754E+03  0.12500028441E+03 0.  0.
    9000005    1    3    3    0    0 -0.11677229846E+02 -0.36810084972E+02 -0.14015521564E+03  0.14538165126E+03  0.10000000000E+01 0.  0.
    9000005    1    3    3    0    0  0.11677229846E+02  0.36810084972E+02  0.47243432410E+01  0.38918626281E+02  0.10000000000E+01 0.  0.
<mgrwt>
<rscale>  0 0.12500028E+03</rscale>
<asrwt>0</asrwt>
<pdfrwt beam="1">  1        4 0.37591851E-02 0.12500028E+03</pdfrwt>
<pdfrwt beam="2">  1       -4 0.24594703E-01 0.12500028E+03</pdfrwt>
<totfact> 0.92848025E+03</totfact>
</mgrwt>
</event>
<event>
 5    1  0.3340698E-002  0.1249894E+03  0.7818608E-02  0.1235086E+00
          4   -1    0    0  501    0  0.00000000000E+00  0.00000000000E+00  0.33925622755E+01  0.36224824076E+01  0.12700000000E+01 0. -1.
         -4   -1    0    0    0  501 -0.00000000000E+00 -0.00000000000E+00 -0.11132578476E+04  0.11132585720E+04  0.12700000000E+01 0. -1.
         25    2    1    2    0    0  0.00000000000E+00  0.00000000000E+00 -0.11098652853E+04  0.11168810544E+04  0.12498935210E+03 0.  0.
    9000005    1    3    3    0    0 -0.60159266351E+02  0.83248520594E+01 -0.68630546927E+03  0.68898812591E+03  0.10000000000E+01 0.  0.
    9000005    1    3    3    0    0  0.60159266351E+02 -0.83248520594E+01 -0.42355981603E+03  0.42789292849E+03  0.10000000000E+01 0.  0.
<mgrwt>
<rscale>  0 0.12498935E+03</rscale>
<asrwt>0</asrwt>
<pdfrwt beam="1">  1        4 0.53967543E-03 0.12498935E+03</pdfrwt>
<pdfrwt beam="2">  1       -4 0.17128790E+00 0.12498935E+03</pdfrwt>
<totfact> 0.27000838E+03</totfact>
</mgrwt>
</event>
<event>
 5    1  0.3340698E-002  0.1250018E+03  0.7818608E-02  0.1235066E+00
          4   -1    0    0  501    0  0.00000000000E+00  0.00000000000E+00  0.55049135516E+02  0.55063783207E+02  0.12700000000E+01 0. -1.
         -4   -1    0    0    0  501 -0.00000000000E+00 -0.00000000000E+00 -0.70931624279E+02  0.70942992767E+02  0.12700000000E+01 0. -1.
         25    2    1    2    0    0  0.00000000000E+00  0.00000000000E+00 -0.15882488762E+02  0.12600677597E+03  0.12500181656E+03 0.  0.
    9000005    1    3    3    0    0 -0.26414836178E+02 -0.46084184849E+02 -0.41128072576E+02  0.67186412446E+02  0.10000000000E+01 0.  0.
    9000005    1    3    3    0    0  0.26414836178E+02  0.46084184849E+02  0.25245583814E+02  0.58820363528E+02  0.10000000000E+01 0.  0.
<mgrwt>
<rscale>  0 0.12500182E+03</rscale>
<asrwt>0</asrwt>
<pdfrwt beam="1">  1        4 0.84710990E-02 0.12500182E+03</pdfrwt>
<pdfrwt beam="2">  1       -4 0.10914559E-01 0.12500182E+03</pdfrwt>
<totfact> 0.10430381E+04</totfact>
</mgrwt>
</event>
<event>
 5    1  0.3340698E-002  0.1250027E+03  0.7818608E-02  0.1235065E+00
          4   -1    0    0  501    0  0.00000000000E+00  0.00000000000E+00  0.17223088438E+03  0.17223556669E+03  0.12700000000E+01 0. -1.
         -4   -1    0    0    0  501 -0.00000000000E+00 -0.00000000000E+00 -0.22658521706E+02  0.22694085262E+02  0.12700000000E+01 0. -1.
         25    2    1    2    0    0  0.00000000000E+00  0.00000000000E+00  0.14957236268E+03  0.19492965196E+03  0.12500271011E+03 0.  0.
    9000005    1    3    3    0    0  0.33660328596E+02  0.49451774507E+02  0.46590560915E+02  0.75829915531E+02  0.10000000000E+01 0.  0.
    9000005    1    3    3    0    0 -0.33660328596E+02 -0.49451774507E+02  0.10298180176E+03  0.11909973643E+03  0.10000000000E+01 0.  0.
<mgrwt>
<rscale>  0 0.12500271E+03</rscale>
<asrwt>0</asrwt>
<pdfrwt beam="1">  1        4 0.26500154E-01 0.12500271E+03</pdfrwt>
<pdfrwt beam="2">  1       -4 0.34890224E-02 0.12500271E+03</pdfrwt>
<totfact> 0.90991056E+03</totfact>
</mgrwt>
</event>
<event>
 5    1  0.3340698E-002  0.1250003E+03  0.7818608E-02  0.1235069E+00
          4   -1    0    0  501    0  0.00000000000E+00  0.00000000000E+00  0.49475812736E+02  0.49492109936E+02  0.12700000000E+01 0. -1.
         -4   -1    0    0    0  501 -0.00000000000E+00 -0.00000000000E+00 -0.78918714512E+02  0.78928932592E+02  0.12700000000E+01 0. -1.
         25    2    1    2    0    0  0.00000000000E+00  0.00000000000E+00 -0.29442901776E+02  0.12842104253E+03  0.12500031880E+03 0.  0.
    9000005    1    3    3    0    0 -0.38886308445E+02  0.15766996527E+02  0.32854864624E+02  0.53302770035E+02  0.10000000000E+01 0.  0.
    9000005    1    3    3    0    0  0.38886308445E+02 -0.15766996527E+02 -0.62297766400E+02  0.75118272493E+02  0.10000000000E+01 0.  0.
<mgrwt>
<rscale>  0 0.12500032E+03</rscale>
<asrwt>0</asrwt>
<pdfrwt beam="1">  1        4 0.76137031E-02 0.12500032E+03</pdfrwt>
<pdfrwt beam="2">  1       -4 0.12143380E-01 0.12500032E+03</pdfrwt>
<totfact> 0.10378330E+04</totfact>
</mgrwt>
</event>
<event>
 5    1  0.3340698E-002  0.1249995E+03  0.7818608E-02  0.1235070E+00
         -4   -1    0    0    0  501 -0.00000000000E+00  0.00000000000E+00  0.36928484455E+01  0.39051286331E+01  0.12700000000E+01 0.  1.
          4   -1    0    0  501    0  0.00000000000E+00 -0.00000000000E+00 -0.10280130697E+04  0.10280138542E+04  0.12700000000E+01 0.  1.
         25    2    1    2    0    0  0.00000000000E+00  0.00000000000E+00 -0.10243202213E+04  0.10319189828E+04  0.12499948563E+03 0.  0.
    9000005    1    3    3    0    0 -0.34564741087E+02 -0.24020747171E+02 -0.13084525713E+03  0.13745253338E+03  0.10000000000E+01 0.  0.
    9000005    1    3    3    0    0  0.34564741087E+02  0.24020747171E+02 -0.89347496414E+03  0.89446644943E+03  0.10000000000E+01 0.  0.
<mgrwt>
<rscale>  0 0.12499949E+03</rscale>
<asrwt>0</asrwt>
<pdfrwt beam="2">  1        4 0.15817203E+00 0.12499949E+03</pdfrwt>
<pdfrwt beam="1">  1       -4 0.58452094E-03 0.12499949E+03</pdfrwt>
<totfact> 0.29566487E+03</totfact>
</mgrwt>
</event>
<event>
 5    1  0.3340698E-002  0.1249971E+03  0.7818608E-02  0.1235074E+00
         -4   -1    0    0    0  501 -0.00000000000E+00  0.00000000000E+00  0.46639933632E+03  0.46640106541E+03  0.12700000000E+01 0.  1.
          4   -1    0    0  501    0  0.00000000000E+00 -0.00000000000E+00 -0.83250464619E+01  0.84213596642E+01  0.12700000000E+01 0.  1.
         25    2    1    2    0    0  0.00000000000E+00  0.00000000000E+00  0.45807428985E+03  0.47482242507E+03  0.12499712128E+03 0.  0.
    9000005    1    3    3    0    0  0.28966042088E+02 -0.10327393985E+02  0.43568544110E+03  0.43677052355E+03  0.10000000000E+01 0.  0.
    9000005    1    3    3    0    0 -0.28966042088E+02  0.10327393985E+02  0.22388848757E+02  0.38051901522E+02  0.10000000000E+01 0.  0.
<mgrwt>
<rscale>  0 0.12499712E+03</rscale>
<asrwt>0</asrwt>
<pdfrwt beam="2">  1        4 0.12883181E-02 0.12499712E+03</pdfrwt>
<pdfrwt beam="1">  1       -4 0.71761287E-01 0.12499712E+03</pdfrwt>
<totfact> 0.57875824E+03</totfact>
</mgrwt>
</event>
<event>
 5    1  0.3340698E-002  0.1249962E+03  0.7818608E-02  0.1235075E+00
         -4   -1    0    0    0  501 -0.00000000000E+00  0.00000000000E+00  0.13267741874E+03  0.13268349688E+03  0.12700000000E+01 0.  1.
          4   -1    0    0  501    0  0.00000000000E+00 -0.00000000000E+00 -0.29419469704E+02  0.29446869064E+02  0.12700000000E+01 0.  1.
         25    2    1    2    0    0  0.00000000000E+00  0.00000000000E+00  0.10325794904E+03  0.16213036594E+03  0.12499620603E+03 0.  0.
    9000005    1    3    3    0    0 -0.65618848400E+01 -0.24983560042E+02  0.12543485235E+03  0.12807083504E+03  0.10000000000E+01 0.  0.
    9000005    1    3    3    0    0  0.65618848400E+01  0.24983560042E+02 -0.22176903307E+02  0.34059530903E+02  0.10000000000E+01 0.  0.
<mgrwt>
<rscale>  0 0.12499621E+03</rscale>
<asrwt>0</asrwt>
<pdfrwt beam="2">  1        4 0.45286475E-02 0.12499621E+03</pdfrwt>
<pdfrwt beam="1">  1       -4 0.20414486E-01 0.12499621E+03</pdfrwt>
<totfact> 0.96941897E+03</totfact>
</mgrwt>
</event>
<event>
 5    1  0.3340698E-002  0.1250336E+03  0.7818608E-02  0.1235017E+00
          4   -1    0    0  501    0  0.00000000000E+00  0.00000000000E+00  0.36930925491E+02  0.36952755752E+02  0.12700000000E+01 0. -1.
         -4   -1    0    0    0  501 -0.00000000000E+00 -0.00000000000E+00 -0.10577171983E+03  0.10577934399E+03  0.12700000000E+01 0. -1.
         25    2    1    2    0    0  0.00000000000E+00  0.00000000000E+00 -0.68840794338E+02  0.14273209975E+03  0.12503358482E+03 0.  0.
    9000005    1    3    3    0    0 -0.21595826689E+02 -0.43316438737E+02 -0.79575243683E+02  0.93144581175E+02  0.10000000000E+01 0.  0.
    9000005    1    3    3    0    0  0.21595826689E+02  0.43316438737E+02  0.10734449344E+02  0.49587518570E+02  0.10000000000E+01 0.  0.
<mgrwt>
<rscale>  0 0.12503358E+03</rscale>
<asrwt>0</asrwt>
<pdfrwt beam="1">  1        4 0.56839466E-02 0.12503358E+03</pdfrwt>
<pdfrwt beam="2">  1       -4 0.16274838E-01 0.12503358E+03</pdfrwt>
<totfact> 0.10069653E+04</totfact>
</mgrwt>
</event>
<event>
 5    1  0.3340698E-002  0.1250218E+03  0.7818608E-02  0.1235035E+00
         -4   -1    0    0    0  501 -0.00000000000E+00  0.00000000000E+00  0.80781308331E+02  0.80791290840E+02  0.12700000000E+01 0. -1.
          4   -1    0    0  501    0  0.00000000000E+00 -0.00000000000E+00 -0.48351429335E+02  0.48368105387E+02  0.12700000000E+01 0. -1.
         25    2    1    2    0    0  0.00000000000E+00  0.00000000000E+00  0.32429878995E+02  0.12915939623E+03  0.12502180843E+03 0.  0.
    9000005    1    3    3    0    0  0.29129633129E+02  0.54159537344E+02  0.46728076482E+01  0.61681651590E+02  0.10000000000E+01 0.  0.
    9000005    1    3    3    0    0 -0.29129633129E+02 -0.54159537344E+02  0.27757071347E+02  0.67477744637E+02  0.10000000000E+01 0.  0.
<mgrwt>
<rscale>  0 0.12502181E+03</rscale>
<asrwt>0</asrwt>
<pdfrwt beam="2">  1        4 0.74407321E-02 0.12502181E+03</pdfrwt>
<pdfrwt beam="1">  1       -4 0.12429944E-01 0.12502181E+03</pdfrwt>
<totfact> 0.10357423E+04</totfact>
</mgrwt>
</event>
<event>
 5    1  0.3340698E-002  0.1249923E+03  0.7818608E-02  0.1235081E+00
         -4   -1    0    0    0  501 -0.00000000000E+00  0.00000000000E+00  0.16364252967E+04  0.16364257896E+04  0.12700000000E+01 0. -1.
          4   -1    0    0  501    0  0.00000000000E+00 -0.00000000000E+00 -0.22172968150E+01  0.25552505094E+01  0.12700000000E+01 0. -1.
         25    2    1    2    0    0  0.00000000000E+00  0.00000000000E+00  0.16342079999E+04  0.16389810401E+04  0.12499225041E+03 0.  0.
    9000005    1    3    3    0    0  0.45678255884E+01  0.38691953822E+02  0.17648193874E+03  0.18073407820E+03  0.10000000000E+01 0.  0.
    9000005    1    3    3    0    0 -0.45678255884E+01 -0.38691953822E+02  0.14577260612E+04  0.14582469619E+04  0.10000000000E+01 0.  0.
<mgrwt>
<rscale>  0 0.12499225E+03</rscale>
<asrwt>0</asrwt>
<pdfrwt beam="2">  1        4 0.36715591E-03 0.12499225E+03</pdfrwt>
<pdfrwt beam="1">  1       -4 0.25178447E+00 0.12499225E+03</pdfrwt>
<totfact> 0.15354320E+03</totfact>
</mgrwt>
</event>
<event>
 5    1  0.3340698E-002  0.1250008E+03  0.7818608E-02  0.1235068E+00
         -4   -1    0    0    0  501 -0.00000000000E+00  0.00000000000E+00  0.18696605775E+02  0.18739689632E+02  0.12700000000E+01 0. -1.
          4   -1    0    0  501    0  0.00000000000E+00 -0.00000000000E+00 -0.20864561399E+03  0.20864947912E+03  0.12700000000E+01 0. -1.
         25    2    1    2    0    0  0.00000000000E+00  0.00000000000E+00 -0.18994900822E+03  0.22738916875E+03  0.12500083337E+03 0.  0.
    9000005    1    3    3    0    0  0.10200940015E+02  0.46539647079E+02 -0.16853694584E+03  0.17514479736E+03  0.10000000000E+01 0.  0.
    9000005    1    3    3    0    0 -0.10200940015E+02 -0.46539647079E+02 -0.21412062374E+02  0.52244371396E+02  0.10000000000E+01 0.  0.
<mgrwt>
<rscale>  0 0.12500083E+03</rscale>
<asrwt>0</asrwt>
<pdfrwt beam="2">  1        4 0.32102935E-01 0.12500083E+03</pdfrwt>
<pdfrwt beam="1">  1       -4 0.28800125E-02 0.12500083E+03</pdfrwt>
<totfact> 0.85710518E+03</totfact>
</mgrwt>
</event>
<event>
 5    1  0.3340698E-002  0.1249988E+03  0.7818608E-02  0.1235071E+00
         -4   -1    0    0    0  501 -0.00000000000E+00  0.00000000000E+00  0.50003535541E+01  0.51591119068E+01  0.12700000000E+01 0. -1.
          4   -1    0    0  501    0  0.00000000000E+00 -0.00000000000E+00 -0.76881338594E+03  0.76881443489E+03  0.12700000000E+01 0. -1.
         25    2    1    2    0    0  0.00000000000E+00  0.00000000000E+00 -0.76381303239E+03  0.77397354680E+03  0.12499881081E+03 0.  0.
    9000005    1    3    3    0    0 -0.31743181438E+02 -0.26095368494E+02 -0.90390962860E+02  0.99298157039E+02  0.10000000000E+01 0.  0.
    9000005    1    3    3    0    0  0.31743181438E+02  0.26095368494E+02 -0.67342206953E+03  0.67467538976E+03  0.10000000000E+01 0.  0.
<mgrwt>
<rscale>  0 0.12499881E+03</rscale>
<asrwt>0</asrwt>
<pdfrwt beam="2">  1        4 0.11829118E+00 0.12499881E+03</pdfrwt>
<pdfrwt beam="1">  1       -4 0.78157864E-03 0.12499881E+03</pdfrwt>
<totfact> 0.39453911E+03</totfact>
</mgrwt>
</event>
<event>
 5    1  0.3340698E-002  0.1249965E+03  0.7818608E-02  0.1235075E+00
         -4   -1    0    0    0  501 -0.00000000000E+00  0.00000000000E+00  0.10690688244E+03  0.10691442565E+03  0.12700000000E+01 0.  1.
          4   -1    0    0  501    0  0.00000000000E+00 -0.00000000000E+00 -0.36516910978E+02  0.36538988592E+02  0.12700000000E+01 0.  1.
         25    2    1    2    0    0  0.00000000000E+00  0.00000000000E+00  0.70389971462E+02  0.14345341425E+03  0.12499653586E+03 0.  0.
    9000005    1    3    3    0    0  0.84333416294E+01  0.51280755717E+02 -0.46305441351E+01  0.52185046679E+02  0.10000000000E+01 0.  0.
    9000005    1    3    3    0    0 -0.84333416294E+01 -0.51280755717E+02  0.75020515597E+02  0.91268367567E+02  0.10000000000E+01 0.  0.
<mgrwt>
<rscale>  0 0.12499654E+03</rscale>
<asrwt>0</asrwt>
<pdfrwt beam="2">  1        4 0.56202649E-02 0.12499654E+03</pdfrwt>
<pdfrwt beam="1">  1       -4 0.16449491E-01 0.12499654E+03</pdfrwt>
<totfact> 0.10063292E+04</totfact>
</mgrwt>
</event>
<event>
 5    1  0.3340698E-002  0.1249985E+03  0.7818608E-02  0.1235072E+00
          4   -1    0    0  501    0  0.00000000000E+00  0.00000000000E+00  0.22312092270E+03  0.22312453708E+03  0.12700000000E+01 0.  1.
         -4   -1    0    0    0  501 -0.00000000000E+00 -0.00000000000E+00 -0.17480102761E+02  0.17526177351E+02  0.12700000000E+01 0.  1.
         25    2    1    2    0    0  0.00000000000E+00  0.00000000000E+00  0.20564081994E+03  0.24065071443E+03  0.12499847811E+03 0.  0.
    9000005    1    3    3    0    0 -0.46691678182E+02 -0.19980633264E+02  0.32719425397E+02  0.60422672196E+02  0.10000000000E+01 0.  0.
    9000005    1    3    3    0    0  0.46691678182E+02  0.19980633264E+02  0.17292139454E+03  0.18022804223E+03  0.10000000000E+01 0.  0.
<mgrwt>
<rscale>  0 0.12499848E+03</rscale>
<asrwt>0</asrwt>
<pdfrwt beam="1">  1        4 0.34330118E-01 0.12499848E+03</pdfrwt>
<pdfrwt beam="2">  1       -4 0.26930688E-02 0.12499848E+03</pdfrwt>
<totfact> 0.83703390E+03</totfact>
</mgrwt>
</event>
<event>
 5    1  0.3340698E-002  0.1250000E+03  0.7818608E-02  0.1235069E+00
         -4   -1    0    0    0  501 -0.00000000000E+00  0.00000000000E+00  0.25239937728E+02  0.25271868876E+02  0.12700000000E+01 0.  1.
          4   -1    0    0  501    0  0.00000000000E+00 -0.00000000000E+00 -0.15463221894E+03  0.15463743413E+03  0.12700000000E+01 0.  1.
         25    2    1    2    0    0  0.00000000000E+00  0.00000000000E+00 -0.12939228121E+03  0.17990930301E+03  0.12499997948E+03 0.  0.
    9000005    1    3    3    0    0  0.14149829907E+01 -0.59795501780E+02 -0.90752359302E+02  0.10869450275E+03  0.10000000000E+01 0.  0.
    9000005    1    3    3    0    0 -0.14149829907E+01  0.59795501780E+02 -0.38639921912E+02  0.71214800255E+02  0.10000000000E+01 0.  0.
<mgrwt>
<rscale>  0 0.12499998E+03</rscale>
<asrwt>0</asrwt>
<pdfrwt beam="2">  1        4 0.23792429E-01 0.12499998E+03</pdfrwt>
<pdfrwt beam="1">  1       -4 0.38859248E-02 0.12499998E+03</pdfrwt>
<totfact> 0.93633375E+03</totfact>
</mgrwt>
</event>
<event>
 5    1  0.3340698E-002  0.1250002E+03  0.7818608E-02  0.1235069E+00
         -4   -1    0    0    0  501 -0.00000000000E+00  0.00000000000E+00  0.19803319462E+03  0.19803726688E+03  0.12700000000E+01 0.  1.
          4   -1    0    0  501    0  0.00000000000E+00 -0.00000000000E+00 -0.19700578463E+02  0.19741471368E+02  0.12700000000E+01 0.  1.
         25    2    1    2    0    0  0.00000000000E+00  0.00000000000E+00  0.17833261616E+03  0.21777873824E+03  0.12500022738E+03 0.  0.
    9000005    1    3    3    0    0 -0.44445556833E+01 -0.55523330620E+02  0.39806534254E+02  0.68470099223E+02  0.10000000000E+01 0.  0.
    9000005    1    3    3    0    0  0.44445556833E+01  0.55523330620E+02  0.13852608190E+03  0.14930863902E+03  0.10000000000E+01 0.  0.
<mgrwt>
<rscale>  0 0.12500023E+03</rscale>
<asrwt>0</asrwt>
<pdfrwt beam="2">  1        4 0.30343173E-02 0.12500023E+03</pdfrwt>
<pdfrwt beam="1">  1       -4 0.30470102E-01 0.12500023E+03</pdfrwt>
<totfact> 0.87220618E+03</totfact>
</mgrwt>
</event>
<event>
 5    1  0.3340698E-002  0.1249971E+03  0.7818608E-02  0.1235074E+00
          4   -1    0    0  501    0  0.00000000000E+00  0.00000000000E+00  0.25400777036E+03  0.25401094524E+03  0.12700000000E+01 0. -1.
         -4   -1    0    0    0  501 -0.00000000000E+00 -0.00000000000E+00 -0.15348243748E+02  0.15400697587E+02  0.12700000000E+01 0. -1.
         25    2    1    2    0    0  0.00000000000E+00  0.00000000000E+00  0.23865952661E+03  0.26941164283E+03  0.12499705456E+03 0.  0.
    9000005    1    3    3    0    0  0.45767455334E+02 -0.14795176088E+02  0.33345081086E+02  0.58535900401E+02  0.10000000000E+01 0.  0.
    9000005    1    3    3    0    0 -0.45767455334E+02  0.14795176088E+02  0.20531444553E+03  0.21087574243E+03  0.10000000000E+01 0.  0.
<mgrwt>
<rscale>  0 0.12499705E+03</rscale>
<asrwt>0</asrwt>
<pdfrwt beam="1">  1        4 0.39082394E-01 0.12499705E+03</pdfrwt>
<pdfrwt beam="2">  1       -4 0.23655476E-02 0.12499705E+03</pdfrwt>
<totfact> 0.79608366E+03</totfact>
</mgrwt>
</event>
<event>
 5    1  0.3340698E-002  0.1250024E+03  0.7818608E-02  0.1235066E+00
         -4   -1    0    0    0  501 -0.00000000000E+00  0.00000000000E+00  0.18453152160E+01  0.22401089809E+01  0.12700000000E+01 0.  1.
          4   -1    0    0  501    0  0.00000000000E+00 -0.00000000000E+00 -0.19119644550E+04  0.19119648768E+04  0.12700000000E+01 0.  1.
         25    2    1    2    0    0  0.00000000000E+00  0.00000000000E+00 -0.19101191398E+04  0.19142049858E+04  0.12500239752E+03 0.  0.
    9000005    1    3    3    0    0  0.29384108231E+02  0.33724022749E+02 -0.28674747121E+03  0.29021689781E+03  0.10000000000E+01 0.  0.
    9000005    1    3    3    0    0 -0.29384108231E+02 -0.33724022749E+02 -0.16233716686E+04  0.16239880879E+04  0.10000000000E+01 0.  0.
<mgrwt>
<rscale>  0 0.12500240E+03</rscale>
<asrwt>0</asrwt>
<pdfrwt beam="2">  1        4 0.29417735E+00 0.12500240E+03</pdfrwt>
<pdfrwt beam="1">  1       -4 0.31429737E-03 0.12500240E+03</pdfrwt>
<totfact> 0.11022453E+03</totfact>
</mgrwt>
</event>
<event>
 5    1  0.3340698E-002  0.1250006E+03  0.7818608E-02  0.1235068E+00
          4   -1    0    0  501    0  0.00000000000E+00  0.00000000000E+00  0.10942287845E+03  0.10943024823E+03  0.12700000000E+01 0. -1.
         -4   -1    0    0    0  501 -0.00000000000E+00 -0.00000000000E+00 -0.35679131230E+02  0.35701726923E+02  0.12700000000E+01 0. -1.
         25    2    1    2    0    0  0.00000000000E+00  0.00000000000E+00  0.73743747217E+02  0.14513197515E+03  0.12500059983E+03 0.  0.
    9000005    1    3    3    0    0 -0.13631874995E+02  0.51041890431E+02 -0.18832960046E+01  0.52873900920E+02  0.10000000000E+01 0.  0.
    9000005    1    3    3    0    0  0.13631874995E+02 -0.51041890431E+02  0.75627043221E+02  0.92258074232E+02  0.10000000000E+01 0.  0.
<mgrwt>
<rscale>  0 0.12500060E+03</rscale>
<asrwt>0</asrwt>
<pdfrwt beam="1">  1        4 0.16836594E-01 0.12500060E+03</pdfrwt>
<pdfrwt beam="2">  1       -4 0.54914022E-02 0.12500060E+03</pdfrwt>
<totfact> 0.10028172E+04</totfact>
</mgrwt>
</event>
<event>
 5    1  0.3340698E-002  0.1249998E+03  0.7818608E-02  0.1235070E+00
          4   -1    0    0  501    0  0.00000000000E+00  0.00000000000E+00  0.15051023500E+02  0.15104509538E+02  0.12700000000E+01 0. -1.
         -4   -1    0    0    0  501 -0.00000000000E+00 -0.00000000000E+00 -0.25901758914E+03  0.25902070261E+03  0.12700000000E+01 0. -1.
         25    2    1    2    0    0  0.00000000000E+00  0.00000000000E+00 -0.24396656564E+03  0.27412521215E+03  0.12499978715E+03 0.  0.
    9000005    1    3    3    0    0 -0.27520455360E+02  0.52571689926E+01 -0.24448228541E+03  0.24608454069E+03  0.10000000000E+01 0.  0.
    9000005    1    3    3    0    0  0.27520455360E+02 -0.52571689926E+01  0.51571977151E+00  0.28040671460E+02  0.10000000000E+01 0.  0.
<mgrwt>
<rscale>  0 0.12499979E+03</rscale>
<asrwt>0</asrwt>
<pdfrwt beam="1">  1        4 0.23198961E-02 0.12499979E+03</pdfrwt>
<pdfrwt beam="2">  1       -4 0.39853210E-01 0.12499979E+03</pdfrwt>
<totfact> 0.78963939E+03</totfact>
</mgrwt>
</event>
<event>
 5    1  0.3340698E-002  0.1249983E+03  0.7818608E-02  0.1235072E+00
         -4   -1    0    0    0  501 -0.00000000000E+00  0.00000000000E+00  0.80128484022E+01  0.81128687600E+01  0.12700000000E+01 0.  1.
          4   -1    0    0  501    0  0.00000000000E+00 -0.00000000000E+00 -0.48436071735E+03  0.48436238232E+03  0.12700000000E+01 0.  1.
         25    2    1    2    0    0  0.00000000000E+00  0.00000000000E+00 -0.47634786895E+03  0.49247525108E+03  0.12499832271E+03 0.  0.
    9000005    1    3    3    0    0 -0.17903100246E+02  0.32459496333E+02 -0.43638447666E+03  0.43795724833E+03  0.10000000000E+01 0.  0.
    9000005    1    3    3    0    0  0.17903100246E+02 -0.32459496333E+02 -0.39963392289E+02  0.54518002750E+02  0.10000000000E+01 0.  0.
<mgrwt>
<rscale>  0 0.12499832E+03</rscale>
<asrwt>0</asrwt>
<pdfrwt beam="2">  1        4 0.74524833E-01 0.12499832E+03</pdfrwt>
<pdfrwt beam="1">  1       -4 0.12405682E-02 0.12499832E+03</pdfrwt>
<totfact> 0.56455050E+03</totfact>
</mgrwt>
</event>
<event>
 5    1  0.3340698E-002  0.1249986E+03  0.7818608E-02  0.1235071E+00
          4   -1    0    0  501    0  0.00000000000E+00  0.00000000000E+00  0.25284970506E+03  0.25285289449E+03  0.12700000000E+01 0.  1.
         -4   -1    0    0    0  501 -0.00000000000E+00 -0.00000000000E+00 -0.15419169140E+02  0.15471382517E+02  0.12700000000E+01 0.  1.
         25    2    1    2    0    0  0.00000000000E+00  0.00000000000E+00  0.23743053592E+03  0.26832427700E+03  0.12499863296E+03 0.  0.
    9000005    1    3    3    0    0  0.22818832267E+02 -0.57879091711E+02  0.10611109423E+03  0.12300915690E+03  0.10000000000E+01 0.  0.
    9000005    1    3    3    0    0 -0.22818832267E+02  0.57879091711E+02  0.13131944169E+03  0.14531512010E+03  0.10000000000E+01 0.  0.
<mgrwt>
<rscale>  0 0.12499863E+03</rscale>
<asrwt>0</asrwt>
<pdfrwt beam="1">  1        4 0.38904213E-01 0.12499863E+03</pdfrwt>
<pdfrwt beam="2">  1       -4 0.23764418E-02 0.12499863E+03</pdfrwt>
<totfact> 0.79754303E+03</totfact>
</mgrwt>
</event>
<event>
 5    1  0.3340698E-002  0.1249999E+03  0.7818608E-02  0.1235069E+00
          4   -1    0    0  501    0  0.00000000000E+00  0.00000000000E+00  0.41528455796E+01  0.43426980563E+01  0.12700000000E+01 0.  1.
         -4   -1    0    0    0  501 -0.00000000000E+00 -0.00000000000E+00 -0.91940767285E+03  0.91940854999E+03  0.12700000000E+01 0.  1.
         25    2    1    2    0    0  0.00000000000E+00  0.00000000000E+00 -0.91525482727E+03  0.92375124805E+03  0.12499987770E+03 0.  0.
    9000005    1    3    3    0    0  0.60609541058E+02 -0.72415476444E+01 -0.55657802685E+03  0.55991611555E+03  0.10000000000E+01 0.  0.
    9000005    1    3    3    0    0 -0.60609541058E+02  0.72415476444E+01 -0.35867680042E+03  0.36383513250E+03  0.10000000000E+01 0.  0.
<mgrwt>
<rscale>  0 0.12499988E+03</rscale>
<asrwt>0</asrwt>
<pdfrwt beam="1">  1        4 0.65357156E-03 0.12499988E+03</pdfrwt>
<pdfrwt beam="2">  1       -4 0.14146185E+00 0.12499988E+03</pdfrwt>
<totfact> 0.33266732E+03</totfact>
</mgrwt>
</event>
<event>
 5    1  0.3340698E-002  0.1249998E+03  0.7818608E-02  0.1235070E+00
         -4   -1    0    0    0  501 -0.00000000000E+00  0.00000000000E+00  0.65816907425E+03  0.65817029954E+03  0.12700000000E+01 0. -1.
          4   -1    0    0  501    0  0.00000000000E+00 -0.00000000000E+00 -0.58658218467E+01  0.60017302453E+01  0.12700000000E+01 0. -1.
         25    2    1    2    0    0  0.00000000000E+00  0.00000000000E+00  0.65230325240E+03  0.66417202979E+03  0.12499980822E+03 0.  0.
    9000005    1    3    3    0    0 -0.31935092679E+02  0.53100033650E+02  0.36924389292E+03  0.37440822130E+03  0.10000000000E+01 0.  0.
    9000005    1    3    3    0    0  0.31935092679E+02 -0.53100033650E+02  0.28305935949E+03  0.28976380849E+03  0.10000000000E+01 0.  0.
<mgrwt>
<rscale>  0 0.12499981E+03</rscale>
<asrwt>0</asrwt>
<pdfrwt beam="2">  1        4 0.91298284E-03 0.12499981E+03</pdfrwt>
<pdfrwt beam="1">  1       -4 0.10126733E+00 0.12499981E+03</pdfrwt>
<totfact> 0.45046788E+03</totfact>
</mgrwt>
</event>
<event>
 5    1  0.3340698E-002  0.1250004E+03  0.7818608E-02  0.1235069E+00
          4   -1    0    0  501    0  0.00000000000E+00  0.00000000000E+00  0.16498119834E+03  0.16498608640E+03  0.12700000000E+01 0. -1.
         -4   -1    0    0    0  501 -0.00000000000E+00 -0.00000000000E+00 -0.23654820884E+02  0.23688888767E+02  0.12700000000E+01 0. -1.
         25    2    1    2    0    0  0.00000000000E+00  0.00000000000E+00  0.14132637746E+03  0.18867497517E+03  0.12500040516E+03 0.  0.
    9000005    1    3    3    0    0 -0.36137291131E+02  0.58745176774E+01 -0.57793047246E+01  0.37078486098E+02  0.10000000000E+01 0.  0.
    9000005    1    3    3    0    0  0.36137291131E+02 -0.58745176774E+01  0.14710568218E+03  0.15159648907E+03  0.10000000000E+01 0.  0.
<mgrwt>
<rscale>  0 0.12500041E+03</rscale>
<asrwt>0</asrwt>
<pdfrwt beam="1">  1        4 0.25384720E-01 0.12500041E+03</pdfrwt>
<pdfrwt beam="2">  1       -4 0.36421998E-02 0.12500041E+03</pdfrwt>
<totfact> 0.92077540E+03</totfact>
</mgrwt>
</event>
<event>
 5    1  0.3340698E-002  0.1250070E+03  0.7818608E-02  0.1235058E+00
         -4   -1    0    0    0  501 -0.00000000000E+00  0.00000000000E+00  0.22132965182E+03  0.22133329545E+03  0.12700000000E+01 0.  1.
          4   -1    0    0  501    0  0.00000000000E+00 -0.00000000000E+00 -0.17624364561E+02  0.17670062993E+02  0.12700000000E+01 0.  1.
         25    2    1    2    0    0  0.00000000000E+00  0.00000000000E+00  0.20370528726E+03  0.23900335844E+03  0.12500704496E+03 0.  0.
    9000005    1    3    3    0    0  0.35688210430E+02  0.51112915269E+02  0.11029801504E+03  0.12669976556E+03  0.10000000000E+01 0.  0.
    9000005    1    3    3    0    0 -0.35688210430E+02 -0.51112915269E+02  0.93407272214E+02  0.11230359288E+03  0.10000000000E+01 0.  0.
<mgrwt>
<rscale>  0 0.12500704E+03</rscale>
<asrwt>0</asrwt>
<pdfrwt beam="2">  1        4 0.27152364E-02 0.12500704E+03</pdfrwt>
<pdfrwt beam="1">  1       -4 0.34054509E-01 0.12500704E+03</pdfrwt>
<totfact> 0.83932840E+03</totfact>
</mgrwt>
</event>
<event>
 5    1  0.3340698E-002  0.1250032E+03  0.7818608E-02  0.1235064E+00
         -4   -1    0    0    0  501 -0.00000000000E+00  0.00000000000E+00  0.11604393593E+03  0.11605088525E+03  0.12700000000E+01 0. -1.
          4   -1    0    0  501    0  0.00000000000E+00 -0.00000000000E+00 -0.33643622793E+02  0.33667584627E+02  0.12700000000E+01 0. -1.
         25    2    1    2    0    0  0.00000000000E+00  0.00000000000E+00  0.82400313139E+02  0.14971846987E+03  0.12500323442E+03 0.  0.
    9000005    1    3    3    0    0 -0.28256875623E+02  0.88454936774E+01 -0.24715175396E+02  0.38581519841E+02  0.10000000000E+01 0.  0.
    9000005    1    3    3    0    0  0.28256875623E+02 -0.88454936774E+01  0.10711548853E+03  0.11113695003E+03  0.10000000000E+01 0.  0.
<mgrwt>
<rscale>  0 0.12500323E+03</rscale>
<asrwt>0</asrwt>
<pdfrwt beam="2">  1        4 0.51783198E-02 0.12500323E+03</pdfrwt>
<pdfrwt beam="1">  1       -4 0.17855291E-01 0.12500323E+03</pdfrwt>
<totfact> 0.99352614E+03</totfact>
</mgrwt>
</event>
<event>
 5    1  0.3340698E-002  0.1250106E+03  0.7818608E-02  0.1235053E+00
          4   -1    0    0  501    0  0.00000000000E+00  0.00000000000E+00  0.77745398077E+01  0.78775865099E+01  0.12700000000E+01 0.  1.
         -4   -1    0    0    0  501 -0.00000000000E+00 -0.00000000000E+00 -0.49911426857E+03  0.49911588433E+03  0.12700000000E+01 0.  1.
         25    2    1    2    0    0  0.00000000000E+00  0.00000000000E+00 -0.49133972877E+03  0.50699347084E+03  0.12501060121E+03 0.  0.
    9000005    1    3    3    0    0 -0.48571605008E+02  0.29532517943E+01 -0.86620370380E+02  0.99357994514E+02  0.10000000000E+01 0.  0.
    9000005    1    3    3    0    0  0.48571605008E+02 -0.29532517943E+01 -0.40471935839E+03  0.40763547633E+03  0.10000000000E+01 0.  0.
<mgrwt>
<rscale>  0 0.12501060E+03</rscale>
<asrwt>0</asrwt>
<pdfrwt beam="1">  1        4 0.12041344E-02 0.12501060E+03</pdfrwt>
<pdfrwt beam="2">  1       -4 0.76794837E-01 0.12501060E+03</pdfrwt>
<totfact> 0.55312932E+03</totfact>
</mgrwt>
</event>
<event>
 5    1  0.3340698E-002  0.1250148E+03  0.7818608E-02  0.1235046E+00
         -4   -1    0    0    0  501 -0.00000000000E+00  0.00000000000E+00  0.64588074830E+01  0.65824838855E+01  0.12700000000E+01 0.  1.
          4   -1    0    0  501    0  0.00000000000E+00 -0.00000000000E+00 -0.59907583478E+03  0.59907718094E+03  0.12700000000E+01 0.  1.
         25    2    1    2    0    0  0.00000000000E+00  0.00000000000E+00 -0.59261702730E+03  0.60565966482E+03  0.12501475332E+03 0.  0.
    9000005    1    3    3    0    0  0.18298447897E+02 -0.11252297131E+02 -0.11964135338E+02  0.24608696035E+02  0.10000000000E+01 0.  0.
    9000005    1    3    3    0    0 -0.18298447897E+02  0.11252297131E+02 -0.58065289196E+03  0.58105096879E+03  0.10000000000E+01 0.  0.
<mgrwt>
<rscale>  0 0.12501475E+03</rscale>
<asrwt>0</asrwt>
<pdfrwt beam="2">  1        4 0.92175087E-01 0.12501475E+03</pdfrwt>
<pdfrwt beam="1">  1       -4 0.10032803E-02 0.12501475E+03</pdfrwt>
<totfact> 0.48496622E+03</totfact>
</mgrwt>
</event>
<event>
 5    1  0.3340698E-002  0.1249995E+03  0.7818608E-02  0.1235070E+00
         -4   -1    0    0    0  501 -0.00000000000E+00  0.00000000000E+00  0.77397947052E+02  0.77408365878E+02  0.12700000000E+01 0.  1.
          4   -1    0    0  501    0  0.00000000000E+00 -0.00000000000E+00 -0.50447484480E+02  0.50463467879E+02  0.12700000000E+01 0.  1.
         25    2    1    2    0    0  0.00000000000E+00  0.00000000000E+00  0.26950462572E+02  0.12787183376E+03  0.12499951374E+03 0.  0.
    9000005    1    3    3    0    0 -0.37035649147E+01 -0.39855280679E+02  0.62568186833E+02  0.74282823012E+02  0.10000000000E+01 0.  0.
    9000005    1    3    3    0    0  0.37035649147E+01  0.39855280679E+02 -0.35617724261E+02  0.53589010745E+02  0.10000000000E+01 0.  0.
<mgrwt>
<rscale>  0 0.12499951E+03</rscale>
<asrwt>0</asrwt>
<pdfrwt beam="2">  1        4 0.77631824E-02 0.12499951E+03</pdfrwt>
<pdfrwt beam="1">  1       -4 0.11909407E-01 0.12499951E+03</pdfrwt>
<totfact> 0.10390370E+04</totfact>
</mgrwt>
</event>
<event>
 5    1  0.3340698E-002  0.1250100E+03  0.7818608E-02  0.1235054E+00
         -4   -1    0    0    0  501 -0.00000000000E+00  0.00000000000E+00  0.55182820289E+02  0.55197432504E+02  0.12700000000E+01 0. -1.
          4   -1    0    0  501    0  0.00000000000E+00 -0.00000000000E+00 -0.70769041585E+02  0.70780436187E+02  0.12700000000E+01 0. -1.
         25    2    1    2    0    0  0.00000000000E+00  0.00000000000E+00 -0.15586221296E+02  0.12597786869E+03  0.12500997202E+03 0.  0.
    9000005    1    3    3    0    0  0.45268385085E+02 -0.13809901305E+02 -0.48924974737E+02  0.68077846729E+02  0.10000000000E+01 0.  0.
    9000005    1    3    3    0    0 -0.45268385085E+02  0.13809901305E+02  0.33338753440E+02  0.57900021962E+02  0.10000000000E+01 0.  0.
<mgrwt>
<rscale>  0 0.12500997E+03</rscale>
<asrwt>0</asrwt>
<pdfrwt beam="2">  1        4 0.10889545E-01 0.12500997E+03</pdfrwt>
<pdfrwt beam="1">  1       -4 0.84916651E-02 0.12500997E+03</pdfrwt>
<totfact> 0.10429095E+04</totfact>
</mgrwt>
</event>
<event>
 5    1  0.3340698E-002  0.1250495E+03  0.7818608E-02  0.1234992E+00
         -4   -1    0    0    0  501 -0.00000000000E+00  0.00000000000E+00  0.22119714943E+03  0.22120079524E+03  0.12700000000E+01 0. -1.
          4   -1    0    0  501    0  0.00000000000E+00 -0.00000000000E+00 -0.17646956875E+02  0.17692596953E+02  0.12700000000E+01 0. -1.
         25    2    1    2    0    0  0.00000000000E+00  0.00000000000E+00  0.20355019256E+03  0.23889339220E+03  0.12504947799E+03 0.  0.
    9000005    1    3    3    0    0 -0.29818169612E+02 -0.48203661789E+02  0.15216115487E+03  0.16237836463E+03  0.10000000000E+01 0.  0.
    9000005    1    3    3    0    0  0.29818169612E+02  0.48203661789E+02  0.51389037683E+02  0.76515027562E+02  0.10000000000E+01 0.  0.
<mgrwt>
<rscale>  0 0.12504948E+03</rscale>
<asrwt>0</asrwt>
<pdfrwt beam="2">  1        4 0.27187077E-02 0.12504948E+03</pdfrwt>
<pdfrwt beam="1">  1       -4 0.34034122E-01 0.12504948E+03</pdfrwt>
<totfact> 0.83869897E+03</totfact>
</mgrwt>
</event>
<event>
 5    1  0.3340698E-002  0.1250072E+03  0.7818608E-02  0.1235058E+00
          4   -1    0    0  501    0  0.00000000000E+00  0.00000000000E+00  0.12464891106E+02  0.12529421786E+02  0.12700000000E+01 0. -1.
         -4   -1    0    0    0  501 -0.00000000000E+00 -0.00000000000E+00 -0.31254144152E+03  0.31254402180E+03  0.12700000000E+01 0. -1.
         25    2    1    2    0    0  0.00000000000E+00  0.00000000000E+00 -0.30007655041E+03  0.32507344359E+03  0.12500723027E+03 0.  0.
    9000005    1    3    3    0    0  0.13817981117E+02  0.60406258202E+02 -0.17114018933E+03  0.18201598017E+03  0.10000000000E+01 0.  0.
    9000005    1    3    3    0    0 -0.13817981117E+02 -0.60406258202E+02 -0.12893636108E+03  0.14305746342E+03  0.10000000000E+01 0.  0.
<mgrwt>
<rscale>  0 0.12500723E+03</rscale>
<asrwt>0</asrwt>
<pdfrwt beam="1">  1        4 0.19228382E-02 0.12500723E+03</pdfrwt>
<pdfrwt beam="2">  1       -4 0.48088455E-01 0.12500723E+03</pdfrwt>
<totfact> 0.72545121E+03</totfact>
</mgrwt>
</event>
<event>
 5    1  0.3340698E-002  0.1250011E+03  0.7818608E-02  0.1235068E+00
         -4   -1    0    0    0  501 -0.00000000000E+00  0.00000000000E+00  0.45218758222E+03  0.45218936566E+03  0.12700000000E+01 0. -1.
          4   -1    0    0  501    0  0.00000000000E+00 -0.00000000000E+00 -0.85902196358E+01  0.86835921940E+01  0.12700000000E+01 0. -1.
         25    2    1    2    0    0  0.00000000000E+00  0.00000000000E+00  0.44359736258E+03  0.46087295785E+03  0.12500105274E+03 0.  0.
    9000005    1    3    3    0    0 -0.53893015931E+02  0.29399745244E+02  0.17872068131E+03  0.18897323650E+03  0.10000000000E+01 0.  0.
    9000005    1    3    3    0    0  0.53893015931E+02 -0.29399745244E+02  0.26487668128E+03  0.27189972135E+03  0.10000000000E+01 0.  0.
<mgrwt>
<rscale>  0 0.12500105E+03</rscale>
<asrwt>0</asrwt>
<pdfrwt beam="2">  1        4 0.13288915E-02 0.12500105E+03</pdfrwt>
<pdfrwt beam="1">  1       -4 0.69574663E-01 0.12500105E+03</pdfrwt>
<totfact> 0.59031928E+03</totfact>
</mgrwt>
</event>
<event>
 5    1  0.3340698E-002  0.1249963E+03  0.7818608E-02  0.1235075E+00
         -4   -1    0    0    0  501 -0.00000000000E+00  0.00000000000E+00  0.50847605150E+01  0.52409626497E+01  0.12700000000E+01 0. -1.
          4   -1    0    0  501    0  0.00000000000E+00 -0.00000000000E+00 -0.75640365294E+03  0.75640471911E+03  0.12700000000E+01 0. -1.
         25    2    1    2    0    0  0.00000000000E+00  0.00000000000E+00 -0.75131889243E+03  0.76164568176E+03  0.12499626561E+03 0.  0.
    9000005    1    3    3    0    0 -0.40518162165E+02  0.29244449914E+02 -0.14701212988E+03  0.15527564409E+03  0.10000000000E+01 0.  0.
    9000005    1    3    3    0    0  0.40518162165E+02 -0.29244449914E+02 -0.60430676255E+03  0.60637003767E+03  0.10000000000E+01 0.  0.
<mgrwt>
<rscale>  0 0.12499627E+03</rscale>
<asrwt>0</asrwt>
<pdfrwt beam="2">  1        4 0.11638180E+00 0.12499627E+03</pdfrwt>
<pdfrwt beam="1">  1       -4 0.79436901E-03 0.12499627E+03</pdfrwt>
<totfact> 0.40026517E+03</totfact>
</mgrwt>
</event>
<event>
 5    1  0.3340698E-002  0.1249968E+03  0.7818608E-02  0.1235074E+00
         -4   -1    0    0    0  501 -0.00000000000E+00  0.00000000000E+00  0.10505138126E+03  0.10505905770E+03  0.12700000000E+01 0.  1.
          4   -1    0    0  501    0  0.00000000000E+00 -0.00000000000E+00 -0.37162421659E+02  0.37184116011E+02  0.12700000000E+01 0.  1.
         25    2    1    2    0    0  0.00000000000E+00  0.00000000000E+00  0.67888959600E+02  0.14224317371E+03  0.12499683849E+03 0.  0.
    9000005    1    3    3    0    0 -0.28672524998E+02 -0.42741434891E+01  0.96942121634E+02  0.10118871943E+03  0.10000000000E+01 0.  0.
    9000005    1    3    3    0    0  0.28672524998E+02  0.42741434891E+01 -0.29053162034E+02  0.41054454283E+02  0.10000000000E+01 0.  0.
<mgrwt>
<rscale>  0 0.12499684E+03</rscale>
<asrwt>0</asrwt>
<pdfrwt beam="2">  1        4 0.57195550E-02 0.12499684E+03</pdfrwt>
<pdfrwt beam="1">  1       -4 0.16164010E-01 0.12499684E+03</pdfrwt>
<totfact> 0.10088023E+04</totfact>
</mgrwt>
</event>
<event>
 5    1  0.3340698E-002  0.1250012E+03  0.7818608E-02  0.1235067E+00
         -4   -1    0    0    0  501 -0.00000000000E+00  0.00000000000E+00  0.11028471880E+04  0.11028479192E+04  0.12700000000E+01 0.  1.
          4   -1    0    0  501    0  0.00000000000E+00 -0.00000000000E+00 -0.34274378782E+01  0.36551648949E+01  0.12700000000E+01 0.  1.
         25    2    1    2    0    0  0.00000000000E+00  0.00000000000E+00  0.10994197501E+04  0.11065030841E+04  0.12500115299E+03 0.  0.
    9000005    1    3    3    0    0  0.22648175293E+01  0.13418477774E+02  0.10896157878E+04  0.10897012205E+04  0.10000000000E+01 0.  0.
    9000005    1    3    3    0    0 -0.22648175293E+01 -0.13418477774E+02  0.98039623086E+01  0.16801863621E+02  0.10000000000E+01 0.  0.
<mgrwt>
<rscale>  0 0.12500115E+03</rscale>
<asrwt>0</asrwt>
<pdfrwt beam="2">  1        4 0.54487179E-03 0.12500115E+03</pdfrwt>
<pdfrwt beam="1">  1       -4 0.16968639E+00 0.12500115E+03</pdfrwt>
<totfact> 0.27293151E+03</totfact>
</mgrwt>
</event>
<event>
 5    1  0.3340698E-002  0.1250093E+03  0.7818608E-02  0.1235055E+00
          4   -1    0    0  501    0  0.00000000000E+00  0.00000000000E+00  0.64008914691E+03  0.64009040681E+03  0.12700000000E+01 0.  1.
         -4   -1    0    0    0  501 -0.00000000000E+00 -0.00000000000E+00 -0.60362283555E+01  0.61683833182E+01  0.12700000000E+01 0.  1.
         25    2    1    2    0    0  0.00000000000E+00  0.00000000000E+00  0.63405291856E+03  0.64625879013E+03  0.12500928082E+03 0.  0.
    9000005    1    3    3    0    0 -0.54557732319E+01 -0.54713299053E+02  0.16344939336E+03  0.17245293487E+03  0.10000000000E+01 0.  0.
    9000005    1    3    3    0    0  0.54557732319E+01  0.54713299053E+02  0.47060352520E+03  0.47380585526E+03  0.10000000000E+01 0.  0.
<mgrwt>
<rscale>  0 0.12500928E+03</rscale>
<asrwt>0</asrwt>
<pdfrwt beam="1">  1        4 0.98485485E-01 0.12500928E+03</pdfrwt>
<pdfrwt beam="2">  1       -4 0.93891350E-03 0.12500928E+03</pdfrwt>
<totfact> 0.46062534E+03</totfact>
</mgrwt>
</event>
<event>
 5    1  0.3340698E-002  0.1249977E+03  0.7818608E-02  0.1235073E+00
         -4   -1    0    0    0  501 -0.00000000000E+00  0.00000000000E+00  0.16657854049E+02  0.16706196501E+02  0.12700000000E+01 0.  1.
          4   -1    0    0  501    0  0.00000000000E+00 -0.00000000000E+00 -0.23410043445E+03  0.23410387931E+03  0.12700000000E+01 0.  1.
         25    2    1    2    0    0  0.00000000000E+00  0.00000000000E+00 -0.21744258040E+03  0.25081007581E+03  0.12499767341E+03 0.  0.
    9000005    1    3    3    0    0  0.42801676453E+02 -0.28589943420E+02 -0.17982499994E+03  0.18704918865E+03  0.10000000000E+01 0.  0.
    9000005    1    3    3    0    0 -0.42801676453E+02  0.28589943420E+02 -0.37617580460E+02  0.63760887161E+02  0.10000000000E+01 0.  0.
<mgrwt>
<rscale>  0 0.12499767E+03</rscale>
<asrwt>0</asrwt>
<pdfrwt beam="2">  1        4 0.36019433E-01 0.12499767E+03</pdfrwt>
<pdfrwt beam="1">  1       -4 0.25667306E-02 0.12499767E+03</pdfrwt>
<totfact> 0.82217549E+03</totfact>
</mgrwt>
</event>
<event>
 5    1  0.3340698E-002  0.1250053E+03  0.7818608E-02  0.1235061E+00
          4   -1    0    0  501    0  0.00000000000E+00  0.00000000000E+00  0.51282509359E+02  0.51298232583E+02  0.12700000000E+01 0.  1.
         -4   -1    0    0    0  501 -0.00000000000E+00 -0.00000000000E+00 -0.76145000196E+02  0.76155590437E+02  0.12700000000E+01 0.  1.
         25    2    1    2    0    0  0.00000000000E+00  0.00000000000E+00 -0.24862490837E+02  0.12745382302E+03  0.12500533409E+03 0.  0.
    9000005    1    3    3    0    0 -0.95090273090E+01  0.84882946743E+01  0.49948077124E+02  0.51558541050E+02  0.10000000000E+01 0.  0.
    9000005    1    3    3    0    0  0.95090273090E+01 -0.84882946743E+01 -0.74810567961E+02  0.75895281971E+02  0.10000000000E+01 0.  0.
<mgrwt>
<rscale>  0 0.12500533E+03</rscale>
<asrwt>0</asrwt>
<pdfrwt beam="1">  1        4 0.78916409E-02 0.12500533E+03</pdfrwt>
<pdfrwt beam="2">  1       -4 0.11716640E-01 0.12500533E+03</pdfrwt>
<totfact> 0.10398049E+04</totfact>
</mgrwt>
</event>
<event>
 5    1  0.3340698E-002  0.1250023E+03  0.7818608E-02  0.1235066E+00
         -4   -1    0    0    0  501 -0.00000000000E+00  0.00000000000E+00  0.42211985537E+03  0.42212176584E+03  0.12700000000E+01 0. -1.
          4   -1    0    0  501    0  0.00000000000E+00 -0.00000000000E+00 -0.92087218073E+01  0.92958838915E+01  0.12700000000E+01 0. -1.
         25    2    1    2    0    0  0.00000000000E+00  0.00000000000E+00  0.41291113356E+03  0.43141764973E+03  0.12500233710E+03 0.  0.
    9000005    1    3    3    0    0  0.55931855809E+02  0.13464319115E+02  0.12221785056E+03  0.13508465264E+03  0.10000000000E+01 0.  0.
    9000005    1    3    3    0    0 -0.55931855809E+02 -0.13464319115E+02  0.29069328300E+03  0.29633299709E+03  0.10000000000E+01 0.  0.
<mgrwt>
<rscale>  0 0.12500234E+03</rscale>
<asrwt>0</asrwt>
<pdfrwt beam="2">  1        4 0.14235781E-02 0.12500234E+03</pdfrwt>
<pdfrwt beam="1">  1       -4 0.64948370E-01 0.12500234E+03</pdfrwt>
<totfact> 0.61604523E+03</totfact>
</mgrwt>
</event>
<event>
 5    1  0.3340698E-002  0.1250012E+03  0.7818608E-02  0.1235067E+00
          4   -1    0    0  501    0  0.00000000000E+00  0.00000000000E+00  0.20310508713E+02  0.20350176023E+02  0.12700000000E+01 0.  1.
         -4   -1    0    0    0  501 -0.00000000000E+00 -0.00000000000E+00 -0.19210094107E+03  0.19210513908E+03  0.12700000000E+01 0.  1.
         25    2    1    2    0    0  0.00000000000E+00  0.00000000000E+00 -0.17179043236E+03  0.21245531511E+03  0.12500123305E+03 0.  0.
    9000005    1    3    3    0    0 -0.59546063596E+02 -0.18934939550E+02 -0.87646276768E+02  0.10764355743E+03  0.10000000000E+01 0.  0.
    9000005    1    3    3    0    0  0.59546063596E+02  0.18934939550E+02 -0.84144155594E+02  0.10481175767E+03  0.10000000000E+01 0.  0.
<mgrwt>
<rscale>  0 0.12500123E+03</rscale>
<asrwt>0</asrwt>
<pdfrwt beam="1">  1        4 0.31280680E-02 0.12500123E+03</pdfrwt>
<pdfrwt beam="2">  1       -4 0.29557364E-01 0.12500123E+03</pdfrwt>
<totfact> 0.88074032E+03</totfact>
</mgrwt>
</event>
<event>
 5    1  0.3340698E-002  0.1249985E+03  0.7818608E-02  0.1235072E+00
         -4   -1    0    0    0  501 -0.00000000000E+00  0.00000000000E+00  0.80237499487E+02  0.80247549645E+02  0.12700000000E+01 0. -1.
          4   -1    0    0  501    0  0.00000000000E+00 -0.00000000000E+00 -0.48661046547E+02  0.48677616530E+02  0.12700000000E+01 0. -1.
         25    2    1    2    0    0  0.00000000000E+00  0.00000000000E+00  0.31576452940E+02  0.12892516617E+03  0.12499850436E+03 0.  0.
    9000005    1    3    3    0    0 -0.73499962607E+01  0.10298054263E+02  0.78907744481E+02  0.79921865004E+02  0.10000000000E+01 0.  0.
    9000005    1    3    3    0    0  0.73499962607E+01 -0.10298054263E+02 -0.47331291541E+02  0.49003301170E+02  0.10000000000E+01 0.  0.
<mgrwt>
<rscale>  0 0.12499850E+03</rscale>
<asrwt>0</asrwt>
<pdfrwt beam="2">  1        4 0.74883626E-02 0.12499850E+03</pdfrwt>
<pdfrwt beam="1">  1       -4 0.12346278E-01 0.12499850E+03</pdfrwt>
<totfact> 0.10367905E+04</totfact>
</mgrwt>
</event>
<event>
 5    1  0.3340698E-002  0.1250022E+03  0.7818608E-02  0.1235066E+00
          4   -1    0    0  501    0  0.00000000000E+00  0.00000000000E+00  0.49434506399E+02  0.49450817212E+02  0.12700000000E+01 0. -1.
         -4   -1    0    0    0  501 -0.00000000000E+00 -0.00000000000E+00 -0.78987056783E+02  0.78997266024E+02  0.12700000000E+01 0. -1.
         25    2    1    2    0    0  0.00000000000E+00  0.00000000000E+00 -0.29552550385E+02  0.12844808324E+03  0.12500222739E+03 0.  0.
    9000005    1    3    3    0    0 -0.50795481138E+02 -0.33550821607E+02 -0.26062543244E+00  0.60884369588E+02  0.10000000000E+01 0.  0.
    9000005    1    3    3    0    0  0.50795481138E+02  0.33550821607E+02 -0.29291924952E+02  0.67563713648E+02  0.10000000000E+01 0.  0.
<mgrwt>
<rscale>  0 0.12500223E+03</rscale>
<asrwt>0</asrwt>
<pdfrwt beam="1">  1        4 0.76073487E-02 0.12500223E+03</pdfrwt>
<pdfrwt beam="2">  1       -4 0.12153895E-01 0.12500223E+03</pdfrwt>
<totfact> 0.10377300E+04</totfact>
</mgrwt>
</event>
<event>
 5    1  0.3340698E-002  0.1249951E+03  0.7818608E-02  0.1235077E+00
          4   -1    0    0  501    0  0.00000000000E+00  0.00000000000E+00  0.11890986940E+03  0.11891665123E+03  0.12700000000E+01 0. -1.
         -4   -1    0    0    0  501 -0.00000000000E+00 -0.00000000000E+00 -0.32827933774E+02  0.32852490558E+02  0.12700000000E+01 0. -1.
         25    2    1    2    0    0  0.00000000000E+00  0.00000000000E+00  0.86081935622E+02  0.15176914179E+03  0.12499509094E+03 0.  0.
    9000005    1    3    3    0    0 -0.60438085136E+02 -0.85330477362E+01  0.26779371071E+02  0.66661156258E+02  0.10000000000E+01 0.  0.
    9000005    1    3    3    0    0  0.60438085136E+02  0.85330477362E+01  0.59302564550E+02  0.85107985529E+02  0.10000000000E+01 0.  0.
<mgrwt>
<rscale>  0 0.12499509E+03</rscale>
<asrwt>0</asrwt>
<pdfrwt beam="1">  1        4 0.18296237E-01 0.12499509E+03</pdfrwt>
<pdfrwt beam="2">  1       -4 0.50528620E-02 0.12499509E+03</pdfrwt>
<totfact> 0.98963139E+03</totfact>
</mgrwt>
</event>
<event>
 5    1  0.3340698E-002  0.1249646E+03  0.7818608E-02  0.1235125E+00
          4   -1    0    0  501    0  0.00000000000E+00  0.00000000000E+00  0.14694269442E+02  0.14749049272E+02  0.12700000000E+01 0.  1.
         -4   -1    0    0    0  501 -0.00000000000E+00 -0.00000000000E+00 -0.26513355849E+03  0.26513660015E+03  0.12700000000E+01 0.  1.
         25    2    1    2    0    0  0.00000000000E+00  0.00000000000E+00 -0.25043928905E+03  0.27988564942E+03  0.12496455198E+03 0.  0.
    9000005    1    3    3    0    0  0.38005200894E+01  0.32902616123E+02 -0.65776873252E+01  0.33783014537E+02  0.10000000000E+01 0.  0.
    9000005    1    3    3    0    0 -0.38005200894E+01 -0.32902616123E+02 -0.24386160172E+03  0.24610263488E+03  0.10000000000E+01 0.  0.
<mgrwt>
<rscale>  0 0.12496455E+03</rscale>
<asrwt>0</asrwt>
<pdfrwt beam="1">  1        4 0.22651048E-02 0.12496455E+03</pdfrwt>
<pdfrwt beam="2">  1       -4 0.40794223E-01 0.12496455E+03</pdfrwt>
<totfact> 0.78254916E+03</totfact>
</mgrwt>
</event>
<event>
 4    1  0.3340698E-002  0.1248174E+03  0.7818608E-02  0.1235355E+00
         -4   -1    0    0    0  501 -0.00000000000E+00  0.00000000000E+00  0.80060551519E+03  0.80060652249E+03  0.12700000000E+01 0. -1.
          4   -1    0    0  501    0  0.00000000000E+00 -0.00000000000E+00 -0.47809619926E+01  0.49467663756E+01  0.12700000000E+01 0. -1.
    9000005    1    1    2    0    0 -0.49309497751E+01 -0.61017620382E+02  0.31982832702E+03  0.32563572137E+03  0.10000000000E+01 0.  0.
    9000005    1    1    2    0    0  0.49309497751E+01  0.61017620382E+02  0.47599622617E+03  0.47991756750E+03  0.10000000000E+01 0.  0.
<mgrwt>
<rscale>  0 0.12481739E+03</rscale>
<asrwt>0</asrwt>
<pdfrwt beam="2">  1        4 0.74836405E-03 0.12481739E+03</pdfrwt>
<pdfrwt beam="1">  1       -4 0.12318295E+00 0.12481739E+03</pdfrwt>
<totfact> 0.38170061E+03</totfact>
</mgrwt>
</event>
<event>
 5    1  0.3340698E-002  0.1250008E+03  0.7818608E-02  0.1235068E+00
         -4   -1    0    0    0  501 -0.00000000000E+00  0.00000000000E+00  0.16870582180E+03  0.16871060195E+03  0.12700000000E+01 0.  1.
          4   -1    0    0  501    0  0.00000000000E+00 -0.00000000000E+00 -0.23131988820E+02  0.23166825565E+02  0.12700000000E+01 0.  1.
         25    2    1    2    0    0  0.00000000000E+00  0.00000000000E+00  0.14557383298E+03  0.19187742751E+03  0.12500082536E+03 0.  0.
    9000005    1    3    3    0    0  0.56011384854E+02 -0.27225855158E+02  0.80730372670E+02  0.10196526611E+03  0.10000000000E+01 0.  0.
    9000005    1    3    3    0    0 -0.56011384854E+02  0.27225855158E+02  0.64843460313E+02  0.89912161400E+02  0.10000000000E+01 0.  0.
<mgrwt>
<rscale>  0 0.12500083E+03</rscale>
<asrwt>0</asrwt>
<pdfrwt beam="2">  1        4 0.35618149E-02 0.12500083E+03</pdfrwt>
<pdfrwt beam="1">  1       -4 0.25957790E-01 0.12500083E+03</pdfrwt>
<totfact> 0.91519978E+03</totfact>
</mgrwt>
</event>
<event>
 5    1  0.3340698E-002  0.1250040E+03  0.7818608E-02  0.1235063E+00
         -4   -1    0    0    0  501 -0.00000000000E+00  0.00000000000E+00  0.35671584073E+03  0.35671810149E+03  0.12700000000E+01 0.  1.
          4   -1    0    0  501    0  0.00000000000E+00 -0.00000000000E+00 -0.10912172528E+02  0.10985827655E+02  0.12700000000E+01 0.  1.
         25    2    1    2    0    0  0.00000000000E+00  0.00000000000E+00  0.34580366820E+03  0.36770392914E+03  0.12500401019E+03 0.  0.
    9000005    1    3    3    0    0  0.24030967183E+02  0.56149772384E+02  0.21183875461E+03  0.22046982169E+03  0.10000000000E+01 0.  0.
    9000005    1    3    3    0    0 -0.24030967183E+02 -0.56149772384E+02  0.13396491360E+03  0.14723410745E+03  0.10000000000E+01 0.  0.
<mgrwt>
<rscale>  0 0.12500401E+03</rscale>
<asrwt>0</asrwt>
<pdfrwt beam="2">  1        4 0.16846354E-02 0.12500401E+03</pdfrwt>
<pdfrwt beam="1">  1       -4 0.54885202E-01 0.12500401E+03</pdfrwt>
<totfact> 0.67813818E+03</totfact>
</mgrwt>
</event>
<event>
 5    1  0.3340698E-002  0.1250104E+03  0.7818608E-02  0.1235053E+00
         -4   -1    0    0    0  501 -0.00000000000E+00  0.00000000000E+00  0.11176266689E+03  0.11176988239E+03  0.12700000000E+01 0. -1.
          4   -1    0    0  501    0  0.00000000000E+00 -0.00000000000E+00 -0.34937209993E+02  0.34960285212E+02  0.12700000000E+01 0. -1.
         25    2    1    2    0    0  0.00000000000E+00  0.00000000000E+00  0.76825456898E+02  0.14673016761E+03  0.12501036460E+03 0.  0.
    9000005    1    3    3    0    0  0.59411205736E+02  0.29258011367E+01  0.15907242529E+02  0.61581588516E+02  0.10000000000E+01 0.  0.
    9000005    1    3    3    0    0 -0.59411205736E+02 -0.29258011367E+01  0.60918214369E+02  0.85148579091E+02  0.10000000000E+01 0.  0.
<mgrwt>
<rscale>  0 0.12501036E+03</rscale>
<asrwt>0</asrwt>
<pdfrwt beam="2">  1        4 0.53772854E-02 0.12501036E+03</pdfrwt>
<pdfrwt beam="1">  1       -4 0.17196587E-01 0.12501036E+03</pdfrwt>
<totfact> 0.99936209E+03</totfact>
</mgrwt>
</event>
<event>
 5    1  0.3340698E-002  0.1250028E+03  0.7818608E-02  0.1235065E+00
         -4   -1    0    0    0  501 -0.00000000000E+00  0.00000000000E+00  0.12859283757E+04  0.12859290029E+04  0.12700000000E+01 0.  1.
          4   -1    0    0  501    0  0.00000000000E+00 -0.00000000000E+00 -0.29044363243E+01  0.31699606247E+01  0.12700000000E+01 0.  1.
         25    2    1    2    0    0  0.00000000000E+00  0.00000000000E+00  0.12830239394E+04  0.12890989635E+04  0.12500283429E+03 0.  0.
    9000005    1    3    3    0    0  0.12514684097E+02 -0.93724687679E+01  0.12654827973E+04  0.12655797765E+04  0.10000000000E+01 0.  0.
    9000005    1    3    3    0    0 -0.12514684097E+02  0.93724687679E+01  0.17541142091E+02  0.23519186948E+02  0.10000000000E+01 0.  0.
<mgrwt>
<rscale>  0 0.12500283E+03</rscale>
<asrwt>0</asrwt>
<pdfrwt beam="2">  1        4 0.46731043E-03 0.12500283E+03</pdfrwt>
<pdfrwt beam="1">  1       -4 0.19785523E+00 0.12500283E+03</pdfrwt>
<totfact> 0.22485936E+03</totfact>
</mgrwt>
</event>
<event>
 5    1  0.3340698E-002  0.1250032E+03  0.7818608E-02  0.1235064E+00
         -4   -1    0    0    0  501 -0.00000000000E+00  0.00000000000E+00  0.20046011794E+04  0.20046015817E+04  0.12700000000E+01 0. -1.
          4   -1    0    0  501    0  0.00000000000E+00 -0.00000000000E+00 -0.17413825655E+01  0.21552988747E+01  0.12700000000E+01 0. -1.
         25    2    1    2    0    0  0.00000000000E+00  0.00000000000E+00  0.20028597969E+04  0.20067568806E+04  0.12500324778E+03 0.  0.
    9000005    1    3    3    0    0 -0.94172703945E+01 -0.23435121968E+02  0.19190976141E+04  0.19192640627E+04  0.10000000000E+01 0.  0.
    9000005    1    3    3    0    0  0.94172703945E+01  0.23435121968E+02  0.83762182740E+02  0.87492817880E+02  0.10000000000E+01 0.  0.
<mgrwt>
<rscale>  0 0.12500325E+03</rscale>
<asrwt>0</asrwt>
<pdfrwt beam="2">  1        4 0.29977649E-03 0.12500325E+03</pdfrwt>
<pdfrwt beam="1">  1       -4 0.30843122E+00 0.12500325E+03</pdfrwt>
<totfact> 0.97726297E+02</totfact>
</mgrwt>
</event>
<event>
 5    1  0.3340698E-002  0.1250043E+03  0.7818608E-02  0.1235063E+00
          4   -1    0    0  501    0  0.00000000000E+00  0.00000000000E+00  0.12992029720E+04  0.12992035927E+04  0.12700000000E+01 0.  1.
         -4   -1    0    0    0  501 -0.00000000000E+00 -0.00000000000E+00 -0.28721065078E+01  0.31403655507E+01  0.12700000000E+01 0.  1.
         25    2    1    2    0    0  0.00000000000E+00  0.00000000000E+00  0.12963308654E+04  0.13023439582E+04  0.12500429126E+03 0.  0.
    9000005    1    3    3    0    0  0.53620784981E+01  0.41025494208E+02  0.16020238514E+03  0.16546192089E+03  0.10000000000E+01 0.  0.
    9000005    1    3    3    0    0 -0.53620784981E+01 -0.41025494208E+02  0.11361284803E+04  0.11368820373E+04  0.10000000000E+01 0.  0.
<mgrwt>
<rscale>  0 0.12500429E+03</rscale>
<asrwt>0</asrwt>
<pdfrwt beam="1">  1        4 0.19989870E+00 0.12500429E+03</pdfrwt>
<pdfrwt beam="2">  1       -4 0.46254413E-03 0.12500429E+03</pdfrwt>
<totfact> 0.22171086E+03</totfact>
</mgrwt>
</event>
<event>
 5    1  0.3340698E-002  0.1249993E+03  0.7818608E-02  0.1235070E+00
         -4   -1    0    0    0  501 -0.00000000000E+00  0.00000000000E+00  0.38392968407E+02  0.38413967813E+02  0.12700000000E+01 0. -1.
          4   -1    0    0  501    0  0.00000000000E+00 -0.00000000000E+00 -0.10168991731E+03  0.10169784748E+03  0.12700000000E+01 0. -1.
         25    2    1    2    0    0  0.00000000000E+00  0.00000000000E+00 -0.63296948903E+02  0.14011181530E+03  0.12499926818E+03 0.  0.
    9000005    1    3    3    0    0 -0.30818223734E+02 -0.22249596349E+02  0.23950895094E+02  0.44938322483E+02  0.10000000000E+01 0.  0.
    9000005    1    3    3    0    0  0.30818223734E+02  0.22249596349E+02 -0.87247843998E+02  0.95173492812E+02  0.10000000000E+01 0.  0.
<mgrwt>
<rscale>  0 0.12499927E+03</rscale>
<asrwt>0</asrwt>
<pdfrwt beam="2">  1        4 0.15646828E-01 0.12499927E+03</pdfrwt>
<pdfrwt beam="1">  1       -4 0.59088359E-02 0.12499927E+03</pdfrwt>
<totfact> 0.10131436E+04</totfact>
</mgrwt>
</event>
<event>
 5    1  0.3340698E-002  0.1249989E+03  0.7818608E-02  0.1235071E+00
         -4   -1    0    0    0  501 -0.00000000000E+00  0.00000000000E+00  0.12856508309E+04  0.12856514582E+04  0.12700000000E+01 0.  1.
          4   -1    0    0  501    0  0.00000000000E+00 -0.00000000000E+00 -0.29049204189E+01  0.31704041762E+01  0.12700000000E+01 0.  1.
         25    2    1    2    0    0  0.00000000000E+00  0.00000000000E+00  0.12827459105E+04  0.12888218624E+04  0.12499888801E+03 0.  0.
    9000005    1    3    3    0    0  0.47133730618E+02 -0.29876817694E+02  0.93135166984E+03  0.93302258585E+03  0.10000000000E+01 0.  0.
    9000005    1    3    3    0    0 -0.47133730618E+02  0.29876817694E+02  0.35139424066E+03  0.35579927651E+03  0.10000000000E+01 0.  0.
<mgrwt>
<rscale>  0 0.12499889E+03</rscale>
<asrwt>0</asrwt>
<pdfrwt beam="2">  1        4 0.46738063E-03 0.12499889E+03</pdfrwt>
<pdfrwt beam="1">  1       -4 0.19781302E+00 0.12499889E+03</pdfrwt>
<totfact> 0.22494413E+03</totfact>
</mgrwt>
</event>
<event>
 5    1  0.3340698E-002  0.1250012E+03  0.7818608E-02  0.1235067E+00
         -4   -1    0    0    0  501 -0.00000000000E+00  0.00000000000E+00  0.19939981921E+03  0.19940386356E+03  0.12700000000E+01 0.  1.
          4   -1    0    0  501    0  0.00000000000E+00 -0.00000000000E+00 -0.19565591013E+02  0.19606765457E+02  0.12700000000E+01 0.  1.
         25    2    1    2    0    0  0.00000000000E+00  0.00000000000E+00  0.17983422820E+03  0.21901062902E+03  0.12500122395E+03 0.  0.
    9000005    1    3    3    0    0 -0.54283220751E+02 -0.30339502073E+02  0.10074215119E+03  0.11839397986E+03  0.10000000000E+01 0.  0.
    9000005    1    3    3    0    0  0.54283220751E+02  0.30339502073E+02  0.79092077014E+02  0.10061664916E+03  0.10000000000E+01 0.  0.
<mgrwt>
<rscale>  0 0.12500122E+03</rscale>
<asrwt>0</asrwt>
<pdfrwt beam="2">  1        4 0.30135692E-02 0.12500122E+03</pdfrwt>
<pdfrwt beam="1">  1       -4 0.30680374E-01 0.12500122E+03</pdfrwt>
<totfact> 0.87022766E+03</totfact>
</mgrwt>
</event>
<event>
 5    1  0.3340698E-002  0.1250005E+03  0.7818608E-02  0.1235068E+00
         -4   -1    0    0    0  501 -0.00000000000E+00  0.00000000000E+00  0.46864888355E+03  0.46865060435E+03  0.12700000000E+01 0.  1.
          4   -1    0    0  501    0  0.00000000000E+00 -0.00000000000E+00 -0.82850766939E+01  0.83818491888E+01  0.12700000000E+01 0.  1.
         25    2    1    2    0    0  0.00000000000E+00  0.00000000000E+00  0.46036380686E+03  0.47703245354E+03  0.12500050824E+03 0.  0.
    9000005    1    3    3    0    0  0.41444521056E+02 -0.10614376964E+02  0.56345032879E+02  0.70753629264E+02  0.10000000000E+01 0.  0.
    9000005    1    3    3    0    0 -0.41444521056E+02  0.10614376964E+02  0.40401877398E+03  0.40627882427E+03  0.10000000000E+01 0.  0.
<mgrwt>
<rscale>  0 0.12500051E+03</rscale>
<asrwt>0</asrwt>
<pdfrwt beam="2">  1        4 0.12822033E-02 0.12500051E+03</pdfrwt>
<pdfrwt beam="1">  1       -4 0.72107421E-01 0.12500051E+03</pdfrwt>
<totfact> 0.57690810E+03</totfact>
</mgrwt>
</event>
<event>
 5    1  0.3340698E-002  0.1249985E+03  0.7818608E-02  0.1235072E+00
          4   -1    0    0  501    0  0.00000000000E+00  0.00000000000E+00  0.66756613381E+02  0.66768692739E+02  0.12700000000E+01 0.  1.
         -4   -1    0    0    0  501 -0.00000000000E+00 -0.00000000000E+00 -0.58489132577E+02  0.58502918984E+02  0.12700000000E+01 0.  1.
         25    2    1    2    0    0  0.00000000000E+00  0.00000000000E+00  0.82674808040E+01  0.12527161172E+03  0.12499850185E+03 0.  0.
    9000005    1    3    3    0    0  0.25689227481E+02  0.29956181995E+02  0.52694197285E+02  0.65840623294E+02  0.10000000000E+01 0.  0.
    9000005    1    3    3    0    0 -0.25689227481E+02 -0.29956181995E+02 -0.44426716481E+02  0.59430988428E+02  0.10000000000E+01 0.  0.
<mgrwt>
<rscale>  0 0.12499850E+03</rscale>
<asrwt>0</asrwt>
<pdfrwt beam="1">  1        4 0.10272238E-01 0.12499850E+03</pdfrwt>
<pdfrwt beam="2">  1       -4 0.90003178E-02 0.12499850E+03</pdfrwt>
<totfact> 0.10447320E+04</totfact>
</mgrwt>
</event>
<event>
 5    1  0.3340698E-002  0.1249934E+03  0.7818608E-02  0.1235080E+00
          4   -1    0    0  501    0  0.00000000000E+00  0.00000000000E+00  0.13903247872E+03  0.13903827904E+03  0.12700000000E+01 0. -1.
         -4   -1    0    0    0  501 -0.00000000000E+00 -0.00000000000E+00 -0.28072265197E+02  0.28100978155E+02  0.12700000000E+01 0. -1.
         25    2    1    2    0    0  0.00000000000E+00  0.00000000000E+00  0.11096021352E+03  0.16713925719E+03  0.12499344907E+03 0.  0.
    9000005    1    3    3    0    0 -0.59363028044E+02 -0.19470668157E+02  0.57256378970E+02  0.84748858103E+02  0.10000000000E+01 0.  0.
    9000005    1    3    3    0    0  0.59363028044E+02  0.19470668157E+02  0.53703834548E+02  0.82390399090E+02  0.10000000000E+01 0.  0.
<mgrwt>
<rscale>  0 0.12499345E+03</rscale>
<asrwt>0</asrwt>
<pdfrwt beam="1">  1        4 0.21392267E-01 0.12499345E+03</pdfrwt>
<pdfrwt beam="2">  1       -4 0.43214649E-02 0.12499345E+03</pdfrwt>
<totfact> 0.95997901E+03</totfact>
</mgrwt>
</event>
<event>
 5    1  0.3340698E-002  0.1250039E+03  0.7818608E-02  0.1235063E+00
         -4   -1    0    0    0  501 -0.00000000000E+00  0.00000000000E+00  0.51886739314E+01  0.53418383695E+01  0.12700000000E+01 0.  1.
          4   -1    0    0  501    0  0.00000000000E+00 -0.00000000000E+00 -0.74178474421E+03  0.74178583138E+03  0.12700000000E+01 0.  1.
         25    2    1    2    0    0  0.00000000000E+00  0.00000000000E+00 -0.73659607027E+03  0.74712766975E+03  0.12500393659E+03 0.  0.
    9000005    1    3    3    0    0  0.22465341677E+02  0.52160060421E+02 -0.21242610465E+03  0.21988909344E+03  0.10000000000E+01 0.  0.
    9000005    1    3    3    0    0 -0.22465341677E+02 -0.52160060421E+02 -0.52416996563E+03  0.52723857630E+03  0.10000000000E+01 0.  0.
<mgrwt>
<rscale>  0 0.12500394E+03</rscale>
<asrwt>0</asrwt>
<pdfrwt beam="2">  1        4 0.11413251E+00 0.12500394E+03</pdfrwt>
<pdfrwt beam="1">  1       -4 0.81012362E-03 0.12500394E+03</pdfrwt>
<totfact> 0.40708417E+03</totfact>
</mgrwt>
</event>
<event>
 5    1  0.3340698E-002  0.1250003E+03  0.7818608E-02  0.1235069E+00
         -4   -1    0    0    0  501 -0.00000000000E+00  0.00000000000E+00  0.26015936257E+01  0.28950283925E+01  0.12700000000E+01 0.  1.
          4   -1    0    0  501    0  0.00000000000E+00 -0.00000000000E+00 -0.14210403889E+04  0.14210409565E+04  0.12700000000E+01 0.  1.
         25    2    1    2    0    0  0.00000000000E+00  0.00000000000E+00 -0.14184387953E+04  0.14239359848E+04  0.12500029147E+03 0.  0.
    9000005    1    3    3    0    0  0.74571207503E+01 -0.22952855910E+02 -0.52570472194E+02  0.57854099172E+02  0.10000000000E+01 0.  0.
    9000005    1    3    3    0    0 -0.74571207503E+01  0.22952855910E+02 -0.13658683231E+04  0.13660818857E+04  0.10000000000E+01 0.  0.
<mgrwt>
<rscale>  0 0.12500029E+03</rscale>
<asrwt>0</asrwt>
<pdfrwt beam="2">  1        4 0.21864363E+00 0.12500029E+03</pdfrwt>
<pdfrwt beam="1">  1       -4 0.42286187E-03 0.12500029E+03</pdfrwt>
<totfact> 0.19472984E+03</totfact>
</mgrwt>
</event>
<event>
 5    1  0.3340698E-002  0.1250050E+03  0.7818608E-02  0.1235061E+00
         -4   -1    0    0    0  501 -0.00000000000E+00  0.00000000000E+00  0.83000715674E+02  0.83010431286E+02  0.12700000000E+01 0. -1.
          4   -1    0    0  501    0  0.00000000000E+00 -0.00000000000E+00 -0.47045580631E+02  0.47062719396E+02  0.12700000000E+01 0. -1.
         25    2    1    2    0    0  0.00000000000E+00  0.00000000000E+00  0.35955135043E+02  0.13007315068E+03  0.12500501107E+03 0.  0.
    9000005    1    3    3    0    0  0.12724554379E+02  0.60956373040E+02  0.23480606466E+02  0.66557738681E+02  0.10000000000E+01 0.  0.
    9000005    1    3    3    0    0 -0.12724554379E+02 -0.60956373040E+02  0.12474528577E+02  0.63515412001E+02  0.10000000000E+01 0.  0.
<mgrwt>
<rscale>  0 0.12500501E+03</rscale>
<asrwt>0</asrwt>
<pdfrwt beam="2">  1        4 0.72398474E-02 0.12500501E+03</pdfrwt>
<pdfrwt beam="1">  1       -4 0.12771406E-01 0.12500501E+03</pdfrwt>
<totfact> 0.10341773E+04</totfact>
</mgrwt>
</event>
<event>
 5    1  0.3340698E-002  0.1250014E+03  0.7818608E-02  0.1235067E+00
         -4   -1    0    0    0  501 -0.00000000000E+00  0.00000000000E+00  0.15965140165E+03  0.15965645289E+03  0.12700000000E+01 0. -1.
          4   -1    0    0  501    0  0.00000000000E+00 -0.00000000000E+00 -0.24445990455E+02  0.24478957276E+02  0.12700000000E+01 0. -1.
         25    2    1    2    0    0  0.00000000000E+00  0.00000000000E+00  0.13520541120E+03  0.18413541017E+03  0.12500138423E+03 0.  0.
    9000005    1    3    3    0    0 -0.50460946997E+02 -0.23708544828E+02  0.26017989969E+02  0.61533227379E+02  0.10000000000E+01 0.  0.
    9000005    1    3    3    0    0  0.50460946997E+02  0.23708544828E+02  0.10918742123E+03  0.12260218279E+03  0.10000000000E+01 0.  0.
<mgrwt>
<rscale>  0 0.12500138E+03</rscale>
<asrwt>0</asrwt>
<pdfrwt beam="2">  1        4 0.37638461E-02 0.12500138E+03</pdfrwt>
<pdfrwt beam="1">  1       -4 0.24564678E-01 0.12500138E+03</pdfrwt>
<totfact> 0.92874986E+03</totfact>
</mgrwt>
</event>
<event>
 5    1  0.3340698E-002  0.1250004E+03  0.7818608E-02  0.1235069E+00
         -4   -1    0    0    0  501 -0.00000000000E+00  0.00000000000E+00  0.15769924589E+04  0.15769929703E+04  0.12700000000E+01 0. -1.
          4   -1    0    0  501    0  0.00000000000E+00 -0.00000000000E+00 -0.23137107700E+01  0.26393479360E+01  0.12700000000E+01 0. -1.
         25    2    1    2    0    0  0.00000000000E+00  0.00000000000E+00  0.15746787481E+04  0.15796323182E+04  0.12500040382E+03 0.  0.
    9000005    1    3    3    0    0 -0.13518799634E+02 -0.33604296063E+02  0.14308687015E+04  0.14313274424E+04  0.10000000000E+01 0.  0.
    9000005    1    3    3    0    0  0.13518799634E+02  0.33604296063E+02  0.14381004663E+03  0.14830487575E+03  0.10000000000E+01 0.  0.
<mgrwt>
<rscale>  0 0.12500040E+03</rscale>
<asrwt>0</asrwt>
<pdfrwt beam="2">  1        4 0.38104417E-03 0.12500040E+03</pdfrwt>
<pdfrwt beam="1">  1       -4 0.24263911E+00 0.12500040E+03</pdfrwt>
<totfact> 0.16416962E+03</totfact>
</mgrwt>
</event>
<event>
 5    1  0.3340698E-002  0.1250078E+03  0.7818608E-02  0.1235057E+00
          4   -1    0    0  501    0  0.00000000000E+00  0.00000000000E+00  0.12161853555E+03  0.12162516634E+03  0.12700000000E+01 0. -1.
         -4   -1    0    0    0  501 -0.00000000000E+00 -0.00000000000E+00 -0.32102827049E+02  0.32127938069E+02  0.12700000000E+01 0. -1.
         25    2    1    2    0    0  0.00000000000E+00  0.00000000000E+00  0.89515708496E+02  0.15375310441E+03  0.12500781995E+03 0.  0.
    9000005    1    3    3    0    0  0.64236104748E+01 -0.43816451111E+01 -0.31511582128E+02  0.32472163365E+02  0.10000000000E+01 0.  0.
    9000005    1    3    3    0    0 -0.64236104748E+01  0.43816451111E+01  0.12102729062E+03  0.12128094105E+03  0.10000000000E+01 0.  0.
<mgrwt>
<rscale>  0 0.12500782E+03</rscale>
<asrwt>0</asrwt>
<pdfrwt beam="1">  1        4 0.18712986E-01 0.12500782E+03</pdfrwt>
<pdfrwt beam="2">  1       -4 0.49413381E-02 0.12500782E+03</pdfrwt>
<totfact> 0.98543428E+03</totfact>
</mgrwt>
</event>
<event>
 5    1  0.3340698E-002  0.1249991E+03  0.7818608E-02  0.1235071E+00
          4   -1    0    0  501    0  0.00000000000E+00  0.00000000000E+00  0.27429880286E+02  0.27459264966E+02  0.12700000000E+01 0.  1.
         -4   -1    0    0    0  501 -0.00000000000E+00 -0.00000000000E+00 -0.14229811467E+03  0.14230378189E+03  0.12700000000E+01 0.  1.
         25    2    1    2    0    0  0.00000000000E+00  0.00000000000E+00 -0.11486823439E+03  0.16976304686E+03  0.12499912322E+03 0.  0.
    9000005    1    3    3    0    0  0.60949930190E+02 -0.10991985171E+02 -0.46113810254E+02  0.77221766519E+02  0.10000000000E+01 0.  0.
    9000005    1    3    3    0    0 -0.60949930190E+02  0.10991985171E+02 -0.68754424134E+02  0.92541280336E+02  0.10000000000E+01 0.  0.
<mgrwt>
<rscale>  0 0.12499912E+03</rscale>
<asrwt>0</asrwt>
<pdfrwt beam="1">  1        4 0.42226780E-02 0.12499912E+03</pdfrwt>
<pdfrwt beam="2">  1       -4 0.21894713E-01 0.12499912E+03</pdfrwt>
<totfact> 0.95494699E+03</totfact>
</mgrwt>
</event>
<event>
 5    1  0.3340698E-002  0.1249961E+03  0.7818608E-02  0.1235075E+00
          4   -1    0    0  501    0  0.00000000000E+00  0.00000000000E+00  0.86051602531E+01  0.86983724329E+01  0.12700000000E+01 0.  1.
         -4   -1    0    0    0  501 -0.00000000000E+00 -0.00000000000E+00 -0.45137502730E+03  0.45137681394E+03  0.12700000000E+01 0.  1.
         25    2    1    2    0    0  0.00000000000E+00  0.00000000000E+00 -0.44276986704E+03  0.46007518638E+03  0.12499608777E+03 0.  0.
    9000005    1    3    3    0    0 -0.31215751994E+02  0.51418962751E+02 -0.15906521644E+03  0.17006197689E+03  0.10000000000E+01 0.  0.
    9000005    1    3    3    0    0  0.31215751994E+02 -0.51418962751E+02 -0.28370465060E+03  0.29001320949E+03  0.10000000000E+01 0.  0.
<mgrwt>
<rscale>  0 0.12499609E+03</rscale>
<asrwt>0</asrwt>
<pdfrwt beam="1">  1        4 0.13311788E-02 0.12499609E+03</pdfrwt>
<pdfrwt beam="2">  1       -4 0.69449601E-01 0.12499609E+03</pdfrwt>
<totfact> 0.59105912E+03</totfact>
</mgrwt>
</event>
<event>
 5    1  0.3340698E-002  0.1250068E+03  0.7818608E-02  0.1235059E+00
          4   -1    0    0  501    0  0.00000000000E+00  0.00000000000E+00  0.36026155484E+03  0.36026379335E+03  0.12700000000E+01 0. -1.
         -4   -1    0    0    0  501 -0.00000000000E+00 -0.00000000000E+00 -0.10804531913E+02  0.10878915840E+02  0.12700000000E+01 0. -1.
         25    2    1    2    0    0  0.00000000000E+00  0.00000000000E+00  0.34945702293E+03  0.37114270919E+03  0.12500679865E+03 0.  0.
    9000005    1    3    3    0    0 -0.47310754826E+02 -0.29130835403E+02  0.89774068762E+02  0.10558075826E+03  0.10000000000E+01 0.  0.
    9000005    1    3    3    0    0  0.47310754826E+02  0.29130835403E+02  0.25968295417E+03  0.26556195093E+03  0.10000000000E+01 0.  0.
<mgrwt>
<rscale>  0 0.12500680E+03</rscale>
<asrwt>0</asrwt>
<pdfrwt beam="1">  1        4 0.55430753E-01 0.12500680E+03</pdfrwt>
<pdfrwt beam="2">  1       -4 0.16681296E-02 0.12500680E+03</pdfrwt>
<totfact> 0.67449415E+03</totfact>
</mgrwt>
</event>
<event>
 5    1  0.3340698E-002  0.1249995E+03  0.7818608E-02  0.1235070E+00
          4   -1    0    0  501    0  0.00000000000E+00  0.00000000000E+00  0.39079188213E+03  0.39079394576E+03  0.12700000000E+01 0.  1.
         -4   -1    0    0    0  501 -0.00000000000E+00 -0.00000000000E+00 -0.99532183941E+01  0.10033915308E+02  0.12700000000E+01 0.  1.
         25    2    1    2    0    0  0.00000000000E+00  0.00000000000E+00  0.38083866374E+03  0.40082786107E+03  0.12499954563E+03 0.  0.
    9000005    1    3    3    0    0 -0.18675117950E+02  0.36853690600E+02  0.34076457545E+03  0.34326148986E+03  0.10000000000E+01 0.  0.
    9000005    1    3    3    0    0  0.18675117950E+02 -0.36853690600E+02  0.40074088291E+02  0.57566371204E+02  0.10000000000E+01 0.  0.
<mgrwt>
<rscale>  0 0.12499955E+03</rscale>
<asrwt>0</asrwt>
<pdfrwt beam="1">  1        4 0.60128190E-01 0.12499955E+03</pdfrwt>
<pdfrwt beam="2">  1       -4 0.15376307E-02 0.12499955E+03</pdfrwt>
<totfact> 0.64472999E+03</totfact>
</mgrwt>
</event>
<event>
 5    1  0.3340698E-002  0.1250039E+03  0.7818608E-02  0.1235063E+00
         -4   -1    0    0    0  501 -0.00000000000E+00  0.00000000000E+00  0.22589984127E+02  0.22625655413E+02  0.12700000000E+01 0.  1.
          4   -1    0    0  501    0  0.00000000000E+00 -0.00000000000E+00 -0.17275579552E+03  0.17276046361E+03  0.12700000000E+01 0.  1.
         25    2    1    2    0    0  0.00000000000E+00  0.00000000000E+00 -0.15016581140E+03  0.19538611902E+03  0.12500385832E+03 0.  0.
    9000005    1    3    3    0    0  0.12754499168E+02 -0.25231465978E+02 -0.16219613013E+03  0.16464473497E+03  0.10000000000E+01 0.  0.
    9000005    1    3    3    0    0 -0.12754499168E+02  0.25231465978E+02  0.12030318737E+02  0.30741384050E+02  0.10000000000E+01 0.  0.
<mgrwt>
<rscale>  0 0.12500386E+03</rscale>
<asrwt>0</asrwt>
<pdfrwt beam="2">  1        4 0.26580917E-01 0.12500386E+03</pdfrwt>
<pdfrwt beam="1">  1       -4 0.34784853E-02 0.12500386E+03</pdfrwt>
<totfact> 0.90910649E+03</totfact>
</mgrwt>
</event>
<event>
 5    1  0.3340698E-002  0.1250009E+03  0.7818608E-02  0.1235068E+00
          4   -1    0    0  501    0  0.00000000000E+00  0.00000000000E+00  0.20860899555E+03  0.20861286136E+03  0.12700000000E+01 0.  1.
         -4   -1    0    0    0  501 -0.00000000000E+00 -0.00000000000E+00 -0.18699904856E+02  0.18742981130E+02  0.12700000000E+01 0.  1.
         25    2    1    2    0    0  0.00000000000E+00  0.00000000000E+00  0.18990909069E+03  0.22735584249E+03  0.12500086554E+03 0.  0.
    9000005    1    3    3    0    0 -0.58209864644E+02  0.60063407326E+01  0.55071048945E+02  0.80363455020E+02  0.10000000000E+01 0.  0.
    9000005    1    3    3    0    0  0.58209864644E+02 -0.60063407326E+01  0.13483804175E+03  0.14699238747E+03  0.10000000000E+01 0.  0.
<mgrwt>
<rscale>  0 0.12500087E+03</rscale>
<asrwt>0</asrwt>
<pdfrwt beam="1">  1        4 0.32097301E-01 0.12500087E+03</pdfrwt>
<pdfrwt beam="2">  1       -4 0.28805195E-02 0.12500087E+03</pdfrwt>
<totfact> 0.85715615E+03</totfact>
</mgrwt>
</event>
<event>
 5    1  0.3340698E-002  0.1250012E+03  0.7818608E-02  0.1235067E+00
         -4   -1    0    0    0  501 -0.00000000000E+00  0.00000000000E+00  0.58411480013E+02  0.58425284743E+02  0.12700000000E+01 0. -1.
          4   -1    0    0  501    0  0.00000000000E+00 -0.00000000000E+00 -0.66848255555E+02  0.66860318356E+02  0.12700000000E+01 0. -1.
         25    2    1    2    0    0  0.00000000000E+00  0.00000000000E+00 -0.84367755420E+01  0.12528560310E+03  0.12500121264E+03 0.  0.
    9000005    1    3    3    0    0 -0.16201298180E+01 -0.47408002694E+02  0.36558103415E+02  0.59896898628E+02  0.10000000000E+01 0.  0.
    9000005    1    3    3    0    0  0.16201298180E+01  0.47408002694E+02 -0.44994878957E+02  0.65388704471E+02  0.10000000000E+01 0.  0.
<mgrwt>
<rscale>  0 0.12500121E+03</rscale>
<asrwt>0</asrwt>
<pdfrwt beam="2">  1        4 0.10286337E-01 0.12500121E+03</pdfrwt>
<pdfrwt beam="1">  1       -4 0.89883714E-02 0.12500121E+03</pdfrwt>
<totfact> 0.10446376E+04</totfact>
</mgrwt>
</event>
<event>
 5    1  0.3340698E-002  0.1250073E+03  0.7818608E-02  0.1235058E+00
          4   -1    0    0  501    0  0.00000000000E+00  0.00000000000E+00  0.31298960907E+03  0.31299218566E+03  0.12700000000E+01 0.  1.
         -4   -1    0    0    0  501 -0.00000000000E+00 -0.00000000000E+00 -0.12446964432E+02  0.12511587572E+02  0.12700000000E+01 0.  1.
         25    2    1    2    0    0  0.00000000000E+00  0.00000000000E+00  0.30054264464E+03  0.32550377323E+03  0.12500730036E+03 0.  0.
    9000005    1    3    3    0    0 -0.61265175512E+02 -0.40791161974E+01  0.18059788109E+03  0.19075286518E+03  0.10000000000E+01 0.  0.
    9000005    1    3    3    0    0  0.61265175512E+02  0.40791161974E+01  0.11994476354E+03  0.13475090805E+03  0.10000000000E+01 0.  0.
<mgrwt>
<rscale>  0 0.12500730E+03</rscale>
<asrwt>0</asrwt>
<pdfrwt beam="1">  1        4 0.48157415E-01 0.12500730E+03</pdfrwt>
<pdfrwt beam="2">  1       -4 0.19200869E-02 0.12500730E+03</pdfrwt>
<totfact> 0.72494542E+03</totfact>
</mgrwt>
</event>
<event>
 5    1  0.3340698E-002  0.1250113E+03  0.7818608E-02  0.1235052E+00
         -4   -1    0    0    0  501 -0.00000000000E+00  0.00000000000E+00  0.46195944573E+03  0.46196119144E+03  0.12700000000E+01 0.  1.
          4   -1    0    0  501    0  0.00000000000E+00 -0.00000000000E+00 -0.84079136249E+01  0.85032882771E+01  0.12700000000E+01 0.  1.
         25    2    1    2    0    0  0.00000000000E+00  0.00000000000E+00  0.45355153210E+03  0.47046447972E+03  0.12501133710E+03 0.  0.
    9000005    1    3    3    0    0 -0.34606867285E+02 -0.33494894940E+02  0.37667033273E+03  0.37973817666E+03  0.10000000000E+01 0.  0.
    9000005    1    3    3    0    0  0.34606867285E+02  0.33494894940E+02  0.76881199369E+02  0.90726303059E+02  0.10000000000E+01 0.  0.
<mgrwt>
<rscale>  0 0.12501134E+03</rscale>
<asrwt>0</asrwt>
<pdfrwt beam="2">  1        4 0.13009960E-02 0.12501134E+03</pdfrwt>
<pdfrwt beam="1">  1       -4 0.71078152E-01 0.12501134E+03</pdfrwt>
<totfact> 0.58216535E+03</totfact>
</mgrwt>
</event>
<event>
 5    1  0.3340698E-002  0.1249987E+03  0.7818608E-02  0.1235071E+00
          4   -1    0    0  501    0  0.00000000000E+00  0.00000000000E+00  0.54871958656E+02  0.54886653631E+02  0.12700000000E+01 0.  1.
         -4   -1    0    0    0  501 -0.00000000000E+00 -0.00000000000E+00 -0.71157114070E+02  0.71168446539E+02  0.12700000000E+01 0.  1.
         25    2    1    2    0    0  0.00000000000E+00  0.00000000000E+00 -0.16285155413E+02  0.12605510017E+03  0.12499872796E+03 0.  0.
    9000005    1    3    3    0    0 -0.60411785287E+02  0.76051906951E+00 -0.24246512097E+02  0.65108029764E+02  0.10000000000E+01 0.  0.
    9000005    1    3    3    0    0  0.60411785287E+02 -0.76051906951E+00  0.79613566834E+01  0.60947070406E+02  0.10000000000E+01 0.  0.
<mgrwt>
<rscale>  0 0.12499873E+03</rscale>
<asrwt>0</asrwt>
<pdfrwt beam="1">  1        4 0.84438419E-02 0.12499873E+03</pdfrwt>
<pdfrwt beam="2">  1       -4 0.10949250E-01 0.12499873E+03</pdfrwt>
<totfact> 0.10430049E+04</totfact>
</mgrwt>
</event>
<event>
 5    1  0.3340698E-002  0.1249938E+03  0.7818608E-02  0.1235079E+00
         -4   -1    0    0    0  501 -0.00000000000E+00  0.00000000000E+00  0.16377537156E+02  0.16426704578E+02  0.12700000000E+01 0. -1.
          4   -1    0    0  501    0  0.00000000000E+00 -0.00000000000E+00 -0.23808059614E+03  0.23808398341E+03  0.12700000000E+01 0. -1.
         25    2    1    2    0    0  0.00000000000E+00  0.00000000000E+00 -0.22170305898E+03  0.25451068799E+03  0.12499377560E+03 0.  0.
    9000005    1    3    3    0    0 -0.22010163804E+02  0.73424257531E+01 -0.22899428779E+03  0.23016894310E+03  0.10000000000E+01 0.  0.
    9000005    1    3    3    0    0  0.22010163804E+02 -0.73424257531E+01  0.72912288108E+01  0.24341744888E+02  0.10000000000E+01 0.  0.
<mgrwt>
<rscale>  0 0.12499378E+03</rscale>
<asrwt>0</asrwt>
<pdfrwt beam="2">  1        4 0.36631824E-01 0.12499378E+03</pdfrwt>
<pdfrwt beam="1">  1       -4 0.25236639E-02 0.12499378E+03</pdfrwt>
<totfact> 0.81693957E+03</totfact>
</mgrwt>
</event>
<event>
 5    1  0.3340698E-002  0.1249988E+03  0.7818608E-02  0.1235071E+00
          4   -1    0    0  501    0  0.00000000000E+00  0.00000000000E+00  0.79583168221E+01  0.80590139993E+01  0.12700000000E+01 0. -1.
         -4   -1    0    0    0  501 -0.00000000000E+00 -0.00000000000E+00 -0.48764211561E+03  0.48764376939E+03  0.12700000000E+01 0. -1.
         25    2    1    2    0    0  0.00000000000E+00  0.00000000000E+00 -0.47968379879E+03  0.49570278339E+03  0.12499881052E+03 0.  0.
    9000005    1    3    3    0    0 -0.53547932791E+02 -0.32159212542E+02 -0.23233893717E+03  0.24059089298E+03  0.10000000000E+01 0.  0.
    9000005    1    3    3    0    0  0.53547932791E+02  0.32159212542E+02 -0.24734486162E+03  0.25511189041E+03  0.10000000000E+01 0.  0.
<mgrwt>
<rscale>  0 0.12499881E+03</rscale>
<asrwt>0</asrwt>
<pdfrwt beam="1">  1        4 0.12322300E-02 0.12499881E+03</pdfrwt>
<pdfrwt beam="2">  1       -4 0.75029713E-01 0.12499881E+03</pdfrwt>
<totfact> 0.56200806E+03</totfact>
</mgrwt>
</event>
<event>
 5    1  0.3340698E-002  0.1249992E+03  0.7818608E-02  0.1235071E+00
         -4   -1    0    0    0  501 -0.00000000000E+00  0.00000000000E+00  0.76177855360E+01  0.77229240882E+01  0.12700000000E+01 0.  1.
          4   -1    0    0  501    0  0.00000000000E+00 -0.00000000000E+00 -0.50915324791E+03  0.50915483182E+03  0.12700000000E+01 0.  1.
         25    2    1    2    0    0  0.00000000000E+00  0.00000000000E+00 -0.50153546238E+03  0.51687775590E+03  0.12499917810E+03 0.  0.
    9000005    1    3    3    0    0 -0.37384823712E+02 -0.49488521949E+02 -0.21915155934E+03  0.22776115737E+03  0.10000000000E+01 0.  0.
    9000005    1    3    3    0    0  0.37384823712E+02  0.49488521949E+02 -0.28238390304E+03  0.28911659853E+03  0.10000000000E+01 0.  0.
<mgrwt>
<rscale>  0 0.12499918E+03</rscale>
<asrwt>0</asrwt>
<pdfrwt beam="2">  1        4 0.78339452E-01 0.12499918E+03</pdfrwt>
<pdfrwt beam="1">  1       -4 0.11801768E-02 0.12499918E+03</pdfrwt>
<totfact> 0.54579231E+03</totfact>
</mgrwt>
</event>
<event>
 5    1  0.3340698E-002  0.1250030E+03  0.7818608E-02  0.1235065E+00
         -4   -1    0    0    0  501 -0.00000000000E+00  0.00000000000E+00  0.21207894732E+03  0.21208274988E+03  0.12700000000E+01 0. -1.
          4   -1    0    0  501    0  0.00000000000E+00 -0.00000000000E+00 -0.18393861524E+02  0.18437652827E+02  0.12700000000E+01 0. -1.
         25    2    1    2    0    0  0.00000000000E+00  0.00000000000E+00  0.19368508579E+03  0.23052040270E+03  0.12500297438E+03 0.  0.
    9000005    1    3    3    0    0 -0.23171193415E+02  0.48244243301E+02  0.15634289510E+03  0.16525287309E+03  0.10000000000E+01 0.  0.
    9000005    1    3    3    0    0  0.23171193415E+02 -0.48244243301E+02  0.37342190689E+02  0.65267529610E+02  0.10000000000E+01 0.  0.
<mgrwt>
<rscale>  0 0.12500297E+03</rscale>
<asrwt>0</asrwt>
<pdfrwt beam="2">  1        4 0.28334859E-02 0.12500297E+03</pdfrwt>
<pdfrwt beam="1">  1       -4 0.32631191E-01 0.12500297E+03</pdfrwt>
<totfact> 0.85224096E+03</totfact>
</mgrwt>
</event>
<event>
 5    1  0.3340698E-002  0.1249916E+03  0.7818608E-02  0.1235082E+00
          4   -1    0    0  501    0  0.00000000000E+00  0.00000000000E+00  0.13374410283E+02  0.13434572952E+02  0.12700000000E+01 0. -1.
         -4   -1    0    0    0  501 -0.00000000000E+00 -0.00000000000E+00 -0.29131260205E+03  0.29131537037E+03  0.12700000000E+01 0. -1.
         25    2    1    2    0    0  0.00000000000E+00  0.00000000000E+00 -0.27793819177E+03  0.30474994332E+03  0.12499155776E+03 0.  0.
    9000005    1    3    3    0    0 -0.41974980776E+02 -0.45361972058E+02 -0.16146304153E+03  0.17288991092E+03  0.10000000000E+01 0.  0.
    9000005    1    3    3    0    0  0.41974980776E+02  0.45361972058E+02 -0.11647515024E+03  0.13186003240E+03  0.10000000000E+01 0.  0.
<mgrwt>
<rscale>  0 0.12499156E+03</rscale>
<asrwt>0</asrwt>
<pdfrwt beam="1">  1        4 0.20624426E-02 0.12499156E+03</pdfrwt>
<pdfrwt beam="2">  1       -4 0.44822160E-01 0.12499156E+03</pdfrwt>
<totfact> 0.75020908E+03</totfact>
</mgrwt>
</event>
<event>
 5    1  0.3340698E-002  0.1250002E+03  0.7818608E-02  0.1235069E+00
         -4   -1    0    0    0  501 -0.00000000000E+00  0.00000000000E+00  0.17778072816E+02  0.17823377150E+02  0.12700000000E+01 0.  1.
          4   -1    0    0  501    0  0.00000000000E+00 -0.00000000000E+00 -0.21939700853E+03  0.21940068425E+03  0.12700000000E+01 0.  1.
         25    2    1    2    0    0  0.00000000000E+00  0.00000000000E+00 -0.20161893571E+03  0.23722406140E+03  0.12500024028E+03 0.  0.
    9000005    1    3    3    0    0 -0.38502758973E+02  0.49198275420E+02 -0.97911211255E+02  0.11614877547E+03  0.10000000000E+01 0.  0.
    9000005    1    3    3    0    0  0.38502758973E+02 -0.49198275420E+02 -0.10370772446E+03  0.12107528594E+03  0.10000000000E+01 0.  0.
<mgrwt>
<rscale>  0 0.12500024E+03</rscale>
<asrwt>0</asrwt>
<pdfrwt beam="2">  1        4 0.33757152E-01 0.12500024E+03</pdfrwt>
<pdfrwt beam="1">  1       -4 0.27388560E-02 0.12500024E+03</pdfrwt>
<totfact> 0.84212088E+03</totfact>
</mgrwt>
</event>
<event>
 5    1  0.3340698E-002  0.1250002E+03  0.7818608E-02  0.1235069E+00
         -4   -1    0    0    0  501 -0.00000000000E+00  0.00000000000E+00  0.63624288945E+02  0.63636962874E+02  0.12700000000E+01 0. -1.
          4   -1    0    0  501    0  0.00000000000E+00 -0.00000000000E+00 -0.61370430968E+02  0.61383570255E+02  0.12700000000E+01 0. -1.
         25    2    1    2    0    0  0.00000000000E+00  0.00000000000E+00  0.22538579772E+01  0.12502053313E+03  0.12500021531E+03 0.  0.
    9000005    1    3    3    0    0  0.36593256505E+02  0.48652854935E+02  0.15239386980E+02  0.62764684581E+02  0.10000000000E+01 0.  0.
    9000005    1    3    3    0    0 -0.36593256505E+02 -0.48652854935E+02 -0.12985529003E+02  0.62255848548E+02  0.10000000000E+01 0.  0.
<mgrwt>
<rscale>  0 0.12500022E+03</rscale>
<asrwt>0</asrwt>
<pdfrwt beam="2">  1        4 0.94435905E-02 0.12500022E+03</pdfrwt>
<pdfrwt beam="1">  1       -4 0.97903377E-02 0.12500022E+03</pdfrwt>
<totfact> 0.10452366E+04</totfact>
</mgrwt>
</event>
<event>
 5    1  0.3340698E-002  0.1250056E+03  0.7818608E-02  0.1235060E+00
         -4   -1    0    0    0  501 -0.00000000000E+00  0.00000000000E+00  0.11386687750E+03  0.11387395967E+03  0.12700000000E+01 0.  1.
          4   -1    0    0  501    0  0.00000000000E+00 -0.00000000000E+00 -0.34288592706E+02  0.34312104129E+02  0.12700000000E+01 0.  1.
         25    2    1    2    0    0  0.00000000000E+00  0.00000000000E+00  0.79578284795E+02  0.14818606380E+03  0.12500562425E+03 0.  0.
    9000005    1    3    3    0    0  0.86922973886E+01  0.52409907929E+02  0.77324822190E+00  0.53140873118E+02  0.10000000000E+01 0.  0.
    9000005    1    3    3    0    0 -0.86922973886E+01 -0.52409907929E+02  0.78805036573E+02  0.95045190684E+02  0.10000000000E+01 0.  0.
<mgrwt>
<rscale>  0 0.12500562E+03</rscale>
<asrwt>0</asrwt>
<pdfrwt beam="2">  1        4 0.52775215E-02 0.12500562E+03</pdfrwt>
<pdfrwt beam="1">  1       -4 0.17520334E-01 0.12500562E+03</pdfrwt>
<totfact> 0.99653898E+03</totfact>
</mgrwt>
</event>
<event>
 5    1  0.3340698E-002  0.1249990E+03  0.7818608E-02  0.1235071E+00
          4   -1    0    0  501    0  0.00000000000E+00  0.00000000000E+00  0.96605608731E+03  0.96605692210E+03  0.12700000000E+01 0.  1.
         -4   -1    0    0    0  501 -0.00000000000E+00 -0.00000000000E+00 -0.39428597764E+01  0.41423475490E+01  0.12700000000E+01 0.  1.
         25    2    1    2    0    0  0.00000000000E+00  0.00000000000E+00  0.96211322753E+03  0.97019926964E+03  0.12499904089E+03 0.  0.
    9000005    1    3    3    0    0  0.26103253447E+02  0.26819229822E+02  0.86949145089E+03  0.87029709531E+03  0.10000000000E+01 0.  0.
    9000005    1    3    3    0    0 -0.26103253447E+02 -0.26819229822E+02  0.92621776643E+02  0.99902174337E+02  0.10000000000E+01 0.  0.
<mgrwt>
<rscale>  0 0.12499904E+03</rscale>
<asrwt>0</asrwt>
<pdfrwt beam="1">  1        4 0.14863951E+00 0.12499904E+03</pdfrwt>
<pdfrwt beam="2">  1       -4 0.62200285E-03 0.12499904E+03</pdfrwt>
<totfact> 0.31610140E+03</totfact>
</mgrwt>
</event>
<event>
 5    1  0.3340698E-002  0.1249887E+03  0.7818608E-02  0.1235087E+00
          4   -1    0    0  501    0  0.00000000000E+00  0.00000000000E+00  0.96271481321E+02  0.96279857788E+02  0.12700000000E+01 0. -1.
         -4   -1    0    0    0  501 -0.00000000000E+00 -0.00000000000E+00 -0.40547965877E+02  0.40567849792E+02  0.12700000000E+01 0. -1.
         25    2    1    2    0    0  0.00000000000E+00  0.00000000000E+00  0.55723515444E+02  0.13684770758E+03  0.12498873908E+03 0.  0.
    9000005    1    3    3    0    0 -0.21706563875E+02 -0.20325512128E+02 -0.32309309891E+02  0.43922578068E+02  0.10000000000E+01 0.  0.
    9000005    1    3    3    0    0  0.21706563875E+02  0.20325512128E+02  0.88032825335E+02  0.92925129513E+02  0.10000000000E+01 0.  0.
<mgrwt>
<rscale>  0 0.12498874E+03</rscale>
<asrwt>0</asrwt>
<pdfrwt beam="1">  1        4 0.14813171E-01 0.12498874E+03</pdfrwt>
<pdfrwt beam="2">  1       -4 0.62403225E-02 0.12498874E+03</pdfrwt>
<totfact> 0.10201861E+04</totfact>
</mgrwt>
</event>
<event>
 5    1  0.3340698E-002  0.1249994E+03  0.7818608E-02  0.1235070E+00
          4   -1    0    0  501    0  0.00000000000E+00  0.00000000000E+00  0.90808873235E+01  0.91692646696E+01  0.12700000000E+01 0. -1.
         -4   -1    0    0    0  501 -0.00000000000E+00 -0.00000000000E+00 -0.42798539626E+03  0.42798728055E+03  0.12700000000E+01 0. -1.
         25    2    1    2    0    0  0.00000000000E+00  0.00000000000E+00 -0.41890450893E+03  0.43715654522E+03  0.12499942968E+03 0.  0.
    9000005    1    3    3    0    0  0.26457602853E+02  0.40030646784E+02 -0.69441052305E+02  0.84412778510E+02  0.10000000000E+01 0.  0.
    9000005    1    3    3    0    0 -0.26457602853E+02 -0.40030646784E+02 -0.34946345663E+03  0.35274376671E+03  0.10000000000E+01 0.  0.
<mgrwt>
<rscale>  0 0.12499943E+03</rscale>
<asrwt>0</asrwt>
<pdfrwt beam="1">  1        4 0.14040031E-02 0.12499943E+03</pdfrwt>
<pdfrwt beam="2">  1       -4 0.65850834E-01 0.12499943E+03</pdfrwt>
<totfact> 0.61093384E+03</totfact>
</mgrwt>
</event>
<event>
 5    1  0.3340698E-002  0.1249995E+03  0.7818608E-02  0.1235070E+00
         -4   -1    0    0    0  501 -0.00000000000E+00  0.00000000000E+00  0.21932111449E+02  0.21968850962E+02  0.12700000000E+01 0.  1.
          4   -1    0    0  501    0  0.00000000000E+00 -0.00000000000E+00 -0.17791686405E+03  0.17792139673E+03  0.12700000000E+01 0.  1.
         25    2    1    2    0    0  0.00000000000E+00  0.00000000000E+00 -0.15598475260E+03  0.19989024769E+03  0.12499947231E+03 0.  0.
    9000005    1    3    3    0    0 -0.33278507837E+02 -0.45662998406E+02 -0.12068188119E+03  0.13325796395E+03  0.10000000000E+01 0.  0.
    9000005    1    3    3    0    0  0.33278507837E+02  0.45662998406E+02 -0.35302871413E+02  0.66632283746E+02  0.10000000000E+01 0.  0.
<mgrwt>
<rscale>  0 0.12499947E+03</rscale>
<asrwt>0</asrwt>
<pdfrwt beam="2">  1        4 0.27374999E-01 0.12499947E+03</pdfrwt>
<pdfrwt beam="1">  1       -4 0.33773459E-02 0.12499947E+03</pdfrwt>
<totfact> 0.90155085E+03</totfact>
</mgrwt>
</event>
<event>
 5    1  0.3340698E-002  0.1250041E+03  0.7818608E-02  0.1235063E+00
          4   -1    0    0  501    0  0.00000000000E+00  0.00000000000E+00  0.98900193636E+01  0.99712277586E+01  0.12700000000E+01 0.  1.
         -4   -1    0    0    0  501 -0.00000000000E+00 -0.00000000000E+00 -0.39329753340E+03  0.39329958388E+03  0.12700000000E+01 0.  1.
         25    2    1    2    0    0  0.00000000000E+00  0.00000000000E+00 -0.38340751404E+03  0.40327081164E+03  0.12500410273E+03 0.  0.
    9000005    1    3    3    0    0 -0.47711187646E+02  0.36868181047E+02 -0.13870534208E+03  0.15124745327E+03  0.10000000000E+01 0.  0.
    9000005    1    3    3    0    0  0.47711187646E+02 -0.36868181047E+02 -0.24470217196E+03  0.25202335836E+03  0.10000000000E+01 0.  0.
<mgrwt>
<rscale>  0 0.12500410E+03</rscale>
<asrwt>0</asrwt>
<pdfrwt beam="1">  1        4 0.15279463E-02 0.12500410E+03</pdfrwt>
<pdfrwt beam="2">  1       -4 0.60513705E-01 0.12500410E+03</pdfrwt>
<totfact> 0.64230101E+03</totfact>
</mgrwt>
</event>
<event>
 5    1  0.3340698E-002  0.1250109E+03  0.7818608E-02  0.1235052E+00
         -4   -1    0    0    0  501 -0.00000000000E+00  0.00000000000E+00  0.21606877446E+02  0.21644169029E+02  0.12700000000E+01 0.  1.
          4   -1    0    0  501    0  0.00000000000E+00 -0.00000000000E+00 -0.18062337513E+03  0.18062783989E+03  0.12700000000E+01 0.  1.
         25    2    1    2    0    0  0.00000000000E+00  0.00000000000E+00 -0.15901649768E+03  0.20227200892E+03  0.12501087575E+03 0.  0.
    9000005    1    3    3    0    0 -0.55111348963E+02 -0.29367468216E+02 -0.75472624185E+02  0.97963390996E+02  0.10000000000E+01 0.  0.
    9000005    1    3    3    0    0  0.55111348963E+02  0.29367468216E+02 -0.83543873496E+02  0.10430861792E+03  0.10000000000E+01 0.  0.
<mgrwt>
<rscale>  0 0.12501088E+03</rscale>
<asrwt>0</asrwt>
<pdfrwt beam="2">  1        4 0.27791423E-01 0.12501088E+03</pdfrwt>
<pdfrwt beam="1">  1       -4 0.33273471E-02 0.12501088E+03</pdfrwt>
<totfact> 0.89731889E+03</totfact>
</mgrwt>
</event>
<event>
 5    1  0.3340698E-002  0.1249999E+03  0.7818608E-02  0.1235069E+00
         -4   -1    0    0    0  501 -0.00000000000E+00  0.00000000000E+00  0.12637875207E+03  0.12638513312E+03  0.12700000000E+01 0.  1.
          4   -1    0    0  501    0  0.00000000000E+00 -0.00000000000E+00 -0.30888795624E+02  0.30914892772E+02  0.12700000000E+01 0.  1.
         25    2    1    2    0    0  0.00000000000E+00  0.00000000000E+00  0.95489956446E+02  0.15730002590E+03  0.12499986546E+03 0.  0.
    9000005    1    3    3    0    0  0.37797494690E+01  0.60541373396E+02  0.66650223960E+02  0.90126559641E+02  0.10000000000E+01 0.  0.
    9000005    1    3    3    0    0 -0.37797494690E+01 -0.60541373396E+02  0.28839732486E+02  0.67173466254E+02  0.10000000000E+01 0.  0.
<mgrwt>
<rscale>  0 0.12499987E+03</rscale>
<asrwt>0</asrwt>
<pdfrwt beam="2">  1        4 0.47546208E-02 0.12499987E+03</pdfrwt>
<pdfrwt beam="1">  1       -4 0.19445383E-01 0.12499987E+03</pdfrwt>
<totfact> 0.97866154E+03</totfact>
</mgrwt>
</event>
<event>
 5    1  0.3340698E-002  0.1249981E+03  0.7818608E-02  0.1235072E+00
          4   -1    0    0  501    0  0.00000000000E+00  0.00000000000E+00  0.60842745135E+02  0.60855998353E+02  0.12700000000E+01 0.  1.
         -4   -1    0    0    0  501 -0.00000000000E+00 -0.00000000000E+00 -0.64173959214E+02  0.64186524607E+02  0.12700000000E+01 0.  1.
         25    2    1    2    0    0  0.00000000000E+00  0.00000000000E+00 -0.33312140783E+01  0.12504252296E+03  0.12499814223E+03 0.  0.
    9000005    1    3    3    0    0 -0.30058684618E+02  0.43882529197E+02 -0.34478670881E+02  0.63395422827E+02  0.10000000000E+01 0.  0.
    9000005    1    3    3    0    0  0.30058684618E+02 -0.43882529197E+02  0.31147456802E+02  0.61647100134E+02  0.10000000000E+01 0.  0.
<mgrwt>
<rscale>  0 0.12499814E+03</rscale>
<asrwt>0</asrwt>
<pdfrwt beam="1">  1        4 0.93624084E-02 0.12499814E+03</pdfrwt>
<pdfrwt beam="2">  1       -4 0.98749029E-02 0.12499814E+03</pdfrwt>
<totfact> 0.10452378E+04</totfact>
</mgrwt>
</event>
<event>
 5    1  0.3340698E-002  0.1250006E+03  0.7818608E-02  0.1235068E+00
         -4   -1    0    0    0  501 -0.00000000000E+00  0.00000000000E+00  0.15802784588E+02  0.15853734599E+02  0.12700000000E+01 0. -1.
          4   -1    0    0  501    0  0.00000000000E+00 -0.00000000000E+00 -0.24673944711E+03  0.24674271552E+03  0.12700000000E+01 0. -1.
         25    2    1    2    0    0  0.00000000000E+00  0.00000000000E+00 -0.23093666252E+03  0.26259645012E+03  0.12500061406E+03 0.  0.
    9000005    1    3    3    0    0 -0.58299076977E+02  0.12789160047E+02 -0.76564898766E+02  0.97085162173E+02  0.10000000000E+01 0.  0.
    9000005    1    3    3    0    0  0.58299076977E+02 -0.12789160047E+02 -0.15437176376E+03  0.16551128794E+03  0.10000000000E+01 0.  0.
<mgrwt>
<rscale>  0 0.12500061E+03</rscale>
<asrwt>0</asrwt>
<pdfrwt beam="2">  1        4 0.37964083E-01 0.12500061E+03</pdfrwt>
<pdfrwt beam="1">  1       -4 0.24353685E-02 0.12500061E+03</pdfrwt>
<totfact> 0.80541962E+03</totfact>
</mgrwt>
</event>
<event>
 5    1  0.3340698E-002  0.1250015E+03  0.7818608E-02  0.1235067E+00
          4   -1    0    0  501    0  0.00000000000E+00  0.00000000000E+00  0.34180762930E+02  0.34204348473E+02  0.12700000000E+01 0. -1.
         -4   -1    0    0    0  501 -0.00000000000E+00 -0.00000000000E+00 -0.11421832999E+03  0.11422539038E+03  0.12700000000E+01 0. -1.
         25    2    1    2    0    0  0.00000000000E+00  0.00000000000E+00 -0.80037567064E+02  0.14842973885E+03  0.12500150092E+03 0.  0.
    9000005    1    3    3    0    0  0.24681544831E+02 -0.53075311064E+02 -0.14025960199E+02  0.60198794500E+02  0.10000000000E+01 0.  0.
    9000005    1    3    3    0    0 -0.24681544831E+02  0.53075311064E+02 -0.66011606865E+02  0.88230944349E+02  0.10000000000E+01 0.  0.
<mgrwt>
<rscale>  0 0.12500150E+03</rscale>
<asrwt>0</asrwt>
<pdfrwt beam="1">  1        4 0.52609363E-02 0.12500150E+03</pdfrwt>
<pdfrwt beam="2">  1       -4 0.17574408E-01 0.12500150E+03</pdfrwt>
<totfact> 0.99614266E+03</totfact>
</mgrwt>
</event>
<event>
 5    1  0.3340698E-002  0.1250007E+03  0.7818608E-02  0.1235068E+00
         -4   -1    0    0    0  501 -0.00000000000E+00  0.00000000000E+00  0.18087096158E+03  0.18087542023E+03  0.12700000000E+01 0. -1.
          4   -1    0    0  501    0  0.00000000000E+00 -0.00000000000E+00 -0.21573741153E+02  0.21611089916E+02  0.12700000000E+01 0. -1.
         25    2    1    2    0    0  0.00000000000E+00  0.00000000000E+00  0.15929722043E+03  0.20248651014E+03  0.12500072942E+03 0.  0.
    9000005    1    3    3    0    0  0.47452921751E+02 -0.10114519097E+01  0.14549823918E+03  0.15304751034E+03  0.10000000000E+01 0.  0.
    9000005    1    3    3    0    0 -0.47452921751E+02  0.10114519097E+01  0.13798981243E+02  0.49438999798E+02  0.10000000000E+01 0.  0.
<mgrwt>
<rscale>  0 0.12500073E+03</rscale>
<asrwt>0</asrwt>
<pdfrwt beam="2">  1        4 0.33222531E-02 0.12500073E+03</pdfrwt>
<pdfrwt beam="1">  1       -4 0.27829517E-01 0.12500073E+03</pdfrwt>
<totfact> 0.89716361E+03</totfact>
</mgrwt>
</event>
<event>
 5    1  0.3340698E-002  0.1250014E+03  0.7818608E-02  0.1235067E+00
          4   -1    0    0  501    0  0.00000000000E+00  0.00000000000E+00  0.48580833858E+02  0.48597431191E+02  0.12700000000E+01 0.  1.
         -4   -1    0    0    0  501 -0.00000000000E+00 -0.00000000000E+00 -0.80373679529E+02  0.80383712660E+02  0.12700000000E+01 0.  1.
         25    2    1    2    0    0  0.00000000000E+00  0.00000000000E+00 -0.31792845670E+02  0.12898114385E+03  0.12500140173E+03 0.  0.
    9000005    1    3    3    0    0  0.30220107928E+02  0.51868452893E+02 -0.33820314202E+02  0.68908671308E+02  0.10000000000E+01 0.  0.
    9000005    1    3    3    0    0 -0.30220107928E+02 -0.51868452893E+02  0.20274685321E+01  0.60072472543E+02  0.10000000000E+01 0.  0.
<mgrwt>
<rscale>  0 0.12500140E+03</rscale>
<asrwt>0</asrwt>
<pdfrwt beam="1">  1        4 0.74760229E-02 0.12500140E+03</pdfrwt>
<pdfrwt beam="2">  1       -4 0.12367230E-01 0.12500140E+03</pdfrwt>
<totfact> 0.10366024E+04</totfact>
</mgrwt>
</event>
<event>
 5    1  0.3340698E-002  0.1250006E+03  0.7818608E-02  0.1235068E+00
         -4   -1    0    0    0  501 -0.00000000000E+00  0.00000000000E+00  0.28046084026E+02  0.28074823760E+02  0.12700000000E+01 0. -1.
          4   -1    0    0  501    0  0.00000000000E+00 -0.00000000000E+00 -0.13917800408E+03  0.13918379833E+03  0.12700000000E+01 0. -1.
         25    2    1    2    0    0  0.00000000000E+00  0.00000000000E+00 -0.11113192005E+03  0.16725862209E+03  0.12500057204E+03 0.  0.
    9000005    1    3    3    0    0 -0.59962992775E+02 -0.71364646819E+01 -0.34040353555E+02  0.69327017106E+02  0.10000000000E+01 0.  0.
    9000005    1    3    3    0    0  0.59962992775E+02  0.71364646819E+01 -0.77091566495E+02  0.97931604988E+02  0.10000000000E+01 0.  0.
<mgrwt>
<rscale>  0 0.12500057E+03</rscale>
<asrwt>0</asrwt>
<pdfrwt beam="2">  1        4 0.21414657E-01 0.12500057E+03</pdfrwt>
<pdfrwt beam="1">  1       -4 0.43174387E-02 0.12500057E+03</pdfrwt>
<totfact> 0.95960114E+03</totfact>
</mgrwt>
</event>
<event>
 5    1  0.3340698E-002  0.1250004E+03  0.7818608E-02  0.1235069E+00
          4   -1    0    0  501    0  0.00000000000E+00  0.00000000000E+00  0.11608929212E+04  0.11608936159E+04  0.12700000000E+01 0. -1.
         -4   -1    0    0    0  501 -0.00000000000E+00 -0.00000000000E+00 -0.32443371135E+01  0.34840527129E+01  0.12700000000E+01 0. -1.
         25    2    1    2    0    0  0.00000000000E+00  0.00000000000E+00  0.11576485841E+04  0.11643776686E+04  0.12500044353E+03 0.  0.
    9000005    1    3    3    0    0 -0.10721359232E+02  0.31912593944E+02  0.10692490511E+04  0.10697793671E+04  0.10000000000E+01 0.  0.
    9000005    1    3    3    0    0  0.10721359232E+02 -0.31912593944E+02  0.88399533033E+02  0.94598301445E+02  0.10000000000E+01 0.  0.
<mgrwt>
<rscale>  0 0.12500044E+03</rscale>
<asrwt>0</asrwt>
<pdfrwt beam="1">  1        4 0.17861758E+00 0.12500044E+03</pdfrwt>
<pdfrwt beam="2">  1       -4 0.51762139E-03 0.12500044E+03</pdfrwt>
<totfact> 0.25664379E+03</totfact>
</mgrwt>
</event>
<event>
 4    1  0.3340698E-002  0.1251292E+03  0.7818608E-02  0.1234867E+00
          4   -1    0    0  501    0  0.00000000000E+00  0.00000000000E+00  0.10993666459E+03  0.10994399993E+03  0.12700000000E+01 0.  1.
         -4   -1    0    0    0  501 -0.00000000000E+00 -0.00000000000E+00 -0.35585472387E+02  0.35608127514E+02  0.12700000000E+01 0.  1.
    9000005    1    1    2    0    0  0.27320229531E+02 -0.16553780871E+02 -0.25388780232E+02  0.40816819627E+02  0.10000000000E+01 0.  0.
    9000005    1    1    2    0    0 -0.27320229531E+02  0.16553780871E+02  0.99739972431E+02  0.10473530782E+03  0.10000000000E+01 0.  0.
<mgrwt>
<rscale>  0 0.12512922E+03</rscale>
<asrwt>0</asrwt>
<pdfrwt beam="1">  1        4 0.16915640E-01 0.12512922E+03</pdfrwt>
<pdfrwt beam="2">  1       -4 0.54769951E-02 0.12512922E+03</pdfrwt>
<totfact> 0.99906845E+03</totfact>
</mgrwt>
</event>
<event>
 5    1  0.3340698E-002  0.1250006E+03  0.7818608E-02  0.1235068E+00
          4   -1    0    0  501    0  0.00000000000E+00  0.00000000000E+00  0.84538129749E+03  0.84538225144E+03  0.12700000000E+01 0.  1.
         -4   -1    0    0    0  501 -0.00000000000E+00 -0.00000000000E+00 -0.45324986566E+01  0.47070632109E+01  0.12700000000E+01 0.  1.
         25    2    1    2    0    0  0.00000000000E+00  0.00000000000E+00  0.84084879883E+03  0.85008931465E+03  0.12500056152E+03 0.  0.
    9000005    1    3    3    0    0  0.28303256401E+02  0.55155024787E+02  0.47403087993E+03  0.47806843256E+03  0.10000000000E+01 0.  0.
    9000005    1    3    3    0    0 -0.28303256401E+02 -0.55155024787E+02  0.36681791890E+03  0.37202088208E+03  0.10000000000E+01 0.  0.
<mgrwt>
<rscale>  0 0.12500056E+03</rscale>
<asrwt>0</asrwt>
<pdfrwt beam="1">  1        4 0.13007219E+00 0.12500056E+03</pdfrwt>
<pdfrwt beam="2">  1       -4 0.71080874E-03 0.12500056E+03</pdfrwt>
<totfact> 0.36123216E+03</totfact>
</mgrwt>
</event>
<event>
 5    1  0.3340698E-002  0.1249955E+03  0.7818608E-02  0.1235076E+00
          4   -1    0    0  501    0  0.00000000000E+00  0.00000000000E+00  0.75804840417E+02  0.75815478174E+02  0.12700000000E+01 0. -1.
         -4   -1    0    0    0  501 -0.00000000000E+00 -0.00000000000E+00 -0.51504538759E+02  0.51520194223E+02  0.12700000000E+01 0. -1.
         25    2    1    2    0    0  0.00000000000E+00  0.00000000000E+00  0.24300301658E+02  0.12733567240E+03  0.12499547513E+03 0.  0.
    9000005    1    3    3    0    0 -0.55563984391E+02  0.28217349780E+02  0.74384077546E+01  0.62768663359E+02  0.10000000000E+01 0.  0.
    9000005    1    3    3    0    0  0.55563984391E+02 -0.28217349780E+02  0.16861893904E+02  0.64567009037E+02  0.10000000000E+01 0.  0.
<mgrwt>
<rscale>  0 0.12499548E+03</rscale>
<asrwt>0</asrwt>
<pdfrwt beam="1">  1        4 0.11664306E-01 0.12499548E+03</pdfrwt>
<pdfrwt beam="2">  1       -4 0.79257978E-02 0.12499548E+03</pdfrwt>
<totfact> 0.10402924E+04</totfact>
</mgrwt>
</event>
<event>
 5    1  0.3340698E-002  0.1250441E+03  0.7818608E-02  0.1235000E+00
         -4   -1    0    0    0  501 -0.00000000000E+00  0.00000000000E+00  0.44861518650E+02  0.44879491481E+02  0.12700000000E+01 0.  1.
          4   -1    0    0  501    0  0.00000000000E+00 -0.00000000000E+00 -0.87094972764E+02  0.87104231704E+02  0.12700000000E+01 0.  1.
         25    2    1    2    0    0  0.00000000000E+00  0.00000000000E+00 -0.42233454114E+02  0.13198372319E+03  0.12504414636E+03 0.  0.
    9000005    1    3    3    0    0 -0.30358288878E+02 -0.18883380114E+02  0.33010842354E+02  0.48671587821E+02  0.10000000000E+01 0.  0.
    9000005    1    3    3    0    0  0.30358288878E+02  0.18883380114E+02 -0.75244296468E+02  0.83312135365E+02  0.10000000000E+01 0.  0.
<mgrwt>
<rscale>  0 0.12504415E+03</rscale>
<asrwt>0</asrwt>
<pdfrwt beam="2">  1        4 0.13401321E-01 0.12504415E+03</pdfrwt>
<pdfrwt beam="1">  1       -4 0.69038668E-02 0.12504415E+03</pdfrwt>
<totfact> 0.10291793E+04</totfact>
</mgrwt>
</event>
<event>
 5    1  0.3340698E-002  0.1250017E+03  0.7818608E-02  0.1235067E+00
         -4   -1    0    0    0  501 -0.00000000000E+00  0.00000000000E+00  0.23877466719E+01  0.27044840856E+01  0.12700000000E+01 0.  1.
          4   -1    0    0  501    0  0.00000000000E+00 -0.00000000000E+00 -0.15339257207E+04  0.15339262464E+04  0.12700000000E+01 0.  1.
         25    2    1    2    0    0  0.00000000000E+00  0.00000000000E+00 -0.15315379740E+04  0.15366307305E+04  0.12500174444E+03 0.  0.
    9000005    1    3    3    0    0  0.14768017619E+02 -0.57028140686E+02 -0.10221736675E+04  0.10238702602E+04  0.10000000000E+01 0.  0.
    9000005    1    3    3    0    0 -0.14768017619E+02  0.57028140686E+02 -0.50936430649E+03  0.51276047030E+03  0.10000000000E+01 0.  0.
<mgrwt>
<rscale>  0 0.12500174E+03</rscale>
<asrwt>0</asrwt>
<pdfrwt beam="2">  1        4 0.23601224E+00 0.12500174E+03</pdfrwt>
<pdfrwt beam="1">  1       -4 0.39175173E-03 0.12500174E+03</pdfrwt>
<totfact> 0.17220912E+03</totfact>
</mgrwt>
</event>
<event>
 5    1  0.3340698E-002  0.1249994E+03  0.7818608E-02  0.1235070E+00
          4   -1    0    0  501    0  0.00000000000E+00  0.00000000000E+00  0.10222506285E+02  0.10301093861E+02  0.12700000000E+01 0. -1.
         -4   -1    0    0    0  501 -0.00000000000E+00 -0.00000000000E+00 -0.38057585178E+03  0.38057797080E+03  0.12700000000E+01 0. -1.
         25    2    1    2    0    0  0.00000000000E+00  0.00000000000E+00 -0.37035334549E+03  0.39087906466E+03  0.12499937068E+03 0.  0.
    9000005    1    3    3    0    0  0.28992995957E+02 -0.39875052283E+02 -0.30525683485E+03  0.30921408252E+03  0.10000000000E+01 0.  0.
    9000005    1    3    3    0    0 -0.28992995957E+02  0.39875052283E+02 -0.65096510646E+02  0.81664982137E+02  0.10000000000E+01 0.  0.
<mgrwt>
<rscale>  0 0.12499937E+03</rscale>
<asrwt>0</asrwt>
<pdfrwt beam="1">  1        4 0.15789018E-02 0.12499937E+03</pdfrwt>
<pdfrwt beam="2">  1       -4 0.58556328E-01 0.12499937E+03</pdfrwt>
<totfact> 0.65450568E+03</totfact>
</mgrwt>
</event>
<event>
 5    1  0.3340698E-002  0.1250021E+03  0.7818608E-02  0.1235066E+00
         -4   -1    0    0    0  501 -0.00000000000E+00  0.00000000000E+00  0.41945986647E+03  0.41946178906E+03  0.12700000000E+01 0.  1.
          4   -1    0    0  501    0  0.00000000000E+00 -0.00000000000E+00 -0.92676287962E+01  0.93542420058E+01  0.12700000000E+01 0.  1.
         25    2    1    2    0    0  0.00000000000E+00  0.00000000000E+00  0.41019223768E+03  0.42881603107E+03  0.12500206658E+03 0.  0.
    9000005    1    3    3    0    0  0.24535127151E+02  0.57442787618E+02  0.21172398917E+03  0.22074803262E+03  0.10000000000E+01 0.  0.
    9000005    1    3    3    0    0 -0.24535127151E+02 -0.57442787618E+02  0.19846824851E+03  0.20806799845E+03  0.10000000000E+01 0.  0.
<mgrwt>
<rscale>  0 0.12500207E+03</rscale>
<asrwt>0</asrwt>
<pdfrwt beam="2">  1        4 0.14325993E-02 0.12500207E+03</pdfrwt>
<pdfrwt beam="1">  1       -4 0.64539104E-01 0.12500207E+03</pdfrwt>
<totfact> 0.61840634E+03</totfact>
</mgrwt>
</event>
<event>
 5    1  0.3340698E-002  0.1250017E+03  0.7818608E-02  0.1235067E+00
         -4   -1    0    0    0  501 -0.00000000000E+00  0.00000000000E+00  0.76603491153E+02  0.76614018018E+02  0.12700000000E+01 0.  1.
          4   -1    0    0  501    0  0.00000000000E+00 -0.00000000000E+00 -0.50972569495E+02  0.50988388295E+02  0.12700000000E+01 0.  1.
         25    2    1    2    0    0  0.00000000000E+00  0.00000000000E+00  0.25630921658E+02  0.12760240631E+03  0.12500171980E+03 0.  0.
    9000005    1    3    3    0    0 -0.35000476711E+01 -0.61309058774E+02  0.24645640427E+02  0.66177478144E+02  0.10000000000E+01 0.  0.
    9000005    1    3    3    0    0  0.35000476711E+01  0.61309058774E+02  0.98528123035E+00  0.61424928169E+02  0.10000000000E+01 0.  0.
<mgrwt>
<rscale>  0 0.12500172E+03</rscale>
<asrwt>0</asrwt>
<pdfrwt beam="2">  1        4 0.78439604E-02 0.12500172E+03</pdfrwt>
<pdfrwt beam="1">  1       -4 0.11787179E-01 0.12500172E+03</pdfrwt>
<totfact> 0.10395680E+04</totfact>
</mgrwt>
</event>
<event>
 5    1  0.3340698E-002  0.1250046E+03  0.7818608E-02  0.1235062E+00
         -4   -1    0    0    0  501 -0.00000000000E+00  0.00000000000E+00  0.41510147892E+02  0.41529571127E+02  0.12700000000E+01 0. -1.
          4   -1    0    0  501    0  0.00000000000E+00 -0.00000000000E+00 -0.94064644155E+02  0.94073217124E+02  0.12700000000E+01 0. -1.
         25    2    1    2    0    0  0.00000000000E+00  0.00000000000E+00 -0.52554496263E+02  0.13560278825E+03  0.12500456433E+03 0.  0.
    9000005    1    3    3    0    0  0.18516122211E+02  0.46562531707E+02  0.14233527518E+02  0.52100954371E+02  0.10000000000E+01 0.  0.
    9000005    1    3    3    0    0 -0.18516122211E+02 -0.46562531707E+02 -0.66788023781E+02  0.83501833880E+02  0.10000000000E+01 0.  0.
<mgrwt>
<rscale>  0 0.12500456E+03</rscale>
<asrwt>0</asrwt>
<pdfrwt beam="2">  1        4 0.14473637E-01 0.12500456E+03</pdfrwt>
<pdfrwt beam="1">  1       -4 0.63883302E-02 0.12500456E+03</pdfrwt>
<totfact> 0.10224329E+04</totfact>
</mgrwt>
</event>
<event>
 5    1  0.3340698E-002  0.1250000E+03  0.7818608E-02  0.1235069E+00
         -4   -1    0    0    0  501 -0.00000000000E+00  0.00000000000E+00  0.11482934833E+03  0.11483637114E+03  0.12700000000E+01 0.  1.
          4   -1    0    0  501    0  0.00000000000E+00 -0.00000000000E+00 -0.33997966718E+02  0.34021678985E+02  0.12700000000E+01 0.  1.
         25    2    1    2    0    0  0.00000000000E+00  0.00000000000E+00  0.80831381608E+02  0.14885805013E+03  0.12500002734E+03 0.  0.
    9000005    1    3    3    0    0  0.20142922463E+02  0.58405377670E+02  0.29223706413E+02  0.68351667739E+02  0.10000000000E+01 0.  0.
    9000005    1    3    3    0    0 -0.20142922463E+02 -0.58405377670E+02  0.51607675195E+02  0.80506382388E+02  0.10000000000E+01 0.  0.
<mgrwt>
<rscale>  0 0.12500003E+03</rscale>
<asrwt>0</asrwt>
<pdfrwt beam="2">  1        4 0.52328206E-02 0.12500003E+03</pdfrwt>
<pdfrwt beam="1">  1       -4 0.17668418E-01 0.12500003E+03</pdfrwt>
<totfact> 0.99531756E+03</totfact>
</mgrwt>
</event>
<event>
 5    1  0.3340698E-002  0.1249953E+03  0.7818608E-02  0.1235077E+00
          4   -1    0    0  501    0  0.00000000000E+00  0.00000000000E+00  0.34151182029E+02  0.34174787988E+02  0.12700000000E+01 0. -1.
         -4   -1    0    0    0  501 -0.00000000000E+00 -0.00000000000E+00 -0.11430579980E+03  0.11431285478E+03  0.12700000000E+01 0. -1.
         25    2    1    2    0    0  0.00000000000E+00  0.00000000000E+00 -0.80154617773E+02  0.14848764277E+03  0.12499526913E+03 0.  0.
    9000005    1    3    3    0    0 -0.26333524605E+02 -0.94412031107E+01 -0.10645749521E+03  0.11007628773E+03  0.10000000000E+01 0.  0.
    9000005    1    3    3    0    0  0.26333524605E+02  0.94412031107E+01  0.26302877438E+02  0.38411355038E+02  0.10000000000E+01 0.  0.
<mgrwt>
<rscale>  0 0.12499527E+03</rscale>
<asrwt>0</asrwt>
<pdfrwt beam="1">  1        4 0.52563866E-02 0.12499527E+03</pdfrwt>
<pdfrwt beam="2">  1       -4 0.17587866E-01 0.12499527E+03</pdfrwt>
<totfact> 0.99616630E+03</totfact>
</mgrwt>
</event>
<event>
 5    1  0.3340698E-002  0.1250042E+03  0.7818608E-02  0.1235063E+00
         -4   -1    0    0    0  501 -0.00000000000E+00  0.00000000000E+00  0.17785111548E+03  0.17785564983E+03  0.12700000000E+01 0. -1.
          4   -1    0    0  501    0  0.00000000000E+00 -0.00000000000E+00 -0.21941892277E+02  0.21978615441E+02  0.12700000000E+01 0. -1.
         25    2    1    2    0    0  0.00000000000E+00  0.00000000000E+00  0.15590922320E+03  0.19983426527E+03  0.12500419072E+03 0.  0.
    9000005    1    3    3    0    0 -0.28162468267E+02  0.55033582307E+02  0.92579335656E+02  0.11132723472E+03  0.10000000000E+01 0.  0.
    9000005    1    3    3    0    0  0.28162468267E+02 -0.55033582307E+02  0.63329887548E+02  0.88507030553E+02  0.10000000000E+01 0.  0.
<mgrwt>
<rscale>  0 0.12500419E+03</rscale>
<asrwt>0</asrwt>
<pdfrwt beam="2">  1        4 0.33788494E-02 0.12500419E+03</pdfrwt>
<pdfrwt beam="1">  1       -4 0.27364884E-01 0.12500419E+03</pdfrwt>
<totfact> 0.90155011E+03</totfact>
</mgrwt>
</event>
<event>
 5    1  0.3340698E-002  0.1250004E+03  0.7818608E-02  0.1235069E+00
          4   -1    0    0  501    0  0.00000000000E+00  0.00000000000E+00  0.26450500307E+02  0.26480971781E+02  0.12700000000E+01 0.  1.
         -4   -1    0    0    0  501 -0.00000000000E+00 -0.00000000000E+00 -0.14756429800E+03  0.14756976298E+03  0.12700000000E+01 0.  1.
         25    2    1    2    0    0  0.00000000000E+00  0.00000000000E+00 -0.12111379769E+03  0.17405073476E+03  0.12500042511E+03 0.  0.
    9000005    1    3    3    0    0 -0.35796994633E+02  0.41115321865E+02 -0.18017231065E+02  0.57423994394E+02  0.10000000000E+01 0.  0.
    9000005    1    3    3    0    0  0.35796994633E+02 -0.41115321865E+02 -0.10309656663E+03  0.11662674036E+03  0.10000000000E+01 0.  0.
<mgrwt>
<rscale>  0 0.12500043E+03</rscale>
<asrwt>0</asrwt>
<pdfrwt beam="1">  1        4 0.40720721E-02 0.12500043E+03</pdfrwt>
<pdfrwt beam="2">  1       -4 0.22704964E-01 0.12500043E+03</pdfrwt>
<totfact> 0.94698081E+03</totfact>
</mgrwt>
</event>
<event>
 5    1  0.3340698E-002  0.1249943E+03  0.7818608E-02  0.1235078E+00
         -4   -1    0    0    0  501 -0.00000000000E+00  0.00000000000E+00  0.10969031007E+02  0.11042306880E+02  0.12700000000E+01 0. -1.
          4   -1    0    0  501    0  0.00000000000E+00 -0.00000000000E+00 -0.35482398807E+03  0.35482626088E+03  0.12700000000E+01 0. -1.
         25    2    1    2    0    0  0.00000000000E+00  0.00000000000E+00 -0.34385495707E+03  0.36586856776E+03  0.12499430938E+03 0.  0.
    9000005    1    3    3    0    0 -0.32375131440E+02  0.42340289605E+02 -0.26740802016E+03  0.27266994426E+03  0.10000000000E+01 0.  0.
    9000005    1    3    3    0    0  0.32375131440E+02 -0.42340289605E+02 -0.76446936911E+02  0.93198623502E+02  0.10000000000E+01 0.  0.
<mgrwt>
<rscale>  0 0.12499431E+03</rscale>
<asrwt>0</asrwt>
<pdfrwt beam="2">  1        4 0.54594109E-01 0.12499431E+03</pdfrwt>
<pdfrwt beam="1">  1       -4 0.16933549E-02 0.12499431E+03</pdfrwt>
<totfact> 0.68021951E+03</totfact>
</mgrwt>
</event>
<event>
 5    1  0.3340698E-002  0.1249965E+03  0.7818608E-02  0.1235075E+00
         -4   -1    0    0    0  501 -0.00000000000E+00  0.00000000000E+00  0.15112559696E+02  0.15165828714E+02  0.12700000000E+01 0. -1.
          4   -1    0    0  501    0  0.00000000000E+00 -0.00000000000E+00 -0.25795296273E+03  0.25795608905E+03  0.12700000000E+01 0. -1.
         25    2    1    2    0    0  0.00000000000E+00  0.00000000000E+00 -0.24284040303E+03  0.27312191777E+03  0.12499648243E+03 0.  0.
    9000005    1    3    3    0    0 -0.13689265950E+02  0.41334723179E+02 -0.21935946104E+03  0.22364151782E+03  0.10000000000E+01 0.  0.
    9000005    1    3    3    0    0  0.13689265950E+02 -0.41334723179E+02 -0.23480941988E+02  0.49480399950E+02  0.10000000000E+01 0.  0.
<mgrwt>
<rscale>  0 0.12499648E+03</rscale>
<asrwt>0</asrwt>
<pdfrwt beam="2">  1        4 0.39689406E-01 0.12499648E+03</pdfrwt>
<pdfrwt beam="1">  1       -4 0.23293475E-02 0.12499648E+03</pdfrwt>
<totfact> 0.79105207E+03</totfact>
</mgrwt>
</event>
<event>
 5    1  0.3340698E-002  0.1249993E+03  0.7818608E-02  0.1235070E+00
          4   -1    0    0  501    0  0.00000000000E+00  0.00000000000E+00  0.10649220780E+02  0.10724681964E+02  0.12700000000E+01 0.  1.
         -4   -1    0    0    0  501 -0.00000000000E+00 -0.00000000000E+00 -0.36543512134E+03  0.36543732815E+03  0.12700000000E+01 0.  1.
         25    2    1    2    0    0  0.00000000000E+00  0.00000000000E+00 -0.35478590056E+03  0.37616201012E+03  0.12499929048E+03 0.  0.
    9000005    1    3    3    0    0  0.61694394895E+02  0.32998419116E+01 -0.20564178456E+03  0.21472454652E+03  0.10000000000E+01 0.  0.
    9000005    1    3    3    0    0 -0.61694394895E+02 -0.32998419116E+01 -0.14914411600E+03  0.16143746360E+03  0.10000000000E+01 0.  0.
<mgrwt>
<rscale>  0 0.12499929E+03</rscale>
<asrwt>0</asrwt>
<pdfrwt beam="1">  1        4 0.16443164E-02 0.12499929E+03</pdfrwt>
<pdfrwt beam="2">  1       -4 0.56226753E-01 0.12499929E+03</pdfrwt>
<totfact> 0.66940219E+03</totfact>
</mgrwt>
</event>
<event>
 5    1  0.3340698E-002  0.1250038E+03  0.7818608E-02  0.1235063E+00
          4   -1    0    0  501    0  0.00000000000E+00  0.00000000000E+00  0.92687055919E+02  0.92695756294E+02  0.12700000000E+01 0.  1.
         -4   -1    0    0    0  501 -0.00000000000E+00 -0.00000000000E+00 -0.42126804957E+02  0.42145944003E+02  0.12700000000E+01 0.  1.
         25    2    1    2    0    0  0.00000000000E+00  0.00000000000E+00  0.50560250962E+02  0.13484170030E+03  0.12500378059E+03 0.  0.
    9000005    1    3    3    0    0 -0.38057033505E+02  0.17815672394E+02  0.75178066008E+02  0.86130584526E+02  0.10000000000E+01 0.  0.
    9000005    1    3    3    0    0  0.38057033505E+02 -0.17815672394E+02 -0.24617815046E+02  0.48711115771E+02  0.10000000000E+01 0.  0.
<mgrwt>
<rscale>  0 0.12500378E+03</rscale>
<asrwt>0</asrwt>
<pdfrwt beam="1">  1        4 0.14261689E-01 0.12500378E+03</pdfrwt>
<pdfrwt beam="2">  1       -4 0.64831884E-02 0.12500378E+03</pdfrwt>
<totfact> 0.10240535E+04</totfact>
</mgrwt>
</event>
<event>
 5    1  0.3340698E-002  0.1250105E+03  0.7818608E-02  0.1235053E+00
          4   -1    0    0  501    0  0.00000000000E+00  0.00000000000E+00  0.65025735184E+01  0.66254329943E+01  0.12700000000E+01 0.  1.
         -4   -1    0    0    0  501 -0.00000000000E+00 -0.00000000000E+00 -0.59507852349E+03  0.59507987869E+03  0.12700000000E+01 0.  1.
         25    2    1    2    0    0  0.00000000000E+00  0.00000000000E+00 -0.58857594997E+03  0.60170531168E+03  0.12501053244E+03 0.  0.
    9000005    1    3    3    0    0  0.15478360708E+02  0.39956295850E+02 -0.75308276840E+02  0.86651149957E+02  0.10000000000E+01 0.  0.
    9000005    1    3    3    0    0 -0.15478360708E+02 -0.39956295850E+02 -0.51326767313E+03  0.51505416173E+03  0.10000000000E+01 0.  0.
<mgrwt>
<rscale>  0 0.12501053E+03</rscale>
<asrwt>0</asrwt>
<pdfrwt beam="1">  1        4 0.10099514E-02 0.12501053E+03</pdfrwt>
<pdfrwt beam="2">  1       -4 0.91560054E-01 0.12501053E+03</pdfrwt>
<totfact> 0.48748901E+03</totfact>
</mgrwt>
</event>
<event>
 5    1  0.3340698E-002  0.1249965E+03  0.7818608E-02  0.1235075E+00
          4   -1    0    0  501    0  0.00000000000E+00  0.00000000000E+00  0.18900772303E+02  0.18943391820E+02  0.12700000000E+01 0. -1.
         -4   -1    0    0    0  501 -0.00000000000E+00 -0.00000000000E+00 -0.20638267177E+03  0.20638657928E+03  0.12700000000E+01 0. -1.
         25    2    1    2    0    0  0.00000000000E+00  0.00000000000E+00 -0.18748189947E+03  0.22532997110E+03  0.12499653295E+03 0.  0.
    9000005    1    3    3    0    0 -0.13527781278E+02 -0.36618422731E+02 -0.57755338609E+01  0.39474884940E+02  0.10000000000E+01 0.  0.
    9000005    1    3    3    0    0  0.13527781278E+02  0.36618422731E+02 -0.18170636561E+03  0.18585508616E+03  0.10000000000E+01 0.  0.
<mgrwt>
<rscale>  0 0.12499653E+03</rscale>
<asrwt>0</asrwt>
<pdfrwt beam="1">  1        4 0.29113903E-02 0.12499653E+03</pdfrwt>
<pdfrwt beam="2">  1       -4 0.31754758E-01 0.12499653E+03</pdfrwt>
<totfact> 0.86038540E+03</totfact>
</mgrwt>
</event>
<event>
 5    1  0.3340698E-002  0.1250063E+03  0.7818608E-02  0.1235059E+00
         -4   -1    0    0    0  501 -0.00000000000E+00  0.00000000000E+00  0.12486792945E+02  0.12551211019E+02  0.12700000000E+01 0. -1.
          4   -1    0    0  501    0  0.00000000000E+00 -0.00000000000E+00 -0.31199139465E+03  0.31199397948E+03  0.12700000000E+01 0. -1.
         25    2    1    2    0    0  0.00000000000E+00  0.00000000000E+00 -0.29950460170E+03  0.32454519050E+03  0.12500629679E+03 0.  0.
    9000005    1    3    3    0    0  0.22264076411E+02 -0.56027951125E+02 -0.19247770538E+03  0.20170148109E+03  0.10000000000E+01 0.  0.
    9000005    1    3    3    0    0 -0.22264076411E+02  0.56027951125E+02 -0.10702689632E+03  0.12284370941E+03  0.10000000000E+01 0.  0.
<mgrwt>
<rscale>  0 0.12500630E+03</rscale>
<asrwt>0</asrwt>
<pdfrwt beam="2">  1        4 0.48003824E-01 0.12500630E+03</pdfrwt>
<pdfrwt beam="1">  1       -4 0.19261994E-02 0.12500630E+03</pdfrwt>
<totfact> 0.72608646E+03</totfact>
</mgrwt>
</event>
<event>
 5    1  0.3340698E-002  0.1250017E+03  0.7818608E-02  0.1235067E+00
          4   -1    0    0  501    0  0.00000000000E+00  0.00000000000E+00  0.11531322974E+02  0.11601047777E+02  0.12700000000E+01 0.  1.
         -4   -1    0    0    0  501 -0.00000000000E+00 -0.00000000000E+00 -0.33766845895E+03  0.33767084723E+03  0.12700000000E+01 0.  1.
         25    2    1    2    0    0  0.00000000000E+00  0.00000000000E+00 -0.32613713598E+03  0.34927189501E+03  0.12500170071E+03 0.  0.
    9000005    1    3    3    0    0  0.55214375657E+02 -0.23370274586E+02 -0.21230878693E+03  0.22061463691E+03  0.10000000000E+01 0.  0.
    9000005    1    3    3    0    0 -0.55214375657E+02  0.23370274586E+02 -0.11382834905E+03  0.12865725809E+03  0.10000000000E+01 0.  0.
<mgrwt>
<rscale>  0 0.12500170E+03</rscale>
<asrwt>0</asrwt>
<pdfrwt beam="1">  1        4 0.17795971E-02 0.12500170E+03</pdfrwt>
<pdfrwt beam="2">  1       -4 0.51954533E-01 0.12500170E+03</pdfrwt>
<totfact> 0.69802107E+03</totfact>
</mgrwt>
</event>
<event>
 5    1  0.3340698E-002  0.1250035E+03  0.7818608E-02  0.1235064E+00
          4   -1    0    0  501    0  0.00000000000E+00  0.00000000000E+00  0.33203029628E+02  0.33227309197E+02  0.12700000000E+01 0. -1.
         -4   -1    0    0    0  501 -0.00000000000E+00 -0.00000000000E+00 -0.11758325897E+03  0.11759011731E+03  0.12700000000E+01 0. -1.
         25    2    1    2    0    0  0.00000000000E+00  0.00000000000E+00 -0.84380229339E+02  0.15081742651E+03  0.12500349209E+03 0.  0.
    9000005    1    3    3    0    0 -0.20843362062E+02  0.24975995055E+02  0.22188267693E+02  0.39389913610E+02  0.10000000000E+01 0.  0.
    9000005    1    3    3    0    0  0.20843362062E+02 -0.24975995055E+02 -0.10656849703E+03  0.11142751290E+03  0.10000000000E+01 0.  0.
<mgrwt>
<rscale>  0 0.12500349E+03</rscale>
<asrwt>0</asrwt>
<pdfrwt beam="1">  1        4 0.51105537E-02 0.12500349E+03</pdfrwt>
<pdfrwt beam="2">  1       -4 0.18092127E-01 0.12500349E+03</pdfrwt>
<totfact> 0.99133215E+03</totfact>
</mgrwt>
</event>
<event>
 5    1  0.3340698E-002  0.1249969E+03  0.7818608E-02  0.1235074E+00
         -4   -1    0    0    0  501 -0.00000000000E+00  0.00000000000E+00  0.16350472793E+03  0.16350966013E+03  0.12700000000E+01 0. -1.
          4   -1    0    0  501    0  0.00000000000E+00 -0.00000000000E+00 -0.23867391270E+02  0.23901156165E+02  0.12700000000E+01 0. -1.
         25    2    1    2    0    0  0.00000000000E+00  0.00000000000E+00  0.13963733666E+03  0.18741081629E+03  0.12499691306E+03 0.  0.
    9000005    1    3    3    0    0  0.20981768140E+02  0.92616986178E+01 -0.17336320248E+02  0.28767371366E+02  0.10000000000E+01 0.  0.
    9000005    1    3    3    0    0 -0.20981768140E+02 -0.92616986178E+01  0.15697365690E+03  0.15864344492E+03  0.10000000000E+01 0.  0.
<mgrwt>
<rscale>  0 0.12499691E+03</rscale>
<asrwt>0</asrwt>
<pdfrwt beam="2">  1        4 0.36748829E-02 0.12499691E+03</pdfrwt>
<pdfrwt beam="1">  1       -4 0.25157551E-01 0.12499691E+03</pdfrwt>
<totfact> 0.92306168E+03</totfact>
</mgrwt>
</event>
<event>
 5    1  0.3340698E-002  0.1250009E+03  0.7818608E-02  0.1235068E+00
         -4   -1    0    0    0  501 -0.00000000000E+00  0.00000000000E+00  0.56195742508E+01  0.57612945386E+01  0.12700000000E+01 0. -1.
          4   -1    0    0  501    0  0.00000000000E+00 -0.00000000000E+00 -0.68632666443E+03  0.68632783945E+03  0.12700000000E+01 0. -1.
         25    2    1    2    0    0  0.00000000000E+00  0.00000000000E+00 -0.68070709018E+03  0.69208913399E+03  0.12500090707E+03 0.  0.
    9000005    1    3    3    0    0 -0.61363507043E+01  0.35818830852E+02 -0.58871401252E+02  0.69191656498E+02  0.10000000000E+01 0.  0.
    9000005    1    3    3    0    0  0.61363507043E+01 -0.35818830852E+02 -0.62183568892E+03  0.62289747749E+03  0.10000000000E+01 0.  0.
<mgrwt>
<rscale>  0 0.12500091E+03</rscale>
<asrwt>0</asrwt>
<pdfrwt beam="2">  1        4 0.10559964E+00 0.12500091E+03</pdfrwt>
<pdfrwt beam="1">  1       -4 0.87554238E-03 0.12500091E+03</pdfrwt>
<totfact> 0.43506754E+03</totfact>
</mgrwt>
</event>
<event>
 5    1  0.3340698E-002  0.1249996E+03  0.7818608E-02  0.1235070E+00
          4   -1    0    0  501    0  0.00000000000E+00  0.00000000000E+00  0.15610336441E+03  0.15610853045E+03  0.12700000000E+01 0. -1.
         -4   -1    0    0    0  501 -0.00000000000E+00 -0.00000000000E+00 -0.25001633388E+02  0.25033868500E+02  0.12700000000E+01 0. -1.
         25    2    1    2    0    0  0.00000000000E+00  0.00000000000E+00  0.13110173102E+03  0.18114239895E+03  0.12499961928E+03 0.  0.
    9000005    1    3    3    0    0  0.52293558241E+01  0.47729299393E+02  0.12351287847E+03  0.13252118068E+03  0.10000000000E+01 0.  0.
    9000005    1    3    3    0    0 -0.52293558241E+01 -0.47729299393E+02  0.75888525579E+01  0.48621218270E+02  0.10000000000E+01 0.  0.
<mgrwt>
<rscale>  0 0.12499962E+03</rscale>
<asrwt>0</asrwt>
<pdfrwt beam="1">  1        4 0.24018780E-01 0.12499962E+03</pdfrwt>
<pdfrwt beam="2">  1       -4 0.38492821E-02 0.12499962E+03</pdfrwt>
<totfact> 0.93412568E+03</totfact>
</mgrwt>
</event>
<event>
 5    1  0.3340698E-002  0.1249947E+03  0.7818608E-02  0.1235078E+00
          4   -1    0    0  501    0  0.00000000000E+00  0.00000000000E+00  0.11947444241E+03  0.11948119220E+03  0.12700000000E+01 0.  1.
         -4   -1    0    0    0  501 -0.00000000000E+00 -0.00000000000E+00 -0.32672474817E+02  0.32697148357E+02  0.12700000000E+01 0.  1.
         25    2    1    2    0    0  0.00000000000E+00  0.00000000000E+00  0.86801967590E+02  0.15217834055E+03  0.12499466291E+03 0.  0.
    9000005    1    3    3    0    0  0.12045916823E+02 -0.13806264226E+02 -0.29334574997E+02  0.34601074178E+02  0.10000000000E+01 0.  0.
    9000005    1    3    3    0    0 -0.12045916823E+02  0.13806264226E+02  0.11613654259E+03  0.11757726637E+03  0.10000000000E+01 0.  0.
<mgrwt>
<rscale>  0 0.12499466E+03</rscale>
<asrwt>0</asrwt>
<pdfrwt beam="1">  1        4 0.18383101E-01 0.12499466E+03</pdfrwt>
<pdfrwt beam="2">  1       -4 0.50289517E-02 0.12499466E+03</pdfrwt>
<totfact> 0.98883112E+03</totfact>
</mgrwt>
</event>
<event>
 5    1  0.3340698E-002  0.1250011E+03  0.7818608E-02  0.1235067E+00
         -4   -1    0    0    0  501 -0.00000000000E+00  0.00000000000E+00  0.53670536963E+01  0.55152665737E+01  0.12700000000E+01 0. -1.
          4   -1    0    0  501    0  0.00000000000E+00 -0.00000000000E+00 -0.71777193022E+03  0.71777305376E+03  0.12700000000E+01 0. -1.
         25    2    1    2    0    0  0.00000000000E+00  0.00000000000E+00 -0.71240487652E+03  0.72328832033E+03  0.12500114497E+03 0.  0.
    9000005    1    3    3    0    0  0.30888999255E+02  0.42781592571E+02 -0.16247726711E+03  0.17083400500E+03  0.10000000000E+01 0.  0.
    9000005    1    3    3    0    0 -0.30888999255E+02 -0.42781592571E+02 -0.54992760941E+03  0.55245431533E+03  0.10000000000E+01 0.  0.
<mgrwt>
<rscale>  0 0.12500114E+03</rscale>
<asrwt>0</asrwt>
<pdfrwt beam="2">  1        4 0.11043786E+00 0.12500114E+03</pdfrwt>
<pdfrwt beam="1">  1       -4 0.83718856E-03 0.12500114E+03</pdfrwt>
<totfact> 0.41884446E+03</totfact>
</mgrwt>
</event>
<event>
 5    1  0.3340698E-002  0.1250005E+03  0.7818608E-02  0.1235069E+00
         -4   -1    0    0    0  501 -0.00000000000E+00  0.00000000000E+00  0.35109719621E+02  0.35132681536E+02  0.12700000000E+01 0.  1.
          4   -1    0    0  501    0  0.00000000000E+00 -0.00000000000E+00 -0.11119626579E+03  0.11120351805E+03  0.12700000000E+01 0.  1.
         25    2    1    2    0    0  0.00000000000E+00  0.00000000000E+00 -0.76086546170E+02  0.14633619958E+03  0.12500048320E+03 0.  0.
    9000005    1    3    3    0    0  0.98284174687E+01  0.16219550289E+02  0.31665184951E+02  0.36923644721E+02  0.10000000000E+01 0.  0.
    9000005    1    3    3    0    0 -0.98284174687E+01 -0.16219550289E+02 -0.10775173112E+03  0.10941255486E+03  0.10000000000E+01 0.  0.
<mgrwt>
<rscale>  0 0.12500048E+03</rscale>
<asrwt>0</asrwt>
<pdfrwt beam="2">  1        4 0.17109442E-01 0.12500048E+03</pdfrwt>
<pdfrwt beam="1">  1       -4 0.54038195E-02 0.12500048E+03</pdfrwt>
<totfact> 0.10003801E+04</totfact>
</mgrwt>
</event>
<event>
 5    1  0.3340698E-002  0.1250015E+03  0.7818608E-02  0.1235067E+00
          4   -1    0    0  501    0  0.00000000000E+00  0.00000000000E+00  0.80898229545E+02  0.80908197628E+02  0.12700000000E+01 0. -1.
         -4   -1    0    0    0  501 -0.00000000000E+00 -0.00000000000E+00 -0.48265827153E+02  0.48282532771E+02  0.12700000000E+01 0. -1.
         25    2    1    2    0    0  0.00000000000E+00  0.00000000000E+00  0.32632402391E+02  0.12919073040E+03  0.12500148453E+03 0.  0.
    9000005    1    3    3    0    0 -0.11367373671E+02 -0.57255466157E+02 -0.67461439273E+01  0.58770026773E+02  0.10000000000E+01 0.  0.
    9000005    1    3    3    0    0  0.11367373671E+02  0.57255466157E+02  0.39378546319E+02  0.70420703626E+02  0.10000000000E+01 0.  0.
<mgrwt>
<rscale>  0 0.12500148E+03</rscale>
<asrwt>0</asrwt>
<pdfrwt beam="1">  1        4 0.12447933E-01 0.12500148E+03</pdfrwt>
<pdfrwt beam="2">  1       -4 0.74275637E-02 0.12500148E+03</pdfrwt>
<totfact> 0.10361503E+04</totfact>
</mgrwt>
</event>
<event>
 5    1  0.3340698E-002  0.1249972E+03  0.7818608E-02  0.1235074E+00
         -4   -1    0    0    0  501 -0.00000000000E+00  0.00000000000E+00  0.44830798597E+02  0.44848783738E+02  0.12700000000E+01 0. -1.
          4   -1    0    0  501    0  0.00000000000E+00 -0.00000000000E+00 -0.87089153717E+02  0.87098413275E+02  0.12700000000E+01 0. -1.
         25    2    1    2    0    0  0.00000000000E+00  0.00000000000E+00 -0.42258355120E+02  0.13194719701E+03  0.12499717686E+03 0.  0.
    9000005    1    3    3    0    0  0.35039907383E+02  0.34540114736E+02  0.19539008177E+02  0.52948913831E+02  0.10000000000E+01 0.  0.
    9000005    1    3    3    0    0 -0.35039907383E+02 -0.34540114736E+02 -0.61797363297E+02  0.78998283183E+02  0.10000000000E+01 0.  0.
<mgrwt>
<rscale>  0 0.12499718E+03</rscale>
<asrwt>0</asrwt>
<pdfrwt beam="2">  1        4 0.13400427E-01 0.12499718E+03</pdfrwt>
<pdfrwt beam="1">  1       -4 0.68991417E-02 0.12499718E+03</pdfrwt>
<totfact> 0.10303482E+04</totfact>
</mgrwt>
</event>
<event>
 5    1  0.3340698E-002  0.1249847E+03  0.7818608E-02  0.1235093E+00
          4   -1    0    0  501    0  0.00000000000E+00  0.00000000000E+00  0.14028075791E+03  0.14028650662E+03  0.12700000000E+01 0.  1.
         -4   -1    0    0    0  501 -0.00000000000E+00 -0.00000000000E+00 -0.27818299056E+02  0.27847273876E+02  0.12700000000E+01 0.  1.
         25    2    1    2    0    0  0.00000000000E+00  0.00000000000E+00  0.11246245885E+03  0.16813378050E+03  0.12498465303E+03 0.  0.
    9000005    1    3    3    0    0  0.16502775467E+02 -0.19881029501E+02  0.13276429450E+03  0.13525884380E+03  0.10000000000E+01 0.  0.
    9000005    1    3    3    0    0 -0.16502775467E+02  0.19881029501E+02 -0.20301835646E+02  0.32874936696E+02  0.10000000000E+01 0.  0.
<mgrwt>
<rscale>  0 0.12498465E+03</rscale>
<asrwt>0</asrwt>
<pdfrwt beam="1">  1        4 0.21584326E-01 0.12498465E+03</pdfrwt>
<pdfrwt beam="2">  1       -4 0.42824094E-02 0.12498465E+03</pdfrwt>
<totfact> 0.95830197E+03</totfact>
</mgrwt>
</event>
<event>
 5    1  0.3340698E-002  0.1249573E+03  0.7818608E-02  0.1235136E+00
         -4   -1    0    0    0  501 -0.00000000000E+00  0.00000000000E+00  0.23745244644E+01  0.26928175638E+01  0.12700000000E+01 0. -1.
          4   -1    0    0  501    0  0.00000000000E+00 -0.00000000000E+00 -0.15403637190E+04  0.15403642425E+04  0.12700000000E+01 0. -1.
         25    2    1    2    0    0  0.00000000000E+00  0.00000000000E+00 -0.15379891945E+04  0.15430570601E+04  0.12495730568E+03 0.  0.
    9000005    1    3    3    0    0  0.12234383121E+02 -0.75658054775E+01 -0.15196945157E+04  0.15197629231E+04  0.10000000000E+01 0.  0.
    9000005    1    3    3    0    0 -0.12234383121E+02  0.75658054775E+01 -0.18294678842E+02  0.23294136962E+02  0.10000000000E+01 0.  0.
<mgrwt>
<rscale>  0 0.12495731E+03</rscale>
<asrwt>0</asrwt>
<pdfrwt beam="2">  1        4 0.23700281E+00 0.12495731E+03</pdfrwt>
<pdfrwt beam="1">  1       -4 0.38983705E-03 0.12495731E+03</pdfrwt>
<totfact> 0.17115454E+03</totfact>
</mgrwt>
</event>
<event>
 5    1  0.3340698E-002  0.1250022E+03  0.7818608E-02  0.1235066E+00
          4   -1    0    0  501    0  0.00000000000E+00  0.00000000000E+00  0.19801654157E+03  0.19802061416E+03  0.12700000000E+01 0. -1.
         -4   -1    0    0    0  501 -0.00000000000E+00 -0.00000000000E+00 -0.19702877370E+02  0.19743765514E+02  0.12700000000E+01 0. -1.
         25    2    1    2    0    0  0.00000000000E+00  0.00000000000E+00  0.17831366420E+03  0.21776437968E+03  0.12500224885E+03 0.  0.
    9000005    1    3    3    0    0  0.30698232114E+02  0.15902127627E+02  0.17984783262E+03  0.18314339196E+03  0.10000000000E+01 0.  0.
    9000005    1    3    3    0    0 -0.30698232114E+02 -0.15902127627E+02 -0.15341684278E+01  0.34620987721E+02  0.10000000000E+01 0.  0.
<mgrwt>
<rscale>  0 0.12500225E+03</rscale>
<asrwt>0</asrwt>
<pdfrwt beam="1">  1        4 0.30467543E-01 0.12500225E+03</pdfrwt>
<pdfrwt beam="2">  1       -4 0.30346703E-02 0.12500225E+03</pdfrwt>
<totfact> 0.87218965E+03</totfact>
</mgrwt>
</event>
<event>
 5    1  0.3340698E-002  0.1250016E+03  0.7818608E-02  0.1235067E+00
         -4   -1    0    0    0  501 -0.00000000000E+00  0.00000000000E+00  0.38583461555E+03  0.38583670569E+03  0.12700000000E+01 0.  1.
          4   -1    0    0  501    0  0.00000000000E+00 -0.00000000000E+00 -0.10082469081E+02  0.10162139675E+02  0.12700000000E+01 0.  1.
         25    2    1    2    0    0  0.00000000000E+00  0.00000000000E+00  0.37575214647E+03  0.39599884536E+03  0.12500163980E+03 0.  0.
    9000005    1    3    3    0    0  0.63106525968E+01 -0.54355561363E+01  0.38408399584E+03  0.38417559198E+03  0.10000000000E+01 0.  0.
    9000005    1    3    3    0    0 -0.63106525968E+01  0.54355561363E+01 -0.83318493735E+01  0.11823253389E+02  0.10000000000E+01 0.  0.
<mgrwt>
<rscale>  0 0.12500164E+03</rscale>
<asrwt>0</asrwt>
<pdfrwt beam="2">  1        4 0.15574382E-02 0.12500164E+03</pdfrwt>
<pdfrwt beam="1">  1       -4 0.59365467E-01 0.12500164E+03</pdfrwt>
<totfact> 0.64941448E+03</totfact>
</mgrwt>
</event>
<event>
 5    1  0.3340698E-002  0.1250009E+03  0.7818608E-02  0.1235068E+00
         -4   -1    0    0    0  501 -0.00000000000E+00  0.00000000000E+00  0.46033436149E+03  0.46033611337E+03  0.12700000000E+01 0. -1.
          4   -1    0    0  501    0  0.00000000000E+00 -0.00000000000E+00 -0.84365088505E+01  0.85315638417E+01  0.12700000000E+01 0. -1.
         25    2    1    2    0    0  0.00000000000E+00  0.00000000000E+00  0.45189785264E+03  0.46886767721E+03  0.12500091803E+03 0.  0.
    9000005    1    3    3    0    0 -0.49038587023E+02 -0.26222317149E+02  0.33289368671E+03  0.33750792522E+03  0.10000000000E+01 0.  0.
    9000005    1    3    3    0    0  0.49038587023E+02  0.26222317149E+02  0.11900416593E+03  0.13135975199E+03  0.10000000000E+01 0.  0.
<mgrwt>
<rscale>  0 0.12500092E+03</rscale>
<asrwt>0</asrwt>
<pdfrwt beam="2">  1        4 0.13053712E-02 0.12500092E+03</pdfrwt>
<pdfrwt beam="1">  1       -4 0.70828113E-01 0.12500092E+03</pdfrwt>
<totfact> 0.58362260E+03</totfact>
</mgrwt>
</event>
<event>
 5    1  0.3340698E-002  0.1250030E+03  0.7818608E-02  0.1235065E+00
          4   -1    0    0  501    0  0.00000000000E+00  0.00000000000E+00  0.41846442233E+03  0.41846634949E+03  0.12700000000E+01 0. -1.
         -4   -1    0    0    0  501 -0.00000000000E+00 -0.00000000000E+00 -0.92900145866E+01  0.93764210134E+01  0.12700000000E+01 0. -1.
         25    2    1    2    0    0  0.00000000000E+00  0.00000000000E+00  0.40917440775E+03  0.42784277051E+03  0.12500296125E+03 0.  0.
    9000005    1    3    3    0    0 -0.21706148981E+01 -0.58336238266E+02  0.28093685498E+03  0.28693961865E+03  0.10000000000E+01 0.  0.
    9000005    1    3    3    0    0  0.21706148981E+01  0.58336238266E+02  0.12823755276E+03  0.14090315185E+03  0.10000000000E+01 0.  0.
<mgrwt>
<rscale>  0 0.12500296E+03</rscale>
<asrwt>0</asrwt>
<pdfrwt beam="1">  1        4 0.64385933E-01 0.12500296E+03</pdfrwt>
<pdfrwt beam="2">  1       -4 0.14360280E-02 0.12500296E+03</pdfrwt>
<totfact> 0.61927975E+03</totfact>
</mgrwt>
</event>
<event>
 5    1  0.3340698E-002  0.1249999E+03  0.7818608E-02  0.1235069E+00
          4   -1    0    0  501    0  0.00000000000E+00  0.00000000000E+00  0.68973588273E+02  0.68985279439E+02  0.12700000000E+01 0.  1.
         -4   -1    0    0    0  501 -0.00000000000E+00 -0.00000000000E+00 -0.56610299985E+02  0.56624543833E+02  0.12700000000E+01 0.  1.
         25    2    1    2    0    0  0.00000000000E+00  0.00000000000E+00  0.12363288289E+02  0.12560982327E+03  0.12499990722E+03 0.  0.
    9000005    1    3    3    0    0 -0.87490137977E+01 -0.61872985596E+02  0.55207021156E+01  0.62739857673E+02  0.10000000000E+01 0.  0.
    9000005    1    3    3    0    0  0.87490137977E+01  0.61872985596E+02  0.68425861732E+01  0.62869965600E+02  0.10000000000E+01 0.  0.
<mgrwt>
<rscale>  0 0.12499991E+03</rscale>
<asrwt>0</asrwt>
<pdfrwt beam="1">  1        4 0.10613316E-01 0.12499991E+03</pdfrwt>
<pdfrwt beam="2">  1       -4 0.87112719E-02 0.12499991E+03</pdfrwt>
<totfact> 0.10439552E+04</totfact>
</mgrwt>
</event>
<event>
 5    1  0.3340698E-002  0.1250017E+03  0.7818608E-02  0.1235067E+00
         -4   -1    0    0    0  501 -0.00000000000E+00  0.00000000000E+00  0.41290760618E+03  0.41290955928E+03  0.12700000000E+01 0. -1.
          4   -1    0    0  501    0  0.00000000000E+00 -0.00000000000E+00 -0.94160007119E+01  0.95012614639E+01  0.12700000000E+01 0. -1.
         25    2    1    2    0    0  0.00000000000E+00  0.00000000000E+00  0.40349160547E+03  0.42241082074E+03  0.12500170317E+03 0.  0.
    9000005    1    3    3    0    0  0.23149368588E+02  0.58010820927E+02  0.20867764402E+03  0.21782678376E+03  0.10000000000E+01 0.  0.
    9000005    1    3    3    0    0 -0.23149368588E+02 -0.58010820927E+02  0.19481396146E+03  0.20458403698E+03  0.10000000000E+01 0.  0.
<mgrwt>
<rscale>  0 0.12500170E+03</rscale>
<asrwt>0</asrwt>
<pdfrwt beam="2">  1        4 0.14553244E-02 0.12500170E+03</pdfrwt>
<pdfrwt beam="1">  1       -4 0.63530949E-01 0.12500170E+03</pdfrwt>
<totfact> 0.62427637E+03</totfact>
</mgrwt>
</event>
<event>
 5    1  0.3340698E-002  0.1250039E+03  0.7818608E-02  0.1235063E+00
         -4   -1    0    0    0  501 -0.00000000000E+00  0.00000000000E+00  0.28950807757E+03  0.28951086314E+03  0.12700000000E+01 0. -1.
          4   -1    0    0  501    0  0.00000000000E+00 -0.00000000000E+00 -0.13460823230E+02  0.13520601393E+02  0.12700000000E+01 0. -1.
         25    2    1    2    0    0  0.00000000000E+00  0.00000000000E+00  0.27604725434E+03  0.30303146454E+03  0.12500392742E+03 0.  0.
    9000005    1    3    3    0    0 -0.17939342687E+02 -0.41715061518E+02  0.33938407128E+02  0.56699046304E+02  0.10000000000E+01 0.  0.
    9000005    1    3    3    0    0  0.17939342687E+02  0.41715061518E+02  0.24210884721E+03  0.24633241823E+03  0.10000000000E+01 0.  0.
<mgrwt>
<rscale>  0 0.12500393E+03</rscale>
<asrwt>0</asrwt>
<pdfrwt beam="2">  1        4 0.20757086E-02 0.12500393E+03</pdfrwt>
<pdfrwt beam="1">  1       -4 0.44544514E-01 0.12500393E+03</pdfrwt>
<totfact> 0.75213588E+03</totfact>
</mgrwt>
</event>
<event>
 5    1  0.3340698E-002  0.1249993E+03  0.7818608E-02  0.1235070E+00
         -4   -1    0    0    0  501 -0.00000000000E+00  0.00000000000E+00  0.34566516513E+03  0.34566749816E+03  0.12700000000E+01 0.  1.
          4   -1    0    0  501    0  0.00000000000E+00 -0.00000000000E+00 -0.11262497338E+02  0.11333876049E+02  0.12700000000E+01 0.  1.
         25    2    1    2    0    0  0.00000000000E+00  0.00000000000E+00  0.33440266779E+03  0.35700137421E+03  0.12499934784E+03 0.  0.
    9000005    1    3    3    0    0 -0.24826864097E+02 -0.83376236115E+01  0.32924953739E+03  0.33029100354E+03  0.10000000000E+01 0.  0.
    9000005    1    3    3    0    0  0.24826864097E+02  0.83376236115E+01  0.51531304035E+01  0.26710370670E+02  0.10000000000E+01 0.  0.
<mgrwt>
<rscale>  0 0.12499935E+03</rscale>
<asrwt>0</asrwt>
<pdfrwt beam="2">  1        4 0.17383618E-02 0.12499935E+03</pdfrwt>
<pdfrwt beam="1">  1       -4 0.53184933E-01 0.12499935E+03</pdfrwt>
<totfact> 0.68962114E+03</totfact>
</mgrwt>
</event>
<event>
 5    1  0.3340698E-002  0.1250006E+03  0.7818608E-02  0.1235068E+00
          4   -1    0    0  501    0  0.00000000000E+00  0.00000000000E+00  0.11047787503E+02  0.11120544444E+02  0.12700000000E+01 0. -1.
         -4   -1    0    0    0  501 -0.00000000000E+00 -0.00000000000E+00 -0.35234653942E+03  0.35234882821E+03  0.12700000000E+01 0. -1.
         25    2    1    2    0    0  0.00000000000E+00  0.00000000000E+00 -0.34129875192E+03  0.36346937265E+03  0.12500058719E+03 0.  0.
    9000005    1    3    3    0    0  0.41173356524E+02  0.47010804864E+02 -0.17111495999E+03  0.18217187102E+03  0.10000000000E+01 0.  0.
    9000005    1    3    3    0    0 -0.41173356524E+02 -0.47010804864E+02 -0.17018379193E+03  0.18129750163E+03  0.10000000000E+01 0.  0.
<mgrwt>
<rscale>  0 0.12500059E+03</rscale>
<asrwt>0</asrwt>
<pdfrwt beam="1">  1        4 0.17054326E-02 0.12500059E+03</pdfrwt>
<pdfrwt beam="2">  1       -4 0.54212924E-01 0.12500059E+03</pdfrwt>
<totfact> 0.68266860E+03</totfact>
</mgrwt>
</event>
<event>
 5    1  0.3340698E-002  0.1250047E+03  0.7818608E-02  0.1235062E+00
         -4   -1    0    0    0  501 -0.00000000000E+00  0.00000000000E+00  0.13727943686E+02  0.13786563670E+02  0.12700000000E+01 0.  1.
          4   -1    0    0  501    0  0.00000000000E+00 -0.00000000000E+00 -0.28390231364E+03  0.28390515422E+03  0.12700000000E+01 0.  1.
         25    2    1    2    0    0  0.00000000000E+00  0.00000000000E+00 -0.27017436996E+03  0.29769171789E+03  0.12500467478E+03 0.  0.
    9000005    1    3    3    0    0 -0.34152558474E+02 -0.47801738134E+02 -0.84337332653E+02  0.10278710570E+03  0.10000000000E+01 0.  0.
    9000005    1    3    3    0    0  0.34152558474E+02  0.47801738134E+02 -0.18583703730E+03  0.19490461219E+03  0.10000000000E+01 0.  0.
<mgrwt>
<rscale>  0 0.12500467E+03</rscale>
<asrwt>0</asrwt>
<pdfrwt beam="2">  1        4 0.43682002E-01 0.12500467E+03</pdfrwt>
<pdfrwt beam="1">  1       -4 0.21167193E-02 0.12500467E+03</pdfrwt>
<totfact> 0.75881426E+03</totfact>
</mgrwt>
</event>
<event>
 5    1  0.3340698E-002  0.1249978E+03  0.7818608E-02  0.1235073E+00
          4   -1    0    0  501    0  0.00000000000E+00  0.00000000000E+00  0.59378648844E+03  0.59378784659E+03  0.12700000000E+01 0.  1.
         -4   -1    0    0    0  501 -0.00000000000E+00 -0.00000000000E+00 -0.65156376890E+01  0.66382553803E+01  0.12700000000E+01 0.  1.
         25    2    1    2    0    0  0.00000000000E+00  0.00000000000E+00  0.58727085075E+03  0.60042610197E+03  0.12499780711E+03 0.  0.
    9000005    1    3    3    0    0  0.25226558025E+00 -0.51605869441E+02  0.12435856073E+03  0.13464501857E+03  0.10000000000E+01 0.  0.
    9000005    1    3    3    0    0 -0.25226558025E+00  0.51605869441E+02  0.46291229002E+03  0.46578108340E+03  0.10000000000E+01 0.  0.
<mgrwt>
<rscale>  0 0.12499781E+03</rscale>
<asrwt>0</asrwt>
<pdfrwt beam="1">  1        4 0.91361328E-01 0.12499781E+03</pdfrwt>
<pdfrwt beam="2">  1       -4 0.10119421E-02 0.12499781E+03</pdfrwt>
<totfact> 0.48843063E+03</totfact>
</mgrwt>
</event>
<event>
 5    1  0.3340698E-002  0.1250068E+03  0.7818608E-02  0.1235059E+00
          4   -1    0    0  501    0  0.00000000000E+00  0.00000000000E+00  0.46781312287E+02  0.46798547833E+02  0.12700000000E+01 0. -1.
         -4   -1    0    0    0  501 -0.00000000000E+00 -0.00000000000E+00 -0.83471873164E+02  0.83481533943E+02  0.12700000000E+01 0. -1.
         25    2    1    2    0    0  0.00000000000E+00  0.00000000000E+00 -0.36690560877E+02  0.13028008178E+03  0.12500680961E+03 0.  0.
    9000005    1    3    3    0    0  0.34745791608E+02  0.32276825396E+02  0.24073166955E+02  0.53193804708E+02  0.10000000000E+01 0.  0.
    9000005    1    3    3    0    0 -0.34745791608E+02 -0.32276825396E+02 -0.60763727832E+02  0.77086277068E+02  0.10000000000E+01 0.  0.
<mgrwt>
<rscale>  0 0.12500681E+03</rscale>
<asrwt>0</asrwt>
<pdfrwt beam="1">  1        4 0.71991939E-02 0.12500681E+03</pdfrwt>
<pdfrwt beam="2">  1       -4 0.12843896E-01 0.12500681E+03</pdfrwt>
<totfact> 0.10336931E+04</totfact>
</mgrwt>
</event>
<event>
 5    1  0.3340698E-002  0.1249966E+03  0.7818608E-02  0.1235075E+00
         -4   -1    0    0    0  501 -0.00000000000E+00  0.00000000000E+00  0.68804129036E+02  0.68815848991E+02  0.12700000000E+01 0.  1.
          4   -1    0    0  501    0  0.00000000000E+00 -0.00000000000E+00 -0.56746689146E+02  0.56760898769E+02  0.12700000000E+01 0.  1.
         25    2    1    2    0    0  0.00000000000E+00  0.00000000000E+00  0.12057439890E+02  0.12557674776E+03  0.12499655084E+03 0.  0.
    9000005    1    3    3    0    0  0.12100943518E+01  0.18222500726E+02 -0.54010794584E+02  0.57023589791E+02  0.10000000000E+01 0.  0.
    9000005    1    3    3    0    0 -0.12100943518E+01 -0.18222500726E+02  0.66068234474E+02  0.68553157969E+02  0.10000000000E+01 0.  0.
<mgrwt>
<rscale>  0 0.12499655E+03</rscale>
<asrwt>0</asrwt>
<pdfrwt beam="2">  1        4 0.87322544E-02 0.12499655E+03</pdfrwt>
<pdfrwt beam="1">  1       -4 0.10587245E-01 0.12499655E+03</pdfrwt>
<totfact> 0.10441072E+04</totfact>
</mgrwt>
</event>
<event>
 5    1  0.3340698E-002  0.1250051E+03  0.7818608E-02  0.1235061E+00
          4   -1    0    0  501    0  0.00000000000E+00  0.00000000000E+00  0.32514442420E+03  0.32514690448E+03  0.12700000000E+01 0. -1.
         -4   -1    0    0    0  501 -0.00000000000E+00 -0.00000000000E+00 -0.11978778193E+02  0.12045913291E+02  0.12700000000E+01 0. -1.
         25    2    1    2    0    0  0.00000000000E+00  0.00000000000E+00  0.31316564601E+03  0.33719281777E+03  0.12500509795E+03 0.  0.
    9000005    1    3    3    0    0 -0.15636192040E+02 -0.59744946074E+02  0.13076351153E+03  0.14461689055E+03  0.10000000000E+01 0.  0.
    9000005    1    3    3    0    0  0.15636192040E+02  0.59744946074E+02  0.18240213448E+03  0.19257592722E+03  0.10000000000E+01 0.  0.
<mgrwt>
<rscale>  0 0.12500510E+03</rscale>
<asrwt>0</asrwt>
<pdfrwt beam="1">  1        4 0.50027575E-01 0.12500510E+03</pdfrwt>
<pdfrwt beam="2">  1       -4 0.18482439E-02 0.12500510E+03</pdfrwt>
<totfact> 0.71148835E+03</totfact>
</mgrwt>
</event>
<event>
 5    1  0.3340698E-002  0.1249916E+03  0.7818608E-02  0.1235082E+00
          4   -1    0    0  501    0  0.00000000000E+00  0.00000000000E+00  0.23686329788E+03  0.23686670256E+03  0.12700000000E+01 0. -1.
         -4   -1    0    0    0  501 -0.00000000000E+00 -0.00000000000E+00 -0.16461383729E+02  0.16510301459E+02  0.12700000000E+01 0. -1.
         25    2    1    2    0    0  0.00000000000E+00  0.00000000000E+00  0.22040191415E+03  0.25337700402E+03  0.12499160934E+03 0.  0.
    9000005    1    3    3    0    0 -0.57237918137E+02 -0.23428451601E+02  0.92108810868E+02  0.11095091102E+03  0.10000000000E+01 0.  0.
    9000005    1    3    3    0    0  0.57237918137E+02  0.23428451601E+02  0.12829310328E+03  0.14242609300E+03  0.10000000000E+01 0.  0.
<mgrwt>
<rscale>  0 0.12499161E+03</rscale>
<asrwt>0</asrwt>
<pdfrwt beam="1">  1        4 0.36444531E-01 0.12499161E+03</pdfrwt>
<pdfrwt beam="2">  1       -4 0.25365455E-02 0.12499161E+03</pdfrwt>
<totfact> 0.81859879E+03</totfact>
</mgrwt>
</event>
<event>
 5    1  0.3340698E-002  0.1249993E+03  0.7818608E-02  0.1235070E+00
          4   -1    0    0  501    0  0.00000000000E+00  0.00000000000E+00  0.14556587297E+02  0.14611883306E+02  0.12700000000E+01 0.  1.
         -4   -1    0    0    0  501 -0.00000000000E+00 -0.00000000000E+00 -0.26778096146E+03  0.26778397305E+03  0.12700000000E+01 0.  1.
         25    2    1    2    0    0  0.00000000000E+00  0.00000000000E+00 -0.25322437416E+03  0.28239585635E+03  0.12499934406E+03 0.  0.
    9000005    1    3    3    0    0  0.40790650385E+02 -0.74633593741E+01 -0.23223042523E+03  0.23590580598E+03  0.10000000000E+01 0.  0.
    9000005    1    3    3    0    0 -0.40790650385E+02  0.74633593741E+01 -0.20993948934E+02  0.46490050374E+02  0.10000000000E+01 0.  0.
<mgrwt>
<rscale>  0 0.12499934E+03</rscale>
<asrwt>0</asrwt>
<pdfrwt beam="1">  1        4 0.22439604E-02 0.12499934E+03</pdfrwt>
<pdfrwt beam="2">  1       -4 0.41201553E-01 0.12499934E+03</pdfrwt>
<totfact> 0.77862638E+03</totfact>
</mgrwt>
</event>
<event>
 5    1  0.3340698E-002  0.1249960E+03  0.7818608E-02  0.1235076E+00
          4   -1    0    0  501    0  0.00000000000E+00  0.00000000000E+00  0.23230272867E+03  0.23230620019E+03  0.12700000000E+01 0. -1.
         -4   -1    0    0    0  501 -0.00000000000E+00 -0.00000000000E+00 -0.16786672940E+02  0.16834645479E+02  0.12700000000E+01 0. -1.
         25    2    1    2    0    0  0.00000000000E+00  0.00000000000E+00  0.21551605573E+03  0.24914084567E+03  0.12499596275E+03 0.  0.
    9000005    1    3    3    0    0  0.55612034179E+02 -0.25272706707E+02  0.81497053708E+02  0.10185370790E+03  0.10000000000E+01 0.  0.
    9000005    1    3    3    0    0 -0.55612034179E+02  0.25272706707E+02  0.13401900202E+03  0.14728713777E+03  0.10000000000E+01 0.  0.
<mgrwt>
<rscale>  0 0.12499596E+03</rscale>
<asrwt>0</asrwt>
<pdfrwt beam="1">  1        4 0.35742838E-01 0.12499596E+03</pdfrwt>
<pdfrwt beam="2">  1       -4 0.25865223E-02 0.12499596E+03</pdfrwt>
<totfact> 0.82461977E+03</totfact>
</mgrwt>
</event>
<event>
 5    1  0.3340698E-002  0.1250019E+03  0.7818608E-02  0.1235066E+00
         -4   -1    0    0    0  501 -0.00000000000E+00  0.00000000000E+00  0.16920435297E+03  0.16920911904E+03  0.12700000000E+01 0. -1.
          4   -1    0    0  501    0  0.00000000000E+00 -0.00000000000E+00 -0.23064141585E+02  0.23099080654E+02  0.12700000000E+01 0. -1.
         25    2    1    2    0    0  0.00000000000E+00  0.00000000000E+00  0.14614021139E+03  0.19230819969E+03  0.12500192912E+03 0.  0.
    9000005    1    3    3    0    0 -0.13109260278E+02 -0.60948774093E+02  0.66405827993E+02  0.91089734657E+02  0.10000000000E+01 0.  0.
    9000005    1    3    3    0    0  0.13109260278E+02  0.60948774093E+02  0.79734383397E+02  0.10121846504E+03  0.10000000000E+01 0.  0.
<mgrwt>
<rscale>  0 0.12500193E+03</rscale>
<asrwt>0</asrwt>
<pdfrwt beam="2">  1        4 0.35513837E-02 0.12500193E+03</pdfrwt>
<pdfrwt beam="1">  1       -4 0.26034493E-01 0.12500193E+03</pdfrwt>
<totfact> 0.91443289E+03</totfact>
</mgrwt>
</event>
<event>
 5    1  0.3340698E-002  0.1249973E+03  0.7818608E-02  0.1235074E+00
          4   -1    0    0  501    0  0.00000000000E+00  0.00000000000E+00  0.10762389654E+02  0.10837062843E+02  0.12700000000E+01 0. -1.
         -4   -1    0    0    0  501 -0.00000000000E+00 -0.00000000000E+00 -0.36160739080E+03  0.36160962097E+03  0.12700000000E+01 0. -1.
         25    2    1    2    0    0  0.00000000000E+00  0.00000000000E+00 -0.35084500114E+03  0.37244668382E+03  0.12499726980E+03 0.  0.
    9000005    1    3    3    0    0  0.62058975782E+02 -0.31850469416E+01 -0.19510128541E+03  0.20476076912E+03  0.10000000000E+01 0.  0.
    9000005    1    3    3    0    0 -0.62058975782E+02  0.31850469416E+01 -0.15574371573E+03  0.16768591470E+03  0.10000000000E+01 0.  0.
<mgrwt>
<rscale>  0 0.12499727E+03</rscale>
<asrwt>0</asrwt>
<pdfrwt beam="1">  1        4 0.16616682E-02 0.12499727E+03</pdfrwt>
<pdfrwt beam="2">  1       -4 0.55637813E-01 0.12499727E+03</pdfrwt>
<totfact> 0.67327810E+03</totfact>
</mgrwt>
</event>
<event>
 5    1  0.3340698E-002  0.1249982E+03  0.7818608E-02  0.1235072E+00
          4   -1    0    0  501    0  0.00000000000E+00  0.00000000000E+00  0.40235413963E+03  0.40235614396E+03  0.12700000000E+01 0.  1.
         -4   -1    0    0    0  501 -0.00000000000E+00 -0.00000000000E+00 -0.96646315179E+01  0.97477178035E+01  0.12700000000E+01 0.  1.
         25    2    1    2    0    0  0.00000000000E+00  0.00000000000E+00  0.39268950811E+03  0.41210386176E+03  0.12499817236E+03 0.  0.
    9000005    1    3    3    0    0  0.38155482385E+02  0.95549969768E+00  0.35947804837E+03  0.36149995999E+03  0.10000000000E+01 0.  0.
    9000005    1    3    3    0    0 -0.38155482385E+02 -0.95549969768E+00  0.33211459748E+02  0.50603901769E+02  0.10000000000E+01 0.  0.
<mgrwt>
<rscale>  0 0.12499817E+03</rscale>
<asrwt>0</asrwt>
<pdfrwt beam="1">  1        4 0.61907170E-01 0.12499817E+03</pdfrwt>
<pdfrwt beam="2">  1       -4 0.14934121E-02 0.12499817E+03</pdfrwt>
<totfact> 0.63394925E+03</totfact>
</mgrwt>
</event>
<event>
 5    1  0.3340698E-002  0.1250032E+03  0.7818608E-02  0.1235064E+00
          4   -1    0    0  501    0  0.00000000000E+00  0.00000000000E+00  0.13356781508E+03  0.13357385270E+03  0.12700000000E+01 0. -1.
         -4   -1    0    0    0  501 -0.00000000000E+00 -0.00000000000E+00 -0.29226449658E+02  0.29254029802E+02  0.12700000000E+01 0. -1.
         25    2    1    2    0    0  0.00000000000E+00  0.00000000000E+00  0.10434136542E+03  0.16282788250E+03  0.12500319509E+03 0.  0.
    9000005    1    3    3    0    0 -0.39380544742E+02  0.47532473196E+02  0.64885879396E+02  0.89561937548E+02  0.10000000000E+01 0.  0.
    9000005    1    3    3    0    0  0.39380544742E+02 -0.47532473196E+02  0.39455486021E+02  0.73265944950E+02  0.10000000000E+01 0.  0.
<mgrwt>
<rscale>  0 0.12500320E+03</rscale>
<asrwt>0</asrwt>
<pdfrwt beam="1">  1        4 0.20551480E-01 0.12500320E+03</pdfrwt>
<pdfrwt beam="2">  1       -4 0.44989629E-02 0.12500320E+03</pdfrwt>
<totfact> 0.96793396E+03</totfact>
</mgrwt>
</event>
<event>
 5    1  0.3340698E-002  0.1250020E+03  0.7818608E-02  0.1235066E+00
          4   -1    0    0  501    0  0.00000000000E+00  0.00000000000E+00  0.44084582540E+02  0.44102871990E+02  0.12700000000E+01 0. -1.
         -4   -1    0    0    0  501 -0.00000000000E+00 -0.00000000000E+00 -0.88569622199E+02  0.88578726998E+02  0.12700000000E+01 0. -1.
         25    2    1    2    0    0  0.00000000000E+00  0.00000000000E+00 -0.44485039660E+02  0.13268159899E+03  0.12500195181E+03 0.  0.
    9000005    1    3    3    0    0 -0.43051440713E+02  0.41385289416E+02 -0.26935483870E+01  0.59786486186E+02  0.10000000000E+01 0.  0.
    9000005    1    3    3    0    0  0.43051440713E+02 -0.41385289416E+02 -0.41791491273E+02  0.72895112801E+02  0.10000000000E+01 0.  0.
<mgrwt>
<rscale>  0 0.12500195E+03</rscale>
<asrwt>0</asrwt>
<pdfrwt beam="1">  1        4 0.67843507E-02 0.12500195E+03</pdfrwt>
<pdfrwt beam="2">  1       -4 0.13628203E-01 0.12500195E+03</pdfrwt>
<totfact> 0.10286719E+04</totfact>
</mgrwt>
</event>
<event>
 5    1  0.3340698E-002  0.1250002E+03  0.7818608E-02  0.1235069E+00
          4   -1    0    0  501    0  0.00000000000E+00  0.00000000000E+00  0.31640090516E+02  0.31665568491E+02  0.12700000000E+01 0. -1.
         -4   -1    0    0    0  501 -0.00000000000E+00 -0.00000000000E+00 -0.12338093406E+03  0.12338747015E+03  0.12700000000E+01 0. -1.
         25    2    1    2    0    0  0.00000000000E+00  0.00000000000E+00 -0.91740843546E+02  0.15505303864E+03  0.12500024967E+03 0.  0.
    9000005    1    3    3    0    0 -0.21449471670E+02  0.57545536888E+02 -0.31527746784E+02  0.69040332183E+02  0.10000000000E+01 0.  0.
    9000005    1    3    3    0    0  0.21449471670E+02 -0.57545536888E+02 -0.60213096762E+02  0.86012706458E+02  0.10000000000E+01 0.  0.
<mgrwt>
<rscale>  0 0.12500025E+03</rscale>
<asrwt>0</asrwt>
<pdfrwt beam="1">  1        4 0.48701689E-02 0.12500025E+03</pdfrwt>
<pdfrwt beam="2">  1       -4 0.18984145E-01 0.12500025E+03</pdfrwt>
<totfact> 0.98304536E+03</totfact>
</mgrwt>
</event>
<event>
 5    1  0.3340698E-002  0.1249973E+03  0.7818608E-02  0.1235074E+00
         -4   -1    0    0    0  501 -0.00000000000E+00  0.00000000000E+00  0.15125078143E+03  0.15125611321E+03  0.12700000000E+01 0.  1.
          4   -1    0    0  501    0  0.00000000000E+00 -0.00000000000E+00 -0.25803775920E+02  0.25835010194E+02  0.12700000000E+01 0.  1.
         25    2    1    2    0    0  0.00000000000E+00  0.00000000000E+00  0.12544700551E+03  0.17709112340E+03  0.12499725916E+03 0.  0.
    9000005    1    3    3    0    0 -0.13810222680E+02  0.12238430114E+02  0.14730985953E+03  0.14846446086E+03  0.10000000000E+01 0.  0.
    9000005    1    3    3    0    0  0.13810222680E+02 -0.12238430114E+02 -0.21862854027E+02  0.28626662542E+02  0.10000000000E+01 0.  0.
<mgrwt>
<rscale>  0 0.12499726E+03</rscale>
<asrwt>0</asrwt>
<pdfrwt beam="2">  1        4 0.39726244E-02 0.12499726E+03</pdfrwt>
<pdfrwt beam="1">  1       -4 0.23272164E-01 0.12499726E+03</pdfrwt>
<totfact> 0.94149033E+03</totfact>
</mgrwt>
</event>
<event>
 5    1  0.3340698E-002  0.1249985E+03  0.7818608E-02  0.1235072E+00
         -4   -1    0    0    0  501 -0.00000000000E+00  0.00000000000E+00  0.15992300187E+02  0.16042648325E+02  0.12700000000E+01 0.  1.
          4   -1    0    0  501    0  0.00000000000E+00 -0.00000000000E+00 -0.24381648154E+03  0.24381978912E+03  0.12700000000E+01 0.  1.
         25    2    1    2    0    0  0.00000000000E+00  0.00000000000E+00 -0.22782418135E+03  0.25986243745E+03  0.12499851515E+03 0.  0.
    9000005    1    3    3    0    0  0.33072821746E+02  0.95568907880E+01 -0.54884406338E+01  0.34875043805E+02  0.10000000000E+01 0.  0.
    9000005    1    3    3    0    0 -0.33072821746E+02 -0.95568907880E+01 -0.22233574072E+03  0.22498739365E+03  0.10000000000E+01 0.  0.
<mgrwt>
<rscale>  0 0.12499852E+03</rscale>
<asrwt>0</asrwt>
<pdfrwt beam="2">  1        4 0.37514353E-01 0.12499852E+03</pdfrwt>
<pdfrwt beam="1">  1       -4 0.24644814E-02 0.12499852E+03</pdfrwt>
<totfact> 0.80928046E+03</totfact>
</mgrwt>
</event>
<event>
 5    1  0.3340698E-002  0.1250010E+03  0.7818608E-02  0.1235068E+00
          4   -1    0    0  501    0  0.00000000000E+00  0.00000000000E+00  0.20425250506E+02  0.20464695410E+02  0.12700000000E+01 0. -1.
         -4   -1    0    0    0  501 -0.00000000000E+00 -0.00000000000E+00 -0.19102300205E+03  0.19102722375E+03  0.12700000000E+01 0. -1.
         25    2    1    2    0    0  0.00000000000E+00  0.00000000000E+00 -0.17059775155E+03  0.21149191916E+03  0.12500095614E+03 0.  0.
    9000005    1    3    3    0    0  0.22461586218E+02  0.57918368042E+02 -0.73792615723E+02  0.96464554876E+02  0.10000000000E+01 0.  0.
    9000005    1    3    3    0    0 -0.22461586218E+02 -0.57918368042E+02 -0.96805135822E+02  0.11502736428E+03  0.10000000000E+01 0.  0.
<mgrwt>
<rscale>  0 0.12500096E+03</rscale>
<asrwt>0</asrwt>
<pdfrwt beam="1">  1        4 0.31457053E-02 0.12500096E+03</pdfrwt>
<pdfrwt beam="2">  1       -4 0.29391512E-01 0.12500096E+03</pdfrwt>
<totfact> 0.88230924E+03</totfact>
</mgrwt>
</event>
<event>
 5    1  0.3340698E-002  0.1250007E+03  0.7818608E-02  0.1235068E+00
         -4   -1    0    0    0  501 -0.00000000000E+00  0.00000000000E+00  0.12762088093E+03  0.12762719989E+03  0.12700000000E+01 0.  1.
          4   -1    0    0  501    0  0.00000000000E+00 -0.00000000000E+00 -0.30588326012E+02  0.30614679293E+02  0.12700000000E+01 0.  1.
         25    2    1    2    0    0  0.00000000000E+00  0.00000000000E+00  0.97032554922E+02  0.15824187918E+03  0.12500070244E+03 0.  0.
    9000005    1    3    3    0    0  0.51570397069E+02 -0.86946578217E+01  0.91821208384E+02  0.10567514957E+03  0.10000000000E+01 0.  0.
    9000005    1    3    3    0    0 -0.51570397069E+02  0.86946578217E+01  0.52113465380E+01  0.52566729604E+02  0.10000000000E+01 0.  0.
<mgrwt>
<rscale>  0 0.12500070E+03</rscale>
<asrwt>0</asrwt>
<pdfrwt beam="2">  1        4 0.47084096E-02 0.12500070E+03</pdfrwt>
<pdfrwt beam="1">  1       -4 0.19636495E-01 0.12500070E+03</pdfrwt>
<totfact> 0.97681269E+03</totfact>
</mgrwt>
</event>
<event>
 5    1  0.3340698E-002  0.1249905E+03  0.7818608E-02  0.1235084E+00
          4   -1    0    0  501    0  0.00000000000E+00  0.00000000000E+00  0.65589412681E+01  0.66807642196E+01  0.12700000000E+01 0. -1.
         -4   -1    0    0    0  501 -0.00000000000E+00 -0.00000000000E+00 -0.58986924911E+03  0.58987061627E+03  0.12700000000E+01 0. -1.
         25    2    1    2    0    0  0.00000000000E+00  0.00000000000E+00 -0.58331030784E+03  0.59655138049E+03  0.12499053699E+03 0.  0.
    9000005    1    3    3    0    0  0.26863861130E+02 -0.26611787643E+02 -0.52908819377E+03  0.53043865910E+03  0.10000000000E+01 0.  0.
    9000005    1    3    3    0    0 -0.26863861130E+02  0.26611787643E+02 -0.54222114068E+02  0.66112721396E+02  0.10000000000E+01 0.  0.
<mgrwt>
<rscale>  0 0.12499054E+03</rscale>
<asrwt>0</asrwt>
<pdfrwt beam="1">  1        4 0.10185445E-02 0.12499054E+03</pdfrwt>
<pdfrwt beam="2">  1       -4 0.90758550E-01 0.12499054E+03</pdfrwt>
<totfact> 0.49096227E+03</totfact>
</mgrwt>
</event>
<event>
 5    1  0.3340698E-002  0.1249903E+03  0.7818608E-02  0.1235084E+00
         -4   -1    0    0    0  501 -0.00000000000E+00  0.00000000000E+00  0.39161270820E+01  0.41169104098E+01  0.12700000000E+01 0.  1.
          4   -1    0    0  501    0  0.00000000000E+00 -0.00000000000E+00 -0.97219366782E+03  0.97219449733E+03  0.12700000000E+01 0.  1.
         25    2    1    2    0    0  0.00000000000E+00  0.00000000000E+00 -0.96827754073E+03  0.97631140774E+03  0.12499027561E+03 0.  0.
    9000005    1    3    3    0    0  0.56332488317E+02 -0.26703218926E+02 -0.45078701703E+03  0.45507839530E+03  0.10000000000E+01 0.  0.
    9000005    1    3    3    0    0 -0.56332488317E+02  0.26703218926E+02 -0.51749052370E+03  0.52123301244E+03  0.10000000000E+01 0.  0.
<mgrwt>
<rscale>  0 0.12499028E+03</rscale>
<asrwt>0</asrwt>
<pdfrwt beam="2">  1        4 0.14958358E+00 0.12499028E+03</pdfrwt>
<pdfrwt beam="1">  1       -4 0.61799054E-03 0.12499028E+03</pdfrwt>
<totfact> 0.31406547E+03</totfact>
</mgrwt>
</event>
<event>
 5    1  0.3340698E-002  0.1249959E+03  0.7818608E-02  0.1235076E+00
          4   -1    0    0  501    0  0.00000000000E+00  0.00000000000E+00  0.26703975010E+02  0.26734157577E+02  0.12700000000E+01 0. -1.
         -4   -1    0    0    0  501 -0.00000000000E+00 -0.00000000000E+00 -0.14615467856E+03  0.14616019624E+03  0.12700000000E+01 0. -1.
         25    2    1    2    0    0  0.00000000000E+00  0.00000000000E+00 -0.11945070355E+03  0.17289435382E+03  0.12499594795E+03 0.  0.
    9000005    1    3    3    0    0  0.97207685834E+01 -0.29489185647E+02  0.15285546360E+02  0.34623017482E+02  0.10000000000E+01 0.  0.
    9000005    1    3    3    0    0 -0.97207685834E+01  0.29489185647E+02 -0.13473624991E+03  0.13827133634E+03  0.10000000000E+01 0.  0.
<mgrwt>
<rscale>  0 0.12499595E+03</rscale>
<asrwt>0</asrwt>
<pdfrwt beam="1">  1        4 0.41110501E-02 0.12499595E+03</pdfrwt>
<pdfrwt beam="2">  1       -4 0.22488081E-01 0.12499595E+03</pdfrwt>
<totfact> 0.94920536E+03</totfact>
</mgrwt>
</event>
<event>
 5    1  0.3340698E-002  0.1249985E+03  0.7818608E-02  0.1235072E+00
         -4   -1    0    0    0  501 -0.00000000000E+00  0.00000000000E+00  0.37689315904E+03  0.37689529876E+03  0.12700000000E+01 0. -1.
          4   -1    0    0  501    0  0.00000000000E+00 -0.00000000000E+00 -0.10323007878E+02  0.10400836104E+02  0.12700000000E+01 0. -1.
         25    2    1    2    0    0  0.00000000000E+00  0.00000000000E+00  0.36657015116E+03  0.38729613486E+03  0.12499848144E+03 0.  0.
    9000005    1    3    3    0    0 -0.62320185096E+02  0.22182765942E+01  0.19584370532E+03  0.20553462758E+03  0.10000000000E+01 0.  0.
    9000005    1    3    3    0    0  0.62320185096E+02 -0.22182765942E+01  0.17072644584E+03  0.18176150728E+03  0.10000000000E+01 0.  0.
<mgrwt>
<rscale>  0 0.12499848E+03</rscale>
<asrwt>0</asrwt>
<pdfrwt beam="2">  1        4 0.15943064E-02 0.12499848E+03</pdfrwt>
<pdfrwt beam="1">  1       -4 0.57989717E-01 0.12499848E+03</pdfrwt>
<totfact> 0.65809598E+03</totfact>
</mgrwt>
</event>
<event>
 5    1  0.3340698E-002  0.1249939E+03  0.7818608E-02  0.1235079E+00
          4   -1    0    0  501    0  0.00000000000E+00  0.00000000000E+00  0.65965991546E+02  0.65978215652E+02  0.12700000000E+01 0.  1.
         -4   -1    0    0    0  501 -0.00000000000E+00 -0.00000000000E+00 -0.59185828093E+02  0.59199452253E+02  0.12700000000E+01 0.  1.
         25    2    1    2    0    0  0.00000000000E+00  0.00000000000E+00  0.67801634529E+01  0.12517766791E+03  0.12499391155E+03 0.  0.
    9000005    1    3    3    0    0 -0.50558299855E+02 -0.35666652348E+02 -0.53759406269E+01  0.62114028299E+02  0.10000000000E+01 0.  0.
    9000005    1    3    3    0    0  0.50558299855E+02  0.35666652348E+02  0.12156104080E+02  0.63063639606E+02  0.10000000000E+01 0.  0.
<mgrwt>
<rscale>  0 0.12499391E+03</rscale>
<asrwt>0</asrwt>
<pdfrwt beam="1">  1        4 0.10150602E-01 0.12499391E+03</pdfrwt>
<pdfrwt beam="2">  1       -4 0.91075003E-02 0.12499391E+03</pdfrwt>
<totfact> 0.10450443E+04</totfact>
</mgrwt>
</event>
<event>
 4    1  0.3340698E-002  0.1252009E+03  0.7818608E-02  0.1234756E+00
         -4   -1    0    0    0  501 -0.00000000000E+00  0.00000000000E+00  0.39992095105E+02  0.40012255258E+02  0.12700000000E+01 0. -1.
          4   -1    0    0  501    0  0.00000000000E+00 -0.00000000000E+00 -0.97940828192E+02  0.97949061899E+02  0.12700000000E+01 0. -1.
    9000005    1    1    2    0    0  0.47466320299E+02 -0.28711471144E+02  0.29702215625E+01  0.55562778496E+02  0.10000000000E+01 0.  0.
    9000005    1    1    2    0    0 -0.47466320299E+02  0.28711471144E+02 -0.60918954650E+02  0.82398538662E+02  0.10000000000E+01 0.  0.
<mgrwt>
<rscale>  0 0.12520092E+03</rscale>
<asrwt>0</asrwt>
<pdfrwt beam="2">  1        4 0.15070004E-01 0.12520092E+03</pdfrwt>
<pdfrwt beam="1">  1       -4 0.61548142E-02 0.12520092E+03</pdfrwt>
<totfact> 0.10130067E+04</totfact>
</mgrwt>
</event>
<event>
 5    1  0.3340698E-002  0.1250014E+03  0.7818608E-02  0.1235067E+00
          4   -1    0    0  501    0  0.00000000000E+00  0.00000000000E+00  0.66927667585E+03  0.66927788080E+03  0.12700000000E+01 0. -1.
         -4   -1    0    0    0  501 -0.00000000000E+00 -0.00000000000E+00 -0.57663419707E+01  0.59045406022E+01  0.12700000000E+01 0. -1.
         25    2    1    2    0    0  0.00000000000E+00  0.00000000000E+00  0.66351033388E+03  0.67518242141E+03  0.12500135605E+03 0.  0.
    9000005    1    3    3    0    0  0.47588984154E+01  0.50844741919E+02  0.13719225301E+03  0.14639176609E+03  0.10000000000E+01 0.  0.
    9000005    1    3    3    0    0 -0.47588984154E+01 -0.50844741919E+02  0.52631808087E+03  0.52879065531E+03  0.10000000000E+01 0.  0.
<mgrwt>
<rscale>  0 0.12500136E+03</rscale>
<asrwt>0</asrwt>
<pdfrwt beam="1">  1        4 0.10297632E+00 0.12500136E+03</pdfrwt>
<pdfrwt beam="2">  1       -4 0.89785328E-03 0.12500136E+03</pdfrwt>
<totfact> 0.44428256E+03</totfact>
</mgrwt>
</event>
<event>
 5    1  0.3340698E-002  0.1250034E+03  0.7818608E-02  0.1235064E+00
          4   -1    0    0  501    0  0.00000000000E+00  0.00000000000E+00  0.11423096541E+03  0.11423802501E+03  0.12700000000E+01 0. -1.
         -4   -1    0    0    0  501 -0.00000000000E+00 -0.00000000000E+00 -0.34178027288E+02  0.34201614718E+02  0.12700000000E+01 0. -1.
         25    2    1    2    0    0  0.00000000000E+00  0.00000000000E+00  0.80052938118E+02  0.14843963973E+03  0.12500341492E+03 0.  0.
    9000005    1    3    3    0    0 -0.51405383023E+02 -0.34613391713E+02  0.49590192677E+02  0.79377499957E+02  0.10000000000E+01 0.  0.
    9000005    1    3    3    0    0  0.51405383023E+02  0.34613391713E+02  0.30462745441E+02  0.69062139769E+02  0.10000000000E+01 0.  0.
<mgrwt>
<rscale>  0 0.12500341E+03</rscale>
<asrwt>0</asrwt>
<pdfrwt beam="1">  1        4 0.17576352E-01 0.12500341E+03</pdfrwt>
<pdfrwt beam="2">  1       -4 0.52605155E-02 0.12500341E+03</pdfrwt>
<totfact> 0.99607989E+03</totfact>
</mgrwt>
</event>
<event>
 5    1  0.3340698E-002  0.1249977E+03  0.7818608E-02  0.1235073E+00
          4   -1    0    0  501    0  0.00000000000E+00  0.00000000000E+00  0.55031614191E+02  0.55046266545E+02  0.12700000000E+01 0. -1.
         -4   -1    0    0    0  501 -0.00000000000E+00 -0.00000000000E+00 -0.70949547192E+02  0.70960912809E+02  0.12700000000E+01 0. -1.
         25    2    1    2    0    0  0.00000000000E+00  0.00000000000E+00 -0.15917933000E+02  0.12600717935E+03  0.12499771461E+03 0.  0.
    9000005    1    3    3    0    0 -0.75551923725E+01 -0.27975843247E+02 -0.63771953505E+02  0.70054198954E+02  0.10000000000E+01 0.  0.
    9000005    1    3    3    0    0  0.75551923725E+01  0.27975843247E+02  0.47854020505E+02  0.55952980400E+02  0.10000000000E+01 0.  0.
<mgrwt>
<rscale>  0 0.12499771E+03</rscale>
<asrwt>0</asrwt>
<pdfrwt beam="1">  1        4 0.84684035E-02 0.12499771E+03</pdfrwt>
<pdfrwt beam="2">  1       -4 0.10917316E-01 0.12499771E+03</pdfrwt>
<totfact> 0.10431338E+04</totfact>
</mgrwt>
</event>
<event>
 5    1  0.3340698E-002  0.1250015E+03  0.7818608E-02  0.1235067E+00
          4   -1    0    0  501    0  0.00000000000E+00  0.00000000000E+00  0.19151329556E+03  0.19151750645E+03  0.12700000000E+01 0. -1.
         -4   -1    0    0    0  501 -0.00000000000E+00 -0.00000000000E+00 -0.20373024706E+02  0.20412570531E+02  0.12700000000E+01 0. -1.
         25    2    1    2    0    0  0.00000000000E+00  0.00000000000E+00  0.17114027085E+03  0.21193007698E+03  0.12500146087E+03 0.  0.
    9000005    1    3    3    0    0 -0.58703351993E+02 -0.90501348184E+01  0.52635617358E+02  0.79369368714E+02  0.10000000000E+01 0.  0.
    9000005    1    3    3    0    0  0.58703351993E+02  0.90501348184E+01  0.11850465349E+03  0.13256070826E+03  0.10000000000E+01 0.  0.
<mgrwt>
<rscale>  0 0.12500146E+03</rscale>
<asrwt>0</asrwt>
<pdfrwt beam="1">  1        4 0.29466948E-01 0.12500146E+03</pdfrwt>
<pdfrwt beam="2">  1       -4 0.31376775E-02 0.12500146E+03</pdfrwt>
<totfact> 0.88158763E+03</totfact>
</mgrwt>
</event>
<event>
 5    1  0.3340698E-002  0.1250009E+03  0.7818608E-02  0.1235068E+00
          4   -1    0    0  501    0  0.00000000000E+00  0.00000000000E+00  0.38423738458E+03  0.38423948341E+03  0.12700000000E+01 0.  1.
         -4   -1    0    0    0  501 -0.00000000000E+00 -0.00000000000E+00 -0.10124590372E+02  0.10203932095E+02  0.12700000000E+01 0.  1.
         25    2    1    2    0    0  0.00000000000E+00  0.00000000000E+00  0.37411279421E+03  0.39444341550E+03  0.12500090097E+03 0.  0.
    9000005    1    3    3    0    0  0.22609172679E+02 -0.41843251038E+02  0.31497289319E+03  0.31854506084E+03  0.10000000000E+01 0.  0.
    9000005    1    3    3    0    0 -0.22609172679E+02  0.41843251038E+02  0.59139901020E+02  0.75898354655E+02  0.10000000000E+01 0.  0.
<mgrwt>
<rscale>  0 0.12500090E+03</rscale>
<asrwt>0</asrwt>
<pdfrwt beam="1">  1        4 0.59119702E-01 0.12500090E+03</pdfrwt>
<pdfrwt beam="2">  1       -4 0.15638941E-02 0.12500090E+03</pdfrwt>
<totfact> 0.65095535E+03</totfact>
</mgrwt>
</event>
<event>
 5    1  0.3340698E-002  0.1249989E+03  0.7818608E-02  0.1235071E+00
          4   -1    0    0  501    0  0.00000000000E+00  0.00000000000E+00  0.67175866515E+03  0.67175986565E+03  0.12700000000E+01 0.  1.
         -4   -1    0    0    0  501 -0.00000000000E+00 -0.00000000000E+00 -0.57442963030E+01  0.58830128349E+01  0.12700000000E+01 0.  1.
         25    2    1    2    0    0  0.00000000000E+00  0.00000000000E+00  0.66601436884E+03  0.67764287849E+03  0.12499892502E+03 0.  0.
    9000005    1    3    3    0    0  0.35942149003E+01 -0.42842878490E+01  0.67042602224E+03  0.67045009121E+03  0.10000000000E+01 0.  0.
    9000005    1    3    3    0    0 -0.35942149003E+01  0.42842878490E+01 -0.44116533975E+01  0.71927872777E+01  0.10000000000E+01 0.  0.
<mgrwt>
<rscale>  0 0.12499893E+03</rscale>
<asrwt>0</asrwt>
<pdfrwt beam="1">  1        4 0.10335823E+00 0.12499893E+03</pdfrwt>
<pdfrwt beam="2">  1       -4 0.89450089E-03 0.12499893E+03</pdfrwt>
<totfact> 0.44294517E+03</totfact>
</mgrwt>
</event>
<event>
 5    1  0.3340698E-002  0.1250029E+03  0.7818608E-02  0.1235065E+00
         -4   -1    0    0    0  501 -0.00000000000E+00  0.00000000000E+00  0.14010909465E+03  0.14011485040E+03  0.12700000000E+01 0.  1.
          4   -1    0    0  501    0  0.00000000000E+00 -0.00000000000E+00 -0.27860540575E+02  0.27889471511E+02  0.12700000000E+01 0.  1.
         25    2    1    2    0    0  0.00000000000E+00  0.00000000000E+00  0.11224855407E+03  0.16800432191E+03  0.12500285713E+03 0.  0.
    9000005    1    3    3    0    0 -0.31303733342E+02  0.51128863689E+02  0.32409400448E+02  0.68157564956E+02  0.10000000000E+01 0.  0.
    9000005    1    3    3    0    0  0.31303733342E+02 -0.51128863689E+02  0.79839153624E+02  0.99846756957E+02  0.10000000000E+01 0.  0.
<mgrwt>
<rscale>  0 0.12500286E+03</rscale>
<asrwt>0</asrwt>
<pdfrwt beam="2">  1        4 0.42889053E-02 0.12500286E+03</pdfrwt>
<pdfrwt beam="1">  1       -4 0.21557913E-01 0.12500286E+03</pdfrwt>
<totfact> 0.95815280E+03</totfact>
</mgrwt>
</event>
<event>
 5    1  0.3340698E-002  0.1250005E+03  0.7818608E-02  0.1235069E+00
         -4   -1    0    0    0  501 -0.00000000000E+00  0.00000000000E+00  0.99873962506E+03  0.99874043253E+03  0.12700000000E+01 0. -1.
          4   -1    0    0  501    0  0.00000000000E+00 -0.00000000000E+00 -0.38072836158E+01  0.40135157320E+01  0.12700000000E+01 0. -1.
         25    2    1    2    0    0  0.00000000000E+00  0.00000000000E+00  0.99493234145E+03  0.10027539483E+04  0.12500046679E+03 0.  0.
    9000005    1    3    3    0    0  0.41663584940E+02  0.26777279918E+02  0.80318781494E+03  0.80471395110E+03  0.10000000000E+01 0.  0.
    9000005    1    3    3    0    0 -0.41663584940E+02 -0.26777279918E+02  0.19174452651E+03  0.19803999716E+03  0.10000000000E+01 0.  0.
<mgrwt>
<rscale>  0 0.12500047E+03</rscale>
<asrwt>0</asrwt>
<pdfrwt beam="2">  1        4 0.60166160E-03 0.12500047E+03</pdfrwt>
<pdfrwt beam="1">  1       -4 0.15366829E+00 0.12500047E+03</pdfrwt>
<totfact> 0.30513389E+03</totfact>
</mgrwt>
</event>
<event>
 5    1  0.3340698E-002  0.1249974E+03  0.7818608E-02  0.1235073E+00
          4   -1    0    0  501    0  0.00000000000E+00  0.00000000000E+00  0.49303129390E+02  0.49319483651E+02  0.12700000000E+01 0. -1.
         -4   -1    0    0    0  501 -0.00000000000E+00 -0.00000000000E+00 -0.79191420827E+02  0.79201603725E+02  0.12700000000E+01 0. -1.
         25    2    1    2    0    0  0.00000000000E+00  0.00000000000E+00 -0.29888291437E+02  0.12852108738E+03  0.12499743971E+03 0.  0.
    9000005    1    3    3    0    0  0.37489586903E+02 -0.48044361184E+02 -0.29167404117E+02  0.67568241287E+02  0.10000000000E+01 0.  0.
    9000005    1    3    3    0    0 -0.37489586903E+02  0.48044361184E+02 -0.72088731985E+00  0.60952846088E+02  0.10000000000E+01 0.  0.
<mgrwt>
<rscale>  0 0.12499744E+03</rscale>
<asrwt>0</asrwt>
<pdfrwt beam="1">  1        4 0.75871382E-02 0.12499744E+03</pdfrwt>
<pdfrwt beam="2">  1       -4 0.12185337E-01 0.12499744E+03</pdfrwt>
<totfact> 0.10376849E+04</totfact>
</mgrwt>
</event>
<event>
 5    1  0.3340698E-002  0.1249986E+03  0.7818608E-02  0.1235071E+00
         -4   -1    0    0    0  501 -0.00000000000E+00  0.00000000000E+00  0.41363131157E+02  0.41382623396E+02  0.12700000000E+01 0. -1.
          4   -1    0    0  501    0  0.00000000000E+00 -0.00000000000E+00 -0.94389869581E+02  0.94398413014E+02  0.12700000000E+01 0. -1.
         25    2    1    2    0    0  0.00000000000E+00  0.00000000000E+00 -0.53026738424E+02  0.13578103641E+03  0.12499861943E+03 0.  0.
    9000005    1    3    3    0    0 -0.53884786448E+02 -0.13882314722E+02 -0.57407399433E+02  0.79955602569E+02  0.10000000000E+01 0.  0.
    9000005    1    3    3    0    0  0.53884786448E+02  0.13882314722E+02  0.43806610088E+01  0.55825433840E+02  0.10000000000E+01 0.  0.
<mgrwt>
<rscale>  0 0.12499862E+03</rscale>
<asrwt>0</asrwt>
<pdfrwt beam="2">  1        4 0.14523675E-01 0.12499862E+03</pdfrwt>
<pdfrwt beam="1">  1       -4 0.63657152E-02 0.12499862E+03</pdfrwt>
<totfact> 0.10221953E+04</totfact>
</mgrwt>
</event>
<event>
 5    1  0.3340698E-002  0.1250008E+03  0.7818608E-02  0.1235068E+00
         -4   -1    0    0    0  501 -0.00000000000E+00  0.00000000000E+00  0.96968800267E+02  0.96977116503E+02  0.12700000000E+01 0.  1.
          4   -1    0    0  501    0  0.00000000000E+00 -0.00000000000E+00 -0.40264019523E+02  0.40284043592E+02  0.12700000000E+01 0.  1.
         25    2    1    2    0    0  0.00000000000E+00  0.00000000000E+00  0.56704780745E+02  0.13726116010E+03  0.12500077564E+03 0.  0.
    9000005    1    3    3    0    0  0.42532830753E+02 -0.45710283536E+02  0.25483311854E+02  0.67445317820E+02  0.10000000000E+01 0.  0.
    9000005    1    3    3    0    0 -0.42532830753E+02  0.45710283536E+02  0.31221468891E+02  0.69815842275E+02  0.10000000000E+01 0.  0.
<mgrwt>
<rscale>  0 0.12500078E+03</rscale>
<asrwt>0</asrwt>
<pdfrwt beam="2">  1        4 0.61966446E-02 0.12500078E+03</pdfrwt>
<pdfrwt beam="1">  1       -4 0.14920457E-01 0.12500078E+03</pdfrwt>
<totfact> 0.10190450E+04</totfact>
</mgrwt>
</event>
<event>
 5    1  0.3340698E-002  0.1249930E+03  0.7818608E-02  0.1235080E+00
         -4   -1    0    0    0  501 -0.00000000000E+00  0.00000000000E+00  0.26200742876E+01  0.29116471751E+01  0.12700000000E+01 0. -1.
          4   -1    0    0  501    0  0.00000000000E+00 -0.00000000000E+00 -0.14118581461E+04  0.14118587173E+04  0.12700000000E+01 0. -1.
         25    2    1    2    0    0  0.00000000000E+00  0.00000000000E+00 -0.14092380718E+04  0.14147703645E+04  0.12499296438E+03 0.  0.
    9000005    1    3    3    0    0 -0.61396409978E+02  0.11630837650E+02 -0.70599339449E+03  0.70875416655E+03  0.10000000000E+01 0.  0.
    9000005    1    3    3    0    0  0.61396409978E+02 -0.11630837650E+02 -0.70324467730E+03  0.70601619790E+03  0.10000000000E+01 0.  0.
<mgrwt>
<rscale>  0 0.12499296E+03</rscale>
<asrwt>0</asrwt>
<pdfrwt beam="2">  1        4 0.21723084E+00 0.12499296E+03</pdfrwt>
<pdfrwt beam="1">  1       -4 0.42556210E-03 0.12499296E+03</pdfrwt>
<totfact> 0.19669264E+03</totfact>
</mgrwt>
</event>
<event>
 5    1  0.3340698E-002  0.1249984E+03  0.7818608E-02  0.1235072E+00
         -4   -1    0    0    0  501 -0.00000000000E+00  0.00000000000E+00  0.93923094893E+02  0.93931680781E+02  0.12700000000E+01 0. -1.
          4   -1    0    0  501    0  0.00000000000E+00 -0.00000000000E+00 -0.41568625344E+02  0.41588021268E+02  0.12700000000E+01 0. -1.
         25    2    1    2    0    0  0.00000000000E+00  0.00000000000E+00  0.52354469549E+02  0.13551970205E+03  0.12499839664E+03 0.  0.
    9000005    1    3    3    0    0 -0.64586744226E+01 -0.21594834791E+02  0.89367773928E+02  0.92171852437E+02  0.10000000000E+01 0.  0.
    9000005    1    3    3    0    0  0.64586744226E+01  0.21594834791E+02 -0.37013304379E+02  0.43347849612E+02  0.10000000000E+01 0.  0.
<mgrwt>
<rscale>  0 0.12499840E+03</rscale>
<asrwt>0</asrwt>
<pdfrwt beam="2">  1        4 0.63973256E-02 0.12499840E+03</pdfrwt>
<pdfrwt beam="1">  1       -4 0.14451859E-01 0.12499840E+03</pdfrwt>
<totfact> 0.10227498E+04</totfact>
</mgrwt>
</event>
<event>
 5    1  0.3340698E-002  0.1250049E+03  0.7818608E-02  0.1235062E+00
         -4   -1    0    0    0  501 -0.00000000000E+00  0.00000000000E+00  0.17252877390E+03  0.17253344813E+03  0.12700000000E+01 0.  1.
          4   -1    0    0  501    0  0.00000000000E+00 -0.00000000000E+00 -0.22620139872E+02  0.22655763678E+02  0.12700000000E+01 0.  1.
         25    2    1    2    0    0  0.00000000000E+00  0.00000000000E+00  0.14990863403E+03  0.19518921181E+03  0.12500491930E+03 0.  0.
    9000005    1    3    3    0    0 -0.23188508045E+02  0.45167455464E+02  0.13185102126E+03  0.14129224234E+03  0.10000000000E+01 0.  0.
    9000005    1    3    3    0    0  0.23188508045E+02 -0.45167455464E+02  0.18057612763E+02  0.53896969462E+02  0.10000000000E+01 0.  0.
<mgrwt>
<rscale>  0 0.12500492E+03</rscale>
<asrwt>0</asrwt>
<pdfrwt beam="2">  1        4 0.34831214E-02 0.12500492E+03</pdfrwt>
<pdfrwt beam="1">  1       -4 0.26545988E-01 0.12500492E+03</pdfrwt>
<totfact> 0.90942150E+03</totfact>
</mgrwt>
</event>
<event>
 5    1  0.3340698E-002  0.1249956E+03  0.7818608E-02  0.1235076E+00
          4   -1    0    0  501    0  0.00000000000E+00  0.00000000000E+00  0.19083830831E+02  0.19126042434E+02  0.12700000000E+01 0. -1.
         -4   -1    0    0    0  501 -0.00000000000E+00 -0.00000000000E+00 -0.20440415862E+03  0.20440810395E+03  0.12700000000E+01 0. -1.
         25    2    1    2    0    0  0.00000000000E+00  0.00000000000E+00 -0.18532032779E+03  0.22353414639E+03  0.12499556276E+03 0.  0.
    9000005    1    3    3    0    0  0.83050325755E+01 -0.61641278069E+02 -0.81877821250E+02  0.10282800368E+03  0.10000000000E+01 0.  0.
    9000005    1    3    3    0    0 -0.83050325755E+01  0.61641278069E+02 -0.10344250654E+03  0.12070614271E+03  0.10000000000E+01 0.  0.
<mgrwt>
<rscale>  0 0.12499556E+03</rscale>
<asrwt>0</asrwt>
<pdfrwt beam="1">  1        4 0.29395246E-02 0.12499556E+03</pdfrwt>
<pdfrwt beam="2">  1       -4 0.31450343E-01 0.12499556E+03</pdfrwt>
<totfact> 0.86320741E+03</totfact>
</mgrwt>
</event>
<event>
 5    1  0.3340698E-002  0.1249986E+03  0.7818608E-02  0.1235072E+00
         -4   -1    0    0    0  501 -0.00000000000E+00  0.00000000000E+00  0.31032652305E+03  0.31032912176E+03  0.12700000000E+01 0. -1.
          4   -1    0    0  501    0  0.00000000000E+00 -0.00000000000E+00 -0.12552564024E+02  0.12616646289E+02  0.12700000000E+01 0. -1.
         25    2    1    2    0    0  0.00000000000E+00  0.00000000000E+00  0.29777395903E+03  0.32294576805E+03  0.12499855368E+03 0.  0.
    9000005    1    3    3    0    0  0.47905043247E+02  0.12967484195E+02  0.24699938487E+03  0.25193797836E+03  0.10000000000E+01 0.  0.
    9000005    1    3    3    0    0 -0.47905043247E+02 -0.12967484195E+02  0.50774574157E+02  0.71007789683E+02  0.10000000000E+01 0.  0.
<mgrwt>
<rscale>  0 0.12499855E+03</rscale>
<asrwt>0</asrwt>
<pdfrwt beam="2">  1        4 0.19362930E-02 0.12499855E+03</pdfrwt>
<pdfrwt beam="1">  1       -4 0.47747671E-01 0.12499855E+03</pdfrwt>
<totfact> 0.72809462E+03</totfact>
</mgrwt>
</event>
<event>
 5    1  0.3340698E-002  0.1249995E+03  0.7818608E-02  0.1235070E+00
          4   -1    0    0  501    0  0.00000000000E+00  0.00000000000E+00  0.14137942720E+03  0.14138513124E+03  0.12700000000E+01 0.  1.
         -4   -1    0    0    0  501 -0.00000000000E+00 -0.00000000000E+00 -0.27608471249E+02  0.27637666050E+02  0.12700000000E+01 0.  1.
         25    2    1    2    0    0  0.00000000000E+00  0.00000000000E+00  0.11377095595E+03  0.16902279729E+03  0.12499950234E+03 0.  0.
    9000005    1    3    3    0    0 -0.37083483652E+02 -0.12295025065E+02 -0.90656208397E+01  0.40119046379E+02  0.10000000000E+01 0.  0.
    9000005    1    3    3    0    0  0.37083483652E+02  0.12295025065E+02  0.12283657679E+03  0.12890375091E+03  0.10000000000E+01 0.  0.
<mgrwt>
<rscale>  0 0.12499950E+03</rscale>
<asrwt>0</asrwt>
<pdfrwt beam="1">  1        4 0.21753365E-01 0.12499950E+03</pdfrwt>
<pdfrwt beam="2">  1       -4 0.42501417E-02 0.12499950E+03</pdfrwt>
<totfact> 0.95631985E+03</totfact>
</mgrwt>
</event>
<event>
 5    1  0.3340698E-002  0.1250011E+03  0.7818608E-02  0.1235067E+00
         -4   -1    0    0    0  501 -0.00000000000E+00  0.00000000000E+00  0.14652897123E+03  0.14653447482E+03  0.12700000000E+01 0. -1.
          4   -1    0    0  501    0  0.00000000000E+00 -0.00000000000E+00 -0.26637907675E+02  0.26668165016E+02  0.12700000000E+01 0. -1.
         25    2    1    2    0    0  0.00000000000E+00  0.00000000000E+00  0.11989106356E+03  0.17320263983E+03  0.12500114929E+03 0.  0.
    9000005    1    3    3    0    0  0.32151293309E+02  0.48802014394E+02  0.90616641027E+02  0.10783189649E+03  0.10000000000E+01 0.  0.
    9000005    1    3    3    0    0 -0.32151293309E+02 -0.48802014394E+02  0.29274422529E+02  0.65370743340E+02  0.10000000000E+01 0.  0.
<mgrwt>
<rscale>  0 0.12500115E+03</rscale>
<asrwt>0</asrwt>
<pdfrwt beam="2">  1        4 0.41008905E-02 0.12500115E+03</pdfrwt>
<pdfrwt beam="1">  1       -4 0.22545669E-01 0.12500115E+03</pdfrwt>
<totfact> 0.94852611E+03</totfact>
</mgrwt>
</event>
<event>
 5    1  0.3340698E-002  0.1249988E+03  0.7818608E-02  0.1235071E+00
          4   -1    0    0  501    0  0.00000000000E+00  0.00000000000E+00  0.10937983149E+02  0.11011465632E+02  0.12700000000E+01 0. -1.
         -4   -1    0    0    0  501 -0.00000000000E+00 -0.00000000000E+00 -0.35584983758E+03  0.35585210384E+03  0.12700000000E+01 0. -1.
         25    2    1    2    0    0  0.00000000000E+00  0.00000000000E+00 -0.34491185443E+03  0.36686356947E+03  0.12499876510E+03 0.  0.
    9000005    1    3    3    0    0 -0.54240536327E+02 -0.24477721368E+02 -0.11646256476E+03  0.13078885126E+03  0.10000000000E+01 0.  0.
    9000005    1    3    3    0    0  0.54240536327E+02  0.24477721368E+02 -0.22844928968E+03  0.23607471821E+03  0.10000000000E+01 0.  0.
<mgrwt>
<rscale>  0 0.12499877E+03</rscale>
<asrwt>0</asrwt>
<pdfrwt beam="1">  1        4 0.16885937E-02 0.12499877E+03</pdfrwt>
<pdfrwt beam="2">  1       -4 0.54751947E-01 0.12499877E+03</pdfrwt>
<totfact> 0.67910206E+03</totfact>
</mgrwt>
</event>
<event>
 5    1  0.3340698E-002  0.1249973E+03  0.7818608E-02  0.1235074E+00
          4   -1    0    0  501    0  0.00000000000E+00  0.00000000000E+00  0.41809114928E+02  0.41828399336E+02  0.12700000000E+01 0.  1.
         -4   -1    0    0    0  501 -0.00000000000E+00 -0.00000000000E+00 -0.93381393287E+02  0.93390028977E+02  0.12700000000E+01 0.  1.
         25    2    1    2    0    0  0.00000000000E+00  0.00000000000E+00 -0.51572278359E+02  0.13521842831E+03  0.12499729381E+03 0.  0.
    9000005    1    3    3    0    0  0.89294439140E+01 -0.24241439447E+01 -0.92641585402E+02  0.93107866414E+02  0.10000000000E+01 0.  0.
    9000005    1    3    3    0    0 -0.89294439140E+01  0.24241439447E+01  0.41069307042E+02  0.42110561899E+02  0.10000000000E+01 0.  0.
<mgrwt>
<rscale>  0 0.12499729E+03</rscale>
<asrwt>0</asrwt>
<pdfrwt beam="1">  1        4 0.64343192E-02 0.12499729E+03</pdfrwt>
<pdfrwt beam="2">  1       -4 0.14368516E-01 0.12499729E+03</pdfrwt>
<totfact> 0.10234094E+04</totfact>
</mgrwt>
</event>
<event>
 5    1  0.3340698E-002  0.1250000E+03  0.7818608E-02  0.1235069E+00
          4   -1    0    0  501    0  0.00000000000E+00  0.00000000000E+00  0.11484332389E+02  0.11554340761E+02  0.12700000000E+01 0.  1.
         -4   -1    0    0    0  501 -0.00000000000E+00 -0.00000000000E+00 -0.33903278810E+03  0.33903516677E+03  0.12700000000E+01 0.  1.
         25    2    1    2    0    0  0.00000000000E+00  0.00000000000E+00 -0.32754845571E+03  0.35058950753E+03  0.12500004781E+03 0.  0.
    9000005    1    3    3    0    0  0.29860737979E+02  0.53231680874E+02 -0.12614738301E+03  0.14014077837E+03  0.10000000000E+01 0.  0.
    9000005    1    3    3    0    0 -0.29860737979E+02 -0.53231680874E+02 -0.20140107270E+03  0.21044872916E+03  0.10000000000E+01 0.  0.
<mgrwt>
<rscale>  0 0.12500005E+03</rscale>
<asrwt>0</asrwt>
<pdfrwt beam="1">  1        4 0.17723889E-02 0.12500005E+03</pdfrwt>
<pdfrwt beam="2">  1       -4 0.52164451E-01 0.12500005E+03</pdfrwt>
<totfact> 0.69659681E+03</totfact>
</mgrwt>
</event>
<event>
 5    1  0.3340698E-002  0.1250016E+03  0.7818608E-02  0.1235067E+00
         -4   -1    0    0    0  501 -0.00000000000E+00  0.00000000000E+00  0.79354806094E+02  0.79364968029E+02  0.12700000000E+01 0.  1.
          4   -1    0    0  501    0  0.00000000000E+00 -0.00000000000E+00 -0.49204855374E+02  0.49221242288E+02  0.12700000000E+01 0.  1.
         25    2    1    2    0    0  0.00000000000E+00  0.00000000000E+00  0.30149950721E+02  0.12858621032E+03  0.12500157581E+03 0.  0.
    9000005    1    3    3    0    0  0.41366238060E+02  0.72979810956E+01  0.62671951538E+02  0.75453294752E+02  0.10000000000E+01 0.  0.
    9000005    1    3    3    0    0 -0.41366238060E+02 -0.72979810956E+01 -0.32522000817E+02  0.53132915565E+02  0.10000000000E+01 0.  0.
<mgrwt>
<rscale>  0 0.12500158E+03</rscale>
<asrwt>0</asrwt>
<pdfrwt beam="2">  1        4 0.75720201E-02 0.12500158E+03</pdfrwt>
<pdfrwt beam="1">  1       -4 0.12210474E-01 0.12500158E+03</pdfrwt>
<totfact> 0.10374478E+04</totfact>
</mgrwt>
</event>
<event>
 5    1  0.3340698E-002  0.1250084E+03  0.7818608E-02  0.1235056E+00
         -4   -1    0    0    0  501 -0.00000000000E+00  0.00000000000E+00  0.17137110206E+03  0.17137580786E+03  0.12700000000E+01 0. -1.
          4   -1    0    0  501    0  0.00000000000E+00 -0.00000000000E+00 -0.22774437121E+02  0.22809819951E+02  0.12700000000E+01 0. -1.
         25    2    1    2    0    0  0.00000000000E+00  0.00000000000E+00  0.14859666493E+03  0.19418562781E+03  0.12500835659E+03 0.  0.
    9000005    1    3    3    0    0  0.14327036071E+02  0.31042101994E+01 -0.20073533605E+02  0.24876632306E+02  0.10000000000E+01 0.  0.
    9000005    1    3    3    0    0 -0.14327036071E+02 -0.31042101994E+01  0.16867019854E+03  0.16930899550E+03  0.10000000000E+01 0.  0.
<mgrwt>
<rscale>  0 0.12500836E+03</rscale>
<asrwt>0</asrwt>
<pdfrwt beam="2">  1        4 0.35068433E-02 0.12500836E+03</pdfrwt>
<pdfrwt beam="1">  1       -4 0.26367869E-01 0.12500836E+03</pdfrwt>
<totfact> 0.91107038E+03</totfact>
</mgrwt>
</event>
<event>
 5    1  0.3340698E-002  0.1249998E+03  0.7818608E-02  0.1235070E+00
         -4   -1    0    0    0  501 -0.00000000000E+00  0.00000000000E+00  0.30010325940E+01  0.32586955412E+01  0.12700000000E+01 0.  1.
          4   -1    0    0  501    0  0.00000000000E+00 -0.00000000000E+00 -0.12477962963E+04  0.12477969426E+04  0.12700000000E+01 0.  1.
         25    2    1    2    0    0  0.00000000000E+00  0.00000000000E+00 -0.12447952637E+04  0.12510556382E+04  0.12499984471E+03 0.  0.
    9000005    1    3    3    0    0  0.33201794237E+02  0.10250920874E+02 -0.10255486196E+03  0.10828638063E+03  0.10000000000E+01 0.  0.
    9000005    1    3    3    0    0 -0.33201794237E+02 -0.10250920874E+02 -0.11422404018E+04  0.11427692575E+04  0.10000000000E+01 0.  0.
<mgrwt>
<rscale>  0 0.12499984E+03</rscale>
<asrwt>0</asrwt>
<pdfrwt beam="2">  1        4 0.19198813E+00 0.12499984E+03</pdfrwt>
<pdfrwt beam="1">  1       -4 0.48156826E-03 0.12499984E+03</pdfrwt>
<totfact> 0.23414089E+03</totfact>
</mgrwt>
</event>
<event>
 5    1  0.3340698E-002  0.1249951E+03  0.7818608E-02  0.1235077E+00
          4   -1    0    0  501    0  0.00000000000E+00  0.00000000000E+00  0.16360936582E+03  0.16361429487E+03  0.12700000000E+01 0.  1.
         -4   -1    0    0    0  501 -0.00000000000E+00 -0.00000000000E+00 -0.23851421594E+02  0.23885209064E+02  0.12700000000E+01 0.  1.
         25    2    1    2    0    0  0.00000000000E+00  0.00000000000E+00  0.13975794423E+03  0.18749950393E+03  0.12499512390E+03 0.  0.
    9000005    1    3    3    0    0  0.41712301640E+02 -0.46478534819E+02  0.73156837689E+02  0.96192999785E+02  0.10000000000E+01 0.  0.
    9000005    1    3    3    0    0 -0.41712301640E+02  0.46478534819E+02  0.66601106539E+02  0.91306504145E+02  0.10000000000E+01 0.  0.
<mgrwt>
<rscale>  0 0.12499512E+03</rscale>
<asrwt>0</asrwt>
<pdfrwt beam="1">  1        4 0.25173650E-01 0.12499512E+03</pdfrwt>
<pdfrwt beam="2">  1       -4 0.36724276E-02 0.12499512E+03</pdfrwt>
<totfact> 0.92294304E+03</totfact>
</mgrwt>
</event>
<event>
 5    1  0.3340698E-002  0.1249978E+03  0.7818608E-02  0.1235073E+00
         -4   -1    0    0    0  501 -0.00000000000E+00  0.00000000000E+00  0.10127339802E+04  0.10127347765E+04  0.12700000000E+01 0.  1.
          4   -1    0    0  501    0  0.00000000000E+00 -0.00000000000E+00 -0.37516331737E+01  0.39607640008E+01  0.12700000000E+01 0.  1.
         25    2    1    2    0    0  0.00000000000E+00  0.00000000000E+00  0.10089823470E+04  0.10166955405E+04  0.12499778191E+03 0.  0.
    9000005    1    3    3    0    0  0.25712284314E+02 -0.47199940011E+02  0.24521136842E+03  0.25103499976E+03  0.10000000000E+01 0.  0.
    9000005    1    3    3    0    0 -0.25712284314E+02  0.47199940011E+02  0.76377097859E+03  0.76566054074E+03  0.10000000000E+01 0.  0.
<mgrwt>
<rscale>  0 0.12499778E+03</rscale>
<asrwt>0</asrwt>
<pdfrwt beam="2">  1        4 0.59332277E-03 0.12499778E+03</pdfrwt>
<pdfrwt beam="1">  1       -4 0.15582132E+00 0.12499778E+03</pdfrwt>
<totfact> 0.30059310E+03</totfact>
</mgrwt>
</event>
<event>
 5    1  0.3340698E-002  0.1249999E+03  0.7818608E-02  0.1235069E+00
          4   -1    0    0  501    0  0.00000000000E+00  0.00000000000E+00  0.21030404059E+02  0.21068716024E+02  0.12700000000E+01 0.  1.
         -4   -1    0    0    0  501 -0.00000000000E+00 -0.00000000000E+00 -0.18553331411E+03  0.18553766071E+03  0.12700000000E+01 0.  1.
         25    2    1    2    0    0  0.00000000000E+00  0.00000000000E+00 -0.16450291005E+03  0.20660637674E+03  0.12499994998E+03 0.  0.
    9000005    1    3    3    0    0  0.56645009817E+02 -0.13340362765E+02 -0.44610522064E+02  0.73332946857E+02  0.10000000000E+01 0.  0.
    9000005    1    3    3    0    0 -0.56645009817E+02  0.13340362765E+02 -0.11989238798E+03  0.13327342988E+03  0.10000000000E+01 0.  0.
<mgrwt>
<rscale>  0 0.12499995E+03</rscale>
<asrwt>0</asrwt>
<pdfrwt beam="1">  1        4 0.32387283E-02 0.12499995E+03</pdfrwt>
<pdfrwt beam="2">  1       -4 0.28546867E-01 0.12499995E+03</pdfrwt>
<totfact> 0.89033220E+03</totfact>
</mgrwt>
</event>
<event>
 5    1  0.3340698E-002  0.1249983E+03  0.7818608E-02  0.1235072E+00
          4   -1    0    0  501    0  0.00000000000E+00  0.00000000000E+00  0.72938440753E+02  0.72949496499E+02  0.12700000000E+01 0. -1.
         -4   -1    0    0    0  501 -0.00000000000E+00 -0.00000000000E+00 -0.53531314310E+02  0.53546377204E+02  0.12700000000E+01 0. -1.
         25    2    1    2    0    0  0.00000000000E+00  0.00000000000E+00  0.19407126443E+02  0.12649587370E+03  0.12499827802E+03 0.  0.
    9000005    1    3    3    0    0 -0.56369409963E+02  0.22118872482E+02  0.25328348141E+02  0.65645107350E+02  0.10000000000E+01 0.  0.
    9000005    1    3    3    0    0  0.56369409963E+02 -0.22118872482E+02 -0.59212216977E+01  0.60850766354E+02  0.10000000000E+01 0.  0.
<mgrwt>
<rscale>  0 0.12499828E+03</rscale>
<asrwt>0</asrwt>
<pdfrwt beam="1">  1        4 0.11223308E-01 0.12499828E+03</pdfrwt>
<pdfrwt beam="2">  1       -4 0.82375959E-02 0.12499828E+03</pdfrwt>
<totfact> 0.10420523E+04</totfact>
</mgrwt>
</event>
<event>
 5    1  0.3340698E-002  0.1250003E+03  0.7818608E-02  0.1235069E+00
          4   -1    0    0  501    0  0.00000000000E+00  0.00000000000E+00  0.50151967851E+03  0.50152128652E+03  0.12700000000E+01 0.  1.
         -4   -1    0    0    0  501 -0.00000000000E+00 -0.00000000000E+00 -0.77354613562E+01  0.78390217753E+01  0.12700000000E+01 0.  1.
         25    2    1    2    0    0  0.00000000000E+00  0.00000000000E+00  0.49378421715E+03  0.50936030829E+03  0.12500028223E+03 0.  0.
    9000005    1    3    3    0    0  0.11638736152E+02  0.30453799155E+02  0.46413955721E+03  0.46528423853E+03  0.10000000000E+01 0.  0.
    9000005    1    3    3    0    0 -0.11638736152E+02 -0.30453799155E+02  0.29644659941E+02  0.44076069757E+02  0.10000000000E+01 0.  0.
<mgrwt>
<rscale>  0 0.12500028E+03</rscale>
<asrwt>0</asrwt>
<pdfrwt beam="1">  1        4 0.77164972E-01 0.12500028E+03</pdfrwt>
<pdfrwt beam="2">  1       -4 0.11981607E-02 0.12500028E+03</pdfrwt>
<totfact> 0.55145018E+03</totfact>
</mgrwt>
</event>
<event>
 5    1  0.3340698E-002  0.1250065E+03  0.7818608E-02  0.1235059E+00
          4   -1    0    0  501    0  0.00000000000E+00  0.00000000000E+00  0.80740416143E+03  0.80740516025E+03  0.12700000000E+01 0.  1.
         -4   -1    0    0    0  501 -0.00000000000E+00 -0.00000000000E+00 -0.47541798700E+01  0.49208867328E+01  0.12700000000E+01 0.  1.
         25    2    1    2    0    0  0.00000000000E+00  0.00000000000E+00  0.80264998156E+03  0.81232604699E+03  0.12500645465E+03 0.  0.
    9000005    1    3    3    0    0 -0.21810487895E+01 -0.61953919332E+02  0.34990712969E+03  0.35535762902E+03  0.10000000000E+01 0.  0.
    9000005    1    3    3    0    0  0.21810487895E+01  0.61953919332E+02  0.45274285188E+03  0.45696841797E+03  0.10000000000E+01 0.  0.
<mgrwt>
<rscale>  0 0.12500645E+03</rscale>
<asrwt>0</asrwt>
<pdfrwt beam="1">  1        4 0.12422871E+00 0.12500645E+03</pdfrwt>
<pdfrwt beam="2">  1       -4 0.74431402E-03 0.12500645E+03</pdfrwt>
<totfact> 0.37715091E+03</totfact>
</mgrwt>
</event>
<event>
 5    1  0.3340698E-002  0.1249991E+03  0.7818608E-02  0.1235071E+00
         -4   -1    0    0    0  501 -0.00000000000E+00  0.00000000000E+00  0.15115779734E+03  0.15116313240E+03  0.12700000000E+01 0. -1.
          4   -1    0    0  501    0  0.00000000000E+00 -0.00000000000E+00 -0.25820427862E+02  0.25851642017E+02  0.12700000000E+01 0. -1.
         25    2    1    2    0    0  0.00000000000E+00  0.00000000000E+00  0.12533736948E+03  0.17701477442E+03  0.12499909669E+03 0.  0.
    9000005    1    3    3    0    0 -0.39424522341E+02 -0.21859109831E+02  0.13799306306E+01  0.45111172152E+02  0.10000000000E+01 0.  0.
    9000005    1    3    3    0    0  0.39424522341E+02  0.21859109831E+02  0.12395743885E+03  0.13190360226E+03  0.10000000000E+01 0.  0.
<mgrwt>
<rscale>  0 0.12499910E+03</rscale>
<asrwt>0</asrwt>
<pdfrwt beam="2">  1        4 0.39751851E-02 0.12499910E+03</pdfrwt>
<pdfrwt beam="1">  1       -4 0.23257857E-01 0.12499910E+03</pdfrwt>
<totfact> 0.94159038E+03</totfact>
</mgrwt>
</event>
<event>
 5    1  0.3340698E-002  0.1249884E+03  0.7818608E-02  0.1235087E+00
         -4   -1    0    0    0  501 -0.00000000000E+00  0.00000000000E+00  0.72290931570E+02  0.72302086327E+02  0.12700000000E+01 0.  1.
          4   -1    0    0  501    0  0.00000000000E+00 -0.00000000000E+00 -0.54002318817E+02  0.54017250371E+02  0.12700000000E+01 0.  1.
         25    2    1    2    0    0  0.00000000000E+00  0.00000000000E+00  0.18288612753E+02  0.12631933670E+03  0.12498840533E+03 0.  0.
    9000005    1    3    3    0    0 -0.41843026115E+02 -0.45151921939E+02 -0.16932419788E+01  0.61590599589E+02  0.10000000000E+01 0.  0.
    9000005    1    3    3    0    0  0.41843026115E+02  0.45151921939E+02  0.19981854731E+02  0.64728737109E+02  0.10000000000E+01 0.  0.
<mgrwt>
<rscale>  0 0.12498841E+03</rscale>
<asrwt>0</asrwt>
<pdfrwt beam="2">  1        4 0.83100557E-02 0.12498841E+03</pdfrwt>
<pdfrwt beam="1">  1       -4 0.11123688E-01 0.12498841E+03</pdfrwt>
<totfact> 0.10426699E+04</totfact>
</mgrwt>
</event>
<event>
 5    1  0.3340698E-002  0.1250001E+03  0.7818608E-02  0.1235069E+00
         -4   -1    0    0    0  501 -0.00000000000E+00  0.00000000000E+00  0.38264193038E+01  0.40316726911E+01  0.12700000000E+01 0. -1.
          4   -1    0    0  501    0  0.00000000000E+00 -0.00000000000E+00 -0.99399347186E+03  0.99399428318E+03  0.12700000000E+01 0. -1.
         25    2    1    2    0    0  0.00000000000E+00  0.00000000000E+00 -0.99016705255E+03  0.99802595587E+03  0.12500006652E+03 0.  0.
    9000005    1    3    3    0    0 -0.30359216389E+02  0.39938200271E+02 -0.19757017689E+03  0.20384238190E+03  0.10000000000E+01 0.  0.
    9000005    1    3    3    0    0  0.30359216389E+02 -0.39938200271E+02 -0.79259687566E+03  0.79418357397E+03  0.10000000000E+01 0.  0.
<mgrwt>
<rscale>  0 0.12500007E+03</rscale>
<asrwt>0</asrwt>
<pdfrwt beam="2">  1        4 0.15293772E+00 0.12500007E+03</pdfrwt>
<pdfrwt beam="1">  1       -4 0.60453182E-03 0.12500007E+03</pdfrwt>
<totfact> 0.30669748E+03</totfact>
</mgrwt>
</event>
<event>
 5    1  0.3340698E-002  0.1250010E+03  0.7818608E-02  0.1235068E+00
         -4   -1    0    0    0  501 -0.00000000000E+00  0.00000000000E+00  0.17179843777E+03  0.17180313187E+03  0.12700000000E+01 0. -1.
          4   -1    0    0  501    0  0.00000000000E+00 -0.00000000000E+00 -0.22715022604E+02  0.22750497839E+02  0.12700000000E+01 0. -1.
         25    2    1    2    0    0  0.00000000000E+00  0.00000000000E+00  0.14908341517E+03  0.19455362971E+03  0.12500100062E+03 0.  0.
    9000005    1    3    3    0    0  0.51465994044E+01  0.41392844730E+02  0.14696873754E+03  0.15277651945E+03  0.10000000000E+01 0.  0.
    9000005    1    3    3    0    0 -0.51465994044E+01 -0.41392844730E+02  0.21146776262E+01  0.41777110261E+02  0.10000000000E+01 0.  0.
<mgrwt>
<rscale>  0 0.12500100E+03</rscale>
<asrwt>0</asrwt>
<pdfrwt beam="2">  1        4 0.34977089E-02 0.12500100E+03</pdfrwt>
<pdfrwt beam="1">  1       -4 0.26433619E-01 0.12500100E+03</pdfrwt>
<totfact> 0.91058939E+03</totfact>
</mgrwt>
</event>
<event>
 5    1  0.3340698E-002  0.1249973E+03  0.7818608E-02  0.1235074E+00
          4   -1    0    0  501    0  0.00000000000E+00  0.00000000000E+00  0.81023004293E+03  0.81023103827E+03  0.12700000000E+01 0. -1.
         -4   -1    0    0    0  501 -0.00000000000E+00 -0.00000000000E+00 -0.47362975898E+01  0.49036124295E+01  0.12700000000E+01 0. -1.
         25    2    1    2    0    0  0.00000000000E+00  0.00000000000E+00  0.80549374534E+03  0.81513465070E+03  0.12499729989E+03 0.  0.
    9000005    1    3    3    0    0  0.54285748150E+01 -0.44037100483E+02  0.11578766804E+03  0.12400209560E+03  0.10000000000E+01 0.  0.
    9000005    1    3    3    0    0 -0.54285748150E+01  0.44037100483E+02  0.68970607730E+03  0.69113255509E+03  0.10000000000E+01 0.  0.
<mgrwt>
<rscale>  0 0.12499730E+03</rscale>
<asrwt>0</asrwt>
<pdfrwt beam="1">  1        4 0.12466356E+00 0.12499730E+03</pdfrwt>
<pdfrwt beam="2">  1       -4 0.74160909E-03 0.12499730E+03</pdfrwt>
<totfact> 0.37600207E+03</totfact>
</mgrwt>
</event>
<event>
 5    1  0.3340698E-002  0.1250008E+03  0.7818608E-02  0.1235068E+00
         -4   -1    0    0    0  501 -0.00000000000E+00  0.00000000000E+00  0.21954861583E+03  0.21955228902E+03  0.12700000000E+01 0. -1.
          4   -1    0    0  501    0  0.00000000000E+00 -0.00000000000E+00 -0.17765915066E+02  0.17811250325E+02  0.12700000000E+01 0. -1.
         25    2    1    2    0    0  0.00000000000E+00  0.00000000000E+00  0.20178270076E+03  0.23736353934E+03  0.12500076592E+03 0.  0.
    9000005    1    3    3    0    0 -0.22452382451E+02  0.11604431575E+01 -0.98298249631E+01  0.24557719049E+02  0.10000000000E+01 0.  0.
    9000005    1    3    3    0    0  0.22452382451E+02 -0.11604431575E+01  0.21161252573E+03  0.21280582029E+03  0.10000000000E+01 0.  0.
<mgrwt>
<rscale>  0 0.12500077E+03</rscale>
<asrwt>0</asrwt>
<pdfrwt beam="2">  1        4 0.27369876E-02 0.12500077E+03</pdfrwt>
<pdfrwt beam="1">  1       -4 0.33780479E-01 0.12500077E+03</pdfrwt>
<totfact> 0.84190157E+03</totfact>
</mgrwt>
</event>
<event>
 5    1  0.3340698E-002  0.1250010E+03  0.7818608E-02  0.1235068E+00
         -4   -1    0    0    0  501 -0.00000000000E+00  0.00000000000E+00  0.22029877084E+04  0.22029880744E+04  0.12700000000E+01 0.  1.
          4   -1    0    0  501    0  0.00000000000E+00 -0.00000000000E+00 -0.15453754109E+01  0.20002712718E+01  0.12700000000E+01 0.  1.
         25    2    1    2    0    0  0.00000000000E+00  0.00000000000E+00  0.22014423330E+04  0.22049883457E+04  0.12500103753E+03 0.  0.
    9000005    1    3    3    0    0 -0.61883632839E+02 -0.81689092381E+01  0.10478026065E+04  0.10496607153E+04  0.10000000000E+01 0.  0.
    9000005    1    3    3    0    0  0.61883632839E+02  0.81689092381E+01  0.11536397265E+04  0.11553276304E+04  0.10000000000E+01 0.  0.
<mgrwt>
<rscale>  0 0.12500104E+03</rscale>
<asrwt>0</asrwt>
<pdfrwt beam="2">  1        4 0.27276990E-03 0.12500104E+03</pdfrwt>
<pdfrwt beam="1">  1       -4 0.33895659E+00 0.12500104E+03</pdfrwt>
<totfact> 0.74172238E+02</totfact>
</mgrwt>
</event>
<event>
 5    1  0.3340698E-002  0.1250026E+03  0.7818608E-02  0.1235065E+00
         -4   -1    0    0    0  501 -0.00000000000E+00  0.00000000000E+00  0.21633071234E+02  0.21670317742E+02  0.12700000000E+01 0. -1.
          4   -1    0    0  501    0  0.00000000000E+00 -0.00000000000E+00 -0.18038101930E+03  0.18038549006E+03  0.12700000000E+01 0. -1.
         25    2    1    2    0    0  0.00000000000E+00  0.00000000000E+00 -0.15874794807E+03  0.20205580780E+03  0.12500255378E+03 0.  0.
    9000005    1    3    3    0    0 -0.59167207703E+00  0.13321087128E+02 -0.17806270858E+03  0.17856407709E+03  0.10000000000E+01 0.  0.
    9000005    1    3    3    0    0  0.59167207703E+00 -0.13321087128E+02  0.19314760517E+02  0.23491730714E+02  0.10000000000E+01 0.  0.
<mgrwt>
<rscale>  0 0.12500255E+03</rscale>
<asrwt>0</asrwt>
<pdfrwt beam="2">  1        4 0.27754134E-01 0.12500255E+03</pdfrwt>
<pdfrwt beam="1">  1       -4 0.33313739E-02 0.12500255E+03</pdfrwt>
<totfact> 0.89784803E+03</totfact>
</mgrwt>
</event>
<event>
 5    1  0.3340698E-002  0.1250065E+03  0.7818608E-02  0.1235059E+00
          4   -1    0    0  501    0  0.00000000000E+00  0.00000000000E+00  0.22433976896E+02  0.22469895847E+02  0.12700000000E+01 0. -1.
         -4   -1    0    0    0  501 -0.00000000000E+00 -0.00000000000E+00 -0.17396256577E+03  0.17396720148E+03  0.12700000000E+01 0. -1.
         25    2    1    2    0    0  0.00000000000E+00  0.00000000000E+00 -0.15152858888E+03  0.19643709733E+03  0.12500647967E+03 0.  0.
    9000005    1    3    3    0    0  0.45211680524E+01  0.11568229493E+02 -0.17201127122E+03  0.17246200254E+03  0.10000000000E+01 0.  0.
    9000005    1    3    3    0    0 -0.45211680524E+01 -0.11568229493E+02  0.20482682341E+02  0.23975094787E+02  0.10000000000E+01 0.  0.
<mgrwt>
<rscale>  0 0.12500648E+03</rscale>
<asrwt>0</asrwt>
<pdfrwt beam="1">  1        4 0.34545007E-02 0.12500648E+03</pdfrwt>
<pdfrwt beam="2">  1       -4 0.26766590E-01 0.12500648E+03</pdfrwt>
<totfact> 0.90726027E+03</totfact>
</mgrwt>
</event>
<event>
 5    1  0.3340698E-002  0.1250006E+03  0.7818608E-02  0.1235068E+00
         -4   -1    0    0    0  501 -0.00000000000E+00  0.00000000000E+00  0.13064181695E+02  0.13125766391E+02  0.12700000000E+01 0. -1.
          4   -1    0    0  501    0  0.00000000000E+00 -0.00000000000E+00 -0.29824119665E+03  0.29824390065E+03  0.12700000000E+01 0. -1.
         25    2    1    2    0    0  0.00000000000E+00  0.00000000000E+00 -0.28517701495E+03  0.31136966705E+03  0.12500055880E+03 0.  0.
    9000005    1    3    3    0    0  0.19730877226E+01  0.36997771452E+02 -0.26794416562E+03  0.27049547881E+03  0.10000000000E+01 0.  0.
    9000005    1    3    3    0    0 -0.19730877226E+01 -0.36997771452E+02 -0.17232849329E+02  0.40874188232E+02  0.10000000000E+01 0.  0.
<mgrwt>
<rscale>  0 0.12500056E+03</rscale>
<asrwt>0</asrwt>
<pdfrwt beam="2">  1        4 0.45888201E-01 0.12500056E+03</pdfrwt>
<pdfrwt beam="1">  1       -4 0.20148196E-02 0.12500056E+03</pdfrwt>
<totfact> 0.74193510E+03</totfact>
</mgrwt>
</event>
<event>
 5    1  0.3340698E-002  0.1250068E+03  0.7818608E-02  0.1235059E+00
         -4   -1    0    0    0  501 -0.00000000000E+00  0.00000000000E+00  0.33015074743E+02  0.33039492434E+02  0.12700000000E+01 0. -1.
          4   -1    0    0  501    0  0.00000000000E+00 -0.00000000000E+00 -0.11825856084E+03  0.11826538002E+03  0.12700000000E+01 0. -1.
         25    2    1    2    0    0  0.00000000000E+00  0.00000000000E+00 -0.85243486094E+02  0.15130487245E+03  0.12500684984E+03 0.  0.
    9000005    1    3    3    0    0  0.56785555396E+02  0.10557563085E+01 -0.74183569515E+02  0.93434019014E+02  0.10000000000E+01 0.  0.
    9000005    1    3    3    0    0 -0.56785555396E+02 -0.10557563085E+01 -0.11059916578E+02  0.57870853439E+02  0.10000000000E+01 0.  0.
<mgrwt>
<rscale>  0 0.12500685E+03</rscale>
<asrwt>0</asrwt>
<pdfrwt beam="2">  1        4 0.18196027E-01 0.12500685E+03</pdfrwt>
<pdfrwt beam="1">  1       -4 0.50816452E-02 0.12500685E+03</pdfrwt>
<totfact> 0.99028960E+03</totfact>
</mgrwt>
</event>
<event>
 5    1  0.3340698E-002  0.1250001E+03  0.7818608E-02  0.1235069E+00
         -4   -1    0    0    0  501 -0.00000000000E+00  0.00000000000E+00  0.47840642401E+02  0.47857496438E+02  0.12700000000E+01 0.  1.
          4   -1    0    0  501    0  0.00000000000E+00 -0.00000000000E+00 -0.81615178942E+02  0.81625059472E+02  0.12700000000E+01 0.  1.
         25    2    1    2    0    0  0.00000000000E+00  0.00000000000E+00 -0.33774536542E+02  0.12948255591E+03  0.12500005187E+03 0.  0.
    9000005    1    3    3    0    0  0.98158641212E+01 -0.56628966515E+02  0.85295832930E+01  0.58111486198E+02  0.10000000000E+01 0.  0.
    9000005    1    3    3    0    0 -0.98158641212E+01  0.56628966515E+02 -0.42304119835E+02  0.71371069713E+02  0.10000000000E+01 0.  0.
<mgrwt>
<rscale>  0 0.12500005E+03</rscale>
<asrwt>0</asrwt>
<pdfrwt beam="2">  1        4 0.12558238E-01 0.12500005E+03</pdfrwt>
<pdfrwt beam="1">  1       -4 0.73621554E-02 0.12500005E+03</pdfrwt>
<totfact> 0.10355577E+04</totfact>
</mgrwt>
</event>
<event>
 5    1  0.3340698E-002  0.1249878E+03  0.7818608E-02  0.1235088E+00
          4   -1    0    0  501    0  0.00000000000E+00  0.00000000000E+00  0.88819704975E+01  0.89723073909E+01  0.12700000000E+01 0.  1.
         -4   -1    0    0    0  501 -0.00000000000E+00 -0.00000000000E+00 -0.43739337077E+03  0.43739521453E+03  0.12700000000E+01 0.  1.
         25    2    1    2    0    0  0.00000000000E+00  0.00000000000E+00 -0.42851140027E+03  0.44636752192E+03  0.12498777725E+03 0.  0.
    9000005    1    3    3    0    0 -0.60338655357E+02 -0.12768289559E+02 -0.25009400583E+03  0.25758842035E+03  0.10000000000E+01 0.  0.
    9000005    1    3    3    0    0  0.60338655357E+02  0.12768289559E+02 -0.17841739444E+03  0.18877910157E+03  0.10000000000E+01 0.  0.
<mgrwt>
<rscale>  0 0.12498778E+03</rscale>
<asrwt>0</asrwt>
<pdfrwt beam="1">  1        4 0.13735482E-02 0.12498778E+03</pdfrwt>
<pdfrwt beam="2">  1       -4 0.67298362E-01 0.12498778E+03</pdfrwt>
<totfact> 0.60296015E+03</totfact>
</mgrwt>
</event>
<event>
 5    1  0.3340698E-002  0.1249994E+03  0.7818608E-02  0.1235070E+00
         -4   -1    0    0    0  501 -0.00000000000E+00  0.00000000000E+00  0.45950817017E+03  0.45950992520E+03  0.12700000000E+01 0.  1.
          4   -1    0    0  501    0  0.00000000000E+00 -0.00000000000E+00 -0.84516464285E+01  0.85465330604E+01  0.12700000000E+01 0.  1.
         25    2    1    2    0    0  0.00000000000E+00  0.00000000000E+00  0.45105652374E+03  0.46805645826E+03  0.12499944202E+03 0.  0.
    9000005    1    3    3    0    0 -0.56777103020E+02  0.13802587133E+02  0.14255095345E+03  0.15406467852E+03  0.10000000000E+01 0.  0.
    9000005    1    3    3    0    0  0.56777103020E+02 -0.13802587133E+02  0.30850557029E+03  0.31399177974E+03  0.10000000000E+01 0.  0.
<mgrwt>
<rscale>  0 0.12499944E+03</rscale>
<asrwt>0</asrwt>
<pdfrwt beam="2">  1        4 0.13076870E-02 0.12499944E+03</pdfrwt>
<pdfrwt beam="1">  1       -4 0.70701015E-01 0.12499944E+03</pdfrwt>
<totfact> 0.58431575E+03</totfact>
</mgrwt>
</event>
<event>
 5    1  0.3340698E-002  0.1249942E+03  0.7818608E-02  0.1235078E+00
         -4   -1    0    0    0  501 -0.00000000000E+00  0.00000000000E+00  0.71346680376E+02  0.71357982740E+02  0.12700000000E+01 0. -1.
          4   -1    0    0  501    0  0.00000000000E+00 -0.00000000000E+00 -0.54722172906E+02  0.54736908093E+02  0.12700000000E+01 0. -1.
         25    2    1    2    0    0  0.00000000000E+00  0.00000000000E+00  0.16624507470E+02  0.12609489083E+03  0.12499418885E+03 0.  0.
    9000005    1    3    3    0    0 -0.37018269682E+02  0.30994595932E+02  0.48333631291E+02  0.68323913683E+02  0.10000000000E+01 0.  0.
    9000005    1    3    3    0    0  0.37018269682E+02 -0.30994595932E+02 -0.31709123821E+02  0.57770977149E+02  0.10000000000E+01 0.  0.
<mgrwt>
<rscale>  0 0.12499419E+03</rscale>
<asrwt>0</asrwt>
<pdfrwt beam="2">  1        4 0.84207988E-02 0.12499419E+03</pdfrwt>
<pdfrwt beam="1">  1       -4 0.10978415E-01 0.12499419E+03</pdfrwt>
<totfact> 0.10430246E+04</totfact>
</mgrwt>
</event>
<event>
 5    1  0.3340698E-002  0.1249991E+03  0.7818608E-02  0.1235071E+00
         -4   -1    0    0    0  501 -0.00000000000E+00  0.00000000000E+00  0.10928210871E+03  0.10928948799E+03  0.12700000000E+01 0.  1.
          4   -1    0    0  501    0  0.00000000000E+00 -0.00000000000E+00 -0.35724233147E+02  0.35746800331E+02  0.12700000000E+01 0.  1.
         25    2    1    2    0    0  0.00000000000E+00  0.00000000000E+00  0.73557875568E+02  0.14503628832E+03  0.12499905548E+03 0.  0.
    9000005    1    3    3    0    0  0.18186192729E+02  0.58295457121E+02  0.21381762905E+02  0.64709177957E+02  0.10000000000E+01 0.  0.
    9000005    1    3    3    0    0 -0.18186192729E+02 -0.58295457121E+02  0.52176112663E+02  0.80327110365E+02  0.10000000000E+01 0.  0.
<mgrwt>
<rscale>  0 0.12499906E+03</rscale>
<asrwt>0</asrwt>
<pdfrwt beam="2">  1        4 0.54983394E-02 0.12499906E+03</pdfrwt>
<pdfrwt beam="1">  1       -4 0.16814936E-01 0.12499906E+03</pdfrwt>
<totfact> 0.10030464E+04</totfact>
</mgrwt>
</event>
<event>
 5    1  0.3340698E-002  0.1249987E+03  0.7818608E-02  0.1235071E+00
         -4   -1    0    0    0  501 -0.00000000000E+00  0.00000000000E+00  0.22322182053E+02  0.22358280605E+02  0.12700000000E+01 0.  1.
          4   -1    0    0  501    0  0.00000000000E+00 -0.00000000000E+00 -0.17481054831E+03  0.17481516152E+03  0.12700000000E+01 0.  1.
         25    2    1    2    0    0  0.00000000000E+00  0.00000000000E+00 -0.15248836625E+03  0.19717344213E+03  0.12499865775E+03 0.  0.
    9000005    1    3    3    0    0  0.59338793905E+02  0.83781355468E+01 -0.48297824281E+02  0.76973797149E+02  0.10000000000E+01 0.  0.
    9000005    1    3    3    0    0 -0.59338793905E+02 -0.83781355468E+01 -0.10419054197E+03  0.12019964498E+03  0.10000000000E+01 0.  0.
<mgrwt>
<rscale>  0 0.12499866E+03</rscale>
<asrwt>0</asrwt>
<pdfrwt beam="2">  1        4 0.26897061E-01 0.12499866E+03</pdfrwt>
<pdfrwt beam="1">  1       -4 0.34373136E-02 0.12499866E+03</pdfrwt>
<totfact> 0.90616646E+03</totfact>
</mgrwt>
</event>
<event>
 5    1  0.3340698E-002  0.1250046E+03  0.7818608E-02  0.1235062E+00
          4   -1    0    0  501    0  0.00000000000E+00  0.00000000000E+00  0.10193132067E+02  0.10271944379E+02  0.12700000000E+01 0. -1.
         -4   -1    0    0    0  501 -0.00000000000E+00 -0.00000000000E+00 -0.38169603170E+03  0.38169814450E+03  0.12700000000E+01 0. -1.
         25    2    1    2    0    0  0.00000000000E+00  0.00000000000E+00 -0.37150289964E+03  0.39197008888E+03  0.12500458448E+03 0.  0.
    9000005    1    3    3    0    0  0.49530155259E+02  0.18164986915E+02 -0.29079948910E+03  0.29554787411E+03  0.10000000000E+01 0.  0.
    9000005    1    3    3    0    0 -0.49530155259E+02 -0.18164986915E+02 -0.80703410532E+02  0.96422214770E+02  0.10000000000E+01 0.  0.
<mgrwt>
<rscale>  0 0.12500458E+03</rscale>
<asrwt>0</asrwt>
<pdfrwt beam="1">  1        4 0.15743995E-02 0.12500458E+03</pdfrwt>
<pdfrwt beam="2">  1       -4 0.58728681E-01 0.12500458E+03</pdfrwt>
<totfact> 0.65334723E+03</totfact>
</mgrwt>
</event>
<event>
 5    1  0.3340698E-002  0.1249999E+03  0.7818608E-02  0.1235069E+00
         -4   -1    0    0    0  501 -0.00000000000E+00  0.00000000000E+00  0.94326897072E+02  0.94335446208E+02  0.12700000000E+01 0. -1.
          4   -1    0    0  501    0  0.00000000000E+00 -0.00000000000E+00 -0.41391634182E+02  0.41411113005E+02  0.12700000000E+01 0. -1.
         25    2    1    2    0    0  0.00000000000E+00  0.00000000000E+00  0.52935262890E+02  0.13574655921E+03  0.12499994512E+03 0.  0.
    9000005    1    3    3    0    0 -0.21443936003E+01 -0.60859362287E+02  0.11233549314E+02  0.61932649161E+02  0.10000000000E+01 0.  0.
    9000005    1    3    3    0    0  0.21443936003E+01  0.60859362287E+02  0.41701713576E+02  0.73813910051E+02  0.10000000000E+01 0.  0.
<mgrwt>
<rscale>  0 0.12499995E+03</rscale>
<asrwt>0</asrwt>
<pdfrwt beam="2">  1        4 0.63700998E-02 0.12499995E+03</pdfrwt>
<pdfrwt beam="1">  1       -4 0.14513986E-01 0.12499995E+03</pdfrwt>
<totfact> 0.10222372E+04</totfact>
</mgrwt>
</event>
<event>
 5    1  0.3340698E-002  0.1249999E+03  0.7818608E-02  0.1235069E+00
         -4   -1    0    0    0  501 -0.00000000000E+00  0.00000000000E+00  0.14414460410E+02  0.14470299544E+02  0.12700000000E+01 0.  1.
          4   -1    0    0  501    0  0.00000000000E+00 -0.00000000000E+00 -0.27041377562E+03  0.27041675788E+03  0.12700000000E+01 0.  1.
         25    2    1    2    0    0  0.00000000000E+00  0.00000000000E+00 -0.25599931521E+03  0.28488705743E+03  0.12499994441E+03 0.  0.
    9000005    1    3    3    0    0 -0.36206639283E+02 -0.48401586100E+02 -0.91847951374E+02  0.10995763019E+03  0.10000000000E+01 0.  0.
    9000005    1    3    3    0    0  0.36206639283E+02  0.48401586100E+02 -0.16415136383E+03  0.17492942724E+03  0.10000000000E+01 0.  0.
<mgrwt>
<rscale>  0 0.12499994E+03</rscale>
<asrwt>0</asrwt>
<pdfrwt beam="2">  1        4 0.41606640E-01 0.12499994E+03</pdfrwt>
<pdfrwt beam="1">  1       -4 0.22221342E-02 0.12499994E+03</pdfrwt>
<totfact> 0.77534645E+03</totfact>
</mgrwt>
</event>
<event>
 5    1  0.3340698E-002  0.1250119E+03  0.7818608E-02  0.1235051E+00
          4   -1    0    0  501    0  0.00000000000E+00  0.00000000000E+00  0.12015851532E+03  0.12016522668E+03  0.12700000000E+01 0. -1.
         -4   -1    0    0    0  501 -0.00000000000E+00 -0.00000000000E+00 -0.32495307175E+02  0.32520115135E+02  0.12700000000E+01 0. -1.
         25    2    1    2    0    0  0.00000000000E+00  0.00000000000E+00  0.87663208142E+02  0.15268534182E+03  0.12501190161E+03 0.  0.
    9000005    1    3    3    0    0  0.52234492447E+02  0.33808536521E+02  0.51009098119E+02  0.80463578306E+02  0.10000000000E+01 0.  0.
    9000005    1    3    3    0    0 -0.52234492447E+02 -0.33808536521E+02  0.36654110023E+02  0.72221763510E+02  0.10000000000E+01 0.  0.
<mgrwt>
<rscale>  0 0.12501190E+03</rscale>
<asrwt>0</asrwt>
<pdfrwt beam="1">  1        4 0.18488350E-01 0.12501190E+03</pdfrwt>
<pdfrwt beam="2">  1       -4 0.50017025E-02 0.12501190E+03</pdfrwt>
<totfact> 0.98744640E+03</totfact>
</mgrwt>
</event>
<event>
 5    1  0.3340698E-002  0.1249976E+03  0.7818608E-02  0.1235073E+00
         -4   -1    0    0    0  501 -0.00000000000E+00  0.00000000000E+00  0.65508777017E+03  0.65508900122E+03  0.12700000000E+01 0. -1.
          4   -1    0    0  501    0  0.00000000000E+00 -0.00000000000E+00 -0.58938344886E+01  0.60291114585E+01  0.12700000000E+01 0. -1.
         25    2    1    2    0    0  0.00000000000E+00  0.00000000000E+00  0.64919393568E+03  0.66111811268E+03  0.12499757115E+03 0.  0.
    9000005    1    3    3    0    0  0.59518536439E+02  0.10202791930E+02  0.23955259172E+03  0.24704857284E+03  0.10000000000E+01 0.  0.
    9000005    1    3    3    0    0 -0.59518536439E+02 -0.10202791930E+02  0.40964134396E+03  0.41406953984E+03  0.10000000000E+01 0.  0.
<mgrwt>
<rscale>  0 0.12499757E+03</rscale>
<asrwt>0</asrwt>
<pdfrwt beam="2">  1        4 0.91724460E-03 0.12499757E+03</pdfrwt>
<pdfrwt beam="1">  1       -4 0.10079321E+00 0.12499757E+03</pdfrwt>
<totfact> 0.45222496E+03</totfact>
</mgrwt>
</event>
<event>
 5    1  0.3340698E-002  0.1249986E+03  0.7818608E-02  0.1235072E+00
          4   -1    0    0  501    0  0.00000000000E+00  0.00000000000E+00  0.71458833393E+03  0.71458946248E+03  0.12700000000E+01 0.  1.
         -4   -1    0    0    0  501 -0.00000000000E+00 -0.00000000000E+00 -0.53913942167E+01  0.55389558222E+01  0.12700000000E+01 0.  1.
         25    2    1    2    0    0  0.00000000000E+00  0.00000000000E+00  0.70919693972E+03  0.72012841831E+03  0.12499855819E+03 0.  0.
    9000005    1    3    3    0    0  0.28909999507E+02  0.54291798580E+02  0.41817245256E+03  0.42267314505E+03  0.10000000000E+01 0.  0.
    9000005    1    3    3    0    0 -0.28909999507E+02 -0.54291798580E+02  0.29102448715E+03  0.29745527326E+03  0.10000000000E+01 0.  0.
<mgrwt>
<rscale>  0 0.12499856E+03</rscale>
<asrwt>0</asrwt>
<pdfrwt beam="1">  1        4 0.10994807E+00 0.12499856E+03</pdfrwt>
<pdfrwt beam="2">  1       -4 0.84088326E-03 0.12499856E+03</pdfrwt>
<totfact> 0.42046547E+03</totfact>
</mgrwt>
</event>
<event>
 5    1  0.3340698E-002  0.1249980E+03  0.7818608E-02  0.1235072E+00
         -4   -1    0    0    0  501 -0.00000000000E+00  0.00000000000E+00  0.12859915643E+02  0.12922473847E+02  0.12700000000E+01 0. -1.
          4   -1    0    0  501    0  0.00000000000E+00 -0.00000000000E+00 -0.30294338175E+03  0.30294604378E+03  0.12700000000E+01 0. -1.
         25    2    1    2    0    0  0.00000000000E+00  0.00000000000E+00 -0.29008346610E+03  0.31586851763E+03  0.12499801248E+03 0.  0.
    9000005    1    3    3    0    0 -0.23403945660E+02  0.52234537775E+02 -0.20841496128E+03  0.21613418909E+03  0.10000000000E+01 0.  0.
    9000005    1    3    3    0    0  0.23403945660E+02 -0.52234537775E+02 -0.81668504825E+02  0.99734328540E+02  0.10000000000E+01 0.  0.
<mgrwt>
<rscale>  0 0.12499801E+03</rscale>
<asrwt>0</asrwt>
<pdfrwt beam="2">  1        4 0.46611686E-01 0.12499801E+03</pdfrwt>
<pdfrwt beam="1">  1       -4 0.19834657E-02 0.12499801E+03</pdfrwt>
<totfact> 0.73653467E+03</totfact>
</mgrwt>
</event>
<event>
 5    1  0.3340698E-002  0.1250031E+03  0.7818608E-02  0.1235064E+00
          4   -1    0    0  501    0  0.00000000000E+00  0.00000000000E+00  0.91056046607E+03  0.91056135173E+03  0.12700000000E+01 0. -1.
         -4   -1    0    0    0  501 -0.00000000000E+00 -0.00000000000E+00 -0.41952549175E+01  0.43832709046E+01  0.12700000000E+01 0. -1.
         25    2    1    2    0    0  0.00000000000E+00  0.00000000000E+00  0.90636521115E+03  0.91494462264E+03  0.12500306599E+03 0.  0.
    9000005    1    3    3    0    0  0.42305892427E+01  0.14350440808E+02  0.89729505866E+03  0.89742033369E+03  0.10000000000E+01 0.  0.
    9000005    1    3    3    0    0 -0.42305892427E+01 -0.14350440808E+02  0.90701524977E+01  0.17524288946E+02  0.10000000000E+01 0.  0.
<mgrwt>
<rscale>  0 0.12500307E+03</rscale>
<asrwt>0</asrwt>
<pdfrwt beam="1">  1        4 0.14010082E+00 0.12500307E+03</pdfrwt>
<pdfrwt beam="2">  1       -4 0.65995443E-03 0.12500307E+03</pdfrwt>
<totfact> 0.33591840E+03</totfact>
</mgrwt>
</event>
<event>
 5    1  0.3340698E-002  0.1249967E+03  0.7818608E-02  0.1235074E+00
          4   -1    0    0  501    0  0.00000000000E+00  0.00000000000E+00  0.74834621165E+02  0.74845396818E+02  0.12700000000E+01 0. -1.
         -4   -1    0    0    0  501 -0.00000000000E+00 -0.00000000000E+00 -0.52173384088E+02  0.52188838914E+02  0.12700000000E+01 0. -1.
         25    2    1    2    0    0  0.00000000000E+00  0.00000000000E+00  0.22661237077E+02  0.12703423573E+03  0.12499666148E+03 0.  0.
    9000005    1    3    3    0    0  0.29712853961E+02 -0.51220556471E+02 -0.89608756528E+01  0.59897382148E+02  0.10000000000E+01 0.  0.
    9000005    1    3    3    0    0 -0.29712853961E+02  0.51220556471E+02  0.31622112730E+02  0.67136853584E+02  0.10000000000E+01 0.  0.
<mgrwt>
<rscale>  0 0.12499666E+03</rscale>
<asrwt>0</asrwt>
<pdfrwt beam="1">  1        4 0.11515036E-01 0.12499666E+03</pdfrwt>
<pdfrwt beam="2">  1       -4 0.80286922E-02 0.12499666E+03</pdfrwt>
<totfact> 0.10409186E+04</totfact>
</mgrwt>
</event>
<event>
 5    1  0.3340698E-002  0.1249973E+03  0.7818608E-02  0.1235073E+00
          4   -1    0    0  501    0  0.00000000000E+00  0.00000000000E+00  0.31496679040E+02  0.31522272928E+02  0.12700000000E+01 0. -1.
         -4   -1    0    0    0  501 -0.00000000000E+00 -0.00000000000E+00 -0.12393647890E+03  0.12394298569E+03  0.12700000000E+01 0. -1.
         25    2    1    2    0    0  0.00000000000E+00  0.00000000000E+00 -0.92439799859E+02  0.15546525862E+03  0.12499732013E+03 0.  0.
    9000005    1    3    3    0    0  0.24437178515E+02 -0.55092295893E+02 -0.66760430009E+02  0.89946049249E+02  0.10000000000E+01 0.  0.
    9000005    1    3    3    0    0 -0.24437178515E+02  0.55092295893E+02 -0.25679369850E+02  0.65519209370E+02  0.10000000000E+01 0.  0.
<mgrwt>
<rscale>  0 0.12499732E+03</rscale>
<asrwt>0</asrwt>
<pdfrwt beam="1">  1        4 0.48481123E-02 0.12499732E+03</pdfrwt>
<pdfrwt beam="2">  1       -4 0.19069620E-01 0.12499732E+03</pdfrwt>
<totfact> 0.98230160E+03</totfact>
</mgrwt>
</event>
<event>
 5    1  0.3340698E-002  0.1249985E+03  0.7818608E-02  0.1235072E+00
          4   -1    0    0  501    0  0.00000000000E+00  0.00000000000E+00  0.45899586912E+03  0.45899762610E+03  0.12700000000E+01 0.  1.
         -4   -1    0    0    0  501 -0.00000000000E+00 -0.00000000000E+00 -0.84610523181E+01  0.85558346366E+01  0.12700000000E+01 0.  1.
         25    2    1    2    0    0  0.00000000000E+00  0.00000000000E+00  0.45053481680E+03  0.46755346074E+03  0.12499846999E+03 0.  0.
    9000005    1    3    3    0    0  0.16657415045E+02  0.59737424988E+02  0.19650587811E+03  0.20606210120E+03  0.10000000000E+01 0.  0.
    9000005    1    3    3    0    0 -0.16657415045E+02 -0.59737424988E+02  0.25402893870E+03  0.26149135954E+03  0.10000000000E+01 0.  0.
<mgrwt>
<rscale>  0 0.12499847E+03</rscale>
<asrwt>0</asrwt>
<pdfrwt beam="1">  1        4 0.70622156E-01 0.12499847E+03</pdfrwt>
<pdfrwt beam="2">  1       -4 0.13091268E-02 0.12499847E+03</pdfrwt>
<totfact> 0.58474717E+03</totfact>
</mgrwt>
</event>
<event>
 5    1  0.3340698E-002  0.1249919E+03  0.7818608E-02  0.1235082E+00
         -4   -1    0    0    0  501 -0.00000000000E+00  0.00000000000E+00  0.21519947775E+02  0.21557389736E+02  0.12700000000E+01 0. -1.
          4   -1    0    0  501    0  0.00000000000E+00 -0.00000000000E+00 -0.18129673434E+03  0.18130118252E+03  0.12700000000E+01 0. -1.
         25    2    1    2    0    0  0.00000000000E+00  0.00000000000E+00 -0.15977678657E+03  0.20285857226E+03  0.12499191499E+03 0.  0.
    9000005    1    3    3    0    0 -0.55805069067E+02  0.15879537319E+02 -0.11754625054E+03  0.13108961231E+03  0.10000000000E+01 0.  0.
    9000005    1    3    3    0    0  0.55805069067E+02 -0.15879537319E+02 -0.42230536030E+02  0.71768959951E+02  0.10000000000E+01 0.  0.
<mgrwt>
<rscale>  0 0.12499191E+03</rscale>
<asrwt>0</asrwt>
<pdfrwt beam="2">  1        4 0.27895027E-01 0.12499191E+03</pdfrwt>
<pdfrwt beam="1">  1       -4 0.33139836E-02 0.12499191E+03</pdfrwt>
<totfact> 0.89671833E+03</totfact>
</mgrwt>
</event>
<event>
 5    1  0.3340698E-002  0.1250018E+03  0.7818608E-02  0.1235066E+00
         -4   -1    0    0    0  501 -0.00000000000E+00  0.00000000000E+00  0.16625650778E+03  0.16626135835E+03  0.12700000000E+01 0. -1.
          4   -1    0    0  501    0  0.00000000000E+00 -0.00000000000E+00 -0.23473648310E+02  0.23507978751E+02  0.12700000000E+01 0. -1.
         25    2    1    2    0    0  0.00000000000E+00  0.00000000000E+00  0.14278285947E+03  0.18976933710E+03  0.12500182536E+03 0.  0.
    9000005    1    3    3    0    0 -0.22900045658E+02  0.57986808909E+02  0.77917985018E+02  0.99795262853E+02  0.10000000000E+01 0.  0.
    9000005    1    3    3    0    0  0.22900045658E+02 -0.57986808909E+02  0.64864874454E+02  0.89974074247E+02  0.10000000000E+01 0.  0.
<mgrwt>
<rscale>  0 0.12500183E+03</rscale>
<asrwt>0</asrwt>
<pdfrwt beam="2">  1        4 0.36143446E-02 0.12500183E+03</pdfrwt>
<pdfrwt beam="1">  1       -4 0.25580937E-01 0.12500183E+03</pdfrwt>
<totfact> 0.91883708E+03</totfact>
</mgrwt>
</event>
<event>
 5    1  0.3340698E-002  0.1250005E+03  0.7818608E-02  0.1235068E+00
          4   -1    0    0  501    0  0.00000000000E+00  0.00000000000E+00  0.47703907676E+02  0.47720810005E+02  0.12700000000E+01 0.  1.
         -4   -1    0    0    0  501 -0.00000000000E+00 -0.00000000000E+00 -0.81849702716E+02  0.81859554938E+02  0.12700000000E+01 0.  1.
         25    2    1    2    0    0  0.00000000000E+00  0.00000000000E+00 -0.34145795039E+02  0.12958036494E+03  0.12500054264E+03 0.  0.
    9000005    1    3    3    0    0  0.59448987249E+02  0.73070698908E+00  0.28825373791E+01  0.59531714568E+02  0.10000000000E+01 0.  0.
    9000005    1    3    3    0    0 -0.59448987249E+02 -0.73070698908E+00 -0.37028332418E+02  0.70048650375E+02  0.10000000000E+01 0.  0.
<mgrwt>
<rscale>  0 0.12500054E+03</rscale>
<asrwt>0</asrwt>
<pdfrwt beam="1">  1        4 0.73411208E-02 0.12500054E+03</pdfrwt>
<pdfrwt beam="2">  1       -4 0.12594320E-01 0.12500054E+03</pdfrwt>
<totfact> 0.10353366E+04</totfact>
</mgrwt>
</event>
<event>
 5    1  0.3340698E-002  0.1250008E+03  0.7818608E-02  0.1235068E+00
          4   -1    0    0  501    0  0.00000000000E+00  0.00000000000E+00  0.69660062046E+02  0.69671638019E+02  0.12700000000E+01 0. -1.
         -4   -1    0    0    0  501 -0.00000000000E+00 -0.00000000000E+00 -0.56053186121E+02  0.56067571504E+02  0.12700000000E+01 0. -1.
         25    2    1    2    0    0  0.00000000000E+00  0.00000000000E+00  0.13606875925E+02  0.12573920952E+03  0.12500080695E+03 0.  0.
    9000005    1    3    3    0    0 -0.45654394314E+02 -0.28547304272E+02  0.38708748209E+02  0.66322239779E+02  0.10000000000E+01 0.  0.
    9000005    1    3    3    0    0  0.45654394314E+02  0.28547304272E+02 -0.25101872284E+02  0.59416969744E+02  0.10000000000E+01 0.  0.
<mgrwt>
<rscale>  0 0.12500081E+03</rscale>
<asrwt>0</asrwt>
<pdfrwt beam="1">  1        4 0.10718930E-01 0.12500081E+03</pdfrwt>
<pdfrwt beam="2">  1       -4 0.86255642E-02 0.12500081E+03</pdfrwt>
<totfact> 0.10436492E+04</totfact>
</mgrwt>
</event>
<event>
 5    1  0.3340698E-002  0.1249991E+03  0.7818608E-02  0.1235071E+00
          4   -1    0    0  501    0  0.00000000000E+00  0.00000000000E+00  0.20990703191E+03  0.20991087381E+03  0.12700000000E+01 0. -1.
         -4   -1    0    0    0  501 -0.00000000000E+00 -0.00000000000E+00 -0.18583472643E+02  0.18626818179E+02  0.12700000000E+01 0. -1.
         25    2    1    2    0    0  0.00000000000E+00  0.00000000000E+00  0.19132355926E+03  0.22853769199E+03  0.12499908932E+03 0.  0.
    9000005    1    3    3    0    0  0.43861664465E+02  0.24465715811E+02  0.16364894586E+03  0.17118526321E+03  0.10000000000E+01 0.  0.
    9000005    1    3    3    0    0 -0.43861664465E+02 -0.24465715811E+02  0.27674613405E+02  0.57352428780E+02  0.10000000000E+01 0.  0.
<mgrwt>
<rscale>  0 0.12499909E+03</rscale>
<asrwt>0</asrwt>
<pdfrwt beam="1">  1        4 0.32297022E-01 0.12499909E+03</pdfrwt>
<pdfrwt beam="2">  1       -4 0.28626254E-02 0.12499909E+03</pdfrwt>
<totfact> 0.85536378E+03</totfact>
</mgrwt>
</event>
<event>
 5    1  0.3340698E-002  0.1249992E+03  0.7818608E-02  0.1235071E+00
          4   -1    0    0  501    0  0.00000000000E+00  0.00000000000E+00  0.19757818893E+03  0.19758227057E+03  0.12700000000E+01 0.  1.
         -4   -1    0    0    0  501 -0.00000000000E+00 -0.00000000000E+00 -0.19745718603E+02  0.19786518217E+02  0.12700000000E+01 0.  1.
         25    2    1    2    0    0  0.00000000000E+00  0.00000000000E+00  0.17783247033E+03  0.21736878878E+03  0.12499921133E+03 0.  0.
    9000005    1    3    3    0    0  0.59816741423E+01 -0.36293118006E+02  0.17676786155E+03  0.18055704837E+03  0.10000000000E+01 0.  0.
    9000005    1    3    3    0    0 -0.59816741423E+01  0.36293118006E+02  0.10646087803E+01  0.36811740410E+02  0.10000000000E+01 0.  0.
<mgrwt>
<rscale>  0 0.12499921E+03</rscale>
<asrwt>0</asrwt>
<pdfrwt beam="1">  1        4 0.30400096E-01 0.12499921E+03</pdfrwt>
<pdfrwt beam="2">  1       -4 0.30412553E-02 0.12499921E+03</pdfrwt>
<totfact> 0.87287962E+03</totfact>
</mgrwt>
</event>
<event>
 5    1  0.3340698E-002  0.1249863E+03  0.7818608E-02  0.1235091E+00
         -4   -1    0    0    0  501 -0.00000000000E+00  0.00000000000E+00  0.15907337019E+03  0.15907843978E+03  0.12700000000E+01 0. -1.
          4   -1    0    0  501    0  0.00000000000E+00 -0.00000000000E+00 -0.24529015255E+02  0.24561870641E+02  0.12700000000E+01 0. -1.
         25    2    1    2    0    0  0.00000000000E+00  0.00000000000E+00  0.13454435494E+03  0.18364031042E+03  0.12498631992E+03 0.  0.
    9000005    1    3    3    0    0 -0.14006324821E+00  0.39043785849E+02 -0.44065362039E+01  0.39304635763E+02  0.10000000000E+01 0.  0.
    9000005    1    3    3    0    0  0.14006324821E+00 -0.39043785849E+02  0.13895089114E+03  0.14433567466E+03  0.10000000000E+01 0.  0.
<mgrwt>
<rscale>  0 0.12498632E+03</rscale>
<asrwt>0</asrwt>
<pdfrwt beam="2">  1        4 0.37766118E-02 0.12498632E+03</pdfrwt>
<pdfrwt beam="1">  1       -4 0.24475744E-01 0.12498632E+03</pdfrwt>
<totfact> 0.92994319E+03</totfact>
</mgrwt>
</event>
<event>
 4    1  0.3340698E-002  0.1250737E+03  0.7818608E-02  0.1234954E+00
         -4   -1    0    0    0  501 -0.00000000000E+00  0.00000000000E+00  0.31685299588E+03  0.31685554106E+03  0.12700000000E+01 0.  1.
          4   -1    0    0  501    0  0.00000000000E+00 -0.00000000000E+00 -0.12307546123E+02  0.12372897460E+02  0.12700000000E+01 0.  1.
    9000005    1    1    2    0    0  0.26932064071E+02 -0.20228694752E+01  0.38247614094E+01  0.27295729993E+02  0.10000000000E+01 0.  0.
    9000005    1    1    2    0    0 -0.26932064071E+02  0.20228694752E+01  0.30072068835E+03  0.30193270852E+03  0.10000000000E+01 0.  0.
<mgrwt>
<rscale>  0 0.12507371E+03</rscale>
<asrwt>0</asrwt>
<pdfrwt beam="2">  1        4 0.18986912E-02 0.12507371E+03</pdfrwt>
<pdfrwt beam="1">  1       -4 0.48751844E-01 0.12507371E+03</pdfrwt>
<totfact> 0.71954220E+03</totfact>
</mgrwt>
</event>
<event>
 5    1  0.3340698E-002  0.1250010E+03  0.7818608E-02  0.1235068E+00
         -4   -1    0    0    0  501 -0.00000000000E+00  0.00000000000E+00  0.18865332866E+03  0.18865760338E+03  0.12700000000E+01 0. -1.
          4   -1    0    0  501    0  0.00000000000E+00 -0.00000000000E+00 -0.20682302311E+02  0.20721257898E+02  0.12700000000E+01 0. -1.
         25    2    1    2    0    0  0.00000000000E+00  0.00000000000E+00  0.16797102634E+03  0.20937886128E+03  0.12500096743E+03 0.  0.
    9000005    1    3    3    0    0  0.28774469498E+02 -0.51069008042E+02  0.12027186022E+03  0.13379960403E+03  0.10000000000E+01 0.  0.
    9000005    1    3    3    0    0 -0.28774469498E+02  0.51069008042E+02  0.47699166123E+02  0.75579257248E+02  0.10000000000E+01 0.  0.
<mgrwt>
<rscale>  0 0.12500097E+03</rscale>
<asrwt>0</asrwt>
<pdfrwt beam="2">  1        4 0.31852181E-02 0.12500097E+03</pdfrwt>
<pdfrwt beam="1">  1       -4 0.29026914E-01 0.12500097E+03</pdfrwt>
<totfact> 0.88575506E+03</totfact>
</mgrwt>
</event>
<event>
 5    1  0.3340698E-002  0.1250002E+03  0.7818608E-02  0.1235069E+00
         -4   -1    0    0    0  501 -0.00000000000E+00  0.00000000000E+00  0.16643549014E+04  0.16643553859E+04  0.12700000000E+01 0. -1.
          4   -1    0    0  501    0  0.00000000000E+00 -0.00000000000E+00 -0.21746895499E+01  0.25183674550E+01  0.12700000000E+01 0. -1.
         25    2    1    2    0    0  0.00000000000E+00  0.00000000000E+00  0.16621802118E+04  0.16668737533E+04  0.12500021239E+03 0.  0.
    9000005    1    3    3    0    0  0.63642910154E+01  0.34807422299E+02  0.14421599081E+03  0.14849684459E+03  0.10000000000E+01 0.  0.
    9000005    1    3    3    0    0 -0.63642910154E+01 -0.34807422299E+02  0.15179642210E+04  0.15183769088E+04  0.10000000000E+01 0.  0.
<mgrwt>
<rscale>  0 0.12500021E+03</rscale>
<asrwt>0</asrwt>
<pdfrwt beam="2">  1        4 0.36104068E-03 0.12500021E+03</pdfrwt>
<pdfrwt beam="1">  1       -4 0.25608177E+00 0.12500021E+03</pdfrwt>
<totfact> 0.14867998E+03</totfact>
</mgrwt>
</event>
<event>
 5    1  0.3340698E-002  0.1250010E+03  0.7818608E-02  0.1235068E+00
         -4   -1    0    0    0  501 -0.00000000000E+00  0.00000000000E+00  0.85710112392E+02  0.85719520917E+02  0.12700000000E+01 0.  1.
          4   -1    0    0  501    0  0.00000000000E+00 -0.00000000000E+00 -0.45555121587E+02  0.45572820878E+02  0.12700000000E+01 0.  1.
         25    2    1    2    0    0  0.00000000000E+00  0.00000000000E+00  0.40154990805E+02  0.13129234180E+03  0.12500102291E+03 0.  0.
    9000005    1    3    3    0    0  0.10051571394E+02  0.23341177542E+02  0.80042693615E+02  0.83986174206E+02  0.10000000000E+01 0.  0.
    9000005    1    3    3    0    0 -0.10051571394E+02 -0.23341177542E+02 -0.39887702810E+02  0.47306167590E+02  0.10000000000E+01 0.  0.
<mgrwt>
<rscale>  0 0.12500102E+03</rscale>
<asrwt>0</asrwt>
<pdfrwt beam="2">  1        4 0.70105656E-02 0.12500102E+03</pdfrwt>
<pdfrwt beam="1">  1       -4 0.13188256E-01 0.12500102E+03</pdfrwt>
<totfact> 0.10316588E+04</totfact>
</mgrwt>
</event>
<event>
 5    1  0.3340698E-002  0.1250021E+03  0.7818608E-02  0.1235066E+00
          4   -1    0    0  501    0  0.00000000000E+00  0.00000000000E+00  0.11301977571E+04  0.11301984706E+04  0.12700000000E+01 0. -1.
         -4   -1    0    0    0  501 -0.00000000000E+00 -0.00000000000E+00 -0.33389711020E+01  0.35723420916E+01  0.12700000000E+01 0. -1.
         25    2    1    2    0    0  0.00000000000E+00  0.00000000000E+00  0.11268587860E+04  0.11337708127E+04  0.12500212893E+03 0.  0.
    9000005    1    3    3    0    0  0.30688857424E+02 -0.46036280608E+02  0.29989318049E+03  0.30495584075E+03  0.10000000000E+01 0.  0.
    9000005    1    3    3    0    0 -0.30688857424E+02  0.46036280608E+02  0.82696560548E+03  0.82881497196E+03  0.10000000000E+01 0.  0.
<mgrwt>
<rscale>  0 0.12500213E+03</rscale>
<asrwt>0</asrwt>
<pdfrwt beam="1">  1        4 0.17389460E+00 0.12500213E+03</pdfrwt>
<pdfrwt beam="2">  1       -4 0.53169431E-03 0.12500213E+03</pdfrwt>
<totfact> 0.26513622E+03</totfact>
</mgrwt>
</event>
<event>
 5    1  0.3340698E-002  0.1249994E+03  0.7818608E-02  0.1235070E+00
          4   -1    0    0  501    0  0.00000000000E+00  0.00000000000E+00  0.25324421933E+02  0.25356246691E+02  0.12700000000E+01 0. -1.
         -4   -1    0    0    0  501 -0.00000000000E+00 -0.00000000000E+00 -0.15411543914E+03  0.15412067181E+03  0.12700000000E+01 0. -1.
         25    2    1    2    0    0  0.00000000000E+00  0.00000000000E+00 -0.12879101720E+03  0.17947691851E+03  0.12499935265E+03 0.  0.
    9000005    1    3    3    0    0  0.14765112849E+02 -0.36309581335E+02 -0.13427768772E+03  0.13988528040E+03  0.10000000000E+01 0.  0.
    9000005    1    3    3    0    0 -0.14765112849E+02  0.36309581335E+02  0.54866705170E+01  0.39591638101E+02  0.10000000000E+01 0.  0.
<mgrwt>
<rscale>  0 0.12499935E+03</rscale>
<asrwt>0</asrwt>
<pdfrwt beam="1">  1        4 0.38989156E-02 0.12499935E+03</pdfrwt>
<pdfrwt beam="2">  1       -4 0.23712917E-01 0.12499935E+03</pdfrwt>
<totfact> 0.93712605E+03</totfact>
</mgrwt>
</event>
<event>
 5    1  0.3340698E-002  0.1249994E+03  0.7818608E-02  0.1235070E+00
          4   -1    0    0  501    0  0.00000000000E+00  0.00000000000E+00  0.61468591775E+03  0.61468722972E+03  0.12700000000E+01 0. -1.
         -4   -1    0    0    0  501 -0.00000000000E+00 -0.00000000000E+00 -0.62900221814E+01  0.64169524732E+01  0.12700000000E+01 0. -1.
         25    2    1    2    0    0  0.00000000000E+00  0.00000000000E+00  0.60839589557E+03  0.62110418220E+03  0.12499935757E+03 0.  0.
    9000005    1    3    3    0    0  0.21711307264E+02  0.58566825384E+02  0.29456816383E+03  0.30111934020E+03  0.10000000000E+01 0.  0.
    9000005    1    3    3    0    0 -0.21711307264E+02 -0.58566825384E+02  0.31382773174E+03  0.31998484200E+03  0.10000000000E+01 0.  0.
<mgrwt>
<rscale>  0 0.12499936E+03</rscale>
<asrwt>0</asrwt>
<pdfrwt beam="1">  1        4 0.94576946E-01 0.12499936E+03</pdfrwt>
<pdfrwt beam="2">  1       -4 0.97756033E-03 0.12499936E+03</pdfrwt>
<totfact> 0.47562650E+03</totfact>
</mgrwt>
</event>
<event>
 5    1  0.3340698E-002  0.1250046E+03  0.7818608E-02  0.1235062E+00
         -4   -1    0    0    0  501 -0.00000000000E+00  0.00000000000E+00  0.60729986742E+02  0.60743264562E+02  0.12700000000E+01 0.  1.
          4   -1    0    0  501    0  0.00000000000E+00 -0.00000000000E+00 -0.64299747006E+02  0.64312287823E+02  0.12700000000E+01 0.  1.
         25    2    1    2    0    0  0.00000000000E+00  0.00000000000E+00 -0.35697602646E+01  0.12505555239E+03  0.12500459189E+03 0.  0.
    9000005    1    3    3    0    0  0.39563772669E+02 -0.39281396078E+02  0.26461658531E+02  0.61721467561E+02  0.10000000000E+01 0.  0.
    9000005    1    3    3    0    0 -0.39563772669E+02  0.39281396078E+02 -0.30031418795E+02  0.63334084824E+02  0.10000000000E+01 0.  0.
<mgrwt>
<rscale>  0 0.12500459E+03</rscale>
<asrwt>0</asrwt>
<pdfrwt beam="2">  1        4 0.98942549E-02 0.12500459E+03</pdfrwt>
<pdfrwt beam="1">  1       -4 0.93450609E-02 0.12500459E+03</pdfrwt>
<totfact> 0.10450572E+04</totfact>
</mgrwt>
</event>
<event>
 5    1  0.3340698E-002  0.1249949E+03  0.7818608E-02  0.1235077E+00
         -4   -1    0    0    0  501 -0.00000000000E+00  0.00000000000E+00  0.69023768855E+02  0.69035451523E+02  0.12700000000E+01 0. -1.
          4   -1    0    0  501    0  0.00000000000E+00 -0.00000000000E+00 -0.56564585758E+02  0.56578841115E+02  0.12700000000E+01 0. -1.
         25    2    1    2    0    0  0.00000000000E+00  0.00000000000E+00  0.12459183097E+02  0.12561429264E+03  0.12499487698E+03 0.  0.
    9000005    1    3    3    0    0 -0.35408892451E+02  0.47291918733E+02 -0.14233400075E+02  0.60777503402E+02  0.10000000000E+01 0.  0.
    9000005    1    3    3    0    0  0.35408892451E+02 -0.47291918733E+02  0.26692583172E+02  0.64836789236E+02  0.10000000000E+01 0.  0.
<mgrwt>
<rscale>  0 0.12499488E+03</rscale>
<asrwt>0</asrwt>
<pdfrwt beam="2">  1        4 0.87042393E-02 0.12499488E+03</pdfrwt>
<pdfrwt beam="1">  1       -4 0.10621037E-01 0.12499488E+03</pdfrwt>
<totfact> 0.10440638E+04</totfact>
</mgrwt>
</event>
<event>
 5    1  0.3340698E-002  0.1250055E+03  0.7818608E-02  0.1235061E+00
          4   -1    0    0  501    0  0.00000000000E+00  0.00000000000E+00  0.39377714308E+03  0.39377919106E+03  0.12700000000E+01 0.  1.
         -4   -1    0    0    0  501 -0.00000000000E+00 -0.00000000000E+00 -0.98781034891E+01  0.99594090458E+01  0.12700000000E+01 0.  1.
         25    2    1    2    0    0  0.00000000000E+00  0.00000000000E+00  0.38389903959E+03  0.40373860011E+03  0.12500553835E+03 0.  0.
    9000005    1    3    3    0    0  0.43758081485E+02 -0.59453278075E+01  0.33477235689E+03  0.33767387752E+03  0.10000000000E+01 0.  0.
    9000005    1    3    3    0    0 -0.43758081485E+02  0.59453278075E+01  0.49126682703E+02  0.66064722594E+02  0.10000000000E+01 0.  0.
<mgrwt>
<rscale>  0 0.12500554E+03</rscale>
<asrwt>0</asrwt>
<pdfrwt beam="1">  1        4 0.60587509E-01 0.12500554E+03</pdfrwt>
<pdfrwt beam="2">  1       -4 0.15261201E-02 0.12500554E+03</pdfrwt>
<totfact> 0.64182947E+03</totfact>
</mgrwt>
</event>
<event>
 5    1  0.3340698E-002  0.1250022E+03  0.7818608E-02  0.1235066E+00
          4   -1    0    0  501    0  0.00000000000E+00  0.00000000000E+00  0.34012002585E+02  0.34035705073E+02  0.12700000000E+01 0. -1.
         -4   -1    0    0    0  501 -0.00000000000E+00 -0.00000000000E+00 -0.11478604605E+03  0.11479307151E+03  0.12700000000E+01 0. -1.
         25    2    1    2    0    0  0.00000000000E+00  0.00000000000E+00 -0.80774043463E+02  0.14882877659E+03  0.12500223455E+03 0.  0.
    9000005    1    3    3    0    0  0.49599100615E+02 -0.15585376106E+02  0.89836102888E+00  0.52007516598E+02  0.10000000000E+01 0.  0.
    9000005    1    3    3    0    0 -0.49599100615E+02  0.15585376106E+02 -0.81672404492E+02  0.96821259988E+02  0.10000000000E+01 0.  0.
<mgrwt>
<rscale>  0 0.12500223E+03</rscale>
<asrwt>0</asrwt>
<pdfrwt beam="1">  1        4 0.52349795E-02 0.12500223E+03</pdfrwt>
<pdfrwt beam="2">  1       -4 0.17661755E-01 0.12500223E+03</pdfrwt>
<totfact> 0.99532671E+03</totfact>
</mgrwt>
</event>
<event>
 5    1  0.3340698E-002  0.1249966E+03  0.7818608E-02  0.1235075E+00
         -4   -1    0    0    0  501 -0.00000000000E+00  0.00000000000E+00  0.12792029290E+02  0.12854917867E+02  0.12700000000E+01 0.  1.
          4   -1    0    0  501    0  0.00000000000E+00 -0.00000000000E+00 -0.30453619451E+03  0.30453884263E+03  0.12700000000E+01 0.  1.
         25    2    1    2    0    0  0.00000000000E+00  0.00000000000E+00 -0.29174416522E+03  0.31739376049E+03  0.12499656499E+03 0.  0.
    9000005    1    3    3    0    0  0.52865992737E+02 -0.29052015840E+02 -0.10444289920E+03  0.12061572039E+03  0.10000000000E+01 0.  0.
    9000005    1    3    3    0    0 -0.52865992737E+02  0.29052015840E+02 -0.18730126602E+03  0.19677804010E+03  0.10000000000E+01 0.  0.
<mgrwt>
<rscale>  0 0.12499656E+03</rscale>
<asrwt>0</asrwt>
<pdfrwt beam="2">  1        4 0.46856758E-01 0.12499656E+03</pdfrwt>
<pdfrwt beam="1">  1       -4 0.19730460E-02 0.12499656E+03</pdfrwt>
<totfact> 0.73472776E+03</totfact>
</mgrwt>
</event>
<event>
 5    1  0.3340698E-002  0.1249959E+03  0.7818608E-02  0.1235076E+00
          4   -1    0    0  501    0  0.00000000000E+00  0.00000000000E+00  0.15240194841E+04  0.15240200133E+04  0.12700000000E+01 0.  1.
         -4   -1    0    0    0  501 -0.00000000000E+00 -0.00000000000E+00 -0.24050665068E+01  0.27197876575E+01  0.12700000000E+01 0.  1.
         25    2    1    2    0    0  0.00000000000E+00  0.00000000000E+00  0.15216144176E+04  0.15267398009E+04  0.12499593545E+03 0.  0.
    9000005    1    3    3    0    0  0.23835112617E+02  0.99628439177E+00  0.14662715211E+04  0.14664659147E+04  0.10000000000E+01 0.  0.
    9000005    1    3    3    0    0 -0.23835112617E+02 -0.99628439177E+00  0.55342896479E+02  0.60273886276E+02  0.10000000000E+01 0.  0.
<mgrwt>
<rscale>  0 0.12499594E+03</rscale>
<asrwt>0</asrwt>
<pdfrwt beam="1">  1        4 0.23448972E+00 0.12499594E+03</pdfrwt>
<pdfrwt beam="2">  1       -4 0.39425869E-03 0.12499594E+03</pdfrwt>
<totfact> 0.17412143E+03</totfact>
</mgrwt>
</event>
<event>
 5    1  0.3340698E-002  0.1250528E+03  0.7818608E-02  0.1234987E+00
         -4   -1    0    0    0  501 -0.00000000000E+00  0.00000000000E+00  0.93258799284E+02  0.93267446324E+02  0.12700000000E+01 0.  1.
          4   -1    0    0  501    0  0.00000000000E+00 -0.00000000000E+00 -0.41901329567E+02  0.41920571555E+02  0.12700000000E+01 0.  1.
         25    2    1    2    0    0  0.00000000000E+00  0.00000000000E+00  0.51357469717E+02  0.13518801788E+03  0.12505283077E+03 0.  0.
    9000005    1    3    3    0    0 -0.34343558313E+02 -0.13678813727E+02  0.80182845593E+02  0.88299935844E+02  0.10000000000E+01 0.  0.
    9000005    1    3    3    0    0  0.34343558313E+02  0.13678813727E+02 -0.28825375876E+02  0.46888082036E+02  0.10000000000E+01 0.  0.
<mgrwt>
<rscale>  0 0.12505283E+03</rscale>
<asrwt>0</asrwt>
<pdfrwt beam="2">  1        4 0.64485038E-02 0.12505283E+03</pdfrwt>
<pdfrwt beam="1">  1       -4 0.14349653E-01 0.12505283E+03</pdfrwt>
<totfact> 0.10221926E+04</totfact>
</mgrwt>
</event>
<event>
 5    1  0.3340698E-002  0.1249940E+03  0.7818608E-02  0.1235079E+00
          4   -1    0    0  501    0  0.00000000000E+00  0.00000000000E+00  0.64094148715E+02  0.64106729752E+02  0.12700000000E+01 0. -1.
         -4   -1    0    0    0  501 -0.00000000000E+00 -0.00000000000E+00 -0.60914438141E+02  0.60927675764E+02  0.12700000000E+01 0. -1.
         25    2    1    2    0    0  0.00000000000E+00  0.00000000000E+00  0.31797105744E+01  0.12503440552E+03  0.12499396787E+03 0.  0.
    9000005    1    3    3    0    0  0.39528432795E+02  0.12750136214E+02  0.48293395481E+02  0.63704905775E+02  0.10000000000E+01 0.  0.
    9000005    1    3    3    0    0 -0.39528432795E+02 -0.12750136214E+02 -0.45113684906E+02  0.61329499742E+02  0.10000000000E+01 0.  0.
<mgrwt>
<rscale>  0 0.12499397E+03</rscale>
<asrwt>0</asrwt>
<pdfrwt beam="1">  1        4 0.98626243E-02 0.12499397E+03</pdfrwt>
<pdfrwt beam="2">  1       -4 0.93734381E-02 0.12499397E+03</pdfrwt>
<totfact> 0.10453540E+04</totfact>
</mgrwt>
</event>
<event>
 5    1  0.3340698E-002  0.1249976E+03  0.7818608E-02  0.1235073E+00
         -4   -1    0    0    0  501 -0.00000000000E+00  0.00000000000E+00  0.81960723310E+01  0.82938833881E+01  0.12700000000E+01 0.  1.
          4   -1    0    0  501    0  0.00000000000E+00 -0.00000000000E+00 -0.47365615790E+03  0.47365786051E+03  0.12700000000E+01 0.  1.
         25    2    1    2    0    0  0.00000000000E+00  0.00000000000E+00 -0.46546008557E+03  0.48195174389E+03  0.12499756870E+03 0.  0.
    9000005    1    3    3    0    0 -0.29116814413E+02  0.36335269048E+02 -0.72032560125E+02  0.85777213620E+02  0.10000000000E+01 0.  0.
    9000005    1    3    3    0    0  0.29116814413E+02 -0.36335269048E+02 -0.39342752545E+03  0.39617453027E+03  0.10000000000E+01 0.  0.
<mgrwt>
<rscale>  0 0.12499757E+03</rscale>
<asrwt>0</asrwt>
<pdfrwt beam="2">  1        4 0.72877811E-01 0.12499757E+03</pdfrwt>
<pdfrwt beam="1">  1       -4 0.12685895E-02 0.12499757E+03</pdfrwt>
<totfact> 0.57295468E+03</totfact>
</mgrwt>
</event>
<event>
 5    1  0.3340698E-002  0.1250017E+03  0.7818608E-02  0.1235067E+00
          4   -1    0    0  501    0  0.00000000000E+00  0.00000000000E+00  0.23357684597E+03  0.23358029856E+03  0.12700000000E+01 0. -1.
         -4   -1    0    0    0  501 -0.00000000000E+00 -0.00000000000E+00 -0.16696391403E+02  0.16744622596E+02  0.12700000000E+01 0. -1.
         25    2    1    2    0    0  0.00000000000E+00  0.00000000000E+00  0.21688045457E+03  0.25032492115E+03  0.12500173829E+03 0.  0.
    9000005    1    3    3    0    0 -0.23418318001E+02 -0.30964456925E+02  0.20650784219E+03  0.21012782800E+03  0.10000000000E+01 0.  0.
    9000005    1    3    3    0    0  0.23418318001E+02  0.30964456925E+02  0.10372612373E+02  0.40197093154E+02  0.10000000000E+01 0.  0.
<mgrwt>
<rscale>  0 0.12500174E+03</rscale>
<asrwt>0</asrwt>
<pdfrwt beam="1">  1        4 0.35938872E-01 0.12500174E+03</pdfrwt>
<pdfrwt beam="2">  1       -4 0.25726515E-02 0.12500174E+03</pdfrwt>
<totfact> 0.82280105E+03</totfact>
</mgrwt>
</event>
<event>
 5    1  0.3340698E-002  0.1250186E+03  0.7818608E-02  0.1235040E+00
         -4   -1    0    0    0  501 -0.00000000000E+00  0.00000000000E+00  0.16450488612E+03  0.16450978834E+03  0.12700000000E+01 0.  1.
          4   -1    0    0  501    0  0.00000000000E+00 -0.00000000000E+00 -0.23730345070E+02  0.23764304685E+02  0.12700000000E+01 0.  1.
         25    2    1    2    0    0  0.00000000000E+00  0.00000000000E+00  0.14077454105E+03  0.18827409302E+03  0.12501864939E+03 0.  0.
    9000005    1    3    3    0    0  0.17071228954E+02 -0.59432803470E+01 -0.19715268437E+02  0.26766420172E+02  0.10000000000E+01 0.  0.
    9000005    1    3    3    0    0 -0.17071228954E+02  0.59432803470E+01  0.16048980949E+03  0.16150767285E+03  0.10000000000E+01 0.  0.
<mgrwt>
<rscale>  0 0.12501865E+03</rscale>
<asrwt>0</asrwt>
<pdfrwt beam="2">  1        4 0.36538116E-02 0.12501865E+03</pdfrwt>
<pdfrwt beam="1">  1       -4 0.25311434E-01 0.12501865E+03</pdfrwt>
<totfact> 0.92109996E+03</totfact>
</mgrwt>
</event>
<event>
 5    1  0.3340698E-002  0.1249751E+03  0.7818608E-02  0.1235108E+00
         -4   -1    0    0    0  501 -0.00000000000E+00  0.00000000000E+00  0.10917941119E+03  0.10918679740E+03  0.12700000000E+01 0.  1.
          4   -1    0    0  501    0  0.00000000000E+00 -0.00000000000E+00 -0.35744138177E+02  0.35766692802E+02  0.12700000000E+01 0.  1.
         25    2    1    2    0    0  0.00000000000E+00  0.00000000000E+00  0.73435273008E+02  0.14495349020E+03  0.12497509752E+03 0.  0.
    9000005    1    3    3    0    0 -0.48685030754E+02 -0.36275087129E+02  0.19609044725E+02  0.63809315940E+02  0.10000000000E+01 0.  0.
    9000005    1    3    3    0    0  0.48685030754E+02  0.36275087129E+02  0.53826228284E+02  0.81144174264E+02  0.10000000000E+01 0.  0.
<mgrwt>
<rscale>  0 0.12497510E+03</rscale>
<asrwt>0</asrwt>
<pdfrwt beam="2">  1        4 0.55014014E-02 0.12497510E+03</pdfrwt>
<pdfrwt beam="1">  1       -4 0.16799135E-01 0.12497510E+03</pdfrwt>
<totfact> 0.10037561E+04</totfact>
</mgrwt>
</event>
<event>
 4    1  0.3340698E-002  0.1250946E+03  0.7818608E-02  0.1234921E+00
          4   -1    0    0  501    0  0.00000000000E+00  0.00000000000E+00  0.42038990464E+01  0.43915449664E+01  0.12700000000E+01 0. -1.
         -4   -1    0    0    0  501 -0.00000000000E+00 -0.00000000000E+00 -0.91010024505E+03  0.91010113116E+03  0.12700000000E+01 0. -1.
    9000005    1    1    2    0    0  0.60739441962E+02 -0.62064486237E+01 -0.35395585293E+03  0.35918455651E+03  0.10000000000E+01 0.  0.
    9000005    1    1    2    0    0 -0.60739441962E+02  0.62064486237E+01 -0.55194049307E+03  0.55530811961E+03  0.10000000000E+01 0.  0.
<mgrwt>
<rscale>  0 0.12509462E+03</rscale>
<asrwt>0</asrwt>
<pdfrwt beam="1">  1        4 0.66125689E-03 0.12509462E+03</pdfrwt>
<pdfrwt beam="2">  1       -4 0.14002977E+00 0.12509462E+03</pdfrwt>
<totfact> 0.33541748E+03</totfact>
</mgrwt>
</event>
<event>
 5    1  0.3340698E-002  0.1249992E+03  0.7818608E-02  0.1235071E+00
          4   -1    0    0  501    0  0.00000000000E+00  0.00000000000E+00  0.50213950943E+02  0.50230008653E+02  0.12700000000E+01 0. -1.
         -4   -1    0    0    0  501 -0.00000000000E+00 -0.00000000000E+00 -0.77757394869E+02  0.77767765538E+02  0.12700000000E+01 0. -1.
         25    2    1    2    0    0  0.00000000000E+00  0.00000000000E+00 -0.27543443926E+02  0.12799777419E+03  0.12499915558E+03 0.  0.
    9000005    1    3    3    0    0  0.24690428522E+02  0.17452524290E+02 -0.69773623334E+02  0.76049762510E+02  0.10000000000E+01 0.  0.
    9000005    1    3    3    0    0 -0.24690428522E+02 -0.17452524290E+02  0.42230179408E+02  0.51948011680E+02  0.10000000000E+01 0.  0.
<mgrwt>
<rscale>  0 0.12499916E+03</rscale>
<asrwt>0</asrwt>
<pdfrwt beam="1">  1        4 0.77272562E-02 0.12499916E+03</pdfrwt>
<pdfrwt beam="2">  1       -4 0.11964709E-01 0.12499916E+03</pdfrwt>
<totfact> 0.10387734E+04</totfact>
</mgrwt>
</event>
<event>
 5    1  0.3340698E-002  0.1249963E+03  0.7818608E-02  0.1235075E+00
         -4   -1    0    0    0  501 -0.00000000000E+00  0.00000000000E+00  0.34428550496E+02  0.34451966406E+02  0.12700000000E+01 0.  1.
          4   -1    0    0  501    0  0.00000000000E+00 -0.00000000000E+00 -0.11338737945E+03  0.11339449157E+03  0.12700000000E+01 0.  1.
         25    2    1    2    0    0  0.00000000000E+00  0.00000000000E+00 -0.78958828951E+02  0.14784645797E+03  0.12499631381E+03 0.  0.
    9000005    1    3    3    0    0 -0.23171618060E+01  0.36322665897E+02  0.20603366347E+02  0.41835439541E+02  0.10000000000E+01 0.  0.
    9000005    1    3    3    0    0  0.23171618060E+01 -0.36322665897E+02 -0.99562195298E+02  0.10601101843E+03  0.10000000000E+01 0.  0.
<mgrwt>
<rscale>  0 0.12499631E+03</rscale>
<asrwt>0</asrwt>
<pdfrwt beam="2">  1        4 0.17446560E-01 0.12499631E+03</pdfrwt>
<pdfrwt beam="1">  1       -4 0.52990484E-02 0.12499631E+03</pdfrwt>
<totfact> 0.99742995E+03</totfact>
</mgrwt>
</event>
<event>
 5    1  0.3340698E-002  0.1250047E+03  0.7818608E-02  0.1235062E+00
         -4   -1    0    0    0  501 -0.00000000000E+00  0.00000000000E+00  0.11671808050E+03  0.11672498968E+03  0.12700000000E+01 0. -1.
          4   -1    0    0  501    0  0.00000000000E+00 -0.00000000000E+00 -0.33449987251E+02  0.33474087696E+02  0.12700000000E+01 0. -1.
         25    2    1    2    0    0  0.00000000000E+00  0.00000000000E+00  0.83268093247E+02  0.15019907737E+03  0.12500474987E+03 0.  0.
    9000005    1    3    3    0    0 -0.56019369174E+02 -0.50730682305E+01  0.74355881792E+02  0.93240028427E+02  0.10000000000E+01 0.  0.
    9000005    1    3    3    0    0  0.56019369174E+02  0.50730682305E+01  0.89122114553E+01  0.56959048947E+02  0.10000000000E+01 0.  0.
<mgrwt>
<rscale>  0 0.12500475E+03</rscale>
<asrwt>0</asrwt>
<pdfrwt beam="2">  1        4 0.51485373E-02 0.12500475E+03</pdfrwt>
<pdfrwt beam="1">  1       -4 0.17959013E-01 0.12500475E+03</pdfrwt>
<totfact> 0.99253420E+03</totfact>
</mgrwt>
</event>
<event>
 5    1  0.3340698E-002  0.1249982E+03  0.7818608E-02  0.1235072E+00
          4   -1    0    0  501    0  0.00000000000E+00  0.00000000000E+00  0.23073389004E+02  0.23108314091E+02  0.12700000000E+01 0.  1.
         -4   -1    0    0    0  501 -0.00000000000E+00 -0.00000000000E+00 -0.16912664448E+03  0.16913141273E+03  0.12700000000E+01 0.  1.
         25    2    1    2    0    0  0.00000000000E+00  0.00000000000E+00 -0.14605325547E+03  0.19223972682E+03  0.12499823652E+03 0.  0.
    9000005    1    3    3    0    0 -0.45849349605E+00  0.13070372253E+02 -0.16700586853E+03  0.16752016288E+03  0.10000000000E+01 0.  0.
    9000005    1    3    3    0    0  0.45849349605E+00 -0.13070372253E+02  0.20952613062E+02  0.24719563937E+02  0.10000000000E+01 0.  0.
<mgrwt>
<rscale>  0 0.12499824E+03</rscale>
<asrwt>0</asrwt>
<pdfrwt beam="1">  1        4 0.35528056E-02 0.12499824E+03</pdfrwt>
<pdfrwt beam="2">  1       -4 0.26022536E-01 0.12499824E+03</pdfrwt>
<totfact> 0.91462676E+03</totfact>
</mgrwt>
</event>
<event>
 5    1  0.3340698E-002  0.1250066E+03  0.7818608E-02  0.1235059E+00
         -4   -1    0    0    0  501 -0.00000000000E+00  0.00000000000E+00  0.78556248532E+03  0.78556351191E+03  0.12700000000E+01 0.  1.
          4   -1    0    0  501    0  0.00000000000E+00 -0.00000000000E+00 -0.48909507135E+01  0.50531474234E+01  0.12700000000E+01 0.  1.
         25    2    1    2    0    0  0.00000000000E+00  0.00000000000E+00  0.78067153461E+03  0.79061665933E+03  0.12500662810E+03 0.  0.
    9000005    1    3    3    0    0  0.38527070155E+02  0.47244670600E+01  0.80559018233E+02  0.89428245775E+02  0.10000000000E+01 0.  0.
    9000005    1    3    3    0    0 -0.38527070155E+02 -0.47244670600E+01  0.70011251638E+03  0.70118841356E+03  0.10000000000E+01 0.  0.
<mgrwt>
<rscale>  0 0.12500663E+03</rscale>
<asrwt>0</asrwt>
<pdfrwt beam="2">  1        4 0.76500966E-03 0.12500663E+03</pdfrwt>
<pdfrwt beam="1">  1       -4 0.12086831E+00 0.12500663E+03</pdfrwt>
<totfact> 0.38681473E+03</totfact>
</mgrwt>
</event>
<event>
 5    1  0.3340698E-002  0.1250023E+03  0.7818608E-02  0.1235066E+00
         -4   -1    0    0    0  501 -0.00000000000E+00  0.00000000000E+00  0.32722058716E+03  0.32722305170E+03  0.12700000000E+01 0.  1.
          4   -1    0    0  501    0  0.00000000000E+00 -0.00000000000E+00 -0.11901813772E+02  0.11969380563E+02  0.12700000000E+01 0.  1.
         25    2    1    2    0    0  0.00000000000E+00  0.00000000000E+00  0.31531877339E+03  0.33919243226E+03  0.12500230899E+03 0.  0.
    9000005    1    3    3    0    0 -0.55516181391E+02  0.24919043011E+02  0.11905632075E+03  0.13371018140E+03  0.10000000000E+01 0.  0.
    9000005    1    3    3    0    0  0.55516181391E+02 -0.24919043011E+02  0.19626245264E+03  0.20548225086E+03  0.10000000000E+01 0.  0.
<mgrwt>
<rscale>  0 0.12500231E+03</rscale>
<asrwt>0</asrwt>
<pdfrwt beam="2">  1        4 0.18364354E-02 0.12500231E+03</pdfrwt>
<pdfrwt beam="1">  1       -4 0.50347013E-01 0.12500231E+03</pdfrwt>
<totfact> 0.70926490E+03</totfact>
</mgrwt>
</event>
<event>
 5    1  0.3340698E-002  0.1249974E+03  0.7818608E-02  0.1235073E+00
         -4   -1    0    0    0  501 -0.00000000000E+00  0.00000000000E+00  0.23275054554E+02  0.23309677486E+02  0.12700000000E+01 0.  1.
          4   -1    0    0  501    0  0.00000000000E+00 -0.00000000000E+00 -0.16766113164E+03  0.16766594157E+03  0.12700000000E+01 0.  1.
         25    2    1    2    0    0  0.00000000000E+00  0.00000000000E+00 -0.14438607709E+03  0.19097561906E+03  0.12499739124E+03 0.  0.
    9000005    1    3    3    0    0 -0.43103617028E+02 -0.34728460231E+02 -0.27883157082E+02  0.61987564880E+02  0.10000000000E+01 0.  0.
    9000005    1    3    3    0    0  0.43103617028E+02  0.34728460231E+02 -0.11650292000E+03  0.12898805418E+03  0.10000000000E+01 0.  0.
<mgrwt>
<rscale>  0 0.12499739E+03</rscale>
<asrwt>0</asrwt>
<pdfrwt beam="2">  1        4 0.25797053E-01 0.12499739E+03</pdfrwt>
<pdfrwt beam="1">  1       -4 0.35838110E-02 0.12499739E+03</pdfrwt>
<totfact> 0.91683194E+03</totfact>
</mgrwt>
</event>
<event>
 5    1  0.3340698E-002  0.1250010E+03  0.7818608E-02  0.1235068E+00
         -4   -1    0    0    0  501 -0.00000000000E+00  0.00000000000E+00  0.45492480383E+02  0.45510204036E+02  0.12700000000E+01 0. -1.
          4   -1    0    0  501    0  0.00000000000E+00 -0.00000000000E+00 -0.85828017240E+02  0.85837412842E+02  0.12700000000E+01 0. -1.
         25    2    1    2    0    0  0.00000000000E+00  0.00000000000E+00 -0.40335536857E+02  0.13134761688E+03  0.12500096370E+03 0.  0.
    9000005    1    3    3    0    0  0.58843259991E+02  0.20496166588E+02 -0.15162719971E+02  0.64136808215E+02  0.10000000000E+01 0.  0.
    9000005    1    3    3    0    0 -0.58843259991E+02 -0.20496166588E+02 -0.25172816886E+02  0.67210808663E+02  0.10000000000E+01 0.  0.
<mgrwt>
<rscale>  0 0.12500096E+03</rscale>
<asrwt>0</asrwt>
<pdfrwt beam="2">  1        4 0.13206396E-01 0.12500096E+03</pdfrwt>
<pdfrwt beam="1">  1       -4 0.70009292E-02 0.12500096E+03</pdfrwt>
<totfact> 0.10315418E+04</totfact>
</mgrwt>
</event>
<event>
 5    1  0.3340698E-002  0.1250023E+03  0.7818608E-02  0.1235066E+00
         -4   -1    0    0    0  501 -0.00000000000E+00  0.00000000000E+00  0.50828702128E+02  0.50844565688E+02  0.12700000000E+01 0.  1.
          4   -1    0    0  501    0  0.00000000000E+00 -0.00000000000E+00 -0.76820956849E+02  0.76831453918E+02  0.12700000000E+01 0.  1.
         25    2    1    2    0    0  0.00000000000E+00  0.00000000000E+00 -0.25992254721E+02  0.12767601961E+03  0.12500227469E+03 0.  0.
    9000005    1    3    3    0    0  0.48170976920E+02  0.18342774068E+02  0.23093655111E+02  0.56490860184E+02  0.10000000000E+01 0.  0.
    9000005    1    3    3    0    0 -0.48170976920E+02 -0.18342774068E+02 -0.49085909832E+02  0.71185159422E+02  0.10000000000E+01 0.  0.
<mgrwt>
<rscale>  0 0.12500227E+03</rscale>
<asrwt>0</asrwt>
<pdfrwt beam="2">  1        4 0.11820637E-01 0.12500227E+03</pdfrwt>
<pdfrwt beam="1">  1       -4 0.78218280E-02 0.12500227E+03</pdfrwt>
<totfact> 0.10393957E+04</totfact>
</mgrwt>
</event>
<event>
 5    1  0.3340698E-002  0.1250002E+03  0.7818608E-02  0.1235069E+00
         -4   -1    0    0    0  501 -0.00000000000E+00  0.00000000000E+00  0.17315302292E+02  0.17361814233E+02  0.12700000000E+01 0. -1.
          4   -1    0    0  501    0  0.00000000000E+00 -0.00000000000E+00 -0.22524512458E+03  0.22524870487E+03  0.12700000000E+01 0. -1.
         25    2    1    2    0    0  0.00000000000E+00  0.00000000000E+00 -0.20792982228E+03  0.24261051910E+03  0.12500021194E+03 0.  0.
    9000005    1    3    3    0    0  0.33515408389E+01  0.49315029819E+02 -0.17817812102E+03  0.18490983696E+03  0.10000000000E+01 0.  0.
    9000005    1    3    3    0    0 -0.33515408389E+01 -0.49315029819E+02 -0.29751701260E+02  0.57700682144E+02  0.10000000000E+01 0.  0.
<mgrwt>
<rscale>  0 0.12500021E+03</rscale>
<asrwt>0</asrwt>
<pdfrwt beam="2">  1        4 0.34656947E-01 0.12500021E+03</pdfrwt>
<pdfrwt beam="1">  1       -4 0.26677461E-02 0.12500021E+03</pdfrwt>
<totfact> 0.83409714E+03</totfact>
</mgrwt>
</event>
<event>
 5    1  0.3340698E-002  0.1250006E+03  0.7818608E-02  0.1235068E+00
         -4   -1    0    0    0  501 -0.00000000000E+00  0.00000000000E+00  0.27522098233E+02  0.27551384559E+02  0.12700000000E+01 0. -1.
          4   -1    0    0  501    0  0.00000000000E+00 -0.00000000000E+00 -0.14182510761E+03  0.14183079373E+03  0.12700000000E+01 0. -1.
         25    2    1    2    0    0  0.00000000000E+00  0.00000000000E+00 -0.11430300938E+03  0.16938217829E+03  0.12500057747E+03 0.  0.
    9000005    1    3    3    0    0  0.50889050884E+02 -0.36086237596E+02 -0.52196008603E+02  0.81347005832E+02  0.10000000000E+01 0.  0.
    9000005    1    3    3    0    0 -0.50889050884E+02  0.36086237596E+02 -0.62107000777E+02  0.88035172455E+02  0.10000000000E+01 0.  0.
<mgrwt>
<rscale>  0 0.12500058E+03</rscale>
<asrwt>0</asrwt>
<pdfrwt beam="2">  1        4 0.21821937E-01 0.12500058E+03</pdfrwt>
<pdfrwt beam="1">  1       -4 0.42368592E-02 0.12500058E+03</pdfrwt>
<totfact> 0.95562614E+03</totfact>
</mgrwt>
</event>
<event>
 5    1  0.3340698E-002  0.1249968E+03  0.7818608E-02  0.1235074E+00
         -4   -1    0    0    0  501 -0.00000000000E+00  0.00000000000E+00  0.87336351641E+02  0.87345584994E+02  0.12700000000E+01 0.  1.
          4   -1    0    0  501    0  0.00000000000E+00 -0.00000000000E+00 -0.44703621164E+02  0.44721657451E+02  0.12700000000E+01 0.  1.
         25    2    1    2    0    0  0.00000000000E+00  0.00000000000E+00  0.42632730477E+02  0.13206724244E+03  0.12499682724E+03 0.  0.
    9000005    1    3    3    0    0 -0.28633469191E+01 -0.85446140466E+01 -0.44018668454E+02  0.44942767574E+02  0.10000000000E+01 0.  0.
    9000005    1    3    3    0    0  0.28633469191E+01  0.85446140466E+01  0.86651398931E+02  0.87124474871E+02  0.10000000000E+01 0.  0.
<mgrwt>
<rscale>  0 0.12499683E+03</rscale>
<asrwt>0</asrwt>
<pdfrwt beam="2">  1        4 0.68795778E-02 0.12499683E+03</pdfrwt>
<pdfrwt beam="1">  1       -4 0.13438459E-01 0.12499683E+03</pdfrwt>
<totfact> 0.10301001E+04</totfact>
</mgrwt>
</event>
<event>
 5    1  0.3340698E-002  0.1249979E+03  0.7818608E-02  0.1235073E+00
          4   -1    0    0  501    0  0.00000000000E+00  0.00000000000E+00  0.13186088418E+02  0.13247106392E+02  0.12700000000E+01 0. -1.
         -4   -1    0    0    0  501 -0.00000000000E+00 -0.00000000000E+00 -0.29548404797E+03  0.29548677721E+03  0.12700000000E+01 0. -1.
         25    2    1    2    0    0  0.00000000000E+00  0.00000000000E+00 -0.28229795955E+03  0.30873388360E+03  0.12499789165E+03 0.  0.
    9000005    1    3    3    0    0  0.21317024811E+01 -0.15121786941E+02  0.85184718213E+01  0.17515049470E+02  0.10000000000E+01 0.  0.
    9000005    1    3    3    0    0 -0.21317024811E+01  0.15121786941E+02 -0.29081643137E+03  0.29121883413E+03  0.10000000000E+01 0.  0.
<mgrwt>
<rscale>  0 0.12499789E+03</rscale>
<asrwt>0</asrwt>
<pdfrwt beam="1">  1        4 0.20335328E-02 0.12499789E+03</pdfrwt>
<pdfrwt beam="2">  1       -4 0.45463983E-01 0.12499789E+03</pdfrwt>
<totfact> 0.74519664E+03</totfact>
</mgrwt>
</event>
<event>
 5    1  0.3340698E-002  0.1250021E+03  0.7818608E-02  0.1235066E+00
         -4   -1    0    0    0  501 -0.00000000000E+00  0.00000000000E+00  0.37993524045E+03  0.37993736305E+03  0.12700000000E+01 0.  1.
          4   -1    0    0  501    0  0.00000000000E+00 -0.00000000000E+00 -0.10240318372E+02  0.10318770293E+02  0.12700000000E+01 0.  1.
         25    2    1    2    0    0  0.00000000000E+00  0.00000000000E+00  0.36969492208E+03  0.39025613334E+03  0.12500205676E+03 0.  0.
    9000005    1    3    3    0    0  0.15808885085E+02  0.39563151758E+02  0.42113266138E+02  0.59914030156E+02  0.10000000000E+01 0.  0.
    9000005    1    3    3    0    0 -0.15808885085E+02 -0.39563151758E+02  0.32758165594E+03  0.33034210318E+03  0.10000000000E+01 0.  0.
<mgrwt>
<rscale>  0 0.12500206E+03</rscale>
<asrwt>0</asrwt>
<pdfrwt beam="2">  1        4 0.15816317E-02 0.12500206E+03</pdfrwt>
<pdfrwt beam="1">  1       -4 0.58457770E-01 0.12500206E+03</pdfrwt>
<totfact> 0.65508652E+03</totfact>
</mgrwt>
</event>
<event>
 5    1  0.3340698E-002  0.1249992E+03  0.7818608E-02  0.1235070E+00
         -4   -1    0    0    0  501 -0.00000000000E+00  0.00000000000E+00  0.48493284982E+02  0.48509912269E+02  0.12700000000E+01 0. -1.
          4   -1    0    0  501    0  0.00000000000E+00 -0.00000000000E+00 -0.80515944547E+02  0.80525959952E+02  0.12700000000E+01 0. -1.
         25    2    1    2    0    0  0.00000000000E+00  0.00000000000E+00 -0.32022659564E+02  0.12903587222E+03  0.12499922238E+03 0.  0.
    9000005    1    3    3    0    0  0.61372151891E+02  0.11638845026E+02 -0.17857276309E+02  0.64976042188E+02  0.10000000000E+01 0.  0.
    9000005    1    3    3    0    0 -0.61372151891E+02 -0.11638845026E+02 -0.14165383255E+02  0.64059830034E+02  0.10000000000E+01 0.  0.
<mgrwt>
<rscale>  0 0.12499922E+03</rscale>
<asrwt>0</asrwt>
<pdfrwt beam="2">  1        4 0.12389118E-01 0.12499922E+03</pdfrwt>
<pdfrwt beam="1">  1       -4 0.74625548E-02 0.12499922E+03</pdfrwt>
<totfact> 0.10365358E+04</totfact>
</mgrwt>
</event>
<event>
 5    1  0.3340698E-002  0.1250027E+03  0.7818608E-02  0.1235065E+00
          4   -1    0    0  501    0  0.00000000000E+00  0.00000000000E+00  0.14990039472E+02  0.15043742332E+02  0.12700000000E+01 0. -1.
         -4   -1    0    0    0  501 -0.00000000000E+00 -0.00000000000E+00 -0.26007966086E+03  0.26008276162E+03  0.12700000000E+01 0. -1.
         25    2    1    2    0    0  0.00000000000E+00  0.00000000000E+00 -0.24508962139E+03  0.27512650395E+03  0.12500268264E+03 0.  0.
    9000005    1    3    3    0    0 -0.15872383722E+02  0.17327634908E+02  0.49067907533E+01  0.24026154333E+02  0.10000000000E+01 0.  0.
    9000005    1    3    3    0    0  0.15872383722E+02 -0.17327634908E+02 -0.24999641214E+03  0.25110034962E+03  0.10000000000E+01 0.  0.
<mgrwt>
<rscale>  0 0.12500268E+03</rscale>
<asrwt>0</asrwt>
<pdfrwt beam="1">  1        4 0.23105296E-02 0.12500268E+03</pdfrwt>
<pdfrwt beam="2">  1       -4 0.40016622E-01 0.12500268E+03</pdfrwt>
<totfact> 0.78824064E+03</totfact>
</mgrwt>
</event>
<event>
 4    1  0.3340698E-002  0.1252663E+03  0.7818608E-02  0.1234654E+00
          4   -1    0    0  501    0  0.00000000000E+00  0.00000000000E+00  0.34067677844E+02  0.34091341624E+02  0.12700000000E+01 0.  1.
         -4   -1    0    0    0  501 -0.00000000000E+00 -0.00000000000E+00 -0.11508340720E+03  0.11509041451E+03  0.12700000000E+01 0.  1.
    9000005    1    1    2    0    0 -0.10776997482E+02  0.61525745755E+02 -0.45880328645E+02  0.77508487419E+02  0.10000000000E+01 0.  0.
    9000005    1    1    2    0    0  0.10776997482E+02 -0.61525745755E+02 -0.35135400708E+02  0.71673268715E+02  0.10000000000E+01 0.  0.
<mgrwt>
<rscale>  0 0.12526631E+03</rscale>
<asrwt>0</asrwt>
<pdfrwt beam="1">  1        4 0.52435406E-02 0.12526631E+03</pdfrwt>
<pdfrwt beam="2">  1       -4 0.17707499E-01 0.12526631E+03</pdfrwt>
<totfact> 0.98873191E+03</totfact>
</mgrwt>
</event>
<event>
 5    1  0.3340698E-002  0.1250073E+03  0.7818608E-02  0.1235058E+00
          4   -1    0    0  501    0  0.00000000000E+00  0.00000000000E+00  0.13434519823E+03  0.13435120091E+03  0.12700000000E+01 0.  1.
         -4   -1    0    0    0  501 -0.00000000000E+00 -0.00000000000E+00 -0.29059068155E+02  0.29086807010E+02  0.12700000000E+01 0.  1.
         25    2    1    2    0    0  0.00000000000E+00  0.00000000000E+00  0.10528613007E+03  0.16343800792E+03  0.12500725278E+03 0.  0.
    9000005    1    3    3    0    0 -0.57567447845E+02  0.20305041533E+02  0.35131454017E+02  0.70438092140E+02  0.10000000000E+01 0.  0.
    9000005    1    3    3    0    0  0.57567447845E+02 -0.20305041533E+02  0.70154676056E+02  0.92999915782E+02  0.10000000000E+01 0.  0.
<mgrwt>
<rscale>  0 0.12500725E+03</rscale>
<asrwt>0</asrwt>
<pdfrwt beam="1">  1        4 0.20671088E-01 0.12500725E+03</pdfrwt>
<pdfrwt beam="2">  1       -4 0.44732213E-02 0.12500725E+03</pdfrwt>
<totfact> 0.96668275E+03</totfact>
</mgrwt>
</event>
<event>
 5    1  0.3340698E-002  0.1250025E+03  0.7818608E-02  0.1235065E+00
         -4   -1    0    0    0  501 -0.00000000000E+00  0.00000000000E+00  0.10744620247E+02  0.10819416077E+02  0.12700000000E+01 0.  1.
          4   -1    0    0  501    0  0.00000000000E+00 -0.00000000000E+00 -0.36223132050E+03  0.36223354683E+03  0.12700000000E+01 0.  1.
         25    2    1    2    0    0  0.00000000000E+00  0.00000000000E+00 -0.35148670025E+03  0.37305296291E+03  0.12500245070E+03 0.  0.
    9000005    1    3    3    0    0 -0.23407845104E+02  0.56124699327E+02 -0.21873210090E+03  0.22703004438E+03  0.10000000000E+01 0.  0.
    9000005    1    3    3    0    0  0.23407845104E+02 -0.56124699327E+02 -0.13275459936E+03  0.14602291854E+03  0.10000000000E+01 0.  0.
<mgrwt>
<rscale>  0 0.12500245E+03</rscale>
<asrwt>0</asrwt>
<pdfrwt beam="2">  1        4 0.55733811E-01 0.12500245E+03</pdfrwt>
<pdfrwt beam="1">  1       -4 0.16589436E-02 0.12500245E+03</pdfrwt>
<totfact> 0.67257106E+03</totfact>
</mgrwt>
</event>
<event>
 5    1  0.3340698E-002  0.1250038E+03  0.7818608E-02  0.1235063E+00
         -4   -1    0    0    0  501 -0.00000000000E+00  0.00000000000E+00  0.65413452933E+02  0.65425780275E+02  0.12700000000E+01 0. -1.
          4   -1    0    0  501    0  0.00000000000E+00 -0.00000000000E+00 -0.59695276238E+02  0.59708784154E+02  0.12700000000E+01 0. -1.
         25    2    1    2    0    0  0.00000000000E+00  0.00000000000E+00  0.57181766949E+01  0.12513456443E+03  0.12500384662E+03 0.  0.
    9000005    1    3    3    0    0 -0.46007348638E+02  0.31666001442E+02  0.30925501052E+02  0.63849811208E+02  0.10000000000E+01 0.  0.
    9000005    1    3    3    0    0  0.46007348638E+02 -0.31666001442E+02 -0.25207324357E+02  0.61284753220E+02  0.10000000000E+01 0.  0.
<mgrwt>
<rscale>  0 0.12500385E+03</rscale>
<asrwt>0</asrwt>
<pdfrwt beam="2">  1        4 0.91858759E-02 0.12500385E+03</pdfrwt>
<pdfrwt beam="1">  1       -4 0.10065596E-01 0.12500385E+03</pdfrwt>
<totfact> 0.10449032E+04</totfact>
</mgrwt>
</event>
<event>
 5    1  0.3340698E-002  0.1250015E+03  0.7818608E-02  0.1235067E+00
         -4   -1    0    0    0  501 -0.00000000000E+00  0.00000000000E+00  0.45185288299E+02  0.45203132399E+02  0.12700000000E+01 0.  1.
          4   -1    0    0  501    0  0.00000000000E+00 -0.00000000000E+00 -0.86412076329E+02  0.86421408433E+02  0.12700000000E+01 0.  1.
         25    2    1    2    0    0  0.00000000000E+00  0.00000000000E+00 -0.41226788030E+02  0.13162454083E+03  0.12500148678E+03 0.  0.
    9000005    1    3    3    0    0  0.51467612675E+02 -0.47703752906E+01 -0.57598036038E+02  0.77396417167E+02  0.10000000000E+01 0.  0.
    9000005    1    3    3    0    0 -0.51467612675E+02  0.47703752906E+01  0.16371248008E+02  0.54228123664E+02  0.10000000000E+01 0.  0.
<mgrwt>
<rscale>  0 0.12500149E+03</rscale>
<asrwt>0</asrwt>
<pdfrwt beam="2">  1        4 0.13296256E-01 0.12500149E+03</pdfrwt>
<pdfrwt beam="1">  1       -4 0.69536733E-02 0.12500149E+03</pdfrwt>
<totfact> 0.10309373E+04</totfact>
</mgrwt>
</event>
<event>
 5    1  0.3340698E-002  0.1249999E+03  0.7818608E-02  0.1235070E+00
         -4   -1    0    0    0  501 -0.00000000000E+00  0.00000000000E+00  0.38894096678E+02  0.38914825663E+02  0.12700000000E+01 0. -1.
          4   -1    0    0  501    0  0.00000000000E+00 -0.00000000000E+00 -0.10038123634E+03  0.10038926989E+03  0.12700000000E+01 0. -1.
         25    2    1    2    0    0  0.00000000000E+00  0.00000000000E+00 -0.61487139666E+02  0.13930409556E+03  0.12499985078E+03 0.  0.
    9000005    1    3    3    0    0 -0.52737217798E+01 -0.25011076697E+02  0.32807268449E+02  0.41601477883E+02  0.10000000000E+01 0.  0.
    9000005    1    3    3    0    0  0.52737217798E+01  0.25011076697E+02 -0.94294408114E+02  0.97702617675E+02  0.10000000000E+01 0.  0.
<mgrwt>
<rscale>  0 0.12499985E+03</rscale>
<asrwt>0</asrwt>
<pdfrwt beam="2">  1        4 0.15445479E-01 0.12499985E+03</pdfrwt>
<pdfrwt beam="1">  1       -4 0.59859197E-02 0.12499985E+03</pdfrwt>
<totfact> 0.10148063E+04</totfact>
</mgrwt>
</event>
<event>
 5    1  0.3340698E-002  0.1250019E+03  0.7818608E-02  0.1235066E+00
         -4   -1    0    0    0  501 -0.00000000000E+00  0.00000000000E+00  0.10925793674E+03  0.10926531764E+03  0.12700000000E+01 0. -1.
          4   -1    0    0  501    0  0.00000000000E+00 -0.00000000000E+00 -0.35733752223E+02  0.35756313400E+02  0.12700000000E+01 0. -1.
         25    2    1    2    0    0  0.00000000000E+00  0.00000000000E+00  0.73524184513E+02  0.14502163104E+03  0.12500187104E+03 0.  0.
    9000005    1    3    3    0    0 -0.38233602058E+02 -0.40448530336E+00 -0.20585225856E+02  0.43436430081E+02  0.10000000000E+01 0.  0.
    9000005    1    3    3    0    0  0.38233602058E+02  0.40448530336E+00  0.94109410369E+02  0.10158520096E+03  0.10000000000E+01 0.  0.
<mgrwt>
<rscale>  0 0.12500187E+03</rscale>
<asrwt>0</asrwt>
<pdfrwt beam="2">  1        4 0.54998036E-02 0.12500187E+03</pdfrwt>
<pdfrwt beam="1">  1       -4 0.16811217E-01 0.12500187E+03</pdfrwt>
<totfact> 0.10030126E+04</totfact>
</mgrwt>
</event>
<event>
 5    1  0.3340698E-002  0.1250598E+03  0.7818608E-02  0.1234976E+00
          4   -1    0    0  501    0  0.00000000000E+00  0.00000000000E+00  0.47189417020E+02  0.47206503563E+02  0.12700000000E+01 0.  1.
         -4   -1    0    0    0  501 -0.00000000000E+00 -0.00000000000E+00 -0.82820313997E+02  0.82830050770E+02  0.12700000000E+01 0.  1.
         25    2    1    2    0    0  0.00000000000E+00  0.00000000000E+00 -0.35630896977E+02  0.13003655433E+03  0.12505976429E+03 0.  0.
    9000005    1    3    3    0    0 -0.12199346073E+02 -0.37884582500E+02  0.32320807967E+02  0.51280603189E+02  0.10000000000E+01 0.  0.
    9000005    1    3    3    0    0  0.12199346073E+02  0.37884582500E+02 -0.67951704945E+02  0.78755951144E+02  0.10000000000E+01 0.  0.
<mgrwt>
<rscale>  0 0.12505976E+03</rscale>
<asrwt>0</asrwt>
<pdfrwt beam="1">  1        4 0.72619736E-02 0.12505976E+03</pdfrwt>
<pdfrwt beam="2">  1       -4 0.12743650E-01 0.12505976E+03</pdfrwt>
<totfact> 0.10329784E+04</totfact>
</mgrwt>
</event>
<event>
 5    1  0.3340698E-002  0.1250049E+03  0.7818608E-02  0.1235062E+00
          4   -1    0    0  501    0  0.00000000000E+00  0.00000000000E+00  0.83320877185E+03  0.83320973973E+03  0.12700000000E+01 0.  1.
         -4   -1    0    0    0  501 -0.00000000000E+00 -0.00000000000E+00 -0.46015808214E+01  0.47736198064E+01  0.12700000000E+01 0.  1.
         25    2    1    2    0    0  0.00000000000E+00  0.00000000000E+00  0.82860719102E+03  0.83798335954E+03  0.12500493527E+03 0.  0.
    9000005    1    3    3    0    0 -0.40658679146E+02  0.27682972542E+02  0.15588139978E+03  0.16346096157E+03  0.10000000000E+01 0.  0.
    9000005    1    3    3    0    0  0.40658679146E+02 -0.27682972542E+02  0.67272579124E+03  0.67452239797E+03  0.10000000000E+01 0.  0.
<mgrwt>
<rscale>  0 0.12500494E+03</rscale>
<asrwt>0</asrwt>
<pdfrwt beam="1">  1        4 0.12819924E+00 0.12500494E+03</pdfrwt>
<pdfrwt beam="2">  1       -4 0.72124390E-03 0.12500494E+03</pdfrwt>
<totfact> 0.36620225E+03</totfact>
</mgrwt>
</event>
<event>
 5    1  0.3340698E-002  0.1249991E+03  0.7818608E-02  0.1235071E+00
         -4   -1    0    0    0  501 -0.00000000000E+00  0.00000000000E+00  0.51644026159E+03  0.51644182314E+03  0.12700000000E+01 0.  1.
          4   -1    0    0  501    0  0.00000000000E+00 -0.00000000000E+00 -0.75087995494E+01  0.76154429072E+01  0.12700000000E+01 0.  1.
         25    2    1    2    0    0  0.00000000000E+00  0.00000000000E+00  0.50893146204E+03  0.52405726605E+03  0.12499914018E+03 0.  0.
    9000005    1    3    3    0    0  0.29744514638E+02  0.30515667740E+02  0.44609743270E+03  0.44812929115E+03  0.10000000000E+01 0.  0.
    9000005    1    3    3    0    0 -0.29744514638E+02 -0.30515667740E+02  0.62834029342E+02  0.75927974897E+02  0.10000000000E+01 0.  0.
<mgrwt>
<rscale>  0 0.12499914E+03</rscale>
<asrwt>0</asrwt>
<pdfrwt beam="2">  1        4 0.11635237E-02 0.12499914E+03</pdfrwt>
<pdfrwt beam="1">  1       -4 0.79460648E-01 0.12499914E+03</pdfrwt>
<totfact> 0.54045995E+03</totfact>
</mgrwt>
</event>
<event>
 5    1  0.3340698E-002  0.1250006E+03  0.7818608E-02  0.1235068E+00
         -4   -1    0    0    0  501 -0.00000000000E+00  0.00000000000E+00  0.76533123803E+01  0.77579694760E+01  0.12700000000E+01 0. -1.
          4   -1    0    0  501    0  0.00000000000E+00 -0.00000000000E+00 -0.50683363501E+03  0.50683522617E+03  0.12700000000E+01 0. -1.
         25    2    1    2    0    0  0.00000000000E+00  0.00000000000E+00 -0.49918032263E+03  0.51459319564E+03  0.12500064998E+03 0.  0.
    9000005    1    3    3    0    0 -0.28063754666E+02  0.30140094367E+02 -0.56091381534E+02  0.69593409866E+02  0.10000000000E+01 0.  0.
    9000005    1    3    3    0    0  0.28063754666E+02 -0.30140094367E+02 -0.44308894110E+03  0.44499978578E+03  0.10000000000E+01 0.  0.
<mgrwt>
<rscale>  0 0.12500065E+03</rscale>
<asrwt>0</asrwt>
<pdfrwt beam="2">  1        4 0.77982553E-01 0.12500065E+03</pdfrwt>
<pdfrwt beam="1">  1       -4 0.11856060E-02 0.12500065E+03</pdfrwt>
<totfact> 0.54748857E+03</totfact>
</mgrwt>
</event>
<event>
 5    1  0.3340698E-002  0.1250111E+03  0.7818608E-02  0.1235052E+00
         -4   -1    0    0    0  501 -0.00000000000E+00  0.00000000000E+00  0.89066030044E+02  0.89075084102E+02  0.12700000000E+01 0.  1.
          4   -1    0    0  501    0  0.00000000000E+00 -0.00000000000E+00 -0.43845201509E+02  0.43863590771E+02  0.12700000000E+01 0.  1.
         25    2    1    2    0    0  0.00000000000E+00  0.00000000000E+00  0.45220828536E+02  0.13293867487E+03  0.12501107128E+03 0.  0.
    9000005    1    3    3    0    0  0.14009666729E+02  0.60809164708E+02  0.26281386365E+02  0.67718066597E+02  0.10000000000E+01 0.  0.
    9000005    1    3    3    0    0 -0.14009666729E+02 -0.60809164708E+02  0.18939442170E+02  0.65220608277E+02  0.10000000000E+01 0.  0.
<mgrwt>
<rscale>  0 0.12501107E+03</rscale>
<asrwt>0</asrwt>
<pdfrwt beam="2">  1        4 0.67475267E-02 0.12501107E+03</pdfrwt>
<pdfrwt beam="1">  1       -4 0.13704577E-01 0.12501107E+03</pdfrwt>
<totfact> 0.10279136E+04</totfact>
</mgrwt>
</event>
<event>
 5    1  0.3340698E-002  0.1249809E+03  0.7818608E-02  0.1235099E+00
          4   -1    0    0  501    0  0.00000000000E+00  0.00000000000E+00  0.10756060836E+03  0.10756810573E+03  0.12700000000E+01 0. -1.
         -4   -1    0    0    0  501 -0.00000000000E+00 -0.00000000000E+00 -0.36285753216E+02  0.36307971390E+02  0.12700000000E+01 0. -1.
         25    2    1    2    0    0  0.00000000000E+00  0.00000000000E+00  0.71274855144E+02  0.14387607712E+03  0.12498088091E+03 0.  0.
    9000005    1    3    3    0    0  0.21560959867E+02 -0.30389876312E+01 -0.31782544205E+02  0.38538818772E+02  0.10000000000E+01 0.  0.
    9000005    1    3    3    0    0 -0.21560959867E+02  0.30389876312E+01  0.10305739935E+03  0.10533725835E+03  0.10000000000E+01 0.  0.
<mgrwt>
<rscale>  0 0.12498088E+03</rscale>
<asrwt>0</asrwt>
<pdfrwt beam="1">  1        4 0.16550072E-01 0.12498088E+03</pdfrwt>
<pdfrwt beam="2">  1       -4 0.55847094E-02 0.12498088E+03</pdfrwt>
<totfact> 0.10058204E+04</totfact>
</mgrwt>
</event>
<event>
 5    1  0.3340698E-002  0.1249973E+03  0.7818608E-02  0.1235074E+00
         -4   -1    0    0    0  501 -0.00000000000E+00  0.00000000000E+00  0.40467793913E+03  0.40467993194E+03  0.12700000000E+01 0. -1.
          4   -1    0    0  501    0  0.00000000000E+00 -0.00000000000E+00 -0.96085166848E+01  0.96920840319E+01  0.12700000000E+01 0. -1.
         25    2    1    2    0    0  0.00000000000E+00  0.00000000000E+00  0.39506942244E+03  0.41437201598E+03  0.12499727626E+03 0.  0.
    9000005    1    3    3    0    0  0.84113265151E+01  0.57956052798E+02  0.26981685300E+03  0.27610104786E+03  0.10000000000E+01 0.  0.
    9000005    1    3    3    0    0 -0.84113265151E+01 -0.57956052798E+02  0.12525256945E+03  0.13827096811E+03  0.10000000000E+01 0.  0.
<mgrwt>
<rscale>  0 0.12499728E+03</rscale>
<asrwt>0</asrwt>
<pdfrwt beam="2">  1        4 0.14848147E-02 0.12499728E+03</pdfrwt>
<pdfrwt beam="1">  1       -4 0.62264732E-01 0.12499728E+03</pdfrwt>
<totfact> 0.63182372E+03</totfact>
</mgrwt>
</event>
<event>
 5    1  0.3340698E-002  0.1249996E+03  0.7818608E-02  0.1235070E+00
         -4   -1    0    0    0  501 -0.00000000000E+00  0.00000000000E+00  0.18649848623E+02  0.18693040247E+02  0.12700000000E+01 0.  1.
          4   -1    0    0  501    0  0.00000000000E+00 -0.00000000000E+00 -0.20916324181E+03  0.20916709738E+03  0.12700000000E+01 0.  1.
         25    2    1    2    0    0  0.00000000000E+00  0.00000000000E+00 -0.19051339319E+03  0.22786013762E+03  0.12499955733E+03 0.  0.
    9000005    1    3    3    0    0  0.25093594945E+02 -0.36575980139E+02 -0.17549960851E+03  0.18102100270E+03  0.10000000000E+01 0.  0.
    9000005    1    3    3    0    0 -0.25093594945E+02  0.36575980139E+02 -0.15013784681E+02  0.46839134928E+02  0.10000000000E+01 0.  0.
<mgrwt>
<rscale>  0 0.12499956E+03</rscale>
<asrwt>0</asrwt>
<pdfrwt beam="2">  1        4 0.32182578E-01 0.12499956E+03</pdfrwt>
<pdfrwt beam="1">  1       -4 0.28728266E-02 0.12499956E+03</pdfrwt>
<totfact> 0.85640108E+03</totfact>
</mgrwt>
</event>
<event>
 5    1  0.3340698E-002  0.1250008E+03  0.7818608E-02  0.1235068E+00
          4   -1    0    0  501    0  0.00000000000E+00  0.00000000000E+00  0.15346640820E+03  0.15347166300E+03  0.12700000000E+01 0.  1.
         -4   -1    0    0    0  501 -0.00000000000E+00 -0.00000000000E+00 -0.25432252278E+02  0.25463942270E+02  0.12700000000E+01 0.  1.
         25    2    1    2    0    0  0.00000000000E+00  0.00000000000E+00  0.12803415592E+03  0.17893560527E+03  0.12500082301E+03 0.  0.
    9000005    1    3    3    0    0 -0.43294518298E+02  0.44517681147E+02  0.74043762566E+02  0.96642216574E+02  0.10000000000E+01 0.  0.
    9000005    1    3    3    0    0  0.43294518298E+02 -0.44517681147E+02  0.53990393353E+02  0.82293388700E+02  0.10000000000E+01 0.  0.
<mgrwt>
<rscale>  0 0.12500082E+03</rscale>
<asrwt>0</asrwt>
<pdfrwt beam="1">  1        4 0.23613059E-01 0.12500082E+03</pdfrwt>
<pdfrwt beam="2">  1       -4 0.39154960E-02 0.12500082E+03</pdfrwt>
<totfact> 0.93807217E+03</totfact>
</mgrwt>
</event>
<event>
 5    1  0.3340698E-002  0.1249947E+03  0.7818608E-02  0.1235078E+00
         -4   -1    0    0    0  501 -0.00000000000E+00  0.00000000000E+00  0.50360603484E+02  0.50376614448E+02  0.12700000000E+01 0.  1.
          4   -1    0    0  501    0  0.00000000000E+00 -0.00000000000E+00 -0.77525426658E+02  0.77535828353E+02  0.12700000000E+01 0.  1.
         25    2    1    2    0    0  0.00000000000E+00  0.00000000000E+00 -0.27164823174E+02  0.12791244280E+03  0.12499466151E+03 0.  0.
    9000005    1    3    3    0    0  0.18092114065E+02  0.44718171431E+02 -0.54232162409E+02  0.72589027318E+02  0.10000000000E+01 0.  0.
    9000005    1    3    3    0    0 -0.18092114065E+02 -0.44718171431E+02  0.27067339235E+02  0.55323415483E+02  0.10000000000E+01 0.  0.
<mgrwt>
<rscale>  0 0.12499466E+03</rscale>
<asrwt>0</asrwt>
<pdfrwt beam="2">  1        4 0.11929020E-01 0.12499466E+03</pdfrwt>
<pdfrwt beam="1">  1       -4 0.77498169E-02 0.12499466E+03</pdfrwt>
<totfact> 0.10390631E+04</totfact>
</mgrwt>
</event>
<event>
 5    1  0.3340698E-002  0.1250013E+03  0.7818608E-02  0.1235067E+00
         -4   -1    0    0    0  501 -0.00000000000E+00  0.00000000000E+00  0.11050733601E+04  0.11050740899E+04  0.12700000000E+01 0. -1.
          4   -1    0    0  501    0  0.00000000000E+00 -0.00000000000E+00 -0.34200847996E+01  0.36482708283E+01  0.12700000000E+01 0. -1.
         25    2    1    2    0    0  0.00000000000E+00  0.00000000000E+00  0.11016532753E+04  0.11087223607E+04  0.12500133653E+03 0.  0.
    9000005    1    3    3    0    0  0.10951777990E+02  0.51931530347E+02  0.84346011771E+03  0.84512886323E+03  0.10000000000E+01 0.  0.
    9000005    1    3    3    0    0 -0.10951777990E+02 -0.51931530347E+02  0.25819315763E+03  0.26359349751E+03  0.10000000000E+01 0.  0.
<mgrwt>
<rscale>  0 0.12500134E+03</rscale>
<asrwt>0</asrwt>
<pdfrwt beam="2">  1        4 0.54377584E-03 0.12500134E+03</pdfrwt>
<pdfrwt beam="1">  1       -4 0.17002888E+00 0.12500134E+03</pdfrwt>
<totfact> 0.27228717E+03</totfact>
</mgrwt>
</event>
<event>
 4    1  0.3340698E-002  0.1250806E+03  0.7818608E-02  0.1234943E+00
         -4   -1    0    0    0  501 -0.00000000000E+00  0.00000000000E+00  0.72162667710E+02  0.72173842291E+02  0.12700000000E+01 0.  1.
          4   -1    0    0  501    0  0.00000000000E+00 -0.00000000000E+00 -0.54178184721E+02  0.54193067819E+02  0.12700000000E+01 0.  1.
    9000005    1    1    2    0    0 -0.52876158419E+02  0.25847827273E+02 -0.12350595886E+02  0.60145951839E+02  0.10000000000E+01 0.  0.
    9000005    1    1    2    0    0  0.52876158419E+02 -0.25847827273E+02  0.30335078876E+02  0.66220958271E+02  0.10000000000E+01 0.  0.
<mgrwt>
<rscale>  0 0.12508059E+03</rscale>
<asrwt>0</asrwt>
<pdfrwt beam="2">  1        4 0.83371098E-02 0.12508059E+03</pdfrwt>
<pdfrwt beam="1">  1       -4 0.11103953E-01 0.12508059E+03</pdfrwt>
<totfact> 0.10403996E+04</totfact>
</mgrwt>
</event>
<event>
 5    1  0.3340698E-002  0.1250031E+03  0.7818608E-02  0.1235064E+00
         -4   -1    0    0    0  501 -0.00000000000E+00  0.00000000000E+00  0.41248453758E+01  0.43159297230E+01  0.12700000000E+01 0. -1.
          4   -1    0    0  501    0  0.00000000000E+00 -0.00000000000E+00 -0.92542105978E+03  0.92542193122E+03  0.12700000000E+01 0. -1.
         25    2    1    2    0    0  0.00000000000E+00  0.00000000000E+00 -0.92129621440E+03  0.92973786094E+03  0.12500310155E+03 0.  0.
    9000005    1    3    3    0    0 -0.31647262197E+01  0.17352090606E+02 -0.14736372239E+02  0.23005895054E+02  0.10000000000E+01 0.  0.
    9000005    1    3    3    0    0  0.31647262197E+01 -0.17352090606E+02 -0.90655984217E+03  0.90673196589E+03  0.10000000000E+01 0.  0.
<mgrwt>
<rscale>  0 0.12500310E+03</rscale>
<asrwt>0</asrwt>
<pdfrwt beam="2">  1        4 0.14238707E+00 0.12500310E+03</pdfrwt>
<pdfrwt beam="1">  1       -4 0.64935816E-03 0.12500310E+03</pdfrwt>
<totfact> 0.33044257E+03</totfact>
</mgrwt>
</event>
<event>
 5    1  0.3340698E-002  0.1249877E+03  0.7818608E-02  0.1235089E+00
          4   -1    0    0  501    0  0.00000000000E+00  0.00000000000E+00  0.52797382606E+01  0.54303348055E+01  0.12700000000E+01 0. -1.
         -4   -1    0    0    0  501 -0.00000000000E+00 -0.00000000000E+00 -0.72915863315E+03  0.72915973915E+03  0.12700000000E+01 0. -1.
         25    2    1    2    0    0  0.00000000000E+00  0.00000000000E+00 -0.72387889489E+03  0.73459007395E+03  0.12498768854E+03 0.  0.
    9000005    1    3    3    0    0  0.16090233770E+02  0.49382020173E+02 -0.15775077759E+03  0.16608367581E+03  0.10000000000E+01 0.  0.
    9000005    1    3    3    0    0 -0.16090233770E+02 -0.49382020173E+02 -0.56612811730E+03  0.56850639815E+03  0.10000000000E+01 0.  0.
<mgrwt>
<rscale>  0 0.12498769E+03</rscale>
<asrwt>0</asrwt>
<pdfrwt beam="1">  1        4 0.82393743E-03 0.12498769E+03</pdfrwt>
<pdfrwt beam="2">  1       -4 0.11218984E+00 0.12498769E+03</pdfrwt>
<totfact> 0.41333414E+03</totfact>
</mgrwt>
</event>
<event>
 5    1  0.3340698E-002  0.1249998E+03  0.7818608E-02  0.1235070E+00
         -4   -1    0    0    0  501 -0.00000000000E+00  0.00000000000E+00  0.11459221334E+03  0.11459925069E+03  0.12700000000E+01 0. -1.
          4   -1    0    0  501    0  0.00000000000E+00 -0.00000000000E+00 -0.34068239297E+02  0.34091902687E+02  0.12700000000E+01 0. -1.
         25    2    1    2    0    0  0.00000000000E+00  0.00000000000E+00  0.80523974047E+02  0.14869115338E+03  0.12499979479E+03 0.  0.
    9000005    1    3    3    0    0 -0.37380255146E+02 -0.45997730371E+02  0.63818383838E+02  0.87102587733E+02  0.10000000000E+01 0.  0.
    9000005    1    3    3    0    0  0.37380255146E+02  0.45997730371E+02  0.16705590208E+02  0.61588565645E+02  0.10000000000E+01 0.  0.
<mgrwt>
<rscale>  0 0.12499979E+03</rscale>
<asrwt>0</asrwt>
<pdfrwt beam="2">  1        4 0.52436291E-02 0.12499979E+03</pdfrwt>
<pdfrwt beam="1">  1       -4 0.17631933E-01 0.12499979E+03</pdfrwt>
<totfact> 0.99565699E+03</totfact>
</mgrwt>
</event>
<event>
 5    1  0.3340698E-002  0.1250016E+03  0.7818608E-02  0.1235067E+00
          4   -1    0    0  501    0  0.00000000000E+00  0.00000000000E+00  0.82660289719E+01  0.83630218800E+01  0.12700000000E+01 0.  1.
         -4   -1    0    0    0  501 -0.00000000000E+00 -0.00000000000E+00 -0.46972418313E+03  0.46972589999E+03  0.12700000000E+01 0.  1.
         25    2    1    2    0    0  0.00000000000E+00  0.00000000000E+00 -0.46145815416E+03  0.47808892187E+03  0.12500155668E+03 0.  0.
    9000005    1    3    3    0    0  0.60656224368E+02  0.83195816504E+01 -0.18281315308E+03  0.19279533691E+03  0.10000000000E+01 0.  0.
    9000005    1    3    3    0    0 -0.60656224368E+02 -0.83195816504E+01 -0.27864500108E+03  0.28529358496E+03  0.10000000000E+01 0.  0.
<mgrwt>
<rscale>  0 0.12500156E+03</rscale>
<asrwt>0</asrwt>
<pdfrwt beam="1">  1        4 0.12792902E-02 0.12500156E+03</pdfrwt>
<pdfrwt beam="2">  1       -4 0.72272831E-01 0.12500156E+03</pdfrwt>
<totfact> 0.57603433E+03</totfact>
</mgrwt>
</event>
<event>
 5    1  0.3340698E-002  0.1250015E+03  0.7818608E-02  0.1235067E+00
         -4   -1    0    0    0  501 -0.00000000000E+00  0.00000000000E+00  0.50736759059E+02  0.50752651358E+02  0.12700000000E+01 0. -1.
          4   -1    0    0  501    0  0.00000000000E+00 -0.00000000000E+00 -0.76959208204E+02  0.76969686418E+02  0.12700000000E+01 0. -1.
         25    2    1    2    0    0  0.00000000000E+00  0.00000000000E+00 -0.26222449144E+02  0.12772233778E+03  0.12500151490E+03 0.  0.
    9000005    1    3    3    0    0  0.18097783325E+02  0.58455710169E+02 -0.26065709283E+02  0.66520831422E+02  0.10000000000E+01 0.  0.
    9000005    1    3    3    0    0 -0.18097783325E+02 -0.58455710169E+02 -0.15673986072E+00  0.61201506354E+02  0.10000000000E+01 0.  0.
<mgrwt>
<rscale>  0 0.12500151E+03</rscale>
<asrwt>0</asrwt>
<pdfrwt beam="2">  1        4 0.11841907E-01 0.12500151E+03</pdfrwt>
<pdfrwt beam="1">  1       -4 0.78076837E-02 0.12500151E+03</pdfrwt>
<totfact> 0.10393133E+04</totfact>
</mgrwt>
</event>
<event>
 5    1  0.3340698E-002  0.1250070E+03  0.7818608E-02  0.1235058E+00
         -4   -1    0    0    0  501 -0.00000000000E+00  0.00000000000E+00  0.43467900299E+02  0.43486449112E+02  0.12700000000E+01 0. -1.
          4   -1    0    0  501    0  0.00000000000E+00 -0.00000000000E+00 -0.89833086844E+02  0.89842063600E+02  0.12700000000E+01 0. -1.
         25    2    1    2    0    0  0.00000000000E+00  0.00000000000E+00 -0.46365186546E+02  0.13332851271E+03  0.12500704692E+03 0.  0.
    9000005    1    3    3    0    0 -0.26336827189E+02  0.29081252847E+02 -0.75065865647E+02  0.84706740693E+02  0.10000000000E+01 0.  0.
    9000005    1    3    3    0    0  0.26336827189E+02 -0.29081252847E+02  0.28700679101E+02  0.48621772020E+02  0.10000000000E+01 0.  0.
<mgrwt>
<rscale>  0 0.12500705E+03</rscale>
<asrwt>0</asrwt>
<pdfrwt beam="2">  1        4 0.13822592E-01 0.12500705E+03</pdfrwt>
<pdfrwt beam="1">  1       -4 0.66894866E-02 0.12500705E+03</pdfrwt>
<totfact> 0.10271790E+04</totfact>
</mgrwt>
</event>
<event>
 4    1  0.3340698E-002  0.1247811E+03  0.7818608E-02  0.1235412E+00
          4   -1    0    0  501    0  0.00000000000E+00  0.00000000000E+00  0.25321806594E+02  0.25353634634E+02  0.12700000000E+01 0.  1.
         -4   -1    0    0    0  501 -0.00000000000E+00 -0.00000000000E+00 -0.15359342988E+03  0.15359868035E+03  0.12700000000E+01 0.  1.
    9000005    1    1    2    0    0  0.17069167909E+02  0.52036096601E+02 -0.21292306333E+02  0.58766267123E+02  0.10000000000E+01 0.  0.
    9000005    1    1    2    0    0 -0.17069167909E+02 -0.52036096601E+02 -0.10697931696E+03  0.12018604786E+03  0.10000000000E+01 0.  0.
<mgrwt>
<rscale>  0 0.12478110E+03</rscale>
<asrwt>0</asrwt>
<pdfrwt beam="1">  1        4 0.38985148E-02 0.12478110E+03</pdfrwt>
<pdfrwt beam="2">  1       -4 0.23632610E-01 0.12478110E+03</pdfrwt>
<totfact> 0.94267894E+03</totfact>
</mgrwt>
</event>
<event>
 5    1  0.3340698E-002  0.1250034E+03  0.7818608E-02  0.1235064E+00
         -4   -1    0    0    0  501 -0.00000000000E+00  0.00000000000E+00  0.12142714352E+03  0.12143378477E+03  0.12700000000E+01 0.  1.
          4   -1    0    0  501    0  0.00000000000E+00 -0.00000000000E+00 -0.32151176827E+02  0.32176250114E+02  0.12700000000E+01 0.  1.
         25    2    1    2    0    0  0.00000000000E+00  0.00000000000E+00  0.89275966691E+02  0.15361003488E+03  0.12500337831E+03 0.  0.
    9000005    1    3    3    0    0  0.58147692966E+01 -0.58708075984E+02  0.19304311722E+02  0.62081447944E+02  0.10000000000E+01 0.  0.
    9000005    1    3    3    0    0 -0.58147692966E+01  0.58708075984E+02  0.69971654969E+02  0.91528586937E+02  0.10000000000E+01 0.  0.
<mgrwt>
<rscale>  0 0.12500338E+03</rscale>
<asrwt>0</asrwt>
<pdfrwt beam="2">  1        4 0.49487745E-02 0.12500338E+03</pdfrwt>
<pdfrwt beam="1">  1       -4 0.18683539E-01 0.12500338E+03</pdfrwt>
<totfact> 0.98581405E+03</totfact>
</mgrwt>
</event>
<event>
 5    1  0.3340698E-002  0.1250177E+03  0.7818608E-02  0.1235042E+00
         -4   -1    0    0    0  501 -0.00000000000E+00  0.00000000000E+00  0.43643764612E+03  0.43643949391E+03  0.12700000000E+01 0. -1.
          4   -1    0    0  501    0  0.00000000000E+00 -0.00000000000E+00 -0.89059214166E+01  0.89960178012E+01  0.12700000000E+01 0. -1.
         25    2    1    2    0    0  0.00000000000E+00  0.00000000000E+00  0.42753172470E+03  0.44543551172E+03  0.12501767664E+03 0.  0.
    9000005    1    3    3    0    0  0.36373465667E+02 -0.50635598912E+02  0.19808794511E+03  0.20766999513E+03  0.10000000000E+01 0.  0.
    9000005    1    3    3    0    0 -0.36373465667E+02  0.50635598912E+02  0.22944377959E+03  0.23776551658E+03  0.10000000000E+01 0.  0.
<mgrwt>
<rscale>  0 0.12501768E+03</rscale>
<asrwt>0</asrwt>
<pdfrwt beam="2">  1        4 0.13772145E-02 0.12501768E+03</pdfrwt>
<pdfrwt beam="1">  1       -4 0.67151321E-01 0.12501768E+03</pdfrwt>
<totfact> 0.60337766E+03</totfact>
</mgrwt>
</event>
<event>
 5    1  0.3340698E-002  0.1249983E+03  0.7818608E-02  0.1235072E+00
         -4   -1    0    0    0  501 -0.00000000000E+00  0.00000000000E+00  0.17141844578E+03  0.17142315028E+03  0.12700000000E+01 0. -1.
          4   -1    0    0  501    0  0.00000000000E+00 -0.00000000000E+00 -0.22764450851E+02  0.22799849179E+02  0.12700000000E+01 0. -1.
         25    2    1    2    0    0  0.00000000000E+00  0.00000000000E+00  0.14865399492E+03  0.19422299946E+03  0.12499825324E+03 0.  0.
    9000005    1    3    3    0    0 -0.33920898055E+02 -0.82593290872E+01  0.15485996918E+03  0.15874965794E+03  0.10000000000E+01 0.  0.
    9000005    1    3    3    0    0  0.33920898055E+02  0.82593290872E+01 -0.62059742583E+01  0.35473341516E+02  0.10000000000E+01 0.  0.
<mgrwt>
<rscale>  0 0.12499825E+03</rscale>
<asrwt>0</asrwt>
<pdfrwt beam="2">  1        4 0.35053078E-02 0.12499825E+03</pdfrwt>
<pdfrwt beam="1">  1       -4 0.26375155E-01 0.12499825E+03</pdfrwt>
<totfact> 0.91121236E+03</totfact>
</mgrwt>
</event>
<event>
 5    1  0.3340698E-002  0.1250004E+03  0.7818608E-02  0.1235069E+00
          4   -1    0    0  501    0  0.00000000000E+00  0.00000000000E+00  0.26156530306E+03  0.26156838621E+03  0.12700000000E+01 0.  1.
         -4   -1    0    0    0  501 -0.00000000000E+00 -0.00000000000E+00 -0.14904052346E+02  0.14958063923E+02  0.12700000000E+01 0.  1.
         25    2    1    2    0    0  0.00000000000E+00  0.00000000000E+00  0.24666125071E+03  0.27652645013E+03  0.12500042008E+03 0.  0.
    9000005    1    3    3    0    0 -0.26956268739E+02 -0.56118801819E+02  0.11135282919E+03  0.12757904573E+03  0.10000000000E+01 0.  0.
    9000005    1    3    3    0    0  0.26956268739E+02  0.56118801819E+02  0.13530842153E+03  0.14894740440E+03  0.10000000000E+01 0.  0.
<mgrwt>
<rscale>  0 0.12500042E+03</rscale>
<asrwt>0</asrwt>
<pdfrwt beam="1">  1        4 0.40245209E-01 0.12500042E+03</pdfrwt>
<pdfrwt beam="2">  1       -4 0.22973229E-02 0.12500042E+03</pdfrwt>
<totfact> 0.78640201E+03</totfact>
</mgrwt>
</event>
<event>
 5    1  0.3340698E-002  0.1250000E+03  0.7818608E-02  0.1235069E+00
          4   -1    0    0  501    0  0.00000000000E+00  0.00000000000E+00  0.58593120613E+02  0.58606882558E+02  0.12700000000E+01 0.  1.
         -4   -1    0    0    0  501 -0.00000000000E+00 -0.00000000000E+00 -0.66639754639E+02  0.66651855175E+02  0.12700000000E+01 0.  1.
         25    2    1    2    0    0  0.00000000000E+00  0.00000000000E+00 -0.80466340258E+01  0.12525873773E+03  0.12500001224E+03 0.  0.
    9000005    1    3    3    0    0  0.52692129233E+01  0.62252101628E+02 -0.54967354774E+01  0.62724021418E+02  0.10000000000E+01 0.  0.
    9000005    1    3    3    0    0 -0.52692129233E+01 -0.62252101628E+02 -0.25498985484E+01  0.62534716315E+02  0.10000000000E+01 0.  0.
<mgrwt>
<rscale>  0 0.12500001E+03</rscale>
<asrwt>0</asrwt>
<pdfrwt beam="1">  1        4 0.90163156E-02 0.12500001E+03</pdfrwt>
<pdfrwt beam="2">  1       -4 0.10254259E-01 0.12500001E+03</pdfrwt>
<totfact> 0.10447243E+04</totfact>
</mgrwt>
</event>
<event>
 5    1  0.3340698E-002  0.1250000E+03  0.7818608E-02  0.1235069E+00
         -4   -1    0    0    0  501 -0.00000000000E+00  0.00000000000E+00  0.12329077349E+03  0.12329731436E+03  0.12700000000E+01 0. -1.
          4   -1    0    0  501    0  0.00000000000E+00 -0.00000000000E+00 -0.31663116676E+02  0.31688576137E+02  0.12700000000E+01 0. -1.
         25    2    1    2    0    0  0.00000000000E+00  0.00000000000E+00  0.91627656814E+02  0.15498589049E+03  0.12499999504E+03 0.  0.
    9000005    1    3    3    0    0 -0.54472374241E+02  0.79950832424E+01  0.91565734981E+01  0.55821176535E+02  0.10000000000E+01 0.  0.
    9000005    1    3    3    0    0  0.54472374241E+02 -0.79950832424E+01  0.82471083316E+02  0.99164713960E+02  0.10000000000E+01 0.  0.
<mgrwt>
<rscale>  0 0.12500000E+03</rscale>
<asrwt>0</asrwt>
<pdfrwt beam="2">  1        4 0.48737104E-02 0.12500000E+03</pdfrwt>
<pdfrwt beam="1">  1       -4 0.18970272E-01 0.12500000E+03</pdfrwt>
<totfact> 0.98318280E+03</totfact>
</mgrwt>
</event>
<event>
 4    1  0.3340698E-002  0.1250706E+03  0.7818608E-02  0.1234959E+00
          4   -1    0    0  501    0  0.00000000000E+00  0.00000000000E+00  0.87709167094E+02  0.87718361204E+02  0.12700000000E+01 0. -1.
         -4   -1    0    0    0  501 -0.00000000000E+00 -0.00000000000E+00 -0.44566165922E+02  0.44584257816E+02  0.12700000000E+01 0. -1.
    9000005    1    1    2    0    0  0.25104080499E+02 -0.47180915374E+02  0.55904544276E+02  0.77347085944E+02  0.10000000000E+01 0.  0.
    9000005    1    1    2    0    0 -0.25104080499E+02  0.47180915374E+02 -0.12761543104E+02  0.54955533076E+02  0.10000000000E+01 0.  0.
<mgrwt>
<rscale>  0 0.12507064E+03</rscale>
<asrwt>0</asrwt>
<pdfrwt beam="1">  1        4 0.13495817E-01 0.12507064E+03</pdfrwt>
<pdfrwt beam="2">  1       -4 0.68584322E-02 0.12507064E+03</pdfrwt>
<totfact> 0.10278855E+04</totfact>
</mgrwt>
</event>
<event>
 5    1  0.3340698E-002  0.1249931E+03  0.7818608E-02  0.1235080E+00
         -4   -1    0    0    0  501 -0.00000000000E+00  0.00000000000E+00  0.56807262460E+02  0.56821456935E+02  0.12700000000E+01 0.  1.
          4   -1    0    0  501    0  0.00000000000E+00 -0.00000000000E+00 -0.68727021953E+02  0.68738755055E+02  0.12700000000E+01 0.  1.
         25    2    1    2    0    0  0.00000000000E+00  0.00000000000E+00 -0.11919759493E+02  0.12556021199E+03  0.12499314449E+03 0.  0.
    9000005    1    3    3    0    0  0.48775781648E+01  0.17417468651E+01 -0.68515968322E+02  0.68718719182E+02  0.10000000000E+01 0.  0.
    9000005    1    3    3    0    0 -0.48775781648E+01 -0.17417468651E+01  0.56596208829E+02  0.56841492809E+02  0.10000000000E+01 0.  0.
<mgrwt>
<rscale>  0 0.12499314E+03</rscale>
<asrwt>0</asrwt>
<pdfrwt beam="2">  1        4 0.10575382E-01 0.12499314E+03</pdfrwt>
<pdfrwt beam="1">  1       -4 0.87415732E-02 0.12499314E+03</pdfrwt>
<totfact> 0.10442239E+04</totfact>
</mgrwt>
</event>
<event>
 5    1  0.3340698E-002  0.1250063E+03  0.7818608E-02  0.1235059E+00
          4   -1    0    0  501    0  0.00000000000E+00  0.00000000000E+00  0.31933690023E+01  0.34366416143E+01  0.12700000000E+01 0. -1.
         -4   -1    0    0    0  501 -0.00000000000E+00 -0.00000000000E+00 -0.11782292077E+04  0.11782298922E+04  0.12700000000E+01 0. -1.
         25    2    1    2    0    0  0.00000000000E+00  0.00000000000E+00 -0.11750358387E+04  0.11816665338E+04  0.12500629911E+03 0.  0.
    9000005    1    3    3    0    0  0.17087479261E+02  0.52966882401E+02 -0.31878881602E+03  0.32361208537E+03  0.10000000000E+01 0.  0.
    9000005    1    3    3    0    0 -0.17087479261E+02 -0.52966882401E+02 -0.85624702271E+03  0.85805444844E+03  0.10000000000E+01 0.  0.
<mgrwt>
<rscale>  0 0.12500630E+03</rscale>
<asrwt>0</asrwt>
<pdfrwt beam="1">  1        4 0.51005441E-03 0.12500630E+03</pdfrwt>
<pdfrwt beam="2">  1       -4 0.18128446E+00 0.12500630E+03</pdfrwt>
<totfact> 0.25194328E+03</totfact>
</mgrwt>
</event>
<event>
 5    1  0.3340698E-002  0.1250014E+03  0.7818608E-02  0.1235067E+00
          4   -1    0    0  501    0  0.00000000000E+00  0.00000000000E+00  0.46518755231E+02  0.46536088020E+02  0.12700000000E+01 0. -1.
         -4   -1    0    0    0  501 -0.00000000000E+00 -0.00000000000E+00 -0.83935560834E+02  0.83945168250E+02  0.12700000000E+01 0. -1.
         25    2    1    2    0    0  0.00000000000E+00  0.00000000000E+00 -0.37416805603E+02  0.13048125627E+03  0.12500136358E+03 0.  0.
    9000005    1    3    3    0    0 -0.29964373424E+02 -0.23671849188E+01  0.38482792500E+02  0.48840480727E+02  0.10000000000E+01 0.  0.
    9000005    1    3    3    0    0  0.29964373424E+02  0.23671849188E+01 -0.75899598102E+02  0.81640775543E+02  0.10000000000E+01 0.  0.
<mgrwt>
<rscale>  0 0.12500136E+03</rscale>
<asrwt>0</asrwt>
<pdfrwt beam="1">  1        4 0.71588039E-02 0.12500136E+03</pdfrwt>
<pdfrwt beam="2">  1       -4 0.12915235E-01 0.12500136E+03</pdfrwt>
<totfact> 0.10333905E+04</totfact>
</mgrwt>
</event>
<event>
 5    1  0.3340698E-002  0.1250006E+03  0.7818608E-02  0.1235068E+00
          4   -1    0    0  501    0  0.00000000000E+00  0.00000000000E+00  0.50275614485E+02  0.50291652507E+02  0.12700000000E+01 0.  1.
         -4   -1    0    0    0  501 -0.00000000000E+00 -0.00000000000E+00 -0.77663883560E+02  0.77674266715E+02  0.12700000000E+01 0.  1.
         25    2    1    2    0    0  0.00000000000E+00  0.00000000000E+00 -0.27388269075E+02  0.12796591922E+03  0.12500063680E+03 0.  0.
    9000005    1    3    3    0    0  0.45357758770E+02 -0.32881372002E+02  0.14653522540E+02  0.57915771844E+02  0.10000000000E+01 0.  0.
    9000005    1    3    3    0    0 -0.45357758770E+02  0.32881372002E+02 -0.42041791615E+02  0.70050147378E+02  0.10000000000E+01 0.  0.
<mgrwt>
<rscale>  0 0.12500064E+03</rscale>
<asrwt>0</asrwt>
<pdfrwt beam="1">  1        4 0.77367423E-02 0.12500064E+03</pdfrwt>
<pdfrwt beam="2">  1       -4 0.11950322E-01 0.12500064E+03</pdfrwt>
<totfact> 0.10388074E+04</totfact>
</mgrwt>
</event>
<event>
 5    1  0.3340698E-002  0.1250070E+03  0.7818608E-02  0.1235058E+00
          4   -1    0    0  501    0  0.00000000000E+00  0.00000000000E+00  0.61051730375E+01  0.62358670462E+01  0.12700000000E+01 0.  1.
         -4   -1    0    0    0  501 -0.00000000000E+00 -0.00000000000E+00 -0.63299013721E+03  0.63299141124E+03  0.12700000000E+01 0.  1.
         25    2    1    2    0    0  0.00000000000E+00  0.00000000000E+00 -0.62688496417E+03  0.63922727829E+03  0.12500701981E+03 0.  0.
    9000005    1    3    3    0    0 -0.34443214437E+02  0.51609693427E+02 -0.35163794882E+03  0.35707162100E+03  0.10000000000E+01 0.  0.
    9000005    1    3    3    0    0  0.34443214437E+02 -0.51609693427E+02 -0.27524701536E+03  0.28215565729E+03  0.10000000000E+01 0.  0.
<mgrwt>
<rscale>  0 0.12500702E+03</rscale>
<asrwt>0</asrwt>
<pdfrwt beam="1">  1        4 0.94940928E-03 0.12500702E+03</pdfrwt>
<pdfrwt beam="2">  1       -4 0.97393198E-01 0.12500702E+03</pdfrwt>
<totfact> 0.46474363E+03</totfact>
</mgrwt>
</event>
<event>
 5    1  0.3340698E-002  0.1249952E+03  0.7818608E-02  0.1235077E+00
         -4   -1    0    0    0  501 -0.00000000000E+00  0.00000000000E+00  0.45343137815E+01  0.47088110463E+01  0.12700000000E+01 0.  1.
          4   -1    0    0  501    0  0.00000000000E+00 -0.00000000000E+00 -0.84498262548E+03  0.84498357988E+03  0.12700000000E+01 0.  1.
         25    2    1    2    0    0  0.00000000000E+00  0.00000000000E+00 -0.84044831170E+03  0.84969239092E+03  0.12499517814E+03 0.  0.
    9000005    1    3    3    0    0 -0.20925413061E+02 -0.20750077327E+02 -0.79481385323E+03  0.79536060998E+03  0.10000000000E+01 0.  0.
    9000005    1    3    3    0    0  0.20925413061E+02  0.20750077327E+02 -0.45634458467E+02  0.54331780943E+02  0.10000000000E+01 0.  0.
<mgrwt>
<rscale>  0 0.12499518E+03</rscale>
<asrwt>0</asrwt>
<pdfrwt beam="2">  1        4 0.13001070E+00 0.12499518E+03</pdfrwt>
<pdfrwt beam="1">  1       -4 0.71108369E-03 0.12499518E+03</pdfrwt>
<totfact> 0.36143750E+03</totfact>
</mgrwt>
</event>
<event>
 5    1  0.3340698E-002  0.1249964E+03  0.7818608E-02  0.1235075E+00
         -4   -1    0    0    0  501 -0.00000000000E+00  0.00000000000E+00  0.25145962133E+03  0.25146282838E+03  0.12700000000E+01 0.  1.
          4   -1    0    0  501    0  0.00000000000E+00 -0.00000000000E+00 -0.15504128439E+02  0.15556056655E+02  0.12700000000E+01 0.  1.
         25    2    1    2    0    0  0.00000000000E+00  0.00000000000E+00  0.23595549289E+03  0.26701888504E+03  0.12499636132E+03 0.  0.
    9000005    1    3    3    0    0  0.41866752592E+02  0.34757322066E+02  0.18361639439E+03  0.19151207977E+03  0.10000000000E+01 0.  0.
    9000005    1    3    3    0    0 -0.41866752592E+02 -0.34757322066E+02  0.52339098501E+02  0.75506805268E+02  0.10000000000E+01 0.  0.
<mgrwt>
<rscale>  0 0.12499636E+03</rscale>
<asrwt>0</asrwt>
<pdfrwt beam="2">  1        4 0.23894920E-02 0.12499636E+03</pdfrwt>
<pdfrwt beam="1">  1       -4 0.38690333E-01 0.12499636E+03</pdfrwt>
<totfact> 0.79937514E+03</totfact>
</mgrwt>
</event>
<event>
 5    1  0.3340698E-002  0.1249974E+03  0.7818608E-02  0.1235073E+00
         -4   -1    0    0    0  501 -0.00000000000E+00  0.00000000000E+00  0.33764145206E+03  0.33764384053E+03  0.12700000000E+01 0. -1.
          4   -1    0    0  501    0  0.00000000000E+00 -0.00000000000E+00 -0.11531455498E+02  0.11601179505E+02  0.12700000000E+01 0. -1.
         25    2    1    2    0    0  0.00000000000E+00  0.00000000000E+00  0.32610999656E+03  0.34924502003E+03  0.12499741662E+03 0.  0.
    9000005    1    3    3    0    0  0.22078219910E+02 -0.30887148697E+02  0.24374156965E+02  0.45128297960E+02  0.10000000000E+01 0.  0.
    9000005    1    3    3    0    0 -0.22078219910E+02  0.30887148697E+02  0.30173583959E+03  0.30411672207E+03  0.10000000000E+01 0.  0.
<mgrwt>
<rscale>  0 0.12499742E+03</rscale>
<asrwt>0</asrwt>
<pdfrwt beam="2">  1        4 0.17796170E-02 0.12499742E+03</pdfrwt>
<pdfrwt beam="1">  1       -4 0.51950391E-01 0.12499742E+03</pdfrwt>
<totfact> 0.69811679E+03</totfact>
</mgrwt>
</event>
<event>
 5    1  0.3340698E-002  0.1249964E+03  0.7818608E-02  0.1235075E+00
          4   -1    0    0  501    0  0.00000000000E+00  0.00000000000E+00  0.37777116080E+03  0.37777329555E+03  0.12700000000E+01 0.  1.
         -4   -1    0    0    0  501 -0.00000000000E+00 -0.00000000000E+00 -0.10298496274E+02  0.10376508349E+02  0.12700000000E+01 0.  1.
         25    2    1    2    0    0  0.00000000000E+00  0.00000000000E+00  0.36747266452E+03  0.38814980390E+03  0.12499644433E+03 0.  0.
    9000005    1    3    3    0    0 -0.11914271138E+02 -0.60732053044E+02  0.21057428397E+03  0.21948316836E+03  0.10000000000E+01 0.  0.
    9000005    1    3    3    0    0  0.11914271138E+02  0.60732053044E+02  0.15689838056E+03  0.16866663554E+03  0.10000000000E+01 0.  0.
<mgrwt>
<rscale>  0 0.12499644E+03</rscale>
<asrwt>0</asrwt>
<pdfrwt beam="1">  1        4 0.58124804E-01 0.12499644E+03</pdfrwt>
<pdfrwt beam="2">  1       -4 0.15905492E-02 0.12499644E+03</pdfrwt>
<totfact> 0.65727038E+03</totfact>
</mgrwt>
</event>
<event>
 5    1  0.3340698E-002  0.1250047E+03  0.7818608E-02  0.1235062E+00
         -4   -1    0    0    0  501 -0.00000000000E+00  0.00000000000E+00  0.36428648047E+03  0.36428869425E+03  0.12700000000E+01 0.  1.
          4   -1    0    0  501    0  0.00000000000E+00 -0.00000000000E+00 -0.10683964803E+02  0.10759182307E+02  0.12700000000E+01 0.  1.
         25    2    1    2    0    0  0.00000000000E+00  0.00000000000E+00  0.35360251567E+03  0.37504787655E+03  0.12500468239E+03 0.  0.
    9000005    1    3    3    0    0 -0.42714196168E+02 -0.10864053030E+00  0.31366847050E+03  0.31656503872E+03  0.10000000000E+01 0.  0.
    9000005    1    3    3    0    0  0.42714196168E+02  0.10864053030E+00  0.39934045175E+02  0.58482837834E+02  0.10000000000E+01 0.  0.
<mgrwt>
<rscale>  0 0.12500468E+03</rscale>
<asrwt>0</asrwt>
<pdfrwt beam="2">  1        4 0.16496432E-02 0.12500468E+03</pdfrwt>
<pdfrwt beam="1">  1       -4 0.56050029E-01 0.12500468E+03</pdfrwt>
<totfact> 0.67047180E+03</totfact>
</mgrwt>
</event>
<event>
 5    1  0.3340698E-002  0.1250034E+03  0.7818608E-02  0.1235064E+00
         -4   -1    0    0    0  501 -0.00000000000E+00  0.00000000000E+00  0.95954674127E+02  0.95963078248E+02  0.12700000000E+01 0. -1.
          4   -1    0    0  501    0  0.00000000000E+00 -0.00000000000E+00 -0.40691433729E+02  0.40711247572E+02  0.12700000000E+01 0. -1.
         25    2    1    2    0    0  0.00000000000E+00  0.00000000000E+00  0.55263240398E+02  0.13667432582E+03  0.12500338235E+03 0.  0.
    9000005    1    3    3    0    0 -0.90850733703E+00 -0.22322219157E+01  0.95909207968E+02  0.95944694347E+02  0.10000000000E+01 0.  0.
    9000005    1    3    3    0    0  0.90850733703E+00  0.22322219157E+01 -0.40645967570E+02  0.40729631473E+02  0.10000000000E+01 0.  0.
<mgrwt>
<rscale>  0 0.12500338E+03</rscale>
<asrwt>0</asrwt>
<pdfrwt beam="2">  1        4 0.62623913E-02 0.12500338E+03</pdfrwt>
<pdfrwt beam="1">  1       -4 0.14764428E-01 0.12500338E+03</pdfrwt>
<totfact> 0.10202122E+04</totfact>
</mgrwt>
</event>
<event>
 5    1  0.3340698E-002  0.1249979E+03  0.7818608E-02  0.1235073E+00
          4   -1    0    0  501    0  0.00000000000E+00  0.00000000000E+00  0.31963150969E+01  0.34393793334E+01  0.12700000000E+01 0. -1.
         -4   -1    0    0    0  501 -0.00000000000E+00 -0.00000000000E+00 -0.11770616704E+04  0.11770623555E+04  0.12700000000E+01 0. -1.
         25    2    1    2    0    0  0.00000000000E+00  0.00000000000E+00 -0.11738653553E+04  0.11805017349E+04  0.12499789460E+03 0.  0.
    9000005    1    3    3    0    0  0.18903794374E+02  0.46195712012E+02 -0.94202870310E+03  0.94335066371E+03  0.10000000000E+01 0.  0.
    9000005    1    3    3    0    0 -0.18903794374E+02 -0.46195712012E+02 -0.23183665219E+03  0.23715107115E+03  0.10000000000E+01 0.  0.
<mgrwt>
<rscale>  0 0.12499789E+03</rscale>
<asrwt>0</asrwt>
<pdfrwt beam="1">  1        4 0.51049167E-03 0.12499789E+03</pdfrwt>
<pdfrwt beam="2">  1       -4 0.18110483E+00 0.12499789E+03</pdfrwt>
<totfact> 0.25230112E+03</totfact>
</mgrwt>
</event>
<event>
 5    1  0.3340698E-002  0.1249966E+03  0.7818608E-02  0.1235075E+00
         -4   -1    0    0    0  501 -0.00000000000E+00  0.00000000000E+00  0.47453474842E+02  0.47470466340E+02  0.12700000000E+01 0.  1.
          4   -1    0    0  501    0  0.00000000000E+00 -0.00000000000E+00 -0.82276308189E+02  0.82286109334E+02  0.12700000000E+01 0.  1.
         25    2    1    2    0    0  0.00000000000E+00  0.00000000000E+00 -0.34822833347E+02  0.12975657567E+03  0.12499655679E+03 0.  0.
    9000005    1    3    3    0    0  0.49953589409E+02 -0.37346561612E+02 -0.13403288099E+02  0.63802624483E+02  0.10000000000E+01 0.  0.
    9000005    1    3    3    0    0 -0.49953589409E+02  0.37346561612E+02 -0.21419545248E+02  0.65953951191E+02  0.10000000000E+01 0.  0.
<mgrwt>
<rscale>  0 0.12499656E+03</rscale>
<asrwt>0</asrwt>
<pdfrwt beam="2">  1        4 0.12659955E-01 0.12499656E+03</pdfrwt>
<pdfrwt beam="1">  1       -4 0.73025956E-02 0.12499656E+03</pdfrwt>
<totfact> 0.10350522E+04</totfact>
</mgrwt>
</event>
<event>
 5    1  0.3340698E-002  0.1249977E+03  0.7818608E-02  0.1235073E+00
         -4   -1    0    0    0  501 -0.00000000000E+00  0.00000000000E+00  0.91567960244E+02  0.91576766940E+02  0.12700000000E+01 0.  1.
          4   -1    0    0  501    0  0.00000000000E+00 -0.00000000000E+00 -0.42637713506E+02  0.42656623320E+02  0.12700000000E+01 0.  1.
         25    2    1    2    0    0  0.00000000000E+00  0.00000000000E+00  0.48930246738E+02  0.13423339026E+03  0.12499773604E+03 0.  0.
    9000005    1    3    3    0    0 -0.22903711468E+02 -0.47444312463E+01  0.86695148807E+02  0.89800548181E+02  0.10000000000E+01 0.  0.
    9000005    1    3    3    0    0  0.22903711468E+02  0.47444312463E+01 -0.37764902070E+02  0.44432842079E+02  0.10000000000E+01 0.  0.
<mgrwt>
<rscale>  0 0.12499774E+03</rscale>
<asrwt>0</asrwt>
<pdfrwt beam="2">  1        4 0.65617803E-02 0.12499774E+03</pdfrwt>
<pdfrwt beam="1">  1       -4 0.14089510E-01 0.12499774E+03</pdfrwt>
<totfact> 0.10254778E+04</totfact>
</mgrwt>
</event>
<event>
 5    1  0.3340698E-002  0.1249940E+03  0.7818608E-02  0.1235079E+00
          4   -1    0    0  501    0  0.00000000000E+00  0.00000000000E+00  0.16964869340E+03  0.16965344698E+03  0.12700000000E+01 0. -1.
         -4   -1    0    0    0  501 -0.00000000000E+00 -0.00000000000E+00 -0.23000737111E+02  0.23035772348E+02  0.12700000000E+01 0. -1.
         25    2    1    2    0    0  0.00000000000E+00  0.00000000000E+00  0.14664795629E+03  0.19268921933E+03  0.12499404851E+03 0.  0.
    9000005    1    3    3    0    0 -0.29972628508E+02  0.73991117730E+01  0.15707874617E+03  0.16008696953E+03  0.10000000000E+01 0.  0.
    9000005    1    3    3    0    0  0.29972628508E+02 -0.73991117730E+01 -0.10430789877E+02  0.32602249802E+02  0.10000000000E+01 0.  0.
<mgrwt>
<rscale>  0 0.12499405E+03</rscale>
<asrwt>0</asrwt>
<pdfrwt beam="1">  1        4 0.26102860E-01 0.12499405E+03</pdfrwt>
<pdfrwt beam="2">  1       -4 0.35416356E-02 0.12499405E+03</pdfrwt>
<totfact> 0.91393673E+03</totfact>
</mgrwt>
</event>
<event>
 5    1  0.3340698E-002  0.1250095E+03  0.7818608E-02  0.1235055E+00
          4   -1    0    0  501    0  0.00000000000E+00  0.00000000000E+00  0.30584623984E+03  0.30584887661E+03  0.12700000000E+01 0.  1.
         -4   -1    0    0    0  501 -0.00000000000E+00 -0.00000000000E+00 -0.12739607419E+02  0.12802753500E+02  0.12700000000E+01 0.  1.
         25    2    1    2    0    0  0.00000000000E+00  0.00000000000E+00  0.29310663242E+03  0.31865163011E+03  0.12500945326E+03 0.  0.
    9000005    1    3    3    0    0 -0.48449492405E+02  0.13671508898E+02  0.52150826990E+02  0.72491187227E+02  0.10000000000E+01 0.  0.
    9000005    1    3    3    0    0  0.48449492405E+02 -0.13671508898E+02  0.24095580543E+03  0.24616044288E+03  0.10000000000E+01 0.  0.
<mgrwt>
<rscale>  0 0.12500945E+03</rscale>
<asrwt>0</asrwt>
<pdfrwt beam="1">  1        4 0.47058326E-01 0.12500945E+03</pdfrwt>
<pdfrwt beam="2">  1       -4 0.19649999E-02 0.12500945E+03</pdfrwt>
<totfact> 0.73301420E+03</totfact>
</mgrwt>
</event>
<event>
 5    1  0.3340698E-002  0.1249854E+03  0.7818608E-02  0.1235092E+00
          4   -1    0    0  501    0  0.00000000000E+00  0.00000000000E+00  0.27361090386E+01  0.30164868094E+01  0.12700000000E+01 0. -1.
         -4   -1    0    0    0  501 -0.00000000000E+00 -0.00000000000E+00 -0.13574845716E+04  0.13574851657E+04  0.12700000000E+01 0. -1.
         25    2    1    2    0    0  0.00000000000E+00  0.00000000000E+00 -0.13547484626E+04  0.13605016525E+04  0.12498539757E+03 0.  0.
    9000005    1    3    3    0    0 -0.38089068372E+02 -0.44529910594E+02 -0.91352404056E+03  0.91540202248E+03  0.10000000000E+01 0.  0.
    9000005    1    3    3    0    0  0.38089068372E+02  0.44529910594E+02 -0.44122442200E+03  0.44509963001E+03  0.10000000000E+01 0.  0.
<mgrwt>
<rscale>  0 0.12498540E+03</rscale>
<asrwt>0</asrwt>
<pdfrwt beam="1">  1        4 0.44255415E-03 0.12498540E+03</pdfrwt>
<pdfrwt beam="2">  1       -4 0.20886488E+00 0.12498540E+03</pdfrwt>
<totfact> 0.20850645E+03</totfact>
</mgrwt>
</event>
<event>
 5    1  0.3340698E-002  0.1249984E+03  0.7818608E-02  0.1235072E+00
          4   -1    0    0  501    0  0.00000000000E+00  0.00000000000E+00  0.80483887023E+02  0.80493906417E+02  0.12700000000E+01 0.  1.
         -4   -1    0    0    0  501 -0.00000000000E+00 -0.00000000000E+00 -0.48511929565E+02  0.48528550464E+02  0.12700000000E+01 0.  1.
         25    2    1    2    0    0  0.00000000000E+00  0.00000000000E+00  0.31971957458E+02  0.12902245688E+03  0.12499835325E+03 0.  0.
    9000005    1    3    3    0    0 -0.56172670613E+02  0.21740331541E+02  0.33169319288E+02  0.68769285887E+02  0.10000000000E+01 0.  0.
    9000005    1    3    3    0    0  0.56172670613E+02 -0.21740331541E+02 -0.11973618306E+01  0.60253170993E+02  0.10000000000E+01 0.  0.
<mgrwt>
<rscale>  0 0.12499835E+03</rscale>
<asrwt>0</asrwt>
<pdfrwt beam="1">  1        4 0.12384186E-01 0.12499835E+03</pdfrwt>
<pdfrwt beam="2">  1       -4 0.74654231E-02 0.12499835E+03</pdfrwt>
<totfact> 0.10365850E+04</totfact>
</mgrwt>
</event>
<event>
 5    1  0.3340698E-002  0.1250014E+03  0.7818608E-02  0.1235067E+00
         -4   -1    0    0    0  501 -0.00000000000E+00  0.00000000000E+00  0.77908690996E+02  0.77919041528E+02  0.12700000000E+01 0.  1.
          4   -1    0    0  501    0  0.00000000000E+00 -0.00000000000E+00 -0.50118210227E+02  0.50134298602E+02  0.12700000000E+01 0.  1.
         25    2    1    2    0    0  0.00000000000E+00  0.00000000000E+00  0.27790480769E+02  0.12805334013E+03  0.12500138838E+03 0.  0.
    9000005    1    3    3    0    0 -0.13337721391E+02  0.28669498273E+01 -0.48579168862E+02  0.50468305505E+02  0.10000000000E+01 0.  0.
    9000005    1    3    3    0    0  0.13337721391E+02 -0.28669498273E+01  0.76369649631E+02  0.77585034626E+02  0.10000000000E+01 0.  0.
<mgrwt>
<rscale>  0 0.12500139E+03</rscale>
<asrwt>0</asrwt>
<pdfrwt beam="2">  1        4 0.77125276E-02 0.12500139E+03</pdfrwt>
<pdfrwt beam="1">  1       -4 0.11987986E-01 0.12500139E+03</pdfrwt>
<totfact> 0.10386010E+04</totfact>
</mgrwt>
</event>
<event>
 5    1  0.3340698E-002  0.1249951E+03  0.7818608E-02  0.1235077E+00
         -4   -1    0    0    0  501 -0.00000000000E+00  0.00000000000E+00  0.15470700871E+03  0.15471222138E+03  0.12700000000E+01 0.  1.
          4   -1    0    0  501    0  0.00000000000E+00 -0.00000000000E+00 -0.25225747604E+02  0.25257696692E+02  0.12700000000E+01 0.  1.
         25    2    1    2    0    0  0.00000000000E+00  0.00000000000E+00  0.12948126110E+03  0.17996991807E+03  0.12499509763E+03 0.  0.
    9000005    1    3    3    0    0  0.60678747435E+02  0.11567815634E+02  0.51140744422E+02  0.80200377111E+02  0.10000000000E+01 0.  0.
    9000005    1    3    3    0    0 -0.60678747435E+02 -0.11567815634E+02  0.78340516681E+02  0.99769540956E+02  0.10000000000E+01 0.  0.
<mgrwt>
<rscale>  0 0.12499510E+03</rscale>
<asrwt>0</asrwt>
<pdfrwt beam="2">  1        4 0.38837429E-02 0.12499510E+03</pdfrwt>
<pdfrwt beam="1">  1       -4 0.23803937E-01 0.12499510E+03</pdfrwt>
<totfact> 0.93632710E+03</totfact>
</mgrwt>
</event>
<event>
 5    1  0.3340698E-002  0.1249938E+03  0.7818608E-02  0.1235079E+00
         -4   -1    0    0    0  501 -0.00000000000E+00  0.00000000000E+00  0.38351433776E+02  0.38372455912E+02  0.12700000000E+01 0. -1.
          4   -1    0    0  501    0  0.00000000000E+00 -0.00000000000E+00 -0.10179114269E+03  0.10179906498E+03  0.12700000000E+01 0. -1.
         25    2    1    2    0    0  0.00000000000E+00  0.00000000000E+00 -0.63439708914E+02  0.14017152089E+03  0.12499383425E+03 0.  0.
    9000005    1    3    3    0    0 -0.27236421094E+02  0.13899801132E+02 -0.92833408639E+02  0.97744917336E+02  0.10000000000E+01 0.  0.
    9000005    1    3    3    0    0  0.27236421094E+02 -0.13899801132E+02  0.29393699725E+02  0.42426603553E+02  0.10000000000E+01 0.  0.
<mgrwt>
<rscale>  0 0.12499383E+03</rscale>
<asrwt>0</asrwt>
<pdfrwt beam="2">  1        4 0.15662402E-01 0.12499383E+03</pdfrwt>
<pdfrwt beam="1">  1       -4 0.59024471E-02 0.12499383E+03</pdfrwt>
<totfact> 0.10131439E+04</totfact>
</mgrwt>
</event>
<event>
 4    1  0.3340698E-002  0.1249181E+03  0.7818608E-02  0.1235197E+00
          4   -1    0    0  501    0  0.00000000000E+00  0.00000000000E+00  0.24961355612E+02  0.24993642672E+02  0.12700000000E+01 0. -1.
         -4   -1    0    0    0  501 -0.00000000000E+00 -0.00000000000E+00 -0.15615092427E+03  0.15615608874E+03  0.12700000000E+01 0. -1.
    9000005    1    1    2    0    0  0.64557623392E+01 -0.24750445692E+02 -0.14821340861E+03  0.15040769901E+03  0.10000000000E+01 0.  0.
    9000005    1    1    2    0    0 -0.64557623392E+01  0.24750445692E+02  0.17023839954E+02  0.30742032401E+02  0.10000000000E+01 0.  0.
<mgrwt>
<rscale>  0 0.12491806E+03</rscale>
<asrwt>0</asrwt>
<pdfrwt beam="1">  1        4 0.38430895E-02 0.12491806E+03</pdfrwt>
<pdfrwt beam="2">  1       -4 0.24026099E-01 0.12491806E+03</pdfrwt>
<totfact> 0.93582258E+03</totfact>
</mgrwt>
</event>
<event>
 5    1  0.3340698E-002  0.1250031E+03  0.7818608E-02  0.1235064E+00
          4   -1    0    0  501    0  0.00000000000E+00  0.00000000000E+00  0.44885289287E+02  0.44903252603E+02  0.12700000000E+01 0.  1.
         -4   -1    0    0    0  501 -0.00000000000E+00 -0.00000000000E+00 -0.86991675030E+02  0.87000944963E+02  0.12700000000E+01 0.  1.
         25    2    1    2    0    0  0.00000000000E+00  0.00000000000E+00 -0.42106385743E+02  0.13190419757E+03  0.12500307842E+03 0.  0.
    9000005    1    3    3    0    0 -0.31138700901E+01  0.39321056228E+02 -0.72201933404E+02  0.82279771737E+02  0.10000000000E+01 0.  0.
    9000005    1    3    3    0    0  0.31138700901E+01 -0.39321056228E+02  0.30095547662E+02  0.49624425829E+02  0.10000000000E+01 0.  0.
<mgrwt>
<rscale>  0 0.12500308E+03</rscale>
<asrwt>0</asrwt>
<pdfrwt beam="1">  1        4 0.69075240E-02 0.12500308E+03</pdfrwt>
<pdfrwt beam="2">  1       -4 0.13385429E-01 0.12500308E+03</pdfrwt>
<totfact> 0.10303028E+04</totfact>
</mgrwt>
</event>
<event>
 5    1  0.3340698E-002  0.1249992E+03  0.7818608E-02  0.1235070E+00
          4   -1    0    0  501    0  0.00000000000E+00  0.00000000000E+00  0.46651837485E+03  0.46652010351E+03  0.12700000000E+01 0.  1.
         -4   -1    0    0    0  501 -0.00000000000E+00 -0.00000000000E+00 -0.83231804640E+01  0.84195150119E+01  0.12700000000E+01 0.  1.
         25    2    1    2    0    0  0.00000000000E+00  0.00000000000E+00  0.45819519439E+03  0.47493961852E+03  0.12499922031E+03 0.  0.
    9000005    1    3    3    0    0  0.54099363827E+02  0.30987579884E+02  0.24532034355E+03  0.25312060807E+03  0.10000000000E+01 0.  0.
    9000005    1    3    3    0    0 -0.54099363827E+02 -0.30987579884E+02  0.21287485084E+03  0.22181901044E+03  0.10000000000E+01 0.  0.
<mgrwt>
<rscale>  0 0.12499922E+03</rscale>
<asrwt>0</asrwt>
<pdfrwt beam="1">  1        4 0.71779620E-01 0.12499922E+03</pdfrwt>
<pdfrwt beam="2">  1       -4 0.12880323E-02 0.12499922E+03</pdfrwt>
<totfact> 0.57863537E+03</totfact>
</mgrwt>
</event>
<event>
 5    1  0.3340698E-002  0.1249994E+03  0.7818608E-02  0.1235070E+00
         -4   -1    0    0    0  501 -0.00000000000E+00  0.00000000000E+00  0.15305129624E+03  0.15305656530E+03  0.12700000000E+01 0.  1.
          4   -1    0    0  501    0  0.00000000000E+00 -0.00000000000E+00 -0.25500735494E+02  0.25532340486E+02  0.12700000000E+01 0.  1.
         25    2    1    2    0    0  0.00000000000E+00  0.00000000000E+00  0.12755056075E+03  0.17858890579E+03  0.12499940689E+03 0.  0.
    9000005    1    3    3    0    0  0.53678661654E+02  0.93096620543E+01  0.10751236013E+03  0.12053205427E+03  0.10000000000E+01 0.  0.
    9000005    1    3    3    0    0 -0.53678661654E+02 -0.93096620543E+01  0.20038200617E+02  0.58056851521E+02  0.10000000000E+01 0.  0.
<mgrwt>
<rscale>  0 0.12499941E+03</rscale>
<asrwt>0</asrwt>
<pdfrwt beam="2">  1        4 0.39260266E-02 0.12499941E+03</pdfrwt>
<pdfrwt beam="1">  1       -4 0.23549189E-01 0.12499941E+03</pdfrwt>
<totfact> 0.93872872E+03</totfact>
</mgrwt>
</event>
<event>
 5    1  0.3340698E-002  0.1250017E+03  0.7818608E-02  0.1235067E+00
         -4   -1    0    0    0  501 -0.00000000000E+00  0.00000000000E+00  0.65988289471E+03  0.65988411682E+03  0.12700000000E+01 0.  1.
          4   -1    0    0  501    0  0.00000000000E+00 -0.00000000000E+00 -0.58504182015E+01  0.59866763010E+01  0.12700000000E+01 0.  1.
         25    2    1    2    0    0  0.00000000000E+00  0.00000000000E+00  0.65403247651E+03  0.66587079312E+03  0.12500173120E+03 0.  0.
    9000005    1    3    3    0    0  0.36134202628E+02  0.17942140505E+02  0.72785738114E+02  0.83224784038E+02  0.10000000000E+01 0.  0.
    9000005    1    3    3    0    0 -0.36134202628E+02 -0.17942140505E+02  0.58124673840E+03  0.58264600908E+03  0.10000000000E+01 0.  0.
<mgrwt>
<rscale>  0 0.12500173E+03</rscale>
<asrwt>0</asrwt>
<pdfrwt beam="2">  1        4 0.91063929E-03 0.12500173E+03</pdfrwt>
<pdfrwt beam="1">  1       -4 0.10153107E+00 0.12500173E+03</pdfrwt>
<totfact> 0.44948817E+03</totfact>
</mgrwt>
</event>
<event>
 5    1  0.3340698E-002  0.1250009E+03  0.7818608E-02  0.1235068E+00
          4   -1    0    0  501    0  0.00000000000E+00  0.00000000000E+00  0.28406663703E+02  0.28435038996E+02  0.12700000000E+01 0.  1.
         -4   -1    0    0    0  501 -0.00000000000E+00 -0.00000000000E+00 -0.13741367346E+03  0.13741954211E+03  0.12700000000E+01 0.  1.
         25    2    1    2    0    0  0.00000000000E+00  0.00000000000E+00 -0.10900700976E+03  0.16585458111E+03  0.12500085559E+03 0.  0.
    9000005    1    3    3    0    0  0.33857497762E+02 -0.51022600145E+02 -0.71057910524E+02  0.93807582467E+02  0.10000000000E+01 0.  0.
    9000005    1    3    3    0    0 -0.33857497762E+02  0.51022600145E+02 -0.37949099234E+02  0.72046998639E+02  0.10000000000E+01 0.  0.
<mgrwt>
<rscale>  0 0.12500086E+03</rscale>
<asrwt>0</asrwt>
<pdfrwt beam="1">  1        4 0.43728902E-02 0.12500086E+03</pdfrwt>
<pdfrwt beam="2">  1       -4 0.21143199E-01 0.12500086E+03</pdfrwt>
<totfact> 0.96223944E+03</totfact>
</mgrwt>
</event>
<event>
 5    1  0.3340698E-002  0.1250022E+03  0.7818608E-02  0.1235066E+00
          4   -1    0    0  501    0  0.00000000000E+00  0.00000000000E+00  0.86603695226E+02  0.86613006684E+02  0.12700000000E+01 0.  1.
         -4   -1    0    0    0  501 -0.00000000000E+00 -0.00000000000E+00 -0.45085819621E+02  0.45103703073E+02  0.12700000000E+01 0.  1.
         25    2    1    2    0    0  0.00000000000E+00  0.00000000000E+00  0.41517875605E+02  0.13171670976E+03  0.12500223052E+03 0.  0.
    9000005    1    3    3    0    0  0.13161356966E+02  0.72779001394E+01 -0.43155625328E+02  0.45712111579E+02  0.10000000000E+01 0.  0.
    9000005    1    3    3    0    0 -0.13161356966E+02 -0.72779001394E+01  0.84673500932E+02  0.86004598178E+02  0.10000000000E+01 0.  0.
<mgrwt>
<rscale>  0 0.12500223E+03</rscale>
<asrwt>0</asrwt>
<pdfrwt beam="1">  1        4 0.13325737E-01 0.12500223E+03</pdfrwt>
<pdfrwt beam="2">  1       -4 0.69383718E-02 0.12500223E+03</pdfrwt>
<totfact> 0.10307230E+04</totfact>
</mgrwt>
</event>
<event>
 5    1  0.3340698E-002  0.1250008E+03  0.7818608E-02  0.1235068E+00
          4   -1    0    0  501    0  0.00000000000E+00  0.00000000000E+00  0.68932497978E+02  0.68944196112E+02  0.12700000000E+01 0. -1.
         -4   -1    0    0    0  501 -0.00000000000E+00 -0.00000000000E+00 -0.56644879119E+02  0.56659114275E+02  0.12700000000E+01 0. -1.
         25    2    1    2    0    0  0.00000000000E+00  0.00000000000E+00  0.12287618859E+02  0.12560331039E+03  0.12500082401E+03 0.  0.
    9000005    1    3    3    0    0 -0.20802133144E+02  0.52275672636E+02  0.33474665928E+02  0.65475399593E+02  0.10000000000E+01 0.  0.
    9000005    1    3    3    0    0  0.20802133144E+02 -0.52275672636E+02 -0.21187047070E+02  0.60127910794E+02  0.10000000000E+01 0.  0.
<mgrwt>
<rscale>  0 0.12500082E+03</rscale>
<asrwt>0</asrwt>
<pdfrwt beam="1">  1        4 0.10606995E-01 0.12500082E+03</pdfrwt>
<pdfrwt beam="2">  1       -4 0.87165916E-02 0.12500082E+03</pdfrwt>
<totfact> 0.10439480E+04</totfact>
</mgrwt>
</event>
<event>
 5    1  0.3340698E-002  0.1249970E+03  0.7818608E-02  0.1235074E+00
          4   -1    0    0  501    0  0.00000000000E+00  0.00000000000E+00  0.14945327944E+03  0.14945867534E+03  0.12700000000E+01 0. -1.
         -4   -1    0    0    0  501 -0.00000000000E+00 -0.00000000000E+00 -0.26114388024E+02  0.26145251230E+02  0.12700000000E+01 0. -1.
         25    2    1    2    0    0  0.00000000000E+00  0.00000000000E+00  0.12333889141E+03  0.17560392657E+03  0.12499702753E+03 0.  0.
    9000005    1    3    3    0    0 -0.27619092179E+02  0.11697339025E+02 -0.15347676055E+02  0.33707464356E+02  0.10000000000E+01 0.  0.
    9000005    1    3    3    0    0  0.27619092179E+02 -0.11697339025E+02  0.13868656747E+03  0.14189646221E+03  0.10000000000E+01 0.  0.
<mgrwt>
<rscale>  0 0.12499703E+03</rscale>
<asrwt>0</asrwt>
<pdfrwt beam="1">  1        4 0.22995601E-01 0.12499703E+03</pdfrwt>
<pdfrwt beam="2">  1       -4 0.40203873E-02 0.12499703E+03</pdfrwt>
<totfact> 0.94420644E+03</totfact>
</mgrwt>
</event>
<event>
 5    1  0.3340698E-002  0.1249996E+03  0.7818608E-02  0.1235070E+00
         -4   -1    0    0    0  501 -0.00000000000E+00  0.00000000000E+00  0.18062389710E+03  0.18062836185E+03  0.12700000000E+01 0.  1.
          4   -1    0    0  501    0  0.00000000000E+00 -0.00000000000E+00 -0.21602909470E+02  0.21640207891E+02  0.12700000000E+01 0.  1.
         25    2    1    2    0    0  0.00000000000E+00  0.00000000000E+00  0.15902098763E+03  0.20226856974E+03  0.12499959919E+03 0.  0.
    9000005    1    3    3    0    0 -0.43005912402E+02  0.77957785009E+01  0.72360179232E+01  0.44313007339E+02  0.10000000000E+01 0.  0.
    9000005    1    3    3    0    0  0.43005912402E+02 -0.77957785009E+01  0.15178496971E+03  0.15795556240E+03  0.10000000000E+01 0.  0.
<mgrwt>
<rscale>  0 0.12499960E+03</rscale>
<asrwt>0</asrwt>
<pdfrwt beam="2">  1        4 0.33267371E-02 0.12499960E+03</pdfrwt>
<pdfrwt beam="1">  1       -4 0.27791504E-01 0.12499960E+03</pdfrwt>
<totfact> 0.89755104E+03</totfact>
</mgrwt>
</event>
<event>
 5    1  0.3340698E-002  0.1249996E+03  0.7818608E-02  0.1235070E+00
          4   -1    0    0  501    0  0.00000000000E+00  0.00000000000E+00  0.20469513957E+02  0.20508873729E+02  0.12700000000E+01 0.  1.
         -4   -1    0    0    0  501 -0.00000000000E+00 -0.00000000000E+00 -0.19060646604E+03  0.19061069696E+03  0.12700000000E+01 0.  1.
         25    2    1    2    0    0  0.00000000000E+00  0.00000000000E+00 -0.17013695208E+03  0.21111957069E+03  0.12499956266E+03 0.  0.
    9000005    1    3    3    0    0  0.46759588456E+02  0.18525971103E+02 -0.14770944958E+03  0.15604086713E+03  0.10000000000E+01 0.  0.
    9000005    1    3    3    0    0 -0.46759588456E+02 -0.18525971103E+02 -0.22427502504E+02  0.55078703566E+02  0.10000000000E+01 0.  0.
<mgrwt>
<rscale>  0 0.12499956E+03</rscale>
<asrwt>0</asrwt>
<pdfrwt beam="1">  1        4 0.31525093E-02 0.12499956E+03</pdfrwt>
<pdfrwt beam="2">  1       -4 0.29327424E-01 0.12499956E+03</pdfrwt>
<totfact> 0.88294230E+03</totfact>
</mgrwt>
</event>
<event>
 5    1  0.3340698E-002  0.1250027E+03  0.7818608E-02  0.1235065E+00
         -4   -1    0    0    0  501 -0.00000000000E+00  0.00000000000E+00  0.12868163860E+02  0.12930682160E+02  0.12700000000E+01 0. -1.
          4   -1    0    0  501    0  0.00000000000E+00 -0.00000000000E+00 -0.30277270544E+03  0.30277536898E+03  0.12700000000E+01 0. -1.
         25    2    1    2    0    0  0.00000000000E+00  0.00000000000E+00 -0.28990454158E+03  0.31570605114E+03  0.12500266996E+03 0.  0.
    9000005    1    3    3    0    0  0.55556880294E+02 -0.10151327697E+02 -0.21252315578E+03  0.21990158741E+03  0.10000000000E+01 0.  0.
    9000005    1    3    3    0    0 -0.55556880294E+02  0.10151327697E+02 -0.77381385796E+02  0.95804463725E+02  0.10000000000E+01 0.  0.
<mgrwt>
<rscale>  0 0.12500267E+03</rscale>
<asrwt>0</asrwt>
<pdfrwt beam="2">  1        4 0.46585425E-01 0.12500267E+03</pdfrwt>
<pdfrwt beam="1">  1       -4 0.19847317E-02 0.12500267E+03</pdfrwt>
<totfact> 0.73665402E+03</totfact>
</mgrwt>
</event>
<event>
 5    1  0.3340698E-002  0.1250021E+03  0.7818608E-02  0.1235066E+00
         -4   -1    0    0    0  501 -0.00000000000E+00  0.00000000000E+00  0.17139101546E+03  0.17139572072E+03  0.12700000000E+01 0.  1.
          4   -1    0    0  501    0  0.00000000000E+00 -0.00000000000E+00 -0.22769503191E+02  0.22804893676E+02  0.12700000000E+01 0.  1.
         25    2    1    2    0    0  0.00000000000E+00  0.00000000000E+00  0.14862151227E+03  0.19420061439E+03  0.12500209887E+03 0.  0.
    9000005    1    3    3    0    0  0.29357351319E+02 -0.54677077459E+02  0.62900218870E+02  0.88367835833E+02  0.10000000000E+01 0.  0.
    9000005    1    3    3    0    0 -0.29357351319E+02  0.54677077459E+02  0.85721293396E+02  0.10583277856E+03  0.10000000000E+01 0.  0.
<mgrwt>
<rscale>  0 0.12500210E+03</rscale>
<asrwt>0</asrwt>
<pdfrwt beam="2">  1        4 0.35060846E-02 0.12500210E+03</pdfrwt>
<pdfrwt beam="1">  1       -4 0.26370934E-01 0.12500210E+03</pdfrwt>
<totfact> 0.91117232E+03</totfact>
</mgrwt>
</event>
<event>
 5    1  0.3340698E-002  0.1250029E+03  0.7818608E-02  0.1235065E+00
          4   -1    0    0  501    0  0.00000000000E+00  0.00000000000E+00  0.33147583774E+02  0.33171903925E+02  0.12700000000E+01 0.  1.
         -4   -1    0    0    0  501 -0.00000000000E+00 -0.00000000000E+00 -0.11777862315E+03  0.11778547012E+03  0.12700000000E+01 0.  1.
         25    2    1    2    0    0  0.00000000000E+00  0.00000000000E+00 -0.84631039374E+02  0.15095737404E+03  0.12500286378E+03 0.  0.
    9000005    1    3    3    0    0 -0.44201730619E+02  0.42022619810E+02 -0.25857342293E+02  0.66251760096E+02  0.10000000000E+01 0.  0.
    9000005    1    3    3    0    0  0.44201730619E+02 -0.42022619810E+02 -0.58773697081E+02  0.84705613946E+02  0.10000000000E+01 0.  0.
<mgrwt>
<rscale>  0 0.12500286E+03</rscale>
<asrwt>0</asrwt>
<pdfrwt beam="1">  1        4 0.51020258E-02 0.12500286E+03</pdfrwt>
<pdfrwt beam="2">  1       -4 0.18122185E-01 0.12500286E+03</pdfrwt>
<totfact> 0.99106815E+03</totfact>
</mgrwt>
</event>
<event>
 5    1  0.3340698E-002  0.1250005E+03  0.7818608E-02  0.1235069E+00
         -4   -1    0    0    0  501 -0.00000000000E+00  0.00000000000E+00  0.10388114893E+03  0.10388891184E+03  0.12700000000E+01 0. -1.
          4   -1    0    0  501    0  0.00000000000E+00 -0.00000000000E+00 -0.37583456155E+02  0.37604907612E+02  0.12700000000E+01 0. -1.
         25    2    1    2    0    0  0.00000000000E+00  0.00000000000E+00  0.66297692776E+02  0.14149381945E+03  0.12500046750E+03 0.  0.
    9000005    1    3    3    0    0  0.20119534446E+02  0.41636945442E+02 -0.14431266434E+02  0.48452991063E+02  0.10000000000E+01 0.  0.
    9000005    1    3    3    0    0 -0.20119534446E+02 -0.41636945442E+02  0.80728959210E+02  0.93040828389E+02  0.10000000000E+01 0.  0.
<mgrwt>
<rscale>  0 0.12500047E+03</rscale>
<asrwt>0</asrwt>
<pdfrwt beam="2">  1        4 0.57843176E-02 0.12500047E+03</pdfrwt>
<pdfrwt beam="1">  1       -4 0.15983962E-01 0.12500047E+03</pdfrwt>
<totfact> 0.10102613E+04</totfact>
</mgrwt>
</event>
<event>
 5    1  0.3340698E-002  0.1250030E+03  0.7818608E-02  0.1235065E+00
         -4   -1    0    0    0  501 -0.00000000000E+00  0.00000000000E+00  0.15959610256E+03  0.15960115555E+03  0.12700000000E+01 0.  1.
          4   -1    0    0  501    0  0.00000000000E+00 -0.00000000000E+00 -0.24455110082E+02  0.24488064626E+02  0.12700000000E+01 0.  1.
         25    2    1    2    0    0  0.00000000000E+00  0.00000000000E+00  0.13514099248E+03  0.18408922017E+03  0.12500301251E+03 0.  0.
    9000005    1    3    3    0    0  0.60633238065E+02  0.91020677865E+00  0.45322804090E+02  0.75712446832E+02  0.10000000000E+01 0.  0.
    9000005    1    3    3    0    0 -0.60633238065E+02 -0.91020677865E+00  0.89818188386E+02  0.10837677334E+03  0.10000000000E+01 0.  0.
<mgrwt>
<rscale>  0 0.12500301E+03</rscale>
<asrwt>0</asrwt>
<pdfrwt beam="2">  1        4 0.37652484E-02 0.12500301E+03</pdfrwt>
<pdfrwt beam="1">  1       -4 0.24556170E-01 0.12500301E+03</pdfrwt>
<totfact> 0.92879795E+03</totfact>
</mgrwt>
</event>
<event>
 5    1  0.3340698E-002  0.1250130E+03  0.7818608E-02  0.1235049E+00
          4   -1    0    0  501    0  0.00000000000E+00  0.00000000000E+00  0.56084182453E+01  0.57504134820E+01  0.12700000000E+01 0.  1.
         -4   -1    0    0    0  501 -0.00000000000E+00 -0.00000000000E+00 -0.68779084028E+03  0.68779201280E+03  0.12700000000E+01 0.  1.
         25    2    1    2    0    0  0.00000000000E+00  0.00000000000E+00 -0.68218242203E+03  0.69354242628E+03  0.12501295981E+03 0.  0.
    9000005    1    3    3    0    0 -0.59187080799E+02 -0.39850188167E+01 -0.45023832566E+03  0.45413053278E+03  0.10000000000E+01 0.  0.
    9000005    1    3    3    0    0  0.59187080799E+02  0.39850188167E+01 -0.23194409637E+03  0.23941189350E+03  0.10000000000E+01 0.  0.
<mgrwt>
<rscale>  0 0.12501296E+03</rscale>
<asrwt>0</asrwt>
<pdfrwt beam="1">  1        4 0.87384703E-03 0.12501296E+03</pdfrwt>
<pdfrwt beam="2">  1       -4 0.10582492E+00 0.12501296E+03</pdfrwt>
<totfact> 0.43417483E+03</totfact>
</mgrwt>
</event>
<event>
 4    1  0.3340698E-002  0.1249349E+03  0.7818608E-02  0.1235171E+00
          4   -1    0    0  501    0  0.00000000000E+00  0.00000000000E+00  0.14745420378E+03  0.14745967283E+03  0.12700000000E+01 0. -1.
         -4   -1    0    0    0  501 -0.00000000000E+00 -0.00000000000E+00 -0.26442507322E+02  0.26472987996E+02  0.12700000000E+01 0. -1.
    9000005    1    1    2    0    0 -0.38266132946E+02  0.48262904973E+02  0.74945710403E+02  0.97012702441E+02  0.10000000000E+01 0.  0.
    9000005    1    1    2    0    0  0.38266132946E+02 -0.48262904973E+02  0.46065986051E+02  0.76919958385E+02  0.10000000000E+01 0.  0.
<mgrwt>
<rscale>  0 0.12493494E+03</rscale>
<asrwt>0</asrwt>
<pdfrwt beam="1">  1        4 0.22688027E-01 0.12493494E+03</pdfrwt>
<pdfrwt beam="2">  1       -4 0.40708435E-02 0.12493494E+03</pdfrwt>
<totfact> 0.94859075E+03</totfact>
</mgrwt>
</event>
<event>
 5    1  0.3340698E-002  0.1249850E+03  0.7818608E-02  0.1235093E+00
          4   -1    0    0  501    0  0.00000000000E+00  0.00000000000E+00  0.93350297164E+03  0.93350383554E+03  0.12700000000E+01 0.  1.
         -4   -1    0    0    0  501 -0.00000000000E+00 -0.00000000000E+00 -0.40862346959E+01  0.42790435836E+01  0.12700000000E+01 0.  1.
         25    2    1    2    0    0  0.00000000000E+00  0.00000000000E+00  0.92941673694E+03  0.93778287912E+03  0.12498502894E+03 0.  0.
    9000005    1    3    3    0    0 -0.27452990947E+02 -0.42501710745E+02  0.73980462994E+03  0.74153351415E+03  0.10000000000E+01 0.  0.
    9000005    1    3    3    0    0  0.27452990947E+02  0.42501710745E+02  0.18961210700E+03  0.19624936497E+03  0.10000000000E+01 0.  0.
<mgrwt>
<rscale>  0 0.12498503E+03</rscale>
<asrwt>0</asrwt>
<pdfrwt beam="1">  1        4 0.14363079E+00 0.12498503E+03</pdfrwt>
<pdfrwt beam="2">  1       -4 0.64354915E-03 0.12498503E+03</pdfrwt>
<totfact> 0.32764427E+03</totfact>
</mgrwt>
</event>
<event>
 5    1  0.3340698E-002  0.1250021E+03  0.7818608E-02  0.1235066E+00
          4   -1    0    0  501    0  0.00000000000E+00  0.00000000000E+00  0.16195602231E+03  0.16196100167E+03  0.12700000000E+01 0. -1.
         -4   -1    0    0    0  501 -0.00000000000E+00 -0.00000000000E+00 -0.24097942969E+02  0.24131385276E+02  0.12700000000E+01 0. -1.
         25    2    1    2    0    0  0.00000000000E+00  0.00000000000E+00  0.13785807934E+03  0.18609238695E+03  0.12500210574E+03 0.  0.
    9000005    1    3    3    0    0  0.17310904326E+01 -0.16309961534E+02  0.15870195232E+03  0.15955037195E+03  0.10000000000E+01 0.  0.
    9000005    1    3    3    0    0 -0.17310904326E+01  0.16309961534E+02 -0.20843872979E+02  0.26542014997E+02  0.10000000000E+01 0.  0.
<mgrwt>
<rscale>  0 0.12500211E+03</rscale>
<asrwt>0</asrwt>
<pdfrwt beam="1">  1        4 0.24919267E-01 0.12500211E+03</pdfrwt>
<pdfrwt beam="2">  1       -4 0.37103313E-02 0.12500211E+03</pdfrwt>
<totfact> 0.92527340E+03</totfact>
</mgrwt>
</event>
<event>
 5    1  0.3340698E-002  0.1249987E+03  0.7818608E-02  0.1235071E+00
         -4   -1    0    0    0  501 -0.00000000000E+00  0.00000000000E+00  0.31876405114E+03  0.31876658106E+03  0.12700000000E+01 0. -1.
          4   -1    0    0  501    0  0.00000000000E+00 -0.00000000000E+00 -0.12218620143E+02  0.12284444562E+02  0.12700000000E+01 0. -1.
         25    2    1    2    0    0  0.00000000000E+00  0.00000000000E+00  0.30654543100E+03  0.33105102562E+03  0.12499872119E+03 0.  0.
    9000005    1    3    3    0    0 -0.97430362784E+01 -0.60910241673E+02  0.12676377284E+03  0.14097885800E+03  0.10000000000E+01 0.  0.
    9000005    1    3    3    0    0  0.97430362784E+01  0.60910241673E+02  0.17978165816E+03  0.19007216763E+03  0.10000000000E+01 0.  0.
<mgrwt>
<rscale>  0 0.12499872E+03</rscale>
<asrwt>0</asrwt>
<pdfrwt beam="2">  1        4 0.18850461E-02 0.12499872E+03</pdfrwt>
<pdfrwt beam="1">  1       -4 0.49045872E-01 0.12499872E+03</pdfrwt>
<totfact> 0.71862788E+03</totfact>
</mgrwt>
</event>
<event>
 5    1  0.3340698E-002  0.1249901E+03  0.7818608E-02  0.1235085E+00
          4   -1    0    0  501    0  0.00000000000E+00  0.00000000000E+00  0.50216640367E+02  0.50232697217E+02  0.12700000000E+01 0. -1.
         -4   -1    0    0    0  501 -0.00000000000E+00 -0.00000000000E+00 -0.77741944382E+02  0.77752317112E+02  0.12700000000E+01 0. -1.
         25    2    1    2    0    0  0.00000000000E+00  0.00000000000E+00 -0.27525304015E+02  0.12798501433E+03  0.12499008573E+03 0.  0.
    9000005    1    3    3    0    0  0.18624887321E+01  0.38766608724E+01 -0.77595230286E+02  0.77720763808E+02  0.10000000000E+01 0.  0.
    9000005    1    3    3    0    0 -0.18624887321E+01 -0.38766608724E+01  0.50069926270E+02  0.50264250522E+02  0.10000000000E+01 0.  0.
<mgrwt>
<rscale>  0 0.12499009E+03</rscale>
<asrwt>0</asrwt>
<pdfrwt beam="1">  1        4 0.77276700E-02 0.12499009E+03</pdfrwt>
<pdfrwt beam="2">  1       -4 0.11962332E-01 0.12499009E+03</pdfrwt>
<totfact> 0.10390136E+04</totfact>
</mgrwt>
</event>
<event>
 5    1  0.3340698E-002  0.1249975E+03  0.7818608E-02  0.1235073E+00
          4   -1    0    0  501    0  0.00000000000E+00  0.00000000000E+00  0.35372173903E+03  0.35372401892E+03  0.12700000000E+01 0. -1.
         -4   -1    0    0    0  501 -0.00000000000E+00 -0.00000000000E+00 -0.11003999060E+02  0.11077043618E+02  0.12700000000E+01 0. -1.
         25    2    1    2    0    0  0.00000000000E+00  0.00000000000E+00  0.34271773997E+03  0.36480106254E+03  0.12499746373E+03 0.  0.
    9000005    1    3    3    0    0 -0.50879390400E+02  0.54981780319E+01  0.27602364930E+03  0.28072940227E+03  0.10000000000E+01 0.  0.
    9000005    1    3    3    0    0  0.50879390400E+02 -0.54981780319E+01  0.66694090668E+02  0.84071660261E+02  0.10000000000E+01 0.  0.
<mgrwt>
<rscale>  0 0.12499746E+03</rscale>
<asrwt>0</asrwt>
<pdfrwt beam="1">  1        4 0.54424520E-01 0.12499746E+03</pdfrwt>
<pdfrwt beam="2">  1       -4 0.16987172E-02 0.12499746E+03</pdfrwt>
<totfact> 0.68130194E+03</totfact>
</mgrwt>
</event>
<event>
 5    1  0.3340698E-002  0.1250020E+03  0.7818608E-02  0.1235066E+00
          4   -1    0    0  501    0  0.00000000000E+00  0.00000000000E+00  0.35039675156E+01  0.37270213777E+01  0.12700000000E+01 0. -1.
         -4   -1    0    0    0  501 -0.00000000000E+00 -0.00000000000E+00 -0.10802310401E+04  0.10802317866E+04  0.12700000000E+01 0. -1.
         25    2    1    2    0    0  0.00000000000E+00  0.00000000000E+00 -0.10767270726E+04  0.10839588080E+04  0.12500203467E+03 0.  0.
    9000005    1    3    3    0    0  0.57472512176E+02 -0.33736130751E+01 -0.74915595502E+03  0.75136550085E+03  0.10000000000E+01 0.  0.
    9000005    1    3    3    0    0 -0.57472512176E+02  0.33736130751E+01 -0.32757111755E+03  0.33259330717E+03  0.10000000000E+01 0.  0.
<mgrwt>
<rscale>  0 0.12500203E+03</rscale>
<asrwt>0</asrwt>
<pdfrwt beam="1">  1        4 0.55628820E-03 0.12500203E+03</pdfrwt>
<pdfrwt beam="2">  1       -4 0.16620635E+00 0.12500203E+03</pdfrwt>
<totfact> 0.27956482E+03</totfact>
</mgrwt>
</event>
<event>
 5    1  0.3340698E-002  0.1249990E+03  0.7818608E-02  0.1235071E+00
          4   -1    0    0  501    0  0.00000000000E+00  0.00000000000E+00  0.94197449838E+00  0.15812071198E+01  0.12700000000E+01 0. -1.
         -4   -1    0    0    0  501 -0.00000000000E+00 -0.00000000000E+00 -0.30955981502E+04  0.30955984107E+04  0.12700000000E+01 0. -1.
         25    2    1    2    0    0  0.00000000000E+00  0.00000000000E+00 -0.30946561757E+04  0.30971796178E+04  0.12499895729E+03 0.  0.
    9000005    1    3    3    0    0 -0.43351575949E+02 -0.45006032098E+02 -0.15605038396E+04  0.15617548256E+04  0.10000000000E+01 0.  0.
    9000005    1    3    3    0    0  0.43351575949E+02  0.45006032098E+02 -0.15341523361E+04  0.15354247922E+04  0.10000000000E+01 0.  0.
<mgrwt>
<rscale>  0 0.12499896E+03</rscale>
<asrwt>0</asrwt>
<pdfrwt beam="1">  1        4 0.19411341E-03 0.12499896E+03</pdfrwt>
<pdfrwt beam="2">  1       -4 0.47628898E+00 0.12499896E+03</pdfrwt>
<totfact> 0.14774287E+02</totfact>
</mgrwt>
</event>
<event>
 5    1  0.3340698E-002  0.1250034E+03  0.7818608E-02  0.1235064E+00
          4   -1    0    0  501    0  0.00000000000E+00  0.00000000000E+00  0.76028452385E+02  0.76039058859E+02  0.12700000000E+01 0.  1.
         -4   -1    0    0    0  501 -0.00000000000E+00 -0.00000000000E+00 -0.51359561530E+02  0.51375261172E+02  0.12700000000E+01 0.  1.
         25    2    1    2    0    0  0.00000000000E+00  0.00000000000E+00  0.24668890856E+02  0.12741432003E+03  0.12500341904E+03 0.  0.
    9000005    1    3    3    0    0 -0.43252365140E+01  0.36854911342E+02 -0.38919273535E+02  0.53783845283E+02  0.10000000000E+01 0.  0.
    9000005    1    3    3    0    0  0.43252365140E+01 -0.36854911342E+02  0.63588164391E+02  0.73630474747E+02  0.10000000000E+01 0.  0.
<mgrwt>
<rscale>  0 0.12500342E+03</rscale>
<asrwt>0</asrwt>
<pdfrwt beam="1">  1        4 0.11698708E-01 0.12500342E+03</pdfrwt>
<pdfrwt beam="2">  1       -4 0.79034946E-02 0.12500342E+03</pdfrwt>
<totfact> 0.10399354E+04</totfact>
</mgrwt>
</event>
<event>
 5    1  0.3340698E-002  0.1249982E+03  0.7818608E-02  0.1235072E+00
         -4   -1    0    0    0  501 -0.00000000000E+00  0.00000000000E+00  0.26342477946E+02  0.26373074230E+02  0.12700000000E+01 0. -1.
          4   -1    0    0  501    0  0.00000000000E+00 -0.00000000000E+00 -0.14816353849E+03  0.14816898136E+03  0.12700000000E+01 0. -1.
         25    2    1    2    0    0  0.00000000000E+00  0.00000000000E+00 -0.12182106054E+03  0.17454205559E+03  0.12499823350E+03 0.  0.
    9000005    1    3    3    0    0 -0.11412428425E+02 -0.79537057218E+00  0.24874659628E+02  0.27397533256E+02  0.10000000000E+01 0.  0.
    9000005    1    3    3    0    0  0.11412428425E+02  0.79537057218E+00 -0.14669572017E+03  0.14714452234E+03  0.10000000000E+01 0.  0.
<mgrwt>
<rscale>  0 0.12499823E+03</rscale>
<asrwt>0</asrwt>
<pdfrwt beam="2">  1        4 0.22797162E-01 0.12499823E+03</pdfrwt>
<pdfrwt beam="1">  1       -4 0.40554612E-02 0.12499823E+03</pdfrwt>
<totfact> 0.94612529E+03</totfact>
</mgrwt>
</event>
<event>
 5    1  0.3340698E-002  0.1250061E+03  0.7818608E-02  0.1235060E+00
          4   -1    0    0  501    0  0.00000000000E+00  0.00000000000E+00  0.21844983503E+03  0.21845352670E+03  0.12700000000E+01 0. -1.
         -4   -1    0    0    0  501 -0.00000000000E+00 -0.00000000000E+00 -0.17857026431E+02  0.17902130961E+02  0.12700000000E+01 0. -1.
         25    2    1    2    0    0  0.00000000000E+00  0.00000000000E+00  0.20059280860E+03  0.23635565766E+03  0.12500608803E+03 0.  0.
    9000005    1    3    3    0    0  0.99290630031E+01  0.41870547920E+02  0.18598531801E+03  0.19090119851E+03  0.10000000000E+01 0.  0.
    9000005    1    3    3    0    0 -0.99290630031E+01 -0.41870547920E+02  0.14607490587E+02  0.45454459148E+02  0.10000000000E+01 0.  0.
<mgrwt>
<rscale>  0 0.12500609E+03</rscale>
<asrwt>0</asrwt>
<pdfrwt beam="1">  1        4 0.33611417E-01 0.12500609E+03</pdfrwt>
<pdfrwt beam="2">  1       -4 0.27509886E-02 0.12500609E+03</pdfrwt>
<totfact> 0.84331691E+03</totfact>
</mgrwt>
</event>
<event>
 5    1  0.3340698E-002  0.1249965E+03  0.7818608E-02  0.1235075E+00
          4   -1    0    0  501    0  0.00000000000E+00  0.00000000000E+00  0.25466495402E+03  0.25466812071E+03  0.12700000000E+01 0.  1.
         -4   -1    0    0    0  501 -0.00000000000E+00 -0.00000000000E+00 -0.15308353194E+02  0.15360943249E+02  0.12700000000E+01 0.  1.
         25    2    1    2    0    0  0.00000000000E+00  0.00000000000E+00  0.23935660082E+03  0.27002906396E+03  0.12499645204E+03 0.  0.
    9000005    1    3    3    0    0  0.40536706777E+02 -0.65311108893E+01  0.22144506867E+03  0.22522166513E+03  0.10000000000E+01 0.  0.
    9000005    1    3    3    0    0 -0.40536706777E+02  0.65311108893E+01  0.17911532158E+02  0.44807398832E+02  0.10000000000E+01 0.  0.
<mgrwt>
<rscale>  0 0.12499645E+03</rscale>
<asrwt>0</asrwt>
<pdfrwt beam="1">  1        4 0.39183509E-01 0.12499645E+03</pdfrwt>
<pdfrwt beam="2">  1       -4 0.23594205E-02 0.12499645E+03</pdfrwt>
<totfact> 0.79525183E+03</totfact>
</mgrwt>
</event>
<event>
 5    1  0.3340698E-002  0.1250257E+03  0.7818608E-02  0.1235029E+00
          4   -1    0    0  501    0  0.00000000000E+00  0.00000000000E+00  0.28325422382E+03  0.28325707089E+03  0.12700000000E+01 0. -1.
         -4   -1    0    0    0  501 -0.00000000000E+00 -0.00000000000E+00 -0.13764130539E+02  0.13822597060E+02  0.12700000000E+01 0. -1.
         25    2    1    2    0    0  0.00000000000E+00  0.00000000000E+00  0.26949009328E+03  0.29707966795E+03  0.12502567231E+03 0.  0.
    9000005    1    3    3    0    0 -0.14311928668E+02 -0.60383779508E+02  0.11699176745E+03  0.13243528903E+03  0.10000000000E+01 0.  0.
    9000005    1    3    3    0    0  0.14311928668E+02  0.60383779508E+02  0.15249832583E+03  0.16464437893E+03  0.10000000000E+01 0.  0.
<mgrwt>
<rscale>  0 0.12502567E+03</rscale>
<asrwt>0</asrwt>
<pdfrwt beam="1">  1        4 0.43582287E-01 0.12502567E+03</pdfrwt>
<pdfrwt beam="2">  1       -4 0.21222751E-02 0.12502567E+03</pdfrwt>
<totfact> 0.75923341E+03</totfact>
</mgrwt>
</event>
<event>
 5    1  0.3340698E-002  0.1249997E+03  0.7818608E-02  0.1235070E+00
         -4   -1    0    0    0  501 -0.00000000000E+00  0.00000000000E+00  0.54198543921E+01  0.55666616236E+01  0.12700000000E+01 0. -1.
          4   -1    0    0  501    0  0.00000000000E+00 -0.00000000000E+00 -0.71094791875E+03  0.71094905308E+03  0.12700000000E+01 0. -1.
         25    2    1    2    0    0  0.00000000000E+00  0.00000000000E+00 -0.70552806436E+03  0.71651571471E+03  0.12499967928E+03 0.  0.
    9000005    1    3    3    0    0 -0.90351326260E+00 -0.17996362684E+02 -0.69576185385E+03  0.69599586398E+03  0.10000000000E+01 0.  0.
    9000005    1    3    3    0    0  0.90351326260E+00  0.17996362684E+02 -0.97662105119E+01  0.20519850726E+02  0.10000000000E+01 0.  0.
<mgrwt>
<rscale>  0 0.12499968E+03</rscale>
<asrwt>0</asrwt>
<pdfrwt beam="2">  1        4 0.10938791E+00 0.12499968E+03</pdfrwt>
<pdfrwt beam="1">  1       -4 0.84520444E-03 0.12499968E+03</pdfrwt>
<totfact> 0.42229391E+03</totfact>
</mgrwt>
</event>
<event>
 5    1  0.3340698E-002  0.1250012E+03  0.7818608E-02  0.1235067E+00
         -4   -1    0    0    0  501 -0.00000000000E+00  0.00000000000E+00  0.88596041779E+02  0.88605143863E+02  0.12700000000E+01 0. -1.
          4   -1    0    0  501    0  0.00000000000E+00 -0.00000000000E+00 -0.44070890917E+02  0.44089186046E+02  0.12700000000E+01 0. -1.
         25    2    1    2    0    0  0.00000000000E+00  0.00000000000E+00  0.44525150862E+02  0.13269432991E+03  0.12500118452E+03 0.  0.
    9000005    1    3    3    0    0 -0.57064721122E+02 -0.18156045090E+02  0.41231271023E+02  0.72712049072E+02  0.10000000000E+01 0.  0.
    9000005    1    3    3    0    0  0.57064721122E+02  0.18156045090E+02  0.32938798390E+01  0.59982280837E+02  0.10000000000E+01 0.  0.
<mgrwt>
<rscale>  0 0.12500118E+03</rscale>
<asrwt>0</asrwt>
<pdfrwt beam="2">  1        4 0.67822446E-02 0.12500118E+03</pdfrwt>
<pdfrwt beam="1">  1       -4 0.13632268E-01 0.12500118E+03</pdfrwt>
<totfact> 0.10286626E+04</totfact>
</mgrwt>
</event>
<event>
 5    1  0.3340698E-002  0.1250019E+03  0.7818608E-02  0.1235066E+00
          4   -1    0    0  501    0  0.00000000000E+00  0.00000000000E+00  0.92704886985E+02  0.92713585687E+02  0.12700000000E+01 0.  1.
         -4   -1    0    0    0  501 -0.00000000000E+00 -0.00000000000E+00 -0.42117432016E+02  0.42136575319E+02  0.12700000000E+01 0.  1.
         25    2    1    2    0    0  0.00000000000E+00  0.00000000000E+00  0.50587454969E+02  0.13485016101E+03  0.12500190128E+03 0.  0.
    9000005    1    3    3    0    0  0.22651254781E+02 -0.55876556797E+02  0.75642044279E+01  0.60774058045E+02  0.10000000000E+01 0.  0.
    9000005    1    3    3    0    0 -0.22651254781E+02  0.55876556797E+02  0.43023250541E+02  0.74076102961E+02  0.10000000000E+01 0.  0.
<mgrwt>
<rscale>  0 0.12500190E+03</rscale>
<asrwt>0</asrwt>
<pdfrwt beam="1">  1        4 0.14264432E-01 0.12500190E+03</pdfrwt>
<pdfrwt beam="2">  1       -4 0.64817467E-02 0.12500190E+03</pdfrwt>
<totfact> 0.10240791E+04</totfact>
</mgrwt>
</event>
<event>
 5    1  0.3340698E-002  0.1250011E+03  0.7818608E-02  0.1235068E+00
         -4   -1    0    0    0  501 -0.00000000000E+00  0.00000000000E+00  0.11194317631E+03  0.11195038018E+03  0.12700000000E+01 0. -1.
          4   -1    0    0  501    0  0.00000000000E+00 -0.00000000000E+00 -0.34875638820E+02  0.34898754750E+02  0.12700000000E+01 0. -1.
         25    2    1    2    0    0  0.00000000000E+00  0.00000000000E+00  0.77067537494E+02  0.14684913493E+03  0.12500105238E+03 0.  0.
    9000005    1    3    3    0    0  0.67049800298E+01  0.50219856190E+02 -0.44434719221E+01  0.50869786275E+02  0.10000000000E+01 0.  0.
    9000005    1    3    3    0    0 -0.67049800298E+01 -0.50219856190E+02  0.81511009416E+02  0.95979348659E+02  0.10000000000E+01 0.  0.
<mgrwt>
<rscale>  0 0.12500105E+03</rscale>
<asrwt>0</asrwt>
<pdfrwt beam="2">  1        4 0.53678152E-02 0.12500105E+03</pdfrwt>
<pdfrwt beam="1">  1       -4 0.17224359E-01 0.12500105E+03</pdfrwt>
<totfact> 0.99933158E+03</totfact>
</mgrwt>
</event>
<event>
 5    1  0.3340698E-002  0.1249974E+03  0.7818608E-02  0.1235073E+00
          4   -1    0    0  501    0  0.00000000000E+00  0.00000000000E+00  0.46302192557E+02  0.46319606384E+02  0.12700000000E+01 0.  1.
         -4   -1    0    0    0  501 -0.00000000000E+00 -0.00000000000E+00 -0.84322718349E+02  0.84332281658E+02  0.12700000000E+01 0.  1.
         25    2    1    2    0    0  0.00000000000E+00  0.00000000000E+00 -0.38020525792E+02  0.13065188804E+03  0.12499742184E+03 0.  0.
    9000005    1    3    3    0    0 -0.58788992240E+02  0.30902390340E+01 -0.40920220544E+02  0.71701880277E+02  0.10000000000E+01 0.  0.
    9000005    1    3    3    0    0  0.58788992240E+02 -0.30902390340E+01  0.28996947526E+01  0.58950007765E+02  0.10000000000E+01 0.  0.
<mgrwt>
<rscale>  0 0.12499742E+03</rscale>
<asrwt>0</asrwt>
<pdfrwt beam="1">  1        4 0.71254894E-02 0.12499742E+03</pdfrwt>
<pdfrwt beam="2">  1       -4 0.12974801E-01 0.12499742E+03</pdfrwt>
<totfact> 0.10331159E+04</totfact>
</mgrwt>
</event>
<event>
 5    1  0.3340698E-002  0.1250001E+03  0.7818608E-02  0.1235069E+00
         -4   -1    0    0    0  501 -0.00000000000E+00  0.00000000000E+00  0.24194449156E+02  0.24227758253E+02  0.12700000000E+01 0.  1.
          4   -1    0    0  501    0  0.00000000000E+00 -0.00000000000E+00 -0.16130578258E+03  0.16131078201E+03  0.12700000000E+01 0.  1.
         25    2    1    2    0    0  0.00000000000E+00  0.00000000000E+00 -0.13711133343E+03  0.18553854027E+03  0.12500012868E+03 0.  0.
    9000005    1    3    3    0    0  0.55430215559E+02 -0.22391263531E+02 -0.41535551828E+02  0.72801645209E+02  0.10000000000E+01 0.  0.
    9000005    1    3    3    0    0 -0.55430215559E+02  0.22391263531E+02 -0.95575781598E+02  0.11273689506E+03  0.10000000000E+01 0.  0.
<mgrwt>
<rscale>  0 0.12500013E+03</rscale>
<asrwt>0</asrwt>
<pdfrwt beam="2">  1        4 0.24819220E-01 0.12500013E+03</pdfrwt>
<pdfrwt beam="1">  1       -4 0.37251699E-02 0.12500013E+03</pdfrwt>
<totfact> 0.92629175E+03</totfact>
</mgrwt>
</event>
<event>
 5    1  0.3340698E-002  0.1249942E+03  0.7818608E-02  0.1235078E+00
         -4   -1    0    0    0  501 -0.00000000000E+00  0.00000000000E+00  0.89116900977E+01  0.90017287449E+01  0.12700000000E+01 0. -1.
          4   -1    0    0  501    0  0.00000000000E+00 -0.00000000000E+00 -0.43599392631E+03  0.43599577599E+03  0.12700000000E+01 0. -1.
         25    2    1    2    0    0  0.00000000000E+00  0.00000000000E+00 -0.42708223621E+03  0.44499750473E+03  0.12499417078E+03 0.  0.
    9000005    1    3    3    0    0  0.60770641817E+02 -0.51625755275E+01 -0.16509662244E+03  0.17600459606E+03  0.10000000000E+01 0.  0.
    9000005    1    3    3    0    0 -0.60770641817E+02  0.51625755275E+01 -0.26198561377E+03  0.26899290867E+03  0.10000000000E+01 0.  0.
<mgrwt>
<rscale>  0 0.12499417E+03</rscale>
<asrwt>0</asrwt>
<pdfrwt beam="2">  1        4 0.67083041E-01 0.12499417E+03</pdfrwt>
<pdfrwt beam="1">  1       -4 0.13780979E-02 0.12499417E+03</pdfrwt>
<totfact> 0.60407389E+03</totfact>
</mgrwt>
</event>
<event>
 5    1  0.3340698E-002  0.1250039E+03  0.7818608E-02  0.1235063E+00
         -4   -1    0    0    0  501 -0.00000000000E+00  0.00000000000E+00  0.11601396450E+03  0.11602091561E+03  0.12700000000E+01 0. -1.
          4   -1    0    0  501    0  0.00000000000E+00 -0.00000000000E+00 -0.33652695035E+02  0.33676650414E+02  0.12700000000E+01 0. -1.
         25    2    1    2    0    0  0.00000000000E+00  0.00000000000E+00  0.82361269465E+02  0.14969756602E+03  0.12500393020E+03 0.  0.
    9000005    1    3    3    0    0  0.10317059987E+02  0.39102865665E+02  0.98237235601E+02  0.10624043622E+03  0.10000000000E+01 0.  0.
    9000005    1    3    3    0    0 -0.10317059987E+02 -0.39102865665E+02 -0.15875966136E+02  0.43457129803E+02  0.10000000000E+01 0.  0.
<mgrwt>
<rscale>  0 0.12500393E+03</rscale>
<asrwt>0</asrwt>
<pdfrwt beam="2">  1        4 0.51797151E-02 0.12500393E+03</pdfrwt>
<pdfrwt beam="1">  1       -4 0.17850680E-01 0.12500393E+03</pdfrwt>
<totfact> 0.99355229E+03</totfact>
</mgrwt>
</event>
<event>
 5    1  0.3340698E-002  0.1249977E+03  0.7818608E-02  0.1235073E+00
          4   -1    0    0  501    0  0.00000000000E+00  0.00000000000E+00  0.28316015397E+03  0.28316300200E+03  0.12700000000E+01 0. -1.
         -4   -1    0    0    0  501 -0.00000000000E+00 -0.00000000000E+00 -0.13762538851E+02  0.13821012106E+02  0.12700000000E+01 0. -1.
         25    2    1    2    0    0  0.00000000000E+00  0.00000000000E+00  0.26939761512E+03  0.29698401410E+03  0.12499771837E+03 0.  0.
    9000005    1    3    3    0    0  0.18533791659E+02 -0.52911253119E+02  0.20028463042E+03  0.20798566134E+03  0.10000000000E+01 0.  0.
    9000005    1    3    3    0    0 -0.18533791659E+02  0.52911253119E+02  0.69112984705E+02  0.88998352764E+02  0.10000000000E+01 0.  0.
<mgrwt>
<rscale>  0 0.12499772E+03</rscale>
<asrwt>0</asrwt>
<pdfrwt beam="1">  1        4 0.43567823E-01 0.12499772E+03</pdfrwt>
<pdfrwt beam="2">  1       -4 0.21220304E-02 0.12499772E+03</pdfrwt>
<totfact> 0.75982566E+03</totfact>
</mgrwt>
</event>
<event>
 5    1  0.3340698E-002  0.1249975E+03  0.7818608E-02  0.1235073E+00
         -4   -1    0    0    0  501 -0.00000000000E+00  0.00000000000E+00  0.47229109409E+02  0.47246181598E+02  0.12700000000E+01 0. -1.
          4   -1    0    0  501    0  0.00000000000E+00 -0.00000000000E+00 -0.82668358623E+02  0.82678113292E+02  0.12700000000E+01 0. -1.
         25    2    1    2    0    0  0.00000000000E+00  0.00000000000E+00 -0.35439249214E+02  0.12992429489E+03  0.12499752805E+03 0.  0.
    9000005    1    3    3    0    0  0.50785802960E+02  0.18402651622E+02 -0.50378433808E+02  0.73870440380E+02  0.10000000000E+01 0.  0.
    9000005    1    3    3    0    0 -0.50785802960E+02 -0.18402651622E+02  0.14939184594E+02  0.56053854509E+02  0.10000000000E+01 0.  0.
<mgrwt>
<rscale>  0 0.12499753E+03</rscale>
<asrwt>0</asrwt>
<pdfrwt beam="2">  1        4 0.12720273E-01 0.12499753E+03</pdfrwt>
<pdfrwt beam="1">  1       -4 0.72680804E-02 0.12499753E+03</pdfrwt>
<totfact> 0.10346705E+04</totfact>
</mgrwt>
</event>
<event>
 5    1  0.3340698E-002  0.1249976E+03  0.7818608E-02  0.1235073E+00
         -4   -1    0    0    0  501 -0.00000000000E+00  0.00000000000E+00  0.10735523514E+03  0.10736274686E+03  0.12700000000E+01 0.  1.
          4   -1    0    0  501    0  0.00000000000E+00 -0.00000000000E+00 -0.36364958189E+02  0.36387128000E+02  0.12700000000E+01 0.  1.
         25    2    1    2    0    0  0.00000000000E+00  0.00000000000E+00  0.70990276953E+02  0.14374987486E+03  0.12499762837E+03 0.  0.
    9000005    1    3    3    0    0 -0.32222858385E+02 -0.48395846662E+01  0.96817970994E+02  0.10215896285E+03  0.10000000000E+01 0.  0.
    9000005    1    3    3    0    0  0.32222858385E+02  0.48395846662E+01 -0.25827694042E+02  0.41590912009E+02  0.10000000000E+01 0.  0.
<mgrwt>
<rscale>  0 0.12499763E+03</rscale>
<asrwt>0</asrwt>
<pdfrwt beam="2">  1        4 0.55968921E-02 0.12499763E+03</pdfrwt>
<pdfrwt beam="1">  1       -4 0.16518473E-01 0.12499763E+03</pdfrwt>
<totfact> 0.10056987E+04</totfact>
</mgrwt>
</event>
<event>
 5    1  0.3340698E-002  0.1249980E+03  0.7818608E-02  0.1235072E+00
          4   -1    0    0  501    0  0.00000000000E+00  0.00000000000E+00  0.30815976913E+03  0.30816238610E+03  0.12700000000E+01 0.  1.
         -4   -1    0    0    0  501 -0.00000000000E+00 -0.00000000000E+00 -0.12641169143E+02  0.12704804497E+02  0.12700000000E+01 0.  1.
         25    2    1    2    0    0  0.00000000000E+00  0.00000000000E+00  0.29551859999E+03  0.32086719060E+03  0.12499804425E+03 0.  0.
    9000005    1    3    3    0    0  0.47095793619E+02 -0.31960310011E+02  0.21398794987E+03  0.22143016479E+03  0.10000000000E+01 0.  0.
    9000005    1    3    3    0    0 -0.47095793619E+02  0.31960310011E+02  0.81530650120E+02  0.99437025808E+02  0.10000000000E+01 0.  0.
<mgrwt>
<rscale>  0 0.12499804E+03</rscale>
<asrwt>0</asrwt>
<pdfrwt beam="1">  1        4 0.47414288E-01 0.12499804E+03</pdfrwt>
<pdfrwt beam="2">  1       -4 0.19498917E-02 0.12499804E+03</pdfrwt>
<totfact> 0.73056271E+03</totfact>
</mgrwt>
</event>
<event>
 5    1  0.3340698E-002  0.1250024E+03  0.7818608E-02  0.1235065E+00
          4   -1    0    0  501    0  0.00000000000E+00  0.00000000000E+00  0.28005830195E+02  0.28034611196E+02  0.12700000000E+01 0. -1.
         -4   -1    0    0    0  501 -0.00000000000E+00 -0.00000000000E+00 -0.13938198676E+03  0.13938777254E+03  0.12700000000E+01 0. -1.
         25    2    1    2    0    0  0.00000000000E+00  0.00000000000E+00 -0.11137615656E+03  0.16742238373E+03  0.12500242527E+03 0.  0.
    9000005    1    3    3    0    0 -0.10080205657E+02 -0.48398790866E+02 -0.44878475445E+01  0.49650722845E+02  0.10000000000E+01 0.  0.
    9000005    1    3    3    0    0  0.10080205657E+02  0.48398790866E+02 -0.10688830902E+03  0.11777166089E+03  0.10000000000E+01 0.  0.
<mgrwt>
<rscale>  0 0.12500243E+03</rscale>
<asrwt>0</asrwt>
<pdfrwt beam="1">  1        4 0.43112483E-02 0.12500243E+03</pdfrwt>
<pdfrwt beam="2">  1       -4 0.21446041E-01 0.12500243E+03</pdfrwt>
<totfact> 0.95925363E+03</totfact>
</mgrwt>
</event>
<event>
 5    1  0.3340698E-002  0.1249987E+03  0.7818608E-02  0.1235071E+00
         -4   -1    0    0    0  501 -0.00000000000E+00  0.00000000000E+00  0.24952352359E+03  0.24952675553E+03  0.12700000000E+01 0. -1.
          4   -1    0    0  501    0  0.00000000000E+00 -0.00000000000E+00 -0.15625408068E+02  0.15676934563E+02  0.12700000000E+01 0. -1.
         25    2    1    2    0    0  0.00000000000E+00  0.00000000000E+00  0.23389811552E+03  0.26520369009E+03  0.12499867517E+03 0.  0.
    9000005    1    3    3    0    0 -0.17094177013E+02  0.59851593784E+02  0.10518526127E+03  0.12222668839E+03  0.10000000000E+01 0.  0.
    9000005    1    3    3    0    0  0.17094177013E+02 -0.59851593784E+02  0.12871285425E+03  0.14297700170E+03  0.10000000000E+01 0.  0.
<mgrwt>
<rscale>  0 0.12499868E+03</rscale>
<asrwt>0</asrwt>
<pdfrwt beam="2">  1        4 0.24081213E-02 0.12499868E+03</pdfrwt>
<pdfrwt beam="1">  1       -4 0.38392444E-01 0.12499868E+03</pdfrwt>
<totfact> 0.80183663E+03</totfact>
</mgrwt>
</event>
<event>
 5    1  0.3340698E-002  0.1250000E+03  0.7818608E-02  0.1235069E+00
          4   -1    0    0  501    0  0.00000000000E+00  0.00000000000E+00  0.31984604672E+02  0.32009808434E+02  0.12700000000E+01 0. -1.
         -4   -1    0    0    0  501 -0.00000000000E+00 -0.00000000000E+00 -0.12205249344E+03  0.12205910067E+03  0.12700000000E+01 0. -1.
         25    2    1    2    0    0  0.00000000000E+00  0.00000000000E+00 -0.90067888771E+02  0.15406890910E+03  0.12500001666E+03 0.  0.
    9000005    1    3    3    0    0 -0.56413570263E+02 -0.31128536662E+00 -0.78167871787E+02  0.96404377432E+02  0.10000000000E+01 0.  0.
    9000005    1    3    3    0    0  0.56413570263E+02  0.31128536662E+00 -0.11900016984E+02  0.57664531669E+02  0.10000000000E+01 0.  0.
<mgrwt>
<rscale>  0 0.12500002E+03</rscale>
<asrwt>0</asrwt>
<pdfrwt beam="1">  1        4 0.49231554E-02 0.12500002E+03</pdfrwt>
<pdfrwt beam="2">  1       -4 0.18779754E-01 0.12500002E+03</pdfrwt>
<totfact> 0.98498557E+03</totfact>
</mgrwt>
</event>
<event>
 5    1  0.3340698E-002  0.1249975E+03  0.7818608E-02  0.1235073E+00
         -4   -1    0    0    0  501 -0.00000000000E+00  0.00000000000E+00  0.22308622032E+03  0.22308983526E+03  0.12700000000E+01 0.  1.
          4   -1    0    0  501    0  0.00000000000E+00 -0.00000000000E+00 -0.17482550267E+02  0.17528618423E+02  0.12700000000E+01 0.  1.
         25    2    1    2    0    0  0.00000000000E+00  0.00000000000E+00  0.20560367005E+03  0.24061845368E+03  0.12499748443E+03 0.  0.
    9000005    1    3    3    0    0 -0.52563149004E+02 -0.24846306681E+02  0.14690331851E+03  0.15799306497E+03  0.10000000000E+01 0.  0.
    9000005    1    3    3    0    0  0.52563149004E+02  0.24846306681E+02  0.58700351542E+02  0.82625388714E+02  0.10000000000E+01 0.  0.
<mgrwt>
<rscale>  0 0.12499748E+03</rscale>
<asrwt>0</asrwt>
<pdfrwt beam="2">  1        4 0.26934451E-02 0.12499748E+03</pdfrwt>
<pdfrwt beam="1">  1       -4 0.34324776E-01 0.12499748E+03</pdfrwt>
<totfact> 0.83710041E+03</totfact>
</mgrwt>
</event>
<event>
 5    1  0.3340698E-002  0.1250004E+03  0.7818608E-02  0.1235069E+00
         -4   -1    0    0    0  501 -0.00000000000E+00  0.00000000000E+00  0.12567974016E+02  0.12631978105E+02  0.12700000000E+01 0.  1.
          4   -1    0    0  501    0  0.00000000000E+00 -0.00000000000E+00 -0.30995710666E+03  0.30995970846E+03  0.12700000000E+01 0.  1.
         25    2    1    2    0    0  0.00000000000E+00  0.00000000000E+00 -0.29738913265E+03  0.32259168657E+03  0.12500040011E+03 0.  0.
    9000005    1    3    3    0    0  0.45227687376E+02  0.34235339258E+02 -0.21637025849E+03  0.22368435555E+03  0.10000000000E+01 0.  0.
    9000005    1    3    3    0    0 -0.45227687376E+02 -0.34235339258E+02 -0.81018874162E+02  0.98907331022E+02  0.10000000000E+01 0.  0.
<mgrwt>
<rscale>  0 0.12500040E+03</rscale>
<asrwt>0</asrwt>
<pdfrwt beam="2">  1        4 0.47690827E-01 0.12500040E+03</pdfrwt>
<pdfrwt beam="1">  1       -4 0.19386582E-02 0.12500040E+03</pdfrwt>
<totfact> 0.72848291E+03</totfact>
</mgrwt>
</event>
<event>
 5    1  0.3340698E-002  0.1249991E+03  0.7818608E-02  0.1235071E+00
          4   -1    0    0  501    0  0.00000000000E+00  0.00000000000E+00  0.54816784768E+03  0.54816931886E+03  0.12700000000E+01 0. -1.
         -4   -1    0    0    0  501 -0.00000000000E+00 -0.00000000000E+00 -0.70678269547E+01  0.71810220624E+01  0.12700000000E+01 0. -1.
         25    2    1    2    0    0  0.00000000000E+00  0.00000000000E+00  0.54110002073E+03  0.55535034092E+03  0.12499907489E+03 0.  0.
    9000005    1    3    3    0    0 -0.49566568404E+02  0.35903317798E+02  0.21447529111E+03  0.22303933157E+03  0.10000000000E+01 0.  0.
    9000005    1    3    3    0    0  0.49566568404E+02 -0.35903317798E+02  0.32662472962E+03  0.33231100934E+03  0.10000000000E+01 0.  0.
<mgrwt>
<rscale>  0 0.12499907E+03</rscale>
<asrwt>0</asrwt>
<pdfrwt beam="1">  1        4 0.84342324E-01 0.12499907E+03</pdfrwt>
<pdfrwt beam="2">  1       -4 0.10961786E-02 0.12499907E+03</pdfrwt>
<totfact> 0.51814088E+03</totfact>
</mgrwt>
</event>
<event>
 5    1  0.3340698E-002  0.1250042E+03  0.7818608E-02  0.1235063E+00
          4   -1    0    0  501    0  0.00000000000E+00  0.00000000000E+00  0.28803768867E+02  0.28831753345E+02  0.12700000000E+01 0. -1.
         -4   -1    0    0    0  501 -0.00000000000E+00 -0.00000000000E+00 -0.13552824153E+03  0.13553419182E+03  0.12700000000E+01 0. -1.
         25    2    1    2    0    0  0.00000000000E+00  0.00000000000E+00 -0.10672447266E+03  0.16436594517E+03  0.12500420339E+03 0.  0.
    9000005    1    3    3    0    0 -0.18927233789E+02 -0.30471356711E+02 -0.12064995694E+03  0.12587357097E+03  0.10000000000E+01 0.  0.
    9000005    1    3    3    0    0  0.18927233789E+02  0.30471356711E+02  0.13925484279E+02  0.38492374194E+02  0.10000000000E+01 0.  0.
<mgrwt>
<rscale>  0 0.12500420E+03</rscale>
<asrwt>0</asrwt>
<pdfrwt beam="1">  1        4 0.44339595E-02 0.12500420E+03</pdfrwt>
<pdfrwt beam="2">  1       -4 0.20853109E-01 0.12500420E+03</pdfrwt>
<totfact> 0.96498494E+03</totfact>
</mgrwt>
</event>
<event>
 5    1  0.3340698E-002  0.1250072E+03  0.7818608E-02  0.1235058E+00
          4   -1    0    0  501    0  0.00000000000E+00  0.00000000000E+00  0.11870717478E+03  0.11871396819E+03  0.12700000000E+01 0.  1.
         -4   -1    0    0    0  501 -0.00000000000E+00 -0.00000000000E+00 -0.32890382608E+02  0.32914892801E+02  0.12700000000E+01 0.  1.
         25    2    1    2    0    0  0.00000000000E+00  0.00000000000E+00  0.85816792168E+02  0.15162886099E+03  0.12500715846E+03 0.  0.
    9000005    1    3    3    0    0 -0.20726881327E+02 -0.29201231556E+01 -0.28518108977E+02  0.35389451371E+02  0.10000000000E+01 0.  0.
    9000005    1    3    3    0    0  0.20726881327E+02  0.29201231556E+01  0.11433490114E+03  0.11623940962E+03  0.10000000000E+01 0.  0.
<mgrwt>
<rscale>  0 0.12500716E+03</rscale>
<asrwt>0</asrwt>
<pdfrwt beam="1">  1        4 0.18265050E-01 0.12500716E+03</pdfrwt>
<pdfrwt beam="2">  1       -4 0.50624669E-02 0.12500716E+03</pdfrwt>
<totfact> 0.98964053E+03</totfact>
</mgrwt>
</event>
<event>
 5    1  0.3340698E-002  0.1249997E+03  0.7818608E-02  0.1235070E+00
          4   -1    0    0  501    0  0.00000000000E+00  0.00000000000E+00  0.59876912861E+03  0.59877047545E+03  0.12700000000E+01 0. -1.
         -4   -1    0    0    0  501 -0.00000000000E+00 -0.00000000000E+00 -0.64605937636E+01  0.65842366132E+01  0.12700000000E+01 0. -1.
         25    2    1    2    0    0  0.00000000000E+00  0.00000000000E+00  0.59230853484E+03  0.60535471207E+03  0.12499970788E+03 0.  0.
    9000005    1    3    3    0    0  0.53728934910E+01  0.46242210713E+02  0.94257889665E+02  0.10513210642E+03  0.10000000000E+01 0.  0.
    9000005    1    3    3    0    0 -0.53728934910E+01 -0.46242210713E+02  0.49805064518E+03  0.50022260565E+03  0.10000000000E+01 0.  0.
<mgrwt>
<rscale>  0 0.12499971E+03</rscale>
<asrwt>0</asrwt>
<pdfrwt beam="1">  1        4 0.92127982E-01 0.12499971E+03</pdfrwt>
<pdfrwt beam="2">  1       -4 0.10035517E-02 0.12499971E+03</pdfrwt>
<totfact> 0.48531635E+03</totfact>
</mgrwt>
</event>
<event>
 5    1  0.3340698E-002  0.1249778E+03  0.7818608E-02  0.1235104E+00
         -4   -1    0    0    0  501 -0.00000000000E+00  0.00000000000E+00  0.20020586658E+02  0.20060827255E+02  0.12700000000E+01 0. -1.
          4   -1    0    0  501    0  0.00000000000E+00 -0.00000000000E+00 -0.19480416837E+03  0.19480830812E+03  0.12700000000E+01 0. -1.
         25    2    1    2    0    0  0.00000000000E+00  0.00000000000E+00 -0.17478358171E+03  0.21486913538E+03  0.12497777763E+03 0.  0.
    9000005    1    3    3    0    0  0.14148368901E+02 -0.48170004708E+02 -0.23447024589E+02  0.55419208387E+02  0.10000000000E+01 0.  0.
    9000005    1    3    3    0    0 -0.14148368901E+02  0.48170004708E+02 -0.15133655712E+03  0.15944992699E+03  0.10000000000E+01 0.  0.
<mgrwt>
<rscale>  0 0.12497778E+03</rscale>
<asrwt>0</asrwt>
<pdfrwt beam="2">  1        4 0.29973285E-01 0.12497778E+03</pdfrwt>
<pdfrwt beam="1">  1       -4 0.30835043E-02 0.12497778E+03</pdfrwt>
<totfact> 0.87730370E+03</totfact>
</mgrwt>
</event>
<event>
 5    1  0.3340698E-002  0.1250189E+03  0.7818608E-02  0.1235040E+00
         -4   -1    0    0    0  501 -0.00000000000E+00  0.00000000000E+00  0.41662172683E+03  0.41662366252E+03  0.12700000000E+01 0. -1.
          4   -1    0    0  501    0  0.00000000000E+00 -0.00000000000E+00 -0.93338901907E+01  0.94198941657E+01  0.12700000000E+01 0. -1.
         25    2    1    2    0    0  0.00000000000E+00  0.00000000000E+00  0.40728783664E+03  0.42604355668E+03  0.12501891983E+03 0.  0.
    9000005    1    3    3    0    0  0.56305049479E+02  0.22790369058E+02  0.15346966555E+03  0.16505634723E+03  0.10000000000E+01 0.  0.
    9000005    1    3    3    0    0 -0.56305049479E+02 -0.22790369058E+02  0.25381817110E+03  0.26098720945E+03  0.10000000000E+01 0.  0.
<mgrwt>
<rscale>  0 0.12501892E+03</rscale>
<asrwt>0</asrwt>
<pdfrwt beam="2">  1        4 0.14427479E-02 0.12501892E+03</pdfrwt>
<pdfrwt beam="1">  1       -4 0.64102408E-01 0.12501892E+03</pdfrwt>
<totfact> 0.62070365E+03</totfact>
</mgrwt>
</event>
<event>
 5    1  0.3340698E-002  0.1249975E+03  0.7818608E-02  0.1235073E+00
         -4   -1    0    0    0  501 -0.00000000000E+00  0.00000000000E+00  0.53400740260E+03  0.53400891278E+03  0.12700000000E+01 0. -1.
          4   -1    0    0  501    0  0.00000000000E+00 -0.00000000000E+00 -0.72580270564E+01  0.73683008049E+01  0.12700000000E+01 0. -1.
         25    2    1    2    0    0  0.00000000000E+00  0.00000000000E+00  0.52674937555E+03  0.54137721359E+03  0.12499753100E+03 0.  0.
    9000005    1    3    3    0    0 -0.41581372151E+02  0.33400242300E+00  0.61340274432E+02  0.74113098268E+02  0.10000000000E+01 0.  0.
    9000005    1    3    3    0    0  0.41581372151E+02 -0.33400242300E+00  0.46540910111E+03  0.46726411532E+03  0.10000000000E+01 0.  0.
<mgrwt>
<rscale>  0 0.12499753E+03</rscale>
<asrwt>0</asrwt>
<pdfrwt beam="2">  1        4 0.11252178E-02 0.12499753E+03</pdfrwt>
<pdfrwt beam="1">  1       -4 0.82163621E-01 0.12499753E+03</pdfrwt>
<totfact> 0.52793940E+03</totfact>
</mgrwt>
</event>
<event>
 5    1  0.3340698E-002  0.1250006E+03  0.7818608E-02  0.1235068E+00
          4   -1    0    0  501    0  0.00000000000E+00  0.00000000000E+00  0.11328456311E+02  0.11399422020E+02  0.12700000000E+01 0.  1.
         -4   -1    0    0    0  501 -0.00000000000E+00 -0.00000000000E+00 -0.34367205709E+03  0.34367440365E+03  0.12700000000E+01 0.  1.
         25    2    1    2    0    0  0.00000000000E+00  0.00000000000E+00 -0.33234360078E+03  0.35507382567E+03  0.12500061079E+03 0.  0.
    9000005    1    3    3    0    0 -0.23872509084E+02  0.11959939788E+02 -0.56766683399E+01  0.27315955285E+02  0.10000000000E+01 0.  0.
    9000005    1    3    3    0    0  0.23872509084E+02 -0.11959939788E+02 -0.32666693244E+03  0.32775787038E+03  0.10000000000E+01 0.  0.
<mgrwt>
<rscale>  0 0.12500061E+03</rscale>
<asrwt>0</asrwt>
<pdfrwt beam="1">  1        4 0.17484791E-02 0.12500061E+03</pdfrwt>
<pdfrwt beam="2">  1       -4 0.52878255E-01 0.12500061E+03</pdfrwt>
<totfact> 0.69169025E+03</totfact>
</mgrwt>
</event>
<event>
 5    1  0.3340698E-002  0.1249956E+03  0.7818608E-02  0.1235076E+00
          4   -1    0    0  501    0  0.00000000000E+00  0.00000000000E+00  0.14711234027E+02  0.14765950921E+02  0.12700000000E+01 0.  1.
         -4   -1    0    0    0  501 -0.00000000000E+00 -0.00000000000E+00 -0.26496072839E+03  0.26496377203E+03  0.12700000000E+01 0.  1.
         25    2    1    2    0    0  0.00000000000E+00  0.00000000000E+00 -0.25024949436E+03  0.27972972295E+03  0.12499563382E+03 0.  0.
    9000005    1    3    3    0    0  0.76281949798E+01 -0.56010484940E+02 -0.65509869567E+02  0.86532692045E+02  0.10000000000E+01 0.  0.
    9000005    1    3    3    0    0 -0.76281949798E+01  0.56010484940E+02 -0.18473962479E+03  0.19319703091E+03  0.10000000000E+01 0.  0.
<mgrwt>
<rscale>  0 0.12499563E+03</rscale>
<asrwt>0</asrwt>
<pdfrwt beam="1">  1        4 0.22677101E-02 0.12499563E+03</pdfrwt>
<pdfrwt beam="2">  1       -4 0.40767629E-01 0.12499563E+03</pdfrwt>
<totfact> 0.78221549E+03</totfact>
</mgrwt>
</event>
<event>
 5    1  0.3340698E-002  0.1250014E+03  0.7818608E-02  0.1235067E+00
          4   -1    0    0  501    0  0.00000000000E+00  0.00000000000E+00  0.89343267653E+02  0.89352293619E+02  0.12700000000E+01 0. -1.
         -4   -1    0    0    0  501 -0.00000000000E+00 -0.00000000000E+00 -0.43702349994E+02  0.43720799341E+02  0.12700000000E+01 0. -1.
         25    2    1    2    0    0  0.00000000000E+00  0.00000000000E+00  0.45640917659E+02  0.13307309296E+03  0.12500141881E+03 0.  0.
    9000005    1    3    3    0    0  0.48891168196E+02 -0.18813569749E+02  0.59094777420E+02  0.78977778220E+02  0.10000000000E+01 0.  0.
    9000005    1    3    3    0    0 -0.48891168196E+02  0.18813569749E+02 -0.13453859761E+02  0.54095314739E+02  0.10000000000E+01 0.  0.
<mgrwt>
<rscale>  0 0.12500142E+03</rscale>
<asrwt>0</asrwt>
<pdfrwt beam="1">  1        4 0.13747232E-01 0.12500142E+03</pdfrwt>
<pdfrwt beam="2">  1       -4 0.67255519E-02 0.12500142E+03</pdfrwt>
<totfact> 0.10278518E+04</totfact>
</mgrwt>
</event>
<event>
 5    1  0.3340698E-002  0.1249981E+03  0.7818608E-02  0.1235072E+00
          4   -1    0    0  501    0  0.00000000000E+00  0.00000000000E+00  0.15388429337E+03  0.15388953391E+03  0.12700000000E+01 0. -1.
         -4   -1    0    0    0  501 -0.00000000000E+00 -0.00000000000E+00 -0.25361994917E+02  0.25393772586E+02  0.12700000000E+01 0. -1.
         25    2    1    2    0    0  0.00000000000E+00  0.00000000000E+00  0.12852229846E+03  0.17928330650E+03  0.12499809114E+03 0.  0.
    9000005    1    3    3    0    0 -0.23365737496E+02  0.53129913029E+02  0.97479259779E+02  0.11345462280E+03  0.10000000000E+01 0.  0.
    9000005    1    3    3    0    0  0.23365737496E+02 -0.53129913029E+02  0.31043038679E+02  0.65828683699E+02  0.10000000000E+01 0.  0.
<mgrwt>
<rscale>  0 0.12499809E+03</rscale>
<asrwt>0</asrwt>
<pdfrwt beam="1">  1        4 0.23677355E-01 0.12499809E+03</pdfrwt>
<pdfrwt beam="2">  1       -4 0.39046929E-02 0.12499809E+03</pdfrwt>
<totfact> 0.93750182E+03</totfact>
</mgrwt>
</event>
<event>
 5    1  0.3340698E-002  0.1249992E+03  0.7818608E-02  0.1235070E+00
          4   -1    0    0  501    0  0.00000000000E+00  0.00000000000E+00  0.95822926798E+01  0.96660867470E+01  0.12700000000E+01 0. -1.
         -4   -1    0    0    0  501 -0.00000000000E+00 -0.00000000000E+00 -0.40578866052E+03  0.40579064787E+03  0.12700000000E+01 0. -1.
         25    2    1    2    0    0  0.00000000000E+00  0.00000000000E+00 -0.39620636784E+03  0.41545673462E+03  0.12499924972E+03 0.  0.
    9000005    1    3    3    0    0 -0.51933715674E+01 -0.18783102814E+02 -0.39544733680E+03  0.39592849385E+03  0.10000000000E+01 0.  0.
    9000005    1    3    3    0    0  0.51933715674E+01  0.18783102814E+02 -0.75903103523E+00  0.19528240772E+02  0.10000000000E+01 0.  0.
<mgrwt>
<rscale>  0 0.12499925E+03</rscale>
<asrwt>0</asrwt>
<pdfrwt beam="1">  1        4 0.14807978E-02 0.12499925E+03</pdfrwt>
<pdfrwt beam="2">  1       -4 0.62435610E-01 0.12499925E+03</pdfrwt>
<totfact> 0.63077794E+03</totfact>
</mgrwt>
</event>
<event>
 5    1  0.3340698E-002  0.1250096E+03  0.7818608E-02  0.1235054E+00
         -4   -1    0    0    0  501 -0.00000000000E+00  0.00000000000E+00  0.25700882394E+03  0.25701196175E+03  0.12700000000E+01 0.  1.
          4   -1    0    0  501    0  0.00000000000E+00 -0.00000000000E+00 -0.15171467409E+02  0.15224530316E+02  0.12700000000E+01 0.  1.
         25    2    1    2    0    0  0.00000000000E+00  0.00000000000E+00  0.24183735653E+03  0.27223649207E+03  0.12500960203E+03 0.  0.
    9000005    1    3    3    0    0  0.55440282383E+02  0.74898568310E+01  0.60249314194E+02  0.82223492548E+02  0.10000000000E+01 0.  0.
    9000005    1    3    3    0    0 -0.55440282383E+02 -0.74898568310E+01  0.18158804234E+03  0.19001299952E+03  0.10000000000E+01 0.  0.
<mgrwt>
<rscale>  0 0.12500960E+03</rscale>
<asrwt>0</asrwt>
<pdfrwt beam="2">  1        4 0.23383949E-02 0.12500960E+03</pdfrwt>
<pdfrwt beam="1">  1       -4 0.39544144E-01 0.12500960E+03</pdfrwt>
<totfact> 0.79201963E+03</totfact>
</mgrwt>
</event>
<event>
 5    1  0.3340698E-002  0.1250043E+03  0.7818608E-02  0.1235063E+00
         -4   -1    0    0    0  501 -0.00000000000E+00  0.00000000000E+00  0.13345269342E+02  0.13405562794E+02  0.12700000000E+01 0.  1.
          4   -1    0    0  501    0  0.00000000000E+00 -0.00000000000E+00 -0.29200552564E+03  0.29200828739E+03  0.12700000000E+01 0.  1.
         25    2    1    2    0    0  0.00000000000E+00  0.00000000000E+00 -0.27866025629E+03  0.30541385018E+03  0.12500432570E+03 0.  0.
    9000005    1    3    3    0    0 -0.65217962823E+00  0.47180960568E+02 -0.23944434562E+03  0.24405135326E+03  0.10000000000E+01 0.  0.
    9000005    1    3    3    0    0  0.65217962823E+00 -0.47180960568E+02 -0.39215910675E+02  0.61362496922E+02  0.10000000000E+01 0.  0.
<mgrwt>
<rscale>  0 0.12500433E+03</rscale>
<asrwt>0</asrwt>
<pdfrwt beam="2">  1        4 0.44928773E-01 0.12500433E+03</pdfrwt>
<pdfrwt beam="1">  1       -4 0.20579690E-02 0.12500433E+03</pdfrwt>
<totfact> 0.74917525E+03</totfact>
</mgrwt>
</event>
<event>
 5    1  0.3340698E-002  0.1250017E+03  0.7818608E-02  0.1235067E+00
          4   -1    0    0  501    0  0.00000000000E+00  0.00000000000E+00  0.14327653168E+02  0.14383829299E+02  0.12700000000E+01 0.  1.
         -4   -1    0    0    0  501 -0.00000000000E+00 -0.00000000000E+00 -0.27205344697E+03  0.27205641126E+03  0.12700000000E+01 0.  1.
         25    2    1    2    0    0  0.00000000000E+00  0.00000000000E+00 -0.25772579380E+03  0.28644024056E+03  0.12500170647E+03 0.  0.
    9000005    1    3    3    0    0 -0.47623634281E+02 -0.39675293615E+02 -0.14708236443E+03  0.15961316171E+03  0.10000000000E+01 0.  0.
    9000005    1    3    3    0    0  0.47623634281E+02  0.39675293615E+02 -0.11064342937E+03  0.12682707885E+03  0.10000000000E+01 0.  0.
<mgrwt>
<rscale>  0 0.12500171E+03</rscale>
<asrwt>0</asrwt>
<pdfrwt beam="1">  1        4 0.22088038E-02 0.12500171E+03</pdfrwt>
<pdfrwt beam="2">  1       -4 0.41858922E-01 0.12500171E+03</pdfrwt>
<totfact> 0.77328923E+03</totfact>
</mgrwt>
</event>
<event>
 5    1  0.3340698E-002  0.1250158E+03  0.7818608E-02  0.1235045E+00
          4   -1    0    0  501    0  0.00000000000E+00  0.00000000000E+00  0.10707395256E+03  0.10708148400E+03  0.12700000000E+01 0. -1.
         -4   -1    0    0    0  501 -0.00000000000E+00 -0.00000000000E+00 -0.36471157796E+02  0.36493263090E+02  0.12700000000E+01 0. -1.
         25    2    1    2    0    0  0.00000000000E+00  0.00000000000E+00  0.70602794762E+02  0.14357474709E+03  0.12501581250E+03 0.  0.
    9000005    1    3    3    0    0 -0.82346649349E+01 -0.46423873062E+02  0.82419496909E+02  0.94957670398E+02  0.10000000000E+01 0.  0.
    9000005    1    3    3    0    0  0.82346649349E+01  0.46423873062E+02 -0.11816702147E+02  0.48617076695E+02  0.10000000000E+01 0.  0.
<mgrwt>
<rscale>  0 0.12501581E+03</rscale>
<asrwt>0</asrwt>
<pdfrwt beam="1">  1        4 0.16475195E-01 0.12501581E+03</pdfrwt>
<pdfrwt beam="2">  1       -4 0.56132272E-02 0.12501581E+03</pdfrwt>
<totfact> 0.10056445E+04</totfact>
</mgrwt>
</event>
<event>
 5    1  0.3340698E-002  0.1249992E+03  0.7818608E-02  0.1235071E+00
         -4   -1    0    0    0  501 -0.00000000000E+00  0.00000000000E+00  0.11493774571E+03  0.11494476191E+03  0.12700000000E+01 0. -1.
          4   -1    0    0  501    0  0.00000000000E+00 -0.00000000000E+00 -0.33965412491E+02  0.33989147469E+02  0.12700000000E+01 0. -1.
         25    2    1    2    0    0  0.00000000000E+00  0.00000000000E+00  0.80972333223E+02  0.14893390938E+03  0.12499916245E+03 0.  0.
    9000005    1    3    3    0    0 -0.21565437231E+01 -0.59532800734E+02  0.17992988036E+02  0.62237871610E+02  0.10000000000E+01 0.  0.
    9000005    1    3    3    0    0  0.21565437231E+01  0.59532800734E+02  0.62979345187E+02  0.86696037765E+02  0.10000000000E+01 0.  0.
<mgrwt>
<rscale>  0 0.12499916E+03</rscale>
<asrwt>0</asrwt>
<pdfrwt beam="2">  1        4 0.52278135E-02 0.12499916E+03</pdfrwt>
<pdfrwt beam="1">  1       -4 0.17685096E-01 0.12499916E+03</pdfrwt>
<totfact> 0.99518508E+03</totfact>
</mgrwt>
</event>
<event>
 5    1  0.3340698E-002  0.1249999E+03  0.7818608E-02  0.1235069E+00
          4   -1    0    0  501    0  0.00000000000E+00  0.00000000000E+00  0.51228009059E+03  0.51228166482E+03  0.12700000000E+01 0. -1.
         -4   -1    0    0    0  501 -0.00000000000E+00 -0.00000000000E+00 -0.75707363646E+01  0.76765193351E+01  0.12700000000E+01 0. -1.
         25    2    1    2    0    0  0.00000000000E+00  0.00000000000E+00  0.50470935422E+03  0.51995818415E+03  0.12499992412E+03 0.  0.
    9000005    1    3    3    0    0 -0.36174782244E+02 -0.50544603256E+02  0.27927176921E+03  0.28610678578E+03  0.10000000000E+01 0.  0.
    9000005    1    3    3    0    0  0.36174782244E+02  0.50544603256E+02  0.22543758501E+03  0.23385139838E+03  0.10000000000E+01 0.  0.
<mgrwt>
<rscale>  0 0.12499992E+03</rscale>
<asrwt>0</asrwt>
<pdfrwt beam="1">  1        4 0.78820599E-01 0.12499992E+03</pdfrwt>
<pdfrwt beam="2">  1       -4 0.11729866E-02 0.12499992E+03</pdfrwt>
<totfact> 0.54348519E+03</totfact>
</mgrwt>
</event>
<event>
 5    1  0.3340698E-002  0.1250046E+03  0.7818608E-02  0.1235062E+00
         -4   -1    0    0    0  501 -0.00000000000E+00  0.00000000000E+00  0.42058760448E+02  0.42077930444E+02  0.12700000000E+01 0. -1.
          4   -1    0    0  501    0  0.00000000000E+00 -0.00000000000E+00 -0.92838148277E+02  0.92846834493E+02  0.12700000000E+01 0. -1.
         25    2    1    2    0    0  0.00000000000E+00  0.00000000000E+00 -0.50779387828E+02  0.13492476494E+03  0.12500458378E+03 0.  0.
    9000005    1    3    3    0    0 -0.42680143947E+02  0.28521647311E+02 -0.63861784969E+02  0.81941482975E+02  0.10000000000E+01 0.  0.
    9000005    1    3    3    0    0  0.42680143947E+02 -0.28521647311E+02  0.13082397141E+02  0.52983281963E+02  0.10000000000E+01 0.  0.
<mgrwt>
<rscale>  0 0.12500458E+03</rscale>
<asrwt>0</asrwt>
<pdfrwt beam="2">  1        4 0.14284935E-01 0.12500458E+03</pdfrwt>
<pdfrwt beam="1">  1       -4 0.64727214E-02 0.12500458E+03</pdfrwt>
<totfact> 0.10238598E+04</totfact>
</mgrwt>
</event>
<event>
 5    1  0.3340698E-002  0.1249981E+03  0.7818608E-02  0.1235072E+00
          4   -1    0    0  501    0  0.00000000000E+00  0.00000000000E+00  0.82113664937E+03  0.82113763148E+03  0.12700000000E+01 0. -1.
         -4   -1    0    0    0  501 -0.00000000000E+00 -0.00000000000E+00 -0.46712129306E+01  0.48407778552E+01  0.12700000000E+01 0. -1.
         25    2    1    2    0    0  0.00000000000E+00  0.00000000000E+00  0.81646543644E+03  0.82597840934E+03  0.12499809516E+03 0.  0.
    9000005    1    3    3    0    0  0.49463743924E+00  0.69148903763E+00  0.82113083712E+03  0.82113188617E+03  0.10000000000E+01 0.  0.
    9000005    1    3    3    0    0 -0.49463743924E+00 -0.69148903763E+00 -0.46654006798E+01  0.48465231650E+01  0.10000000000E+01 0.  0.
<mgrwt>
<rscale>  0 0.12499810E+03</rscale>
<asrwt>0</asrwt>
<pdfrwt beam="1">  1        4 0.12634179E+00 0.12499810E+03</pdfrwt>
<pdfrwt beam="2">  1       -4 0.73176740E-03 0.12499810E+03</pdfrwt>
<totfact> 0.37132512E+03</totfact>
</mgrwt>
</event>
<event>
 5    1  0.3340698E-002  0.1250046E+03  0.7818608E-02  0.1235062E+00
         -4   -1    0    0    0  501 -0.00000000000E+00  0.00000000000E+00  0.37778214259E+01  0.39855783428E+01  0.12700000000E+01 0.  1.
          4   -1    0    0  501    0  0.00000000000E+00 -0.00000000000E+00 -0.10061910478E+04  0.10061918493E+04  0.12700000000E+01 0.  1.
         25    2    1    2    0    0  0.00000000000E+00  0.00000000000E+00 -0.10024132264E+04  0.10101774276E+04  0.12500463545E+03 0.  0.
    9000005    1    3    3    0    0 -0.28262482698E+02  0.77939521126E+01 -0.55203025265E+02  0.62513099556E+02  0.10000000000E+01 0.  0.
    9000005    1    3    3    0    0  0.28262482698E+02 -0.77939521126E+01 -0.94721020112E+03  0.94766432808E+03  0.10000000000E+01 0.  0.
<mgrwt>
<rscale>  0 0.12500464E+03</rscale>
<asrwt>0</asrwt>
<pdfrwt beam="2">  1        4 0.15481446E+00 0.12500464E+03</pdfrwt>
<pdfrwt beam="1">  1       -4 0.59724705E-03 0.12500464E+03</pdfrwt>
<totfact> 0.30267763E+03</totfact>
</mgrwt>
</event>
<event>
 5    1  0.3340698E-002  0.1250020E+03  0.7818608E-02  0.1235066E+00
          4   -1    0    0  501    0  0.00000000000E+00  0.00000000000E+00  0.82539485493E+01  0.83510817655E+01  0.12700000000E+01 0.  1.
         -4   -1    0    0    0  501 -0.00000000000E+00 -0.00000000000E+00 -0.47040676219E+03  0.47040847655E+03  0.12700000000E+01 0.  1.
         25    2    1    2    0    0  0.00000000000E+00  0.00000000000E+00 -0.46215281364E+03  0.47875955832E+03  0.12500196609E+03 0.  0.
    9000005    1    3    3    0    0 -0.40280203562E+02  0.37131420949E+02 -0.34624058514E+03  0.35054925477E+03  0.10000000000E+01 0.  0.
    9000005    1    3    3    0    0  0.40280203562E+02 -0.37131420949E+02 -0.11591222850E+03  0.12821030355E+03  0.10000000000E+01 0.  0.
<mgrwt>
<rscale>  0 0.12500197E+03</rscale>
<asrwt>0</asrwt>
<pdfrwt beam="1">  1        4 0.12774423E-02 0.12500197E+03</pdfrwt>
<pdfrwt beam="2">  1       -4 0.72377854E-01 0.12500197E+03</pdfrwt>
<totfact> 0.57548384E+03</totfact>
</mgrwt>
</event>
<event>
 5    1  0.3340698E-002  0.1249975E+03  0.7818608E-02  0.1235073E+00
          4   -1    0    0  501    0  0.00000000000E+00  0.00000000000E+00  0.15533103348E+03  0.15533622521E+03  0.12700000000E+01 0. -1.
         -4   -1    0    0    0  501 -0.00000000000E+00 -0.00000000000E+00 -0.25125230129E+02  0.25157306872E+02  0.12700000000E+01 0. -1.
         25    2    1    2    0    0  0.00000000000E+00  0.00000000000E+00  0.13020580335E+03  0.18049353208E+03  0.12499745556E+03 0.  0.
    9000005    1    3    3    0    0 -0.12858075136E+01  0.15491264113E+01  0.15529127520E+03  0.15530754408E+03  0.10000000000E+01 0.  0.
    9000005    1    3    3    0    0  0.12858075136E+01 -0.15491264113E+01 -0.25085471852E+02  0.25185988002E+02  0.10000000000E+01 0.  0.
<mgrwt>
<rscale>  0 0.12499746E+03</rscale>
<asrwt>0</asrwt>
<pdfrwt beam="1">  1        4 0.23899949E-01 0.12499746E+03</pdfrwt>
<pdfrwt beam="2">  1       -4 0.38682868E-02 0.12499746E+03</pdfrwt>
<totfact> 0.93533576E+03</totfact>
</mgrwt>
</event>
<event>
 5    1  0.3340698E-002  0.1249995E+03  0.7818608E-02  0.1235070E+00
         -4   -1    0    0    0  501 -0.00000000000E+00  0.00000000000E+00  0.27339289508E+03  0.27339584485E+03  0.12700000000E+01 0. -1.
          4   -1    0    0  501    0  0.00000000000E+00 -0.00000000000E+00 -0.14256686923E+02  0.14313141584E+02  0.12700000000E+01 0. -1.
         25    2    1    2    0    0  0.00000000000E+00  0.00000000000E+00  0.25913620816E+03  0.28770898643E+03  0.12499954598E+03 0.  0.
    9000005    1    3    3    0    0  0.58206017989E+02  0.16456678746E+02  0.16570219829E+03  0.17640006044E+03  0.10000000000E+01 0.  0.
    9000005    1    3    3    0    0 -0.58206017989E+02 -0.16456678746E+02  0.93434009869E+02  0.11130892599E+03  0.10000000000E+01 0.  0.
<mgrwt>
<rscale>  0 0.12499955E+03</rscale>
<asrwt>0</asrwt>
<pdfrwt beam="2">  1        4 0.21979061E-02 0.12499955E+03</pdfrwt>
<pdfrwt beam="1">  1       -4 0.42065014E-01 0.12499955E+03</pdfrwt>
<totfact> 0.77167706E+03</totfact>
</mgrwt>
</event>
<event>
 5    1  0.3340698E-002  0.1249989E+03  0.7818608E-02  0.1235071E+00
         -4   -1    0    0    0  501 -0.00000000000E+00  0.00000000000E+00  0.12068481296E+04  0.12068487979E+04  0.12700000000E+01 0. -1.
          4   -1    0    0  501    0  0.00000000000E+00 -0.00000000000E+00 -0.31114071605E+01  0.33606181751E+01  0.12700000000E+01 0. -1.
         25    2    1    2    0    0  0.00000000000E+00  0.00000000000E+00  0.12037367225E+04  0.12102094160E+04  0.12499893453E+03 0.  0.
    9000005    1    3    3    0    0 -0.42988148261E+02  0.44397656220E+02  0.69167972027E+03  0.69443571927E+03  0.10000000000E+01 0.  0.
    9000005    1    3    3    0    0  0.42988148261E+02 -0.44397656220E+02  0.51205700220E+03  0.51577369677E+03  0.10000000000E+01 0.  0.
<mgrwt>
<rscale>  0 0.12499893E+03</rscale>
<asrwt>0</asrwt>
<pdfrwt beam="2">  1        4 0.49789899E-03 0.12499893E+03</pdfrwt>
<pdfrwt beam="1">  1       -4 0.18568836E+00 0.12499893E+03</pdfrwt>
<totfact> 0.24447609E+03</totfact>
</mgrwt>
</event>
<event>
 5    1  0.3340698E-002  0.1250022E+03  0.7818608E-02  0.1235066E+00
         -4   -1    0    0    0  501 -0.00000000000E+00  0.00000000000E+00  0.40972708353E+03  0.40972905179E+03  0.12700000000E+01 0. -1.
          4   -1    0    0  501    0  0.00000000000E+00 -0.00000000000E+00 -0.94898350378E+01  0.95744383149E+01  0.12700000000E+01 0. -1.
         25    2    1    2    0    0  0.00000000000E+00  0.00000000000E+00  0.40023724850E+03  0.41930349010E+03  0.12500224690E+03 0.  0.
    9000005    1    3    3    0    0 -0.41297782024E+02  0.35321380310E+02  0.30363137245E+03  0.30845764222E+03  0.10000000000E+01 0.  0.
    9000005    1    3    3    0    0  0.41297782024E+02 -0.35321380310E+02  0.96605876047E+02  0.11084584789E+03  0.10000000000E+01 0.  0.
<mgrwt>
<rscale>  0 0.12500225E+03</rscale>
<asrwt>0</asrwt>
<pdfrwt beam="2">  1        4 0.14666344E-02 0.12500225E+03</pdfrwt>
<pdfrwt beam="1">  1       -4 0.63041577E-01 0.12500225E+03</pdfrwt>
<totfact> 0.62714579E+03</totfact>
</mgrwt>
</event>
<event>
 5    1  0.3340698E-002  0.1249914E+03  0.7818608E-02  0.1235083E+00
         -4   -1    0    0    0  501 -0.00000000000E+00  0.00000000000E+00  0.19032244383E+02  0.19074570146E+02  0.12700000000E+01 0.  1.
          4   -1    0    0  501    0  0.00000000000E+00 -0.00000000000E+00 -0.20494321198E+03  0.20494714694E+03  0.12700000000E+01 0.  1.
         25    2    1    2    0    0  0.00000000000E+00  0.00000000000E+00 -0.18591096760E+03  0.22402171708E+03  0.12499136710E+03 0.  0.
    9000005    1    3    3    0    0 -0.12844477267E+02  0.92441026063E+01  0.15389997217E+02  0.22097195379E+02  0.10000000000E+01 0.  0.
    9000005    1    3    3    0    0  0.12844477267E+02 -0.92441026063E+01 -0.20130096482E+03  0.20192452170E+03  0.10000000000E+01 0.  0.
<mgrwt>
<rscale>  0 0.12499137E+03</rscale>
<asrwt>0</asrwt>
<pdfrwt beam="2">  1        4 0.31533282E-01 0.12499137E+03</pdfrwt>
<pdfrwt beam="1">  1       -4 0.29315963E-02 0.12499137E+03</pdfrwt>
<totfact> 0.86252565E+03</totfact>
</mgrwt>
</event>
<event>
 5    1  0.3340698E-002  0.1250015E+03  0.7818608E-02  0.1235067E+00
         -4   -1    0    0    0  501 -0.00000000000E+00  0.00000000000E+00  0.14693082809E+02  0.14747867046E+02  0.12700000000E+01 0.  1.
          4   -1    0    0  501    0  0.00000000000E+00 -0.00000000000E+00 -0.26531181384E+03  0.26531485346E+03  0.12700000000E+01 0.  1.
         25    2    1    2    0    0  0.00000000000E+00  0.00000000000E+00 -0.25061873103E+03  0.28006272050E+03  0.12500151627E+03 0.  0.
    9000005    1    3    3    0    0 -0.17160309596E+02 -0.47431070138E+02 -0.42649451225E+02  0.66061776616E+02  0.10000000000E+01 0.  0.
    9000005    1    3    3    0    0  0.17160309596E+02  0.47431070138E+02 -0.20796927981E+03  0.21400094389E+03  0.10000000000E+01 0.  0.
<mgrwt>
<rscale>  0 0.12500152E+03</rscale>
<asrwt>0</asrwt>
<pdfrwt beam="2">  1        4 0.40821647E-01 0.12500152E+03</pdfrwt>
<pdfrwt beam="1">  1       -4 0.22649225E-02 0.12500152E+03</pdfrwt>
<totfact> 0.78167157E+03</totfact>
</mgrwt>
</event>
<event>
 5    1  0.3340698E-002  0.1250042E+03  0.7818608E-02  0.1235063E+00
          4   -1    0    0  501    0  0.00000000000E+00  0.00000000000E+00  0.10534756250E+02  0.10611031489E+02  0.12700000000E+01 0.  1.
         -4   -1    0    0    0  501 -0.00000000000E+00 -0.00000000000E+00 -0.36940630968E+03  0.36940849277E+03  0.12700000000E+01 0.  1.
         25    2    1    2    0    0  0.00000000000E+00  0.00000000000E+00 -0.35887155343E+03  0.38001952426E+03  0.12500418776E+03 0.  0.
    9000005    1    3    3    0    0  0.39027997392E+02  0.21746840458E+01 -0.31200846792E+02  0.50024060927E+02  0.10000000000E+01 0.  0.
    9000005    1    3    3    0    0 -0.39027997392E+02 -0.21746840458E+01 -0.32767070664E+03  0.32999546333E+03  0.10000000000E+01 0.  0.
<mgrwt>
<rscale>  0 0.12500419E+03</rscale>
<asrwt>0</asrwt>
<pdfrwt beam="1">  1        4 0.16267673E-02 0.12500419E+03</pdfrwt>
<pdfrwt beam="2">  1       -4 0.56837765E-01 0.12500419E+03</pdfrwt>
<totfact> 0.66537420E+03</totfact>
</mgrwt>
</event>
<event>
 5    1  0.3340698E-002  0.1250002E+03  0.7818608E-02  0.1235069E+00
          4   -1    0    0  501    0  0.00000000000E+00  0.00000000000E+00  0.18330696560E+02  0.18374638402E+02  0.12700000000E+01 0. -1.
         -4   -1    0    0    0  501 -0.00000000000E+00 -0.00000000000E+00 -0.21279842569E+03  0.21280221539E+03  0.12700000000E+01 0. -1.
         25    2    1    2    0    0  0.00000000000E+00  0.00000000000E+00 -0.19446772913E+03  0.23117685380E+03  0.12500016023E+03 0.  0.
    9000005    1    3    3    0    0 -0.52912582574E+02 -0.29345544292E+02 -0.68323953936E+02  0.91269190015E+02  0.10000000000E+01 0.  0.
    9000005    1    3    3    0    0  0.52912582574E+02  0.29345544292E+02 -0.12614377519E+03  0.13990766378E+03  0.10000000000E+01 0.  0.
<mgrwt>
<rscale>  0 0.12500016E+03</rscale>
<asrwt>0</asrwt>
<pdfrwt beam="1">  1        4 0.28237790E-02 0.12500016E+03</pdfrwt>
<pdfrwt beam="2">  1       -4 0.32741889E-01 0.12500016E+03</pdfrwt>
<totfact> 0.85128913E+03</totfact>
</mgrwt>
</event>
<event>
 5    1  0.3340698E-002  0.1249985E+03  0.7818608E-02  0.1235072E+00
         -4   -1    0    0    0  501 -0.00000000000E+00  0.00000000000E+00  0.16595390937E+02  0.16643914815E+02  0.12700000000E+01 0.  1.
          4   -1    0    0  501    0  0.00000000000E+00 -0.00000000000E+00 -0.23498214314E+03  0.23498557508E+03  0.12700000000E+01 0.  1.
         25    2    1    2    0    0  0.00000000000E+00  0.00000000000E+00 -0.21838675220E+03  0.25162948989E+03  0.12499850658E+03 0.  0.
    9000005    1    3    3    0    0 -0.38665964249E+02 -0.41868456330E+02 -0.16079734427E+03  0.17060131990E+03  0.10000000000E+01 0.  0.
    9000005    1    3    3    0    0  0.38665964249E+02  0.41868456330E+02 -0.57589407935E+02  0.81028169997E+02  0.10000000000E+01 0.  0.
<mgrwt>
<rscale>  0 0.12499851E+03</rscale>
<asrwt>0</asrwt>
<pdfrwt beam="2">  1        4 0.36155093E-01 0.12499851E+03</pdfrwt>
<pdfrwt beam="1">  1       -4 0.25571338E-02 0.12499851E+03</pdfrwt>
<totfact> 0.82098017E+03</totfact>
</mgrwt>
</event>
<event>
 5    1  0.3340698E-002  0.1250026E+03  0.7818608E-02  0.1235065E+00
         -4   -1    0    0    0  501 -0.00000000000E+00  0.00000000000E+00  0.17133466074E+02  0.17180470299E+02  0.12700000000E+01 0.  1.
          4   -1    0    0  501    0  0.00000000000E+00 -0.00000000000E+00 -0.22763777410E+03  0.22764131676E+03  0.12700000000E+01 0.  1.
         25    2    1    2    0    0  0.00000000000E+00  0.00000000000E+00 -0.21050430802E+03  0.24482178706E+03  0.12500257486E+03 0.  0.
    9000005    1    3    3    0    0 -0.56244258060E+02 -0.25196399771E+02 -0.84980068838E+02  0.10498041353E+03  0.10000000000E+01 0.  0.
    9000005    1    3    3    0    0  0.56244258060E+02  0.25196399771E+02 -0.12552423918E+03  0.13984137352E+03  0.10000000000E+01 0.  0.
<mgrwt>
<rscale>  0 0.12500257E+03</rscale>
<asrwt>0</asrwt>
<pdfrwt beam="2">  1        4 0.35025082E-01 0.12500257E+03</pdfrwt>
<pdfrwt beam="1">  1       -4 0.26398062E-02 0.12500257E+03</pdfrwt>
<totfact> 0.83079682E+03</totfact>
</mgrwt>
</event>
<event>
 4    1  0.3340698E-002  0.1292642E+03  0.7818608E-02  0.1228552E+00
          4   -1    0    0  501    0  0.00000000000E+00  0.00000000000E+00  0.45900437965E+02  0.45918004153E+02  0.12700000000E+01 0.  1.
         -4   -1    0    0    0  501 -0.00000000000E+00 -0.00000000000E+00 -0.90968549961E+02  0.90977414681E+02  0.12700000000E+01 0.  1.
    9000005    1    1    2    0    0  0.97643880102E+01  0.61037815735E+02 -0.42497577573E+02  0.75020012813E+02  0.10000000000E+01 0.  0.
    9000005    1    1    2    0    0 -0.97643880102E+01 -0.61037815735E+02 -0.25705344228E+01  0.61875406020E+02  0.10000000000E+01 0.  0.
<mgrwt>
<rscale>  0 0.12926415E+03</rscale>
<asrwt>0</asrwt>
<pdfrwt beam="1">  1        4 0.70636390E-02 0.12926415E+03</pdfrwt>
<pdfrwt beam="2">  1       -4 0.13997195E-01 0.12926415E+03</pdfrwt>
<totfact> 0.92765647E+03</totfact>
</mgrwt>
</event>
<event>
 5    1  0.3340698E-002  0.1249824E+03  0.7818608E-02  0.1235097E+00
          4   -1    0    0  501    0  0.00000000000E+00  0.00000000000E+00  0.70404306353E+01  0.71540592344E+01  0.12700000000E+01 0.  1.
         -4   -1    0    0    0  501 -0.00000000000E+00 -0.00000000000E+00 -0.55012042129E+03  0.55012188724E+03  0.12700000000E+01 0.  1.
         25    2    1    2    0    0  0.00000000000E+00  0.00000000000E+00 -0.54307999066E+03  0.55727594648E+03  0.12498241584E+03 0.  0.
    9000005    1    3    3    0    0 -0.63314587294E+01 -0.13795615738E+02 -0.54179632129E+03  0.54200983400E+03  0.10000000000E+01 0.  0.
    9000005    1    3    3    0    0  0.63314587294E+01  0.13795615738E+02 -0.12836693656E+01  0.15266112481E+02  0.10000000000E+01 0.  0.
<mgrwt>
<rscale>  0 0.12498242E+03</rscale>
<asrwt>0</asrwt>
<pdfrwt beam="1">  1        4 0.10919970E-02 0.12498242E+03</pdfrwt>
<pdfrwt beam="2">  1       -4 0.84642731E-01 0.12498242E+03</pdfrwt>
<totfact> 0.51700495E+03</totfact>
</mgrwt>
</event>
<event>
 5    1  0.3340698E-002  0.1249983E+03  0.7818608E-02  0.1235072E+00
         -4   -1    0    0    0  501 -0.00000000000E+00  0.00000000000E+00  0.43394505127E+01  0.45214744002E+01  0.12700000000E+01 0.  1.
          4   -1    0    0  501    0  0.00000000000E+00 -0.00000000000E+00 -0.88147293991E+03  0.88147385480E+03  0.12700000000E+01 0.  1.
         25    2    1    2    0    0  0.00000000000E+00  0.00000000000E+00 -0.87713348940E+03  0.88599532920E+03  0.12499826055E+03 0.  0.
    9000005    1    3    3    0    0 -0.12583084940E+02 -0.20821431651E+02 -0.30570448509E+02  0.39082200100E+02  0.10000000000E+01 0.  0.
    9000005    1    3    3    0    0  0.12583084940E+02  0.20821431651E+02 -0.84656304089E+03  0.84691312910E+03  0.10000000000E+01 0.  0.
<mgrwt>
<rscale>  0 0.12499826E+03</rscale>
<asrwt>0</asrwt>
<pdfrwt beam="2">  1        4 0.13562515E+00 0.12499826E+03</pdfrwt>
<pdfrwt beam="1">  1       -4 0.68168068E-03 0.12499826E+03</pdfrwt>
<totfact> 0.34699227E+03</totfact>
</mgrwt>
</event>
<event>
 5    1  0.3340698E-002  0.1250063E+03  0.7818608E-02  0.1235059E+00
         -4   -1    0    0    0  501 -0.00000000000E+00  0.00000000000E+00  0.67511595988E+01  0.68695746541E+01  0.12700000000E+01 0.  1.
          4   -1    0    0  501    0  0.00000000000E+00 -0.00000000000E+00 -0.57351246229E+03  0.57351386845E+03  0.12700000000E+01 0.  1.
         25    2    1    2    0    0  0.00000000000E+00  0.00000000000E+00 -0.56676130269E+03  0.58038344310E+03  0.12500626704E+03 0.  0.
    9000005    1    3    3    0    0 -0.74286883309E+01 -0.14179127042E+02 -0.29054448014E+01  0.16299529548E+02  0.10000000000E+01 0.  0.
    9000005    1    3    3    0    0  0.74286883309E+01  0.14179127042E+02 -0.56385585789E+03  0.56408391356E+03  0.10000000000E+01 0.  0.
<mgrwt>
<rscale>  0 0.12500627E+03</rscale>
<asrwt>0</asrwt>
<pdfrwt beam="2">  1        4 0.88241866E-01 0.12500627E+03</pdfrwt>
<pdfrwt beam="1">  1       -4 0.10478574E-02 0.12500627E+03</pdfrwt>
<totfact> 0.50122871E+03</totfact>
</mgrwt>
</event>
<event>
 5    1  0.3340698E-002  0.1249991E+03  0.7818608E-02  0.1235071E+00
         -4   -1    0    0    0  501 -0.00000000000E+00  0.00000000000E+00  0.16200521336E+03  0.16201019121E+03  0.12700000000E+01 0. -1.
          4   -1    0    0  501    0  0.00000000000E+00 -0.00000000000E+00 -0.24089470369E+02  0.24122924421E+02  0.12700000000E+01 0. -1.
         25    2    1    2    0    0  0.00000000000E+00  0.00000000000E+00  0.13791574299E+03  0.18613311563E+03  0.12499913827E+03 0.  0.
    9000005    1    3    3    0    0 -0.61928648356E+02  0.24324777316E+01  0.80881794586E+02  0.10190161496E+03  0.10000000000E+01 0.  0.
    9000005    1    3    3    0    0  0.61928648356E+02 -0.24324777316E+01  0.57033948401E+02  0.84231500671E+02  0.10000000000E+01 0.  0.
<mgrwt>
<rscale>  0 0.12499914E+03</rscale>
<asrwt>0</asrwt>
<pdfrwt beam="2">  1        4 0.37090286E-02 0.12499914E+03</pdfrwt>
<pdfrwt beam="1">  1       -4 0.24926836E-01 0.12499914E+03</pdfrwt>
<totfact> 0.92526313E+03</totfact>
</mgrwt>
</event>
<event>
 5    1  0.3340698E-002  0.1250028E+03  0.7818608E-02  0.1235065E+00
          4   -1    0    0  501    0  0.00000000000E+00  0.00000000000E+00  0.75880347343E+03  0.75880453622E+03  0.12700000000E+01 0. -1.
         -4   -1    0    0    0  501 -0.00000000000E+00 -0.00000000000E+00 -0.50687297362E+01  0.52254110976E+01  0.12700000000E+01 0. -1.
         25    2    1    2    0    0  0.00000000000E+00  0.00000000000E+00  0.75373474369E+03  0.76402994732E+03  0.12500278616E+03 0.  0.
    9000005    1    3    3    0    0 -0.58998023816E+01 -0.61869143811E+02  0.41686571263E+03  0.42147434203E+03  0.10000000000E+01 0.  0.
    9000005    1    3    3    0    0  0.58998023816E+01  0.61869143811E+02  0.33686903106E+03  0.34255560529E+03  0.10000000000E+01 0.  0.
<mgrwt>
<rscale>  0 0.12500279E+03</rscale>
<asrwt>0</asrwt>
<pdfrwt beam="1">  1        4 0.11675110E+00 0.12500279E+03</pdfrwt>
<pdfrwt beam="2">  1       -4 0.79193896E-03 0.12500279E+03</pdfrwt>
<totfact> 0.39909486E+03</totfact>
</mgrwt>
</event>
<event>
 5    1  0.3340698E-002  0.1249985E+03  0.7818608E-02  0.1235072E+00
          4   -1    0    0  501    0  0.00000000000E+00  0.00000000000E+00  0.10661849718E+04  0.10661857282E+04  0.12700000000E+01 0. -1.
         -4   -1    0    0    0  501 -0.00000000000E+00 -0.00000000000E+00 -0.35528352341E+01  0.37730012193E+01  0.12700000000E+01 0. -1.
         25    2    1    2    0    0  0.00000000000E+00  0.00000000000E+00  0.10626321365E+04  0.10699587294E+04  0.12499849988E+03 0.  0.
    9000005    1    3    3    0    0  0.30736620214E+02  0.52766933416E+02  0.41773618885E+03  0.42217722885E+03  0.10000000000E+01 0.  0.
    9000005    1    3    3    0    0 -0.30736620214E+02 -0.52766933416E+02  0.64489594769E+03  0.64778150053E+03  0.10000000000E+01 0.  0.
<mgrwt>
<rscale>  0 0.12499850E+03</rscale>
<asrwt>0</asrwt>
<pdfrwt beam="1">  1        4 0.16404534E+00 0.12499850E+03</pdfrwt>
<pdfrwt beam="2">  1       -4 0.56358445E-03 0.12499850E+03</pdfrwt>
<totfact> 0.28380626E+03</totfact>
</mgrwt>
</event>
<event>
 5    1  0.3340698E-002  0.1250009E+03  0.7818608E-02  0.1235068E+00
         -4   -1    0    0    0  501 -0.00000000000E+00  0.00000000000E+00  0.18492886958E+02  0.18536444321E+02  0.12700000000E+01 0. -1.
          4   -1    0    0  501    0  0.00000000000E+00 -0.00000000000E+00 -0.21093883110E+03  0.21094265421E+03  0.12700000000E+01 0. -1.
         25    2    1    2    0    0  0.00000000000E+00  0.00000000000E+00 -0.19244594414E+03  0.22947909853E+03  0.12500086098E+03 0.  0.
    9000005    1    3    3    0    0 -0.41580851002E+02 -0.25664094922E+02 -0.24703913005E+02  0.54762179065E+02  0.10000000000E+01 0.  0.
    9000005    1    3    3    0    0  0.41580851002E+02  0.25664094922E+02 -0.16774203114E+03  0.17471691947E+03  0.10000000000E+01 0.  0.
<mgrwt>
<rscale>  0 0.12500086E+03</rscale>
<asrwt>0</asrwt>
<pdfrwt beam="2">  1        4 0.32455771E-01 0.12500086E+03</pdfrwt>
<pdfrwt beam="1">  1       -4 0.28487043E-02 0.12500086E+03</pdfrwt>
<totfact> 0.85388006E+03</totfact>
</mgrwt>
</event>
<event>
 5    1  0.3340698E-002  0.1250032E+03  0.7818608E-02  0.1235064E+00
         -4   -1    0    0    0  501 -0.00000000000E+00  0.00000000000E+00  0.41173826179E+02  0.41193407994E+02  0.12700000000E+01 0.  1.
          4   -1    0    0  501    0  0.00000000000E+00 -0.00000000000E+00 -0.94830676696E+02  0.94839180419E+02  0.12700000000E+01 0.  1.
         25    2    1    2    0    0  0.00000000000E+00  0.00000000000E+00 -0.53656850517E+02  0.13603258841E+03  0.12500322997E+03 0.  0.
    9000005    1    3    3    0    0  0.10026504048E+02 -0.23443768961E+02 -0.88917895691E+02  0.92506936284E+02  0.10000000000E+01 0.  0.
    9000005    1    3    3    0    0 -0.10026504048E+02  0.23443768961E+02  0.35261045174E+02  0.43525652130E+02  0.10000000000E+01 0.  0.
<mgrwt>
<rscale>  0 0.12500323E+03</rscale>
<asrwt>0</asrwt>
<pdfrwt beam="2">  1        4 0.14591495E-01 0.12500323E+03</pdfrwt>
<pdfrwt beam="1">  1       -4 0.63365952E-02 0.12500323E+03</pdfrwt>
<totfact> 0.10215608E+04</totfact>
</mgrwt>
</event>
<event>
 5    1  0.3340698E-002  0.1249997E+03  0.7818608E-02  0.1235070E+00
         -4   -1    0    0    0  501 -0.00000000000E+00  0.00000000000E+00  0.17409552373E+03  0.17410015589E+03  0.12700000000E+01 0. -1.
          4   -1    0    0  501    0  0.00000000000E+00 -0.00000000000E+00 -0.22414370866E+02  0.22450321185E+02  0.12700000000E+01 0. -1.
         25    2    1    2    0    0  0.00000000000E+00  0.00000000000E+00  0.15168115286E+03  0.19655047708E+03  0.12499967162E+03 0.  0.
    9000005    1    3    3    0    0 -0.86773878226E+01 -0.60820925552E+02  0.57860902387E+02  0.84400035957E+02  0.10000000000E+01 0.  0.
    9000005    1    3    3    0    0  0.86773878226E+01  0.60820925552E+02  0.93820250474E+02  0.11215044112E+03  0.10000000000E+01 0.  0.
<mgrwt>
<rscale>  0 0.12499967E+03</rscale>
<asrwt>0</asrwt>
<pdfrwt beam="2">  1        4 0.34514864E-02 0.12499967E+03</pdfrwt>
<pdfrwt beam="1">  1       -4 0.26787049E-01 0.12499967E+03</pdfrwt>
<totfact> 0.90720546E+03</totfact>
</mgrwt>
</event>
<event>
 5    1  0.3340698E-002  0.1249976E+03  0.7818608E-02  0.1235073E+00
         -4   -1    0    0    0  501 -0.00000000000E+00  0.00000000000E+00  0.36469695499E+03  0.36469916627E+03  0.12700000000E+01 0. -1.
          4   -1    0    0  501    0  0.00000000000E+00 -0.00000000000E+00 -0.10670634210E+02  0.10745945023E+02  0.12700000000E+01 0. -1.
         25    2    1    2    0    0  0.00000000000E+00  0.00000000000E+00  0.35402632078E+03  0.37544511129E+03  0.12499758313E+03 0.  0.
    9000005    1    3    3    0    0  0.20193140157E+02 -0.59136463114E+02  0.17562119030E+03  0.18640999614E+03  0.10000000000E+01 0.  0.
    9000005    1    3    3    0    0 -0.20193140157E+02  0.59136463114E+02  0.17840513047E+03  0.18903511515E+03  0.10000000000E+01 0.  0.
<mgrwt>
<rscale>  0 0.12499758E+03</rscale>
<asrwt>0</asrwt>
<pdfrwt beam="2">  1        4 0.16475993E-02 0.12499758E+03</pdfrwt>
<pdfrwt beam="1">  1       -4 0.56113185E-01 0.12499758E+03</pdfrwt>
<totfact> 0.67016677E+03</totfact>
</mgrwt>
</event>
<event>
 5    1  0.3340698E-002  0.1249989E+03  0.7818608E-02  0.1235071E+00
         -4   -1    0    0    0  501 -0.00000000000E+00  0.00000000000E+00  0.18688432751E+03  0.18688864270E+03  0.12700000000E+01 0. -1.
          4   -1    0    0  501    0  0.00000000000E+00 -0.00000000000E+00 -0.20877730456E+02  0.20916322071E+02  0.12700000000E+01 0. -1.
         25    2    1    2    0    0  0.00000000000E+00  0.00000000000E+00  0.16600659705E+03  0.20780496477E+03  0.12499885246E+03 0.  0.
    9000005    1    3    3    0    0 -0.12609392557E+02 -0.60611954922E+02  0.68860464725E+02  0.92604370643E+02  0.10000000000E+01 0.  0.
    9000005    1    3    3    0    0  0.12609392557E+02  0.60611954922E+02  0.97146132330E+02  0.11520059413E+03  0.10000000000E+01 0.  0.
<mgrwt>
<rscale>  0 0.12499885E+03</rscale>
<asrwt>0</asrwt>
<pdfrwt beam="2">  1        4 0.32152591E-02 0.12499885E+03</pdfrwt>
<pdfrwt beam="1">  1       -4 0.28754735E-01 0.12499885E+03</pdfrwt>
<totfact> 0.88837897E+03</totfact>
</mgrwt>
</event>
<event>
 5    1  0.3340698E-002  0.1250007E+03  0.7818608E-02  0.1235068E+00
         -4   -1    0    0    0  501 -0.00000000000E+00  0.00000000000E+00  0.22713609901E+02  0.22749087338E+02  0.12700000000E+01 0.  1.
          4   -1    0    0  501    0  0.00000000000E+00 -0.00000000000E+00 -0.17180815295E+03  0.17181284679E+03  0.12700000000E+01 0.  1.
         25    2    1    2    0    0  0.00000000000E+00  0.00000000000E+00 -0.14909454305E+03  0.19456193412E+03  0.12500065377E+03 0.  0.
    9000005    1    3    3    0    0 -0.55124830536E+02 -0.54170610135E+01 -0.11958329498E+03  0.13179247296E+03  0.10000000000E+01 0.  0.
    9000005    1    3    3    0    0  0.55124830536E+02  0.54170610135E+01 -0.29511248071E+02  0.62769461160E+02  0.10000000000E+01 0.  0.
<mgrwt>
<rscale>  0 0.12500065E+03</rscale>
<asrwt>0</asrwt>
<pdfrwt beam="2">  1        4 0.26435113E-01 0.12500065E+03</pdfrwt>
<pdfrwt beam="1">  1       -4 0.34974917E-02 0.12500065E+03</pdfrwt>
<totfact> 0.91058224E+03</totfact>
</mgrwt>
</event>
<event>
 5    1  0.3340698E-002  0.1250051E+03  0.7818608E-02  0.1235061E+00
         -4   -1    0    0    0  501 -0.00000000000E+00  0.00000000000E+00  0.16167095972E+03  0.16167594786E+03  0.12700000000E+01 0.  1.
          4   -1    0    0  501    0  0.00000000000E+00 -0.00000000000E+00 -0.24141634896E+02  0.24175016762E+02  0.12700000000E+01 0.  1.
         25    2    1    2    0    0  0.00000000000E+00  0.00000000000E+00  0.13752932483E+03  0.18585096463E+03  0.12500506336E+03 0.  0.
    9000005    1    3    3    0    0 -0.45004552453E+02 -0.23693842689E+02  0.14773850542E+02  0.52972394534E+02  0.10000000000E+01 0.  0.
    9000005    1    3    3    0    0  0.45004552453E+02  0.23693842689E+02  0.12275547428E+03  0.13287857009E+03  0.10000000000E+01 0.  0.
<mgrwt>
<rscale>  0 0.12500506E+03</rscale>
<asrwt>0</asrwt>
<pdfrwt beam="2">  1        4 0.37170491E-02 0.12500506E+03</pdfrwt>
<pdfrwt beam="1">  1       -4 0.24875408E-01 0.12500506E+03</pdfrwt>
<totfact> 0.92563783E+03</totfact>
</mgrwt>
</event>
<event>
 5    1  0.3340698E-002  0.1250003E+03  0.7818608E-02  0.1235069E+00
         -4   -1    0    0    0  501 -0.00000000000E+00  0.00000000000E+00  0.12143200137E+03  0.12143864235E+03  0.12700000000E+01 0. -1.
          4   -1    0    0  501    0  0.00000000000E+00 -0.00000000000E+00 -0.32148330271E+02  0.32173405776E+02  0.12700000000E+01 0. -1.
         25    2    1    2    0    0  0.00000000000E+00  0.00000000000E+00  0.89283671097E+02  0.15361204813E+03  0.12500034962E+03 0.  0.
    9000005    1    3    3    0    0  0.20863853047E+02  0.57048296904E+02  0.26603323394E+02  0.66321530133E+02  0.10000000000E+01 0.  0.
    9000005    1    3    3    0    0 -0.20863853047E+02 -0.57048296904E+02  0.62680347704E+02  0.87290517995E+02  0.10000000000E+01 0.  0.
<mgrwt>
<rscale>  0 0.12500035E+03</rscale>
<asrwt>0</asrwt>
<pdfrwt beam="2">  1        4 0.49483367E-02 0.12500035E+03</pdfrwt>
<pdfrwt beam="1">  1       -4 0.18684286E-01 0.12500035E+03</pdfrwt>
<totfact> 0.98587726E+03</totfact>
</mgrwt>
</event>
<event>
 5    1  0.3340698E-002  0.1250009E+03  0.7818608E-02  0.1235068E+00
          4   -1    0    0  501    0  0.00000000000E+00  0.00000000000E+00  0.25875866703E+02  0.25907014063E+02  0.12700000000E+01 0. -1.
         -4   -1    0    0    0  501 -0.00000000000E+00 -0.00000000000E+00 -0.15083862340E+03  0.15084396974E+03  0.12700000000E+01 0. -1.
         25    2    1    2    0    0  0.00000000000E+00  0.00000000000E+00 -0.12496275669E+03  0.17675098381E+03  0.12500087886E+03 0.  0.
    9000005    1    3    3    0    0 -0.11258901737E+02 -0.31088192201E+02  0.12501404833E+02  0.35362744315E+02  0.10000000000E+01 0.  0.
    9000005    1    3    3    0    0  0.11258901737E+02  0.31088192201E+02 -0.13746416153E+03  0.14138823949E+03  0.10000000000E+01 0.  0.
<mgrwt>
<rscale>  0 0.12500088E+03</rscale>
<asrwt>0</asrwt>
<pdfrwt beam="1">  1        4 0.39837099E-02 0.12500088E+03</pdfrwt>
<pdfrwt beam="2">  1       -4 0.23208749E-01 0.12500088E+03</pdfrwt>
<totfact> 0.94203270E+03</totfact>
</mgrwt>
</event>
<event>
 5    1  0.3340698E-002  0.1249999E+03  0.7818608E-02  0.1235069E+00
          4   -1    0    0  501    0  0.00000000000E+00  0.00000000000E+00  0.49185516544E+03  0.49185680505E+03  0.12700000000E+01 0.  1.
         -4   -1    0    0    0  501 -0.00000000000E+00 -0.00000000000E+00 -0.78894209339E+01  0.79909863392E+01  0.12700000000E+01 0.  1.
         25    2    1    2    0    0  0.00000000000E+00  0.00000000000E+00  0.48396574451E+03  0.49984779139E+03  0.12499989079E+03 0.  0.
    9000005    1    3    3    0    0  0.48966888125E+02 -0.35735895383E+02  0.18128124775E+03  0.19115099041E+03  0.10000000000E+01 0.  0.
    9000005    1    3    3    0    0 -0.48966888125E+02  0.35735895383E+02  0.30268449676E+03  0.30869680097E+03  0.10000000000E+01 0.  0.
<mgrwt>
<rscale>  0 0.12499989E+03</rscale>
<asrwt>0</asrwt>
<pdfrwt beam="1">  1        4 0.75677960E-01 0.12499989E+03</pdfrwt>
<pdfrwt beam="2">  1       -4 0.12216960E-02 0.12499989E+03</pdfrwt>
<totfact> 0.55876313E+03</totfact>
</mgrwt>
</event>
<event>
 5    1  0.3340698E-002  0.1250055E+03  0.7818608E-02  0.1235061E+00
         -4   -1    0    0    0  501 -0.00000000000E+00  0.00000000000E+00  0.10552930494E+04  0.10552938136E+04  0.12700000000E+01 0.  1.
          4   -1    0    0  501    0  0.00000000000E+00 -0.00000000000E+00 -0.35921933630E+01  0.38100857152E+01  0.12700000000E+01 0.  1.
         25    2    1    2    0    0  0.00000000000E+00  0.00000000000E+00  0.10517008561E+04  0.10591038993E+04  0.12500551566E+03 0.  0.
    9000005    1    3    3    0    0  0.26506319864E+02 -0.42961099065E+01  0.10039668317E+04  0.10043263617E+04  0.10000000000E+01 0.  0.
    9000005    1    3    3    0    0 -0.26506319864E+02  0.42961099065E+01  0.47734024367E+02  0.54777537690E+02  0.10000000000E+01 0.  0.
<mgrwt>
<rscale>  0 0.12500552E+03</rscale>
<asrwt>0</asrwt>
<pdfrwt beam="2">  1        4 0.56946469E-03 0.12500552E+03</pdfrwt>
<pdfrwt beam="1">  1       -4 0.16236965E+00 0.12500552E+03</pdfrwt>
<totfact> 0.28708739E+03</totfact>
</mgrwt>
</event>
<event>
 5    1  0.3340698E-002  0.1250009E+03  0.7818608E-02  0.1235068E+00
          4   -1    0    0  501    0  0.00000000000E+00  0.00000000000E+00  0.30466644971E+01  0.33007672681E+01  0.12700000000E+01 0. -1.
         -4   -1    0    0    0  501 -0.00000000000E+00 -0.00000000000E+00 -0.12305755432E+04  0.12305761986E+04  0.12700000000E+01 0. -1.
         25    2    1    2    0    0  0.00000000000E+00  0.00000000000E+00 -0.12275288787E+04  0.12338769659E+04  0.12500087484E+03 0.  0.
    9000005    1    3    3    0    0  0.15933645577E+02 -0.48962006402E+02 -0.96333332843E+03  0.96470889951E+03  0.10000000000E+01 0.  0.
    9000005    1    3    3    0    0 -0.15933645577E+02  0.48962006402E+02 -0.26419555032E+03  0.26916806634E+03  0.10000000000E+01 0.  0.
<mgrwt>
<rscale>  0 0.12500087E+03</rscale>
<asrwt>0</asrwt>
<pdfrwt beam="1">  1        4 0.48831537E-03 0.12500087E+03</pdfrwt>
<pdfrwt beam="2">  1       -4 0.18933853E+00 0.12500087E+03</pdfrwt>
<totfact> 0.23842455E+03</totfact>
</mgrwt>
</event>
<event>
 4    1  0.3340698E-002  0.1250729E+03  0.7818608E-02  0.1234955E+00
          4   -1    0    0  501    0  0.00000000000E+00  0.00000000000E+00  0.18799207667E+02  0.18842056918E+02  0.12700000000E+01 0.  1.
         -4   -1    0    0    0  501 -0.00000000000E+00 -0.00000000000E+00 -0.20774870621E+03  0.20775258803E+03  0.12700000000E+01 0.  1.
    9000005    1    1    2    0    0  0.21158372143E+01  0.61287653902E+02 -0.72348860319E+02  0.94847302953E+02  0.10000000000E+01 0.  0.
    9000005    1    1    2    0    0 -0.21158372143E+01 -0.61287653902E+02 -0.11660063823E+03  0.13174734200E+03  0.10000000000E+01 0.  0.
<mgrwt>
<rscale>  0 0.12507286E+03</rscale>
<asrwt>0</asrwt>
<pdfrwt beam="1">  1        4 0.28957806E-02 0.12507286E+03</pdfrwt>
<pdfrwt beam="2">  1       -4 0.31964933E-01 0.12507286E+03</pdfrwt>
<totfact> 0.85695825E+03</totfact>
</mgrwt>
</event>
<event>
 5    1  0.3340698E-002  0.1250043E+03  0.7818608E-02  0.1235062E+00
         -4   -1    0    0    0  501 -0.00000000000E+00  0.00000000000E+00  0.74851426579E+02  0.74862199814E+02  0.12700000000E+01 0. -1.
          4   -1    0    0  501    0  0.00000000000E+00 -0.00000000000E+00 -0.52168085713E+02  0.52183542109E+02  0.12700000000E+01 0. -1.
         25    2    1    2    0    0  0.00000000000E+00  0.00000000000E+00  0.22683340866E+02  0.12704574192E+03  0.12500434628E+03 0.  0.
    9000005    1    3    3    0    0 -0.61038848136E+02  0.13227909669E+02  0.91142894815E+01  0.63125183950E+02  0.10000000000E+01 0.  0.
    9000005    1    3    3    0    0  0.61038848136E+02 -0.13227909669E+02  0.13569051385E+02  0.63920557972E+02  0.10000000000E+01 0.  0.
<mgrwt>
<rscale>  0 0.12500435E+03</rscale>
<asrwt>0</asrwt>
<pdfrwt beam="2">  1        4 0.80278770E-02 0.12500435E+03</pdfrwt>
<pdfrwt beam="1">  1       -4 0.11517622E-01 0.12500435E+03</pdfrwt>
<totfact> 0.10407131E+04</totfact>
</mgrwt>
</event>
<event>
 5    1  0.3340698E-002  0.1250006E+03  0.7818608E-02  0.1235068E+00
         -4   -1    0    0    0  501 -0.00000000000E+00  0.00000000000E+00  0.87556641164E+02  0.87565851288E+02  0.12700000000E+01 0.  1.
          4   -1    0    0  501    0  0.00000000000E+00 -0.00000000000E+00 -0.44593796304E+02  0.44611876993E+02  0.12700000000E+01 0.  1.
         25    2    1    2    0    0  0.00000000000E+00  0.00000000000E+00  0.42962844859E+02  0.13217772828E+03  0.12500058326E+03 0.  0.
    9000005    1    3    3    0    0  0.39072289751E+01 -0.42702028160E+02 -0.26588112230E+02  0.50464416763E+02  0.10000000000E+01 0.  0.
    9000005    1    3    3    0    0 -0.39072289751E+01  0.42702028160E+02  0.69550957090E+02  0.81713311519E+02  0.10000000000E+01 0.  0.
<mgrwt>
<rscale>  0 0.12500058E+03</rscale>
<asrwt>0</asrwt>
<pdfrwt beam="2">  1        4 0.68626834E-02 0.12500058E+03</pdfrwt>
<pdfrwt beam="1">  1       -4 0.13472352E-01 0.12500058E+03</pdfrwt>
<totfact> 0.10297771E+04</totfact>
</mgrwt>
</event>
<event>
 5    1  0.3340698E-002  0.1249990E+03  0.7818608E-02  0.1235071E+00
         -4   -1    0    0    0  501 -0.00000000000E+00  0.00000000000E+00  0.44110838472E+03  0.44111021295E+03  0.12700000000E+01 0. -1.
          4   -1    0    0  501    0  0.00000000000E+00 -0.00000000000E+00 -0.88080056188E+01  0.88990933797E+01  0.12700000000E+01 0. -1.
         25    2    1    2    0    0  0.00000000000E+00  0.00000000000E+00  0.43230037910E+03  0.45000930633E+03  0.12499903205E+03 0.  0.
    9000005    1    3    3    0    0 -0.39987568679E+01 -0.60938518552E+02  0.26386973314E+03  0.27084632020E+03  0.10000000000E+01 0.  0.
    9000005    1    3    3    0    0  0.39987568679E+01  0.60938518552E+02  0.16843064596E+03  0.17916298613E+03  0.10000000000E+01 0.  0.
<mgrwt>
<rscale>  0 0.12499903E+03</rscale>
<asrwt>0</asrwt>
<pdfrwt beam="2">  1        4 0.13622253E-02 0.12499903E+03</pdfrwt>
<pdfrwt beam="1">  1       -4 0.67869970E-01 0.12499903E+03</pdfrwt>
<totfact> 0.59964268E+03</totfact>
</mgrwt>
</event>
<event>
 5    1  0.3340698E-002  0.1250023E+03  0.7818608E-02  0.1235066E+00
         -4   -1    0    0    0  501 -0.00000000000E+00  0.00000000000E+00  0.30315602256E+02  0.30342192408E+02  0.12700000000E+01 0. -1.
          4   -1    0    0  501    0  0.00000000000E+00 -0.00000000000E+00 -0.12877130358E+03  0.12877756608E+03  0.12700000000E+01 0. -1.
         25    2    1    2    0    0  0.00000000000E+00  0.00000000000E+00 -0.98455701325E+02  0.15911975849E+03  0.12500228965E+03 0.  0.
    9000005    1    3    3    0    0  0.59599129244E+02  0.99597516287E+01 -0.69520692261E+02  0.92116119717E+02  0.10000000000E+01 0.  0.
    9000005    1    3    3    0    0 -0.59599129244E+02 -0.99597516287E+01 -0.28935009064E+02  0.67003638772E+02  0.10000000000E+01 0.  0.
<mgrwt>
<rscale>  0 0.12500229E+03</rscale>
<asrwt>0</asrwt>
<pdfrwt beam="2">  1        4 0.19813497E-01 0.12500229E+03</pdfrwt>
<pdfrwt beam="1">  1       -4 0.46664660E-02 0.12500229E+03</pdfrwt>
<totfact> 0.97507739E+03</totfact>
</mgrwt>
</event>
<event>
 5    1  0.3340698E-002  0.1250033E+03  0.7818608E-02  0.1235064E+00
          4   -1    0    0  501    0  0.00000000000E+00  0.00000000000E+00  0.24376850683E+02  0.24409910881E+02  0.12700000000E+01 0. -1.
         -4   -1    0    0    0  501 -0.00000000000E+00 -0.00000000000E+00 -0.16010861700E+03  0.16011365382E+03  0.12700000000E+01 0. -1.
         25    2    1    2    0    0  0.00000000000E+00  0.00000000000E+00 -0.13573176632E+03  0.18452356470E+03  0.12500333412E+03 0.  0.
    9000005    1    3    3    0    0 -0.41357351108E+02 -0.13573760454E+02 -0.13405896736E+03  0.14095206346E+03  0.10000000000E+01 0.  0.
    9000005    1    3    3    0    0  0.41357351108E+02  0.13573760454E+02 -0.16727989544E+01  0.43571501235E+02  0.10000000000E+01 0.  0.
<mgrwt>
<rscale>  0 0.12500333E+03</rscale>
<asrwt>0</asrwt>
<pdfrwt beam="1">  1        4 0.37532154E-02 0.12500333E+03</pdfrwt>
<pdfrwt beam="2">  1       -4 0.24635025E-01 0.12500333E+03</pdfrwt>
<totfact> 0.92802092E+03</totfact>
</mgrwt>
</event>
<event>
 5    1  0.3340698E-002  0.1250017E+03  0.7818608E-02  0.1235067E+00
          4   -1    0    0  501    0  0.00000000000E+00  0.00000000000E+00  0.18207027510E+02  0.18251267100E+02  0.12700000000E+01 0.  1.
         -4   -1    0    0    0  501 -0.00000000000E+00 -0.00000000000E+00 -0.21424576263E+03  0.21424952673E+03  0.12700000000E+01 0.  1.
         25    2    1    2    0    0  0.00000000000E+00  0.00000000000E+00 -0.19603873512E+03  0.23250079383E+03  0.12500173385E+03 0.  0.
    9000005    1    3    3    0    0  0.47813961631E+02  0.25955941751E+02 -0.40827686774E+02  0.68027831411E+02  0.10000000000E+01 0.  0.
    9000005    1    3    3    0    0 -0.47813961631E+02 -0.25955941751E+02 -0.15521104835E+03  0.16447296242E+03  0.10000000000E+01 0.  0.
<mgrwt>
<rscale>  0 0.12500173E+03</rscale>
<asrwt>0</asrwt>
<pdfrwt beam="1">  1        4 0.28047739E-02 0.12500173E+03</pdfrwt>
<pdfrwt beam="2">  1       -4 0.32964577E-01 0.12500173E+03</pdfrwt>
<totfact> 0.84923787E+03</totfact>
</mgrwt>
</event>
<event>
 5    1  0.3340698E-002  0.1249976E+03  0.7818608E-02  0.1235073E+00
          4   -1    0    0  501    0  0.00000000000E+00  0.00000000000E+00  0.10212522150E+03  0.10213311787E+03  0.12700000000E+01 0. -1.
         -4   -1    0    0    0  501 -0.00000000000E+00 -0.00000000000E+00 -0.38228236438E+02  0.38249326284E+02  0.12700000000E+01 0. -1.
         25    2    1    2    0    0  0.00000000000E+00  0.00000000000E+00  0.63896985064E+02  0.14038244416E+03  0.12499762369E+03 0.  0.
    9000005    1    3    3    0    0  0.22398031870E+02  0.50590526949E+02  0.64576423131E+02  0.85042269920E+02  0.10000000000E+01 0.  0.
    9000005    1    3    3    0    0 -0.22398031870E+02 -0.50590526949E+02 -0.67943806793E+00  0.55340174238E+02  0.10000000000E+01 0.  0.
<mgrwt>
<rscale>  0 0.12499762E+03</rscale>
<asrwt>0</asrwt>
<pdfrwt beam="1">  1        4 0.15713802E-01 0.12499762E+03</pdfrwt>
<pdfrwt beam="2">  1       -4 0.58834969E-02 0.12499762E+03</pdfrwt>
<totfact> 0.10126208E+04</totfact>
</mgrwt>
</event>
<event>
 5    1  0.3340698E-002  0.1250011E+03  0.7818608E-02  0.1235068E+00
         -4   -1    0    0    0  501 -0.00000000000E+00  0.00000000000E+00  0.29909753881E+02  0.29936704515E+02  0.12700000000E+01 0.  1.
          4   -1    0    0  501    0  0.00000000000E+00 -0.00000000000E+00 -0.13051457659E+03  0.13052075544E+03  0.12700000000E+01 0.  1.
         25    2    1    2    0    0  0.00000000000E+00  0.00000000000E+00 -0.10060482271E+03  0.16045745996E+03  0.12500106441E+03 0.  0.
    9000005    1    3    3    0    0  0.16740978714E+02 -0.42211277719E+01 -0.12739872537E+03  0.12856715566E+03  0.10000000000E+01 0.  0.
    9000005    1    3    3    0    0 -0.16740978714E+02  0.42211277719E+01  0.26793902668E+02  0.31890304297E+02  0.10000000000E+01 0.  0.
<mgrwt>
<rscale>  0 0.12500106E+03</rscale>
<asrwt>0</asrwt>
<pdfrwt beam="2">  1        4 0.20081714E-01 0.12500106E+03</pdfrwt>
<pdfrwt beam="1">  1       -4 0.46040491E-02 0.12500106E+03</pdfrwt>
<totfact> 0.97252336E+03</totfact>
</mgrwt>
</event>
<event>
 5    1  0.3340698E-002  0.1249977E+03  0.7818608E-02  0.1235073E+00
          4   -1    0    0  501    0  0.00000000000E+00  0.00000000000E+00  0.22113715885E+03  0.22114080565E+03  0.12700000000E+01 0. -1.
         -4   -1    0    0    0  501 -0.00000000000E+00 -0.00000000000E+00 -0.17637098071E+02  0.17682763595E+02  0.12700000000E+01 0. -1.
         25    2    1    2    0    0  0.00000000000E+00  0.00000000000E+00  0.20350006078E+03  0.23882356925E+03  0.12499768994E+03 0.  0.
    9000005    1    3    3    0    0 -0.14234960943E+02  0.47632482997E+02  0.29407793847E+02  0.57769420011E+02  0.10000000000E+01 0.  0.
    9000005    1    3    3    0    0  0.14234960943E+02 -0.47632482997E+02  0.17409226693E+03  0.18105414924E+03  0.10000000000E+01 0.  0.
<mgrwt>
<rscale>  0 0.12499769E+03</rscale>
<asrwt>0</asrwt>
<pdfrwt beam="1">  1        4 0.34024893E-01 0.12499769E+03</pdfrwt>
<pdfrwt beam="2">  1       -4 0.27171931E-02 0.12499769E+03</pdfrwt>
<totfact> 0.83977214E+03</totfact>
</mgrwt>
</event>
<event>
 5    1  0.3340698E-002  0.1249938E+03  0.7818608E-02  0.1235079E+00
          4   -1    0    0  501    0  0.00000000000E+00  0.00000000000E+00  0.15673153076E+02  0.15724523120E+02  0.12700000000E+01 0. -1.
         -4   -1    0    0    0  501 -0.00000000000E+00 -0.00000000000E+00 -0.24874663090E+03  0.24874987293E+03  0.12700000000E+01 0. -1.
         25    2    1    2    0    0  0.00000000000E+00  0.00000000000E+00 -0.23307347782E+03  0.26447439605E+03  0.12499384026E+03 0.  0.
    9000005    1    3    3    0    0  0.13918450076E+02  0.30381017220E+02 -0.22826215118E+03  0.23069750567E+03  0.10000000000E+01 0.  0.
    9000005    1    3    3    0    0 -0.13918450076E+02 -0.30381017220E+02 -0.48113266403E+01  0.33776890382E+02  0.10000000000E+01 0.  0.
<mgrwt>
<rscale>  0 0.12499384E+03</rscale>
<asrwt>0</asrwt>
<pdfrwt beam="1">  1        4 0.24154554E-02 0.12499384E+03</pdfrwt>
<pdfrwt beam="2">  1       -4 0.38272911E-01 0.12499384E+03</pdfrwt>
<totfact> 0.80293221E+03</totfact>
</mgrwt>
</event>
<event>
 5    1  0.3340698E-002  0.1250119E+03  0.7818608E-02  0.1235051E+00
         -4   -1    0    0    0  501 -0.00000000000E+00  0.00000000000E+00  0.89743965345E+01  0.90638122862E+01  0.12700000000E+01 0.  1.
          4   -1    0    0  501    0  0.00000000000E+00 -0.00000000000E+00 -0.43310054539E+03  0.43310240742E+03  0.12700000000E+01 0.  1.
         25    2    1    2    0    0  0.00000000000E+00  0.00000000000E+00 -0.42412614886E+03  0.44216621971E+03  0.12501190228E+03 0.  0.
    9000005    1    3    3    0    0  0.46526075671E+02  0.21638714161E+02 -0.85862081719E+02  0.10003102891E+03  0.10000000000E+01 0.  0.
    9000005    1    3    3    0    0 -0.46526075671E+02 -0.21638714161E+02 -0.33826406714E+03  0.34213519080E+03  0.10000000000E+01 0.  0.
<mgrwt>
<rscale>  0 0.12501190E+03</rscale>
<asrwt>0</asrwt>
<pdfrwt beam="2">  1        4 0.66637858E-01 0.12501190E+03</pdfrwt>
<pdfrwt beam="1">  1       -4 0.13876981E-02 0.12501190E+03</pdfrwt>
<totfact> 0.60632571E+03</totfact>
</mgrwt>
</event>
<event>
 5    1  0.3340698E-002  0.1250093E+03  0.7818608E-02  0.1235055E+00
         -4   -1    0    0    0  501 -0.00000000000E+00  0.00000000000E+00  0.14114340241E+02  0.14171361982E+02  0.12700000000E+01 0. -1.
          4   -1    0    0  501    0  0.00000000000E+00 -0.00000000000E+00 -0.27618205392E+03  0.27618497390E+03  0.12700000000E+01 0. -1.
         25    2    1    2    0    0  0.00000000000E+00  0.00000000000E+00 -0.26206771368E+03  0.29035633588E+03  0.12500926059E+03 0.  0.
    9000005    1    3    3    0    0 -0.10567801867E+01  0.62469835177E+02 -0.13450369054E+03  0.14830994525E+03  0.10000000000E+01 0.  0.
    9000005    1    3    3    0    0  0.10567801867E+01 -0.62469835177E+02 -0.12756402314E+03  0.14204639063E+03  0.10000000000E+01 0.  0.
<mgrwt>
<rscale>  0 0.12500926E+03</rscale>
<asrwt>0</asrwt>
<pdfrwt beam="2">  1        4 0.42494153E-01 0.12500926E+03</pdfrwt>
<pdfrwt beam="1">  1       -4 0.21760481E-02 0.12500926E+03</pdfrwt>
<totfact> 0.76808868E+03</totfact>
</mgrwt>
</event>
<event>
 5    1  0.3340698E-002  0.1250014E+03  0.7818608E-02  0.1235067E+00
          4   -1    0    0  501    0  0.00000000000E+00  0.00000000000E+00  0.55829649200E+01  0.57255914365E+01  0.12700000000E+01 0. -1.
         -4   -1    0    0    0  501 -0.00000000000E+00 -0.00000000000E+00 -0.69072096566E+03  0.69072213321E+03  0.12700000000E+01 0. -1.
         25    2    1    2    0    0  0.00000000000E+00  0.00000000000E+00 -0.68513800074E+03  0.69644772464E+03  0.12500141241E+03 0.  0.
    9000005    1    3    3    0    0 -0.31027726659E+02 -0.14007924425E+01 -0.64470030965E+03  0.64544881385E+03  0.10000000000E+01 0.  0.
    9000005    1    3    3    0    0  0.31027726659E+02  0.14007924425E+01 -0.40437691087E+02  0.50998910788E+02  0.10000000000E+01 0.  0.
<mgrwt>
<rscale>  0 0.12500141E+03</rscale>
<asrwt>0</asrwt>
<pdfrwt beam="1">  1        4 0.86997931E-03 0.12500141E+03</pdfrwt>
<pdfrwt beam="2">  1       -4 0.10627576E+00 0.12500141E+03</pdfrwt>
<totfact> 0.43273557E+03</totfact>
</mgrwt>
</event>
<event>
 5    1  0.3340698E-002  0.1249881E+03  0.7818608E-02  0.1235088E+00
         -4   -1    0    0    0  501 -0.00000000000E+00  0.00000000000E+00  0.77063996459E+03  0.77064101105E+03  0.12700000000E+01 0. -1.
          4   -1    0    0  501    0  0.00000000000E+00 -0.00000000000E+00 -0.49872439693E+01  0.51464067474E+01  0.12700000000E+01 0. -1.
         25    2    1    2    0    0  0.00000000000E+00  0.00000000000E+00  0.76565272062E+03  0.77578741780E+03  0.12498811555E+03 0.  0.
    9000005    1    3    3    0    0 -0.16161555675E+02  0.42035005093E+02  0.11396201107E+03  0.12254173780E+03  0.10000000000E+01 0.  0.
    9000005    1    3    3    0    0  0.16161555675E+02 -0.42035005093E+02  0.65169070955E+03  0.65324568000E+03  0.10000000000E+01 0.  0.
<mgrwt>
<rscale>  0 0.12498812E+03</rscale>
<asrwt>0</asrwt>
<pdfrwt beam="2">  1        4 0.77959269E-03 0.12498812E+03</pdfrwt>
<pdfrwt beam="1">  1       -4 0.11857223E+00 0.12498812E+03</pdfrwt>
<totfact> 0.39378996E+03</totfact>
</mgrwt>
</event>
<event>
 5    1  0.3340698E-002  0.1249989E+03  0.7818608E-02  0.1235071E+00
         -4   -1    0    0    0  501 -0.00000000000E+00  0.00000000000E+00  0.75159266462E+02  0.75169995577E+02  0.12700000000E+01 0. -1.
          4   -1    0    0  501    0  0.00000000000E+00 -0.00000000000E+00 -0.51949815631E+02  0.51965336948E+02  0.12700000000E+01 0. -1.
         25    2    1    2    0    0  0.00000000000E+00  0.00000000000E+00  0.23209450831E+02  0.12713533252E+03  0.12499885667E+03 0.  0.
    9000005    1    3    3    0    0 -0.29686832851E+02  0.54951892311E+02  0.13679201310E+02  0.63946376455E+02  0.10000000000E+01 0.  0.
    9000005    1    3    3    0    0  0.29686832851E+02 -0.54951892311E+02  0.95302495205E+01  0.63188956070E+02  0.10000000000E+01 0.  0.
<mgrwt>
<rscale>  0 0.12499886E+03</rscale>
<asrwt>0</asrwt>
<pdfrwt beam="2">  1        4 0.79942986E-02 0.12499886E+03</pdfrwt>
<pdfrwt beam="1">  1       -4 0.11564983E-01 0.12499886E+03</pdfrwt>
<totfact> 0.10406475E+04</totfact>
</mgrwt>
</event>
<event>
 5    1  0.3340698E-002  0.1250000E+03  0.7818608E-02  0.1235069E+00
          4   -1    0    0  501    0  0.00000000000E+00  0.00000000000E+00  0.27153654781E+02  0.27183338058E+02  0.12700000000E+01 0. -1.
         -4   -1    0    0    0  501 -0.00000000000E+00 -0.00000000000E+00 -0.14374612135E+03  0.14375173148E+03  0.12700000000E+01 0. -1.
         25    2    1    2    0    0  0.00000000000E+00  0.00000000000E+00 -0.11659246657E+03  0.17093506954E+03  0.12499997895E+03 0.  0.
    9000005    1    3    3    0    0 -0.94698488559E+01  0.61754512047E+02 -0.56386215138E+02  0.84164737587E+02  0.10000000000E+01 0.  0.
    9000005    1    3    3    0    0  0.94698488559E+01 -0.61754512047E+02 -0.60206251433E+02  0.86770331952E+02  0.10000000000E+01 0.  0.
<mgrwt>
<rscale>  0 0.12499998E+03</rscale>
<asrwt>0</asrwt>
<pdfrwt beam="1">  1        4 0.41802003E-02 0.12499998E+03</pdfrwt>
<pdfrwt beam="2">  1       -4 0.22117502E-01 0.12499998E+03</pdfrwt>
<totfact> 0.95274684E+03</totfact>
</mgrwt>
</event>
<event>
 5    1  0.3340698E-002  0.1250002E+03  0.7818608E-02  0.1235069E+00
          4   -1    0    0  501    0  0.00000000000E+00  0.00000000000E+00  0.42855698676E+02  0.42874512348E+02  0.12700000000E+01 0.  1.
         -4   -1    0    0    0  501 -0.00000000000E+00 -0.00000000000E+00 -0.91106017739E+02  0.91114869084E+02  0.12700000000E+01 0.  1.
         25    2    1    2    0    0  0.00000000000E+00  0.00000000000E+00 -0.48250319062E+02  0.13398938143E+03  0.12500024419E+03 0.  0.
    9000005    1    3    3    0    0 -0.60916756659E+01  0.61892099883E+02 -0.17558896752E+02  0.64630143087E+02  0.10000000000E+01 0.  0.
    9000005    1    3    3    0    0  0.60916756659E+01 -0.61892099883E+02 -0.30691422310E+02  0.69359238344E+02  0.10000000000E+01 0.  0.
<mgrwt>
<rscale>  0 0.12500024E+03</rscale>
<asrwt>0</asrwt>
<pdfrwt beam="1">  1        4 0.65953125E-02 0.12500024E+03</pdfrwt>
<pdfrwt beam="2">  1       -4 0.14018438E-01 0.12500024E+03</pdfrwt>
<totfact> 0.10259360E+04</totfact>
</mgrwt>
</event>
<event>
 5    1  0.3340698E-002  0.1249980E+03  0.7818608E-02  0.1235072E+00
          4   -1    0    0  501    0  0.00000000000E+00  0.00000000000E+00  0.66561706603E+01  0.67762458529E+01  0.12700000000E+01 0. -1.
         -4   -1    0    0    0  501 -0.00000000000E+00 -0.00000000000E+00 -0.58147615426E+03  0.58147754116E+03  0.12700000000E+01 0. -1.
         25    2    1    2    0    0  0.00000000000E+00  0.00000000000E+00 -0.57481998360E+03  0.58825378702E+03  0.12499801754E+03 0.  0.
    9000005    1    3    3    0    0  0.31473066691E+02  0.51732125120E+02 -0.36006703985E+03  0.36512469087E+03  0.10000000000E+01 0.  0.
    9000005    1    3    3    0    0 -0.31473066691E+02 -0.51732125120E+02 -0.21475294375E+03  0.22312909615E+03  0.10000000000E+01 0.  0.
<mgrwt>
<rscale>  0 0.12499802E+03</rscale>
<asrwt>0</asrwt>
<pdfrwt beam="1">  1        4 0.10333700E-02 0.12499802E+03</pdfrwt>
<pdfrwt beam="2">  1       -4 0.89467173E-01 0.12499802E+03</pdfrwt>
<totfact> 0.49619734E+03</totfact>
</mgrwt>
</event>
<event>
 5    1  0.3340698E-002  0.1250033E+03  0.7818608E-02  0.1235064E+00
          4   -1    0    0  501    0  0.00000000000E+00  0.00000000000E+00  0.10623963435E+02  0.10699602753E+02  0.12700000000E+01 0.  1.
         -4   -1    0    0    0  501 -0.00000000000E+00 -0.00000000000E+00 -0.36632109976E+03  0.36632330124E+03  0.12700000000E+01 0.  1.
         25    2    1    2    0    0  0.00000000000E+00  0.00000000000E+00 -0.35569713632E+03  0.37702290399E+03  0.12500326933E+03 0.  0.
    9000005    1    3    3    0    0 -0.52223477885E+02  0.25852586813E+02 -0.10974826821E+03  0.12426314925E+03  0.10000000000E+01 0.  0.
    9000005    1    3    3    0    0  0.52223477885E+02 -0.25852586813E+02 -0.24594886812E+03  0.25275975474E+03  0.10000000000E+01 0.  0.
<mgrwt>
<rscale>  0 0.12500327E+03</rscale>
<asrwt>0</asrwt>
<pdfrwt beam="1">  1        4 0.16404439E-02 0.12500327E+03</pdfrwt>
<pdfrwt beam="2">  1       -4 0.56363070E-01 0.12500327E+03</pdfrwt>
<totfact> 0.66845729E+03</totfact>
</mgrwt>
</event>
<event>
 5    1  0.3340698E-002  0.1250007E+03  0.7818608E-02  0.1235068E+00
         -4   -1    0    0    0  501 -0.00000000000E+00  0.00000000000E+00  0.34375066777E+02  0.34398519094E+02  0.12700000000E+01 0. -1.
          4   -1    0    0  501    0  0.00000000000E+00 -0.00000000000E+00 -0.11357162111E+03  0.11357872169E+03  0.12700000000E+01 0. -1.
         25    2    1    2    0    0  0.00000000000E+00  0.00000000000E+00 -0.79196554330E+02  0.14797724078E+03  0.12500067829E+03 0.  0.
    9000005    1    3    3    0    0  0.55220307951E+02 -0.24483061801E+02 -0.58561062894E+02  0.84137392476E+02  0.10000000000E+01 0.  0.
    9000005    1    3    3    0    0 -0.55220307951E+02  0.24483061801E+02 -0.20635491436E+02  0.63839848309E+02  0.10000000000E+01 0.  0.
<mgrwt>
<rscale>  0 0.12500068E+03</rscale>
<asrwt>0</asrwt>
<pdfrwt beam="2">  1        4 0.17474907E-01 0.12500068E+03</pdfrwt>
<pdfrwt beam="1">  1       -4 0.52908221E-02 0.12500068E+03</pdfrwt>
<totfact> 0.99706921E+03</totfact>
</mgrwt>
</event>
<event>
 5    1  0.3340698E-002  0.1249983E+03  0.7818608E-02  0.1235072E+00
         -4   -1    0    0    0  501 -0.00000000000E+00  0.00000000000E+00  0.15650383747E+03  0.15650899030E+03  0.12700000000E+01 0.  1.
          4   -1    0    0  501    0  0.00000000000E+00 -0.00000000000E+00 -0.24937061644E+02  0.24969380117E+02  0.12700000000E+01 0.  1.
         25    2    1    2    0    0  0.00000000000E+00  0.00000000000E+00  0.13156677583E+03  0.18147837041E+03  0.12499832969E+03 0.  0.
    9000005    1    3    3    0    0 -0.49714720257E+01 -0.15148769709E+02 -0.21941596029E+02  0.27141009453E+02  0.10000000000E+01 0.  0.
    9000005    1    3    3    0    0  0.49714720257E+01  0.15148769709E+02  0.15350837186E+03  0.15433736096E+03  0.10000000000E+01 0.  0.
<mgrwt>
<rscale>  0 0.12499833E+03</rscale>
<asrwt>0</asrwt>
<pdfrwt beam="2">  1        4 0.38393535E-02 0.12499833E+03</pdfrwt>
<pdfrwt beam="1">  1       -4 0.24080396E-01 0.12499833E+03</pdfrwt>
<totfact> 0.93355062E+03</totfact>
</mgrwt>
</event>
<event>
 5    1  0.3340698E-002  0.1250137E+03  0.7818608E-02  0.1235048E+00
          4   -1    0    0  501    0  0.00000000000E+00  0.00000000000E+00  0.32384923345E+02  0.32409815798E+02  0.12700000000E+01 0. -1.
         -4   -1    0    0    0  501 -0.00000000000E+00 -0.00000000000E+00 -0.12057125682E+03  0.12057794521E+03  0.12700000000E+01 0. -1.
         25    2    1    2    0    0  0.00000000000E+00  0.00000000000E+00 -0.88186333477E+02  0.15298776101E+03  0.12501370168E+03 0.  0.
    9000005    1    3    3    0    0 -0.58584428819E+02 -0.18154348294E+02 -0.29388040931E+02  0.68017443438E+02  0.10000000000E+01 0.  0.
    9000005    1    3    3    0    0  0.58584428819E+02  0.18154348294E+02 -0.58798292546E+02  0.84970317573E+02  0.10000000000E+01 0.  0.
<mgrwt>
<rscale>  0 0.12501370E+03</rscale>
<asrwt>0</asrwt>
<pdfrwt beam="1">  1        4 0.49847253E-02 0.12501370E+03</pdfrwt>
<pdfrwt beam="2">  1       -4 0.18551853E-01 0.12501370E+03</pdfrwt>
<totfact> 0.98681010E+03</totfact>
</mgrwt>
</event>
<event>
 5    1  0.3340698E-002  0.1250047E+03  0.7818608E-02  0.1235062E+00
         -4   -1    0    0    0  501 -0.00000000000E+00  0.00000000000E+00  0.38422281435E+02  0.38443264828E+02  0.12700000000E+01 0. -1.
          4   -1    0    0  501    0  0.00000000000E+00 -0.00000000000E+00 -0.10162115896E+03  0.10162909449E+03  0.12700000000E+01 0. -1.
         25    2    1    2    0    0  0.00000000000E+00  0.00000000000E+00 -0.63198877522E+02  0.14007235932E+03  0.12500467082E+03 0.  0.
    9000005    1    3    3    0    0  0.25095678218E+02 -0.17310767520E+02 -0.92728673022E+02  0.97616917273E+02  0.10000000000E+01 0.  0.
    9000005    1    3    3    0    0 -0.25095678218E+02  0.17310767520E+02  0.29529795500E+02  0.42455442050E+02  0.10000000000E+01 0.  0.
<mgrwt>
<rscale>  0 0.12500467E+03</rscale>
<asrwt>0</asrwt>
<pdfrwt beam="2">  1        4 0.15636249E-01 0.12500467E+03</pdfrwt>
<pdfrwt beam="1">  1       -4 0.59133448E-02 0.12500467E+03</pdfrwt>
<totfact> 0.10131020E+04</totfact>
</mgrwt>
</event>
<event>
 5    1  0.3340698E-002  0.1250053E+03  0.7818608E-02  0.1235061E+00
          4   -1    0    0  501    0  0.00000000000E+00  0.00000000000E+00  0.80815346878E+03  0.80815446667E+03  0.12700000000E+01 0.  1.
         -4   -1    0    0    0  501 -0.00000000000E+00 -0.00000000000E+00 -0.47495285743E+01  0.49163931574E+01  0.12700000000E+01 0.  1.
         25    2    1    2    0    0  0.00000000000E+00  0.00000000000E+00  0.80340394020E+03  0.81307085982E+03  0.12500532775E+03 0.  0.
    9000005    1    3    3    0    0  0.43222906281E+02 -0.40605170620E+02  0.27348602396E+03  0.27984389365E+03  0.10000000000E+01 0.  0.
    9000005    1    3    3    0    0 -0.43222906281E+02  0.40605170620E+02  0.52991791624E+03  0.53322696618E+03  0.10000000000E+01 0.  0.
<mgrwt>
<rscale>  0 0.12500533E+03</rscale>
<asrwt>0</asrwt>
<pdfrwt beam="1">  1        4 0.12434418E+00 0.12500533E+03</pdfrwt>
<pdfrwt beam="2">  1       -4 0.74360940E-03 0.12500533E+03</pdfrwt>
<totfact> 0.37683452E+03</totfact>
</mgrwt>
</event>
<event>
 5    1  0.3340698E-002  0.1249957E+03  0.7818608E-02  0.1235076E+00
          4   -1    0    0  501    0  0.00000000000E+00  0.00000000000E+00  0.27032886632E+02  0.27062702372E+02  0.12700000000E+01 0.  1.
         -4   -1    0    0    0  501 -0.00000000000E+00 -0.00000000000E+00 -0.14437778109E+03  0.14438336668E+03  0.12700000000E+01 0.  1.
         25    2    1    2    0    0  0.00000000000E+00  0.00000000000E+00 -0.11734489446E+03  0.17144606905E+03  0.12499572127E+03 0.  0.
    9000005    1    3    3    0    0  0.39089257872E+02 -0.14736154019E+02 -0.12241728375E+03  0.12935267944E+03  0.10000000000E+01 0.  0.
    9000005    1    3    3    0    0 -0.39089257872E+02  0.14736154019E+02  0.50723892888E+01  0.42093389616E+02  0.10000000000E+01 0.  0.
<mgrwt>
<rscale>  0 0.12499572E+03</rscale>
<asrwt>0</asrwt>
<pdfrwt beam="1">  1        4 0.41616289E-02 0.12499572E+03</pdfrwt>
<pdfrwt beam="2">  1       -4 0.22214689E-01 0.12499572E+03</pdfrwt>
<totfact> 0.95188934E+03</totfact>
</mgrwt>
</event>
<event>
 5    1  0.3340698E-002  0.1249998E+03  0.7818608E-02  0.1235070E+00
          4   -1    0    0  501    0  0.00000000000E+00  0.00000000000E+00  0.64942719355E+01  0.66172855441E+01  0.12700000000E+01 0.  1.
         -4   -1    0    0    0  501 -0.00000000000E+00 -0.00000000000E+00 -0.59572253873E+03  0.59572389246E+03  0.12700000000E+01 0.  1.
         25    2    1    2    0    0  0.00000000000E+00  0.00000000000E+00 -0.58922826680E+03  0.60234117801E+03  0.12499977733E+03 0.  0.
    9000005    1    3    3    0    0  0.41689974258E+02  0.43784493709E+02 -0.37082034444E+03  0.37571779795E+03  0.10000000000E+01 0.  0.
    9000005    1    3    3    0    0 -0.41689974258E+02 -0.43784493709E+02 -0.21840792236E+03  0.22662338006E+03  0.10000000000E+01 0.  0.
<mgrwt>
<rscale>  0 0.12499978E+03</rscale>
<asrwt>0</asrwt>
<pdfrwt beam="1">  1        4 0.10086859E-02 0.12499978E+03</pdfrwt>
<pdfrwt beam="2">  1       -4 0.91659146E-01 0.12499978E+03</pdfrwt>
<totfact> 0.48720416E+03</totfact>
</mgrwt>
</event>
<event>
 5    1  0.3340698E-002  0.1250007E+03  0.7818608E-02  0.1235068E+00
         -4   -1    0    0    0  501 -0.00000000000E+00  0.00000000000E+00  0.27819992764E+02  0.27848965823E+02  0.12700000000E+01 0. -1.
          4   -1    0    0  501    0  0.00000000000E+00 -0.00000000000E+00 -0.14030819412E+03  0.14031394171E+03  0.12700000000E+01 0. -1.
         25    2    1    2    0    0  0.00000000000E+00  0.00000000000E+00 -0.11248820136E+03  0.16816290753E+03  0.12500067210E+03 0.  0.
    9000005    1    3    3    0    0  0.16908526940E+02  0.11079863326E+01 -0.13716526241E+03  0.13821155932E+03  0.10000000000E+01 0.  0.
    9000005    1    3    3    0    0 -0.16908526940E+02 -0.11079863326E+01  0.24677061058E+02  0.29951348208E+02  0.10000000000E+01 0.  0.
<mgrwt>
<rscale>  0 0.12500067E+03</rscale>
<asrwt>0</asrwt>
<pdfrwt beam="2">  1        4 0.21588546E-01 0.12500067E+03</pdfrwt>
<pdfrwt beam="1">  1       -4 0.42826698E-02 0.12500067E+03</pdfrwt>
<totfact> 0.95790273E+03</totfact>
</mgrwt>
</event>
<event>
 5    1  0.3340698E-002  0.1250090E+03  0.7818608E-02  0.1235055E+00
         -4   -1    0    0    0  501 -0.00000000000E+00  0.00000000000E+00  0.31385343243E+02  0.31411027848E+02  0.12700000000E+01 0.  1.
          4   -1    0    0  501    0  0.00000000000E+00 -0.00000000000E+00 -0.12439911286E+03  0.12440559545E+03  0.12700000000E+01 0.  1.
         25    2    1    2    0    0  0.00000000000E+00  0.00000000000E+00 -0.93013769613E+02  0.15581662330E+03  0.12500903471E+03 0.  0.
    9000005    1    3    3    0    0 -0.41773215824E+02  0.31976544777E+02 -0.44532662845E+01  0.52804664157E+02  0.10000000000E+01 0.  0.
    9000005    1    3    3    0    0  0.41773215824E+02 -0.31976544777E+02 -0.88560503328E+02  0.10301195914E+03  0.10000000000E+01 0.  0.
<mgrwt>
<rscale>  0 0.12500903E+03</rscale>
<asrwt>0</asrwt>
<pdfrwt beam="2">  1        4 0.19140799E-01 0.12500903E+03</pdfrwt>
<pdfrwt beam="1">  1       -4 0.48309888E-02 0.12500903E+03</pdfrwt>
<totfact> 0.98135484E+03</totfact>
</mgrwt>
</event>
<event>
 5    1  0.3340698E-002  0.1249983E+03  0.7818608E-02  0.1235072E+00
          4   -1    0    0  501    0  0.00000000000E+00  0.00000000000E+00  0.73343764713E+02  0.73354759370E+02  0.12700000000E+01 0. -1.
         -4   -1    0    0    0  501 -0.00000000000E+00 -0.00000000000E+00 -0.53235495411E+02  0.53250641984E+02  0.12700000000E+01 0. -1.
         25    2    1    2    0    0  0.00000000000E+00  0.00000000000E+00  0.20108269301E+02  0.12660540135E+03  0.12499834062E+03 0.  0.
    9000005    1    3    3    0    0 -0.47256734584E+02 -0.80675499221E+00  0.51461226994E+02  0.69879236551E+02  0.10000000000E+01 0.  0.
    9000005    1    3    3    0    0  0.47256734584E+02  0.80675499221E+00 -0.31352957693E+02  0.56726164803E+02  0.10000000000E+01 0.  0.
<mgrwt>
<rscale>  0 0.12499834E+03</rscale>
<asrwt>0</asrwt>
<pdfrwt beam="1">  1        4 0.11285667E-01 0.12499834E+03</pdfrwt>
<pdfrwt beam="2">  1       -4 0.81920871E-02 0.12499834E+03</pdfrwt>
<totfact> 0.10418121E+04</totfact>
</mgrwt>
</event>
<event>
 5    1  0.3340698E-002  0.1250141E+03  0.7818608E-02  0.1235047E+00
          4   -1    0    0  501    0  0.00000000000E+00  0.00000000000E+00  0.14976129477E+02  0.15029882040E+02  0.12700000000E+01 0.  1.
         -4   -1    0    0    0  501 -0.00000000000E+00 -0.00000000000E+00 -0.26036794385E+03  0.26037104118E+03  0.12700000000E+01 0.  1.
         25    2    1    2    0    0  0.00000000000E+00  0.00000000000E+00 -0.24539181438E+03  0.27540092322E+03  0.12501410300E+03 0.  0.
    9000005    1    3    3    0    0 -0.40919625103E+01  0.14796275314E+02 -0.25616062930E+03  0.25662217738E+03  0.10000000000E+01 0.  0.
    9000005    1    3    3    0    0  0.40919625103E+01 -0.14796275314E+02  0.10768814927E+02  0.18778745838E+02  0.10000000000E+01 0.  0.
<mgrwt>
<rscale>  0 0.12501410E+03</rscale>
<asrwt>0</asrwt>
<pdfrwt beam="1">  1        4 0.23083932E-02 0.12501410E+03</pdfrwt>
<pdfrwt beam="2">  1       -4 0.40060977E-01 0.12501410E+03</pdfrwt>
<totfact> 0.78767186E+03</totfact>
</mgrwt>
</event>
<event>
 5    1  0.3340698E-002  0.1249990E+03  0.7818608E-02  0.1235071E+00
         -4   -1    0    0    0  501 -0.00000000000E+00  0.00000000000E+00  0.10354321235E+03  0.10355100059E+03  0.12700000000E+01 0. -1.
          4   -1    0    0  501    0  0.00000000000E+00 -0.00000000000E+00 -0.37705308164E+02  0.37726690337E+02  0.12700000000E+01 0. -1.
         25    2    1    2    0    0  0.00000000000E+00  0.00000000000E+00  0.65837904185E+02  0.14127769093E+03  0.12499902530E+03 0.  0.
    9000005    1    3    3    0    0 -0.19806532100E+02 -0.20131681792E+02  0.95924663576E+02  0.10000062204E+03  0.10000000000E+01 0.  0.
    9000005    1    3    3    0    0  0.19806532100E+02  0.20131681792E+02 -0.30086759391E+02  0.41277068892E+02  0.10000000000E+01 0.  0.
<mgrwt>
<rscale>  0 0.12499903E+03</rscale>
<asrwt>0</asrwt>
<pdfrwt beam="2">  1        4 0.58030606E-02 0.12499903E+03</pdfrwt>
<pdfrwt beam="1">  1       -4 0.15931969E-01 0.12499903E+03</pdfrwt>
<totfact> 0.10107395E+04</totfact>
</mgrwt>
</event>
<event>
 5    1  0.3340698E-002  0.1249943E+03  0.7818608E-02  0.1235078E+00
          4   -1    0    0  501    0  0.00000000000E+00  0.00000000000E+00  0.16407016522E+03  0.16407508042E+03  0.12700000000E+01 0.  1.
         -4   -1    0    0    0  501 -0.00000000000E+00 -0.00000000000E+00 -0.23784026612E+02  0.23817909688E+02  0.12700000000E+01 0.  1.
         25    2    1    2    0    0  0.00000000000E+00  0.00000000000E+00  0.14028613861E+03  0.18789299011E+03  0.12499430006E+03 0.  0.
    9000005    1    3    3    0    0 -0.24287368032E+02  0.55865732413E+02  0.49203721204E+02  0.78312594673E+02  0.10000000000E+01 0.  0.
    9000005    1    3    3    0    0  0.24287368032E+02 -0.55865732413E+02  0.91082417405E+02  0.10958039544E+03  0.10000000000E+01 0.  0.
<mgrwt>
<rscale>  0 0.12499430E+03</rscale>
<asrwt>0</asrwt>
<pdfrwt beam="1">  1        4 0.25244548E-01 0.12499430E+03</pdfrwt>
<pdfrwt beam="2">  1       -4 0.36620656E-02 0.12499430E+03</pdfrwt>
<totfact> 0.92227002E+03</totfact>
</mgrwt>
</event>
<event>
 5    1  0.3340698E-002  0.1249975E+03  0.7818608E-02  0.1235073E+00
         -4   -1    0    0    0  501 -0.00000000000E+00  0.00000000000E+00  0.36711030076E+03  0.36711249750E+03  0.12700000000E+01 0.  1.
          4   -1    0    0  501    0  0.00000000000E+00 -0.00000000000E+00 -0.10599977329E+02  0.10675786593E+02  0.12700000000E+01 0.  1.
         25    2    1    2    0    0  0.00000000000E+00  0.00000000000E+00  0.35651032343E+03  0.37778828410E+03  0.12499750753E+03 0.  0.
    9000005    1    3    3    0    0 -0.30085660675E+01  0.35640173751E+01  0.36659832932E+03  0.36662936155E+03  0.10000000000E+01 0.  0.
    9000005    1    3    3    0    0  0.30085660675E+01 -0.35640173751E+01 -0.10088005889E+02  0.11158922549E+02  0.10000000000E+01 0.  0.
<mgrwt>
<rscale>  0 0.12499751E+03</rscale>
<asrwt>0</asrwt>
<pdfrwt beam="2">  1        4 0.16367663E-02 0.12499751E+03</pdfrwt>
<pdfrwt beam="1">  1       -4 0.56484506E-01 0.12499751E+03</pdfrwt>
<totfact> 0.66775610E+03</totfact>
</mgrwt>
</event>
<event>
 5    1  0.3340698E-002  0.1249988E+03  0.7818608E-02  0.1235071E+00
         -4   -1    0    0    0  501 -0.00000000000E+00  0.00000000000E+00  0.23230397034E+03  0.23230744185E+03  0.12700000000E+01 0.  1.
          4   -1    0    0  501    0  0.00000000000E+00 -0.00000000000E+00 -0.16787339910E+02  0.16835310548E+02  0.12700000000E+01 0.  1.
         25    2    1    2    0    0  0.00000000000E+00  0.00000000000E+00  0.21551663043E+03  0.24914275239E+03  0.12499877230E+03 0.  0.
    9000005    1    3    3    0    0  0.25186240199E+02  0.29375729386E+01 -0.60824007319E+01  0.26095433102E+02  0.10000000000E+01 0.  0.
    9000005    1    3    3    0    0 -0.25186240199E+02 -0.29375729386E+01  0.22159903116E+03  0.22304731929E+03  0.10000000000E+01 0.  0.
<mgrwt>
<rscale>  0 0.12499877E+03</rscale>
<asrwt>0</asrwt>
<pdfrwt beam="2">  1        4 0.25866248E-02 0.12499877E+03</pdfrwt>
<pdfrwt beam="1">  1       -4 0.35743029E-01 0.12499877E+03</pdfrwt>
<totfact> 0.82456540E+03</totfact>
</mgrwt>
</event>
<event>
 5    1  0.3340698E-002  0.1249988E+03  0.7818608E-02  0.1235071E+00
          4   -1    0    0  501    0  0.00000000000E+00  0.00000000000E+00  0.13669890612E+04  0.13669896511E+04  0.12700000000E+01 0. -1.
         -4   -1    0    0    0  501 -0.00000000000E+00 -0.00000000000E+00 -0.27157736900E+01  0.29980538246E+01  0.12700000000E+01 0. -1.
         25    2    1    2    0    0  0.00000000000E+00  0.00000000000E+00  0.13642732875E+04  0.13699877050E+04  0.12499883503E+03 0.  0.
    9000005    1    3    3    0    0 -0.39322900526E+02  0.34524034042E+02  0.10565419484E+04  0.10578374583E+04  0.10000000000E+01 0.  0.
    9000005    1    3    3    0    0  0.39322900526E+02 -0.34524034042E+02  0.30773133909E+03  0.31215024666E+03  0.10000000000E+01 0.  0.
<mgrwt>
<rscale>  0 0.12499884E+03</rscale>
<asrwt>0</asrwt>
<pdfrwt beam="1">  1        4 0.21032726E+00 0.12499884E+03</pdfrwt>
<pdfrwt beam="2">  1       -4 0.43957164E-03 0.12499884E+03</pdfrwt>
<totfact> 0.20634844E+03</totfact>
</mgrwt>
</event>
<event>
 5    1  0.3340698E-002  0.1250022E+03  0.7818608E-02  0.1235066E+00
          4   -1    0    0  501    0  0.00000000000E+00  0.00000000000E+00  0.97656198417E+02  0.97664456120E+02  0.12700000000E+01 0. -1.
         -4   -1    0    0    0  501 -0.00000000000E+00 -0.00000000000E+00 -0.39981397576E+02  0.40001563121E+02  0.12700000000E+01 0. -1.
         25    2    1    2    0    0  0.00000000000E+00  0.00000000000E+00  0.57674800841E+02  0.13766601924E+03  0.12500220079E+03 0.  0.
    9000005    1    3    3    0    0  0.21489974851E+02  0.36645286760E+02  0.79314016602E+02  0.89980049402E+02  0.10000000000E+01 0.  0.
    9000005    1    3    3    0    0 -0.21489974851E+02 -0.36645286760E+02 -0.21639215762E+02  0.47685969840E+02  0.10000000000E+01 0.  0.
<mgrwt>
<rscale>  0 0.12500220E+03</rscale>
<asrwt>0</asrwt>
<pdfrwt beam="1">  1        4 0.15026217E-01 0.12500220E+03</pdfrwt>
<pdfrwt beam="2">  1       -4 0.61531708E-02 0.12500220E+03</pdfrwt>
<totfact> 0.10181673E+04</totfact>
</mgrwt>
</event>
<event>
 5    1  0.3340698E-002  0.1249986E+03  0.7818608E-02  0.1235071E+00
         -4   -1    0    0    0  501 -0.00000000000E+00  0.00000000000E+00  0.16606673099E+02  0.16655164107E+02  0.12700000000E+01 0.  1.
          4   -1    0    0  501    0  0.00000000000E+00 -0.00000000000E+00 -0.23482333170E+03  0.23482676596E+03  0.12700000000E+01 0.  1.
         25    2    1    2    0    0  0.00000000000E+00  0.00000000000E+00 -0.21821665860E+03  0.25148193006E+03  0.12499860423E+03 0.  0.
    9000005    1    3    3    0    0 -0.58074592894E+02 -0.93262347762E+01 -0.15157400471E+03  0.16258940894E+03  0.10000000000E+01 0.  0.
    9000005    1    3    3    0    0  0.58074592894E+02  0.93262347762E+01 -0.66642653890E+02  0.88892521127E+02  0.10000000000E+01 0.  0.
<mgrwt>
<rscale>  0 0.12499860E+03</rscale>
<asrwt>0</asrwt>
<pdfrwt beam="2">  1        4 0.36130658E-01 0.12499860E+03</pdfrwt>
<pdfrwt beam="1">  1       -4 0.25588672E-02 0.12499860E+03</pdfrwt>
<totfact> 0.82119068E+03</totfact>
</mgrwt>
</event>
<event>
 4    1  0.3340698E-002  0.1249258E+03  0.7818608E-02  0.1235185E+00
          4   -1    0    0  501    0  0.00000000000E+00  0.00000000000E+00  0.91631358607E+01  0.92507274742E+01  0.12700000000E+01 0.  1.
         -4   -1    0    0    0  501 -0.00000000000E+00 -0.00000000000E+00 -0.42368069987E+03  0.42368260330E+03  0.12700000000E+01 0.  1.
    9000005    1    1    2    0    0 -0.13016190115E+02 -0.55473748065E+02 -0.11864319949E+03  0.13162054063E+03  0.10000000000E+01 0.  0.
    9000005    1    1    2    0    0  0.13016190115E+02  0.55473748065E+02 -0.29587436451E+03  0.30131279015E+03  0.10000000000E+01 0.  0.
<mgrwt>
<rscale>  0 0.12492581E+03</rscale>
<asrwt>0</asrwt>
<pdfrwt beam="1">  1        4 0.14165978E-02 0.12492581E+03</pdfrwt>
<pdfrwt beam="2">  1       -4 0.65188515E-01 0.12492581E+03</pdfrwt>
<totfact> 0.61571656E+03</totfact>
</mgrwt>
</event>
<event>
 5    1  0.3340698E-002  0.1249908E+03  0.7818608E-02  0.1235084E+00
         -4   -1    0    0    0  501 -0.00000000000E+00  0.00000000000E+00  0.12474243770E+04  0.12474250235E+04  0.12700000000E+01 0. -1.
          4   -1    0    0  501    0  0.00000000000E+00 -0.00000000000E+00 -0.30015318310E+01  0.32591553097E+01  0.12700000000E+01 0. -1.
         25    2    1    2    0    0  0.00000000000E+00  0.00000000000E+00  0.12444228452E+04  0.12506841788E+04  0.12499078977E+03 0.  0.
    9000005    1    3    3    0    0 -0.32401551393E+01  0.62296870668E+02  0.65866985999E+03  0.66161800395E+03  0.10000000000E+01 0.  0.
    9000005    1    3    3    0    0  0.32401551393E+01 -0.62296870668E+02  0.58575298519E+03  0.58906617485E+03  0.10000000000E+01 0.  0.
<mgrwt>
<rscale>  0 0.12499079E+03</rscale>
<asrwt>0</asrwt>
<pdfrwt beam="2">  1        4 0.48164074E-03 0.12499079E+03</pdfrwt>
<pdfrwt beam="1">  1       -4 0.19193143E+00 0.12499079E+03</pdfrwt>
<totfact> 0.23427867E+03</totfact>
</mgrwt>
</event>
<event>
 5    1  0.3340698E-002  0.1249949E+03  0.7818608E-02  0.1235077E+00
          4   -1    0    0  501    0  0.00000000000E+00  0.00000000000E+00  0.10293263657E+03  0.10294047101E+03  0.12700000000E+01 0. -1.
         -4   -1    0    0    0  501 -0.00000000000E+00 -0.00000000000E+00 -0.37926546177E+02  0.37947803690E+02  0.12700000000E+01 0. -1.
         25    2    1    2    0    0  0.00000000000E+00  0.00000000000E+00  0.65006090392E+02  0.14088827470E+03  0.12499485653E+03 0.  0.
    9000005    1    3    3    0    0 -0.43251500136E+02 -0.20088974458E+02  0.78019210573E+02  0.91445373733E+02  0.10000000000E+01 0.  0.
    9000005    1    3    3    0    0  0.43251500136E+02  0.20088974458E+02 -0.13013120181E+02  0.49442900963E+02  0.10000000000E+01 0.  0.
<mgrwt>
<rscale>  0 0.12499486E+03</rscale>
<asrwt>0</asrwt>
<pdfrwt beam="1">  1        4 0.15838028E-01 0.12499486E+03</pdfrwt>
<pdfrwt beam="2">  1       -4 0.58370911E-02 0.12499486E+03</pdfrwt>
<totfact> 0.10116381E+04</totfact>
</mgrwt>
</event>
<event>
 5    1  0.3340698E-002  0.1249990E+03  0.7818608E-02  0.1235071E+00
          4   -1    0    0  501    0  0.00000000000E+00  0.00000000000E+00  0.20481209949E+02  0.20520547287E+02  0.12700000000E+01 0. -1.
         -4   -1    0    0    0  501 -0.00000000000E+00 -0.00000000000E+00 -0.19049613675E+03  0.19050037013E+03  0.12700000000E+01 0. -1.
         25    2    1    2    0    0  0.00000000000E+00  0.00000000000E+00 -0.17001492680E+03  0.21102091741E+03  0.12499900899E+03 0.  0.
    9000005    1    3    3    0    0  0.57055456238E+02  0.25291774502E+02 -0.90396203517E+02  0.10985204848E+03  0.10000000000E+01 0.  0.
    9000005    1    3    3    0    0 -0.57055456238E+02 -0.25291774502E+02 -0.79618723288E+02  0.10116886894E+03  0.10000000000E+01 0.  0.
<mgrwt>
<rscale>  0 0.12499901E+03</rscale>
<asrwt>0</asrwt>
<pdfrwt beam="1">  1        4 0.31543071E-02 0.12499901E+03</pdfrwt>
<pdfrwt beam="2">  1       -4 0.29310448E-01 0.12499901E+03</pdfrwt>
<totfact> 0.88311380E+03</totfact>
</mgrwt>
</event>
<event>
 5    1  0.3340698E-002  0.1249972E+03  0.7818608E-02  0.1235074E+00
         -4   -1    0    0    0  501 -0.00000000000E+00  0.00000000000E+00  0.16553400753E+02  0.16602047358E+02  0.12700000000E+01 0. -1.
          4   -1    0    0  501    0  0.00000000000E+00 -0.00000000000E+00 -0.23557152599E+03  0.23557494934E+03  0.12700000000E+01 0. -1.
         25    2    1    2    0    0  0.00000000000E+00  0.00000000000E+00 -0.21901812524E+03  0.25217699670E+03  0.12499719390E+03 0.  0.
    9000005    1    3    3    0    0 -0.44706657355E+01  0.54434019626E+02 -0.17076900980E+03  0.17929334637E+03  0.10000000000E+01 0.  0.
    9000005    1    3    3    0    0  0.44706657355E+01 -0.54434019626E+02 -0.48249115436E+02  0.72883650328E+02  0.10000000000E+01 0.  0.
<mgrwt>
<rscale>  0 0.12499719E+03</rscale>
<asrwt>0</asrwt>
<pdfrwt beam="2">  1        4 0.36245776E-01 0.12499719E+03</pdfrwt>
<pdfrwt beam="1">  1       -4 0.25506826E-02 0.12499719E+03</pdfrwt>
<totfact> 0.82021726E+03</totfact>
</mgrwt>
</event>
<event>
 4    1  0.3340698E-002  0.1245285E+03  0.7818608E-02  0.1235808E+00
          4   -1    0    0  501    0  0.00000000000E+00  0.00000000000E+00  0.27382004285E+03  0.27382298801E+03  0.12700000000E+01 0.  1.
         -4   -1    0    0    0  501 -0.00000000000E+00 -0.00000000000E+00 -0.14126822839E+02  0.14183794398E+02  0.12700000000E+01 0.  1.
    9000005    1    1    2    0    0 -0.96338760380E+01  0.21526637201E+02 -0.34069197410E+01  0.23849838130E+02  0.10000000000E+01 0.  0.
    9000005    1    1    2    0    0  0.96338760380E+01 -0.21526637201E+02  0.26310013975E+03  0.26415694428E+03  0.10000000000E+01 0.  0.
<mgrwt>
<rscale>  0 0.12452846E+03</rscale>
<asrwt>0</asrwt>
<pdfrwt beam="1">  1        4 0.42130769E-01 0.12452846E+03</pdfrwt>
<pdfrwt beam="2">  1       -4 0.21779664E-02 0.12452846E+03</pdfrwt>
<totfact> 0.77941898E+03</totfact>
</mgrwt>
</event>
<event>
 5    1  0.3340698E-002  0.1249976E+03  0.7818608E-02  0.1235073E+00
         -4   -1    0    0    0  501 -0.00000000000E+00  0.00000000000E+00  0.36727755147E+02  0.36749706096E+02  0.12700000000E+01 0. -1.
          4   -1    0    0  501    0  0.00000000000E+00 -0.00000000000E+00 -0.10629536096E+03  0.10630294757E+03  0.12700000000E+01 0. -1.
         25    2    1    2    0    0  0.00000000000E+00  0.00000000000E+00 -0.69567605812E+02  0.14305265366E+03  0.12499763974E+03 0.  0.
    9000005    1    3    3    0    0 -0.53545408340E+02  0.29959363771E+02 -0.21221877440E+02  0.64931058161E+02  0.10000000000E+01 0.  0.
    9000005    1    3    3    0    0  0.53545408340E+02 -0.29959363771E+02 -0.48345728372E+02  0.78121595502E+02  0.10000000000E+01 0.  0.
<mgrwt>
<rscale>  0 0.12499764E+03</rscale>
<asrwt>0</asrwt>
<pdfrwt beam="2">  1        4 0.16355404E-01 0.12499764E+03</pdfrwt>
<pdfrwt beam="1">  1       -4 0.56526960E-02 0.12499764E+03</pdfrwt>
<totfact> 0.10071241E+04</totfact>
</mgrwt>
</event>
<event>
 5    1  0.3340698E-002  0.1249983E+03  0.7818608E-02  0.1235072E+00
          4   -1    0    0  501    0  0.00000000000E+00  0.00000000000E+00  0.29250849222E+03  0.29251124922E+03  0.12700000000E+01 0. -1.
         -4   -1    0    0    0  501 -0.00000000000E+00 -0.00000000000E+00 -0.13320927409E+02  0.13381330541E+02  0.12700000000E+01 0. -1.
         25    2    1    2    0    0  0.00000000000E+00  0.00000000000E+00  0.27918756481E+03  0.30589257976E+03  0.12499829602E+03 0.  0.
    9000005    1    3    3    0    0 -0.49588018081E+02  0.37918023991E+02  0.14668443326E+03  0.15941791318E+03  0.10000000000E+01 0.  0.
    9000005    1    3    3    0    0  0.49588018081E+02 -0.37918023991E+02  0.13250313155E+03  0.14647466658E+03  0.10000000000E+01 0.  0.
<mgrwt>
<rscale>  0 0.12499830E+03</rscale>
<asrwt>0</asrwt>
<pdfrwt beam="1">  1        4 0.45006166E-01 0.12499830E+03</pdfrwt>
<pdfrwt beam="2">  1       -4 0.20542319E-02 0.12499830E+03</pdfrwt>
<totfact> 0.74868408E+03</totfact>
</mgrwt>
</event>
<event>
 5    1  0.3340698E-002  0.1250030E+03  0.7818608E-02  0.1235065E+00
         -4   -1    0    0    0  501 -0.00000000000E+00  0.00000000000E+00  0.32882012927E+02  0.32906529354E+02  0.12700000000E+01 0.  1.
          4   -1    0    0  501    0  0.00000000000E+00 -0.00000000000E+00 -0.11872943024E+03  0.11873622238E+03  0.12700000000E+01 0.  1.
         25    2    1    2    0    0  0.00000000000E+00  0.00000000000E+00 -0.85847417312E+02  0.15164275173E+03  0.12500298034E+03 0.  0.
    9000005    1    3    3    0    0  0.34475604123E+02  0.19127528347E+02 -0.10174414177E+03  0.10912057553E+03  0.10000000000E+01 0.  0.
    9000005    1    3    3    0    0 -0.34475604123E+02 -0.19127528347E+02  0.15896724457E+02  0.42522176200E+02  0.10000000000E+01 0.  0.
<mgrwt>
<rscale>  0 0.12500298E+03</rscale>
<asrwt>0</asrwt>
<pdfrwt beam="2">  1        4 0.18268474E-01 0.12500298E+03</pdfrwt>
<pdfrwt beam="1">  1       -4 0.50611796E-02 0.12500298E+03</pdfrwt>
<totfact> 0.98970606E+03</totfact>
</mgrwt>
</event>
<event>
 5    1  0.3340698E-002  0.1250055E+03  0.7818608E-02  0.1235061E+00
          4   -1    0    0  501    0  0.00000000000E+00  0.00000000000E+00  0.10429083098E+04  0.10429090831E+04  0.12700000000E+01 0.  1.
         -4   -1    0    0    0  501 -0.00000000000E+00 -0.00000000000E+00 -0.36374197598E+01  0.38527551842E+01  0.12700000000E+01 0.  1.
         25    2    1    2    0    0  0.00000000000E+00  0.00000000000E+00  0.10392708900E+04  0.10467618382E+04  0.12500545244E+03 0.  0.
    9000005    1    3    3    0    0 -0.22698012920E+02  0.18950029962E+02  0.98066894022E+03  0.98111511748E+03  0.10000000000E+01 0.  0.
    9000005    1    3    3    0    0  0.22698012920E+02 -0.18950029962E+02  0.58601949805E+02  0.65646720763E+02  0.10000000000E+01 0.  0.
<mgrwt>
<rscale>  0 0.12500545E+03</rscale>
<asrwt>0</asrwt>
<pdfrwt beam="1">  1        4 0.16046397E+00 0.12500545E+03</pdfrwt>
<pdfrwt beam="2">  1       -4 0.57622709E-03 0.12500545E+03</pdfrwt>
<totfact> 0.29092647E+03</totfact>
</mgrwt>
</event>
<event>
 5    1  0.3340698E-002  0.1250003E+03  0.7818608E-02  0.1235069E+00
          4   -1    0    0  501    0  0.00000000000E+00  0.00000000000E+00  0.24606478522E+01  0.27690590193E+01  0.12700000000E+01 0. -1.
         -4   -1    0    0    0  501 -0.00000000000E+00 -0.00000000000E+00 -0.14935684430E+04  0.14935689830E+04  0.12700000000E+01 0. -1.
         25    2    1    2    0    0  0.00000000000E+00  0.00000000000E+00 -0.14911077952E+04  0.14963380420E+04  0.12500031636E+03 0.  0.
    9000005    1    3    3    0    0  0.38735208823E+02  0.21468840879E+02 -0.12733428357E+04  0.12741131444E+04  0.10000000000E+01 0.  0.
    9000005    1    3    3    0    0 -0.38735208823E+02 -0.21468840879E+02 -0.21776495948E+03  0.22222489759E+03  0.10000000000E+01 0.  0.
<mgrwt>
<rscale>  0 0.12500032E+03</rscale>
<asrwt>0</asrwt>
<pdfrwt beam="1">  1        4 0.40232787E-03 0.12500032E+03</pdfrwt>
<pdfrwt beam="2">  1       -4 0.22980284E+00 0.12500032E+03</pdfrwt>
<totfact> 0.18002518E+03</totfact>
</mgrwt>
</event>
<event>
 5    1  0.3340698E-002  0.1250014E+03  0.7818608E-02  0.1235067E+00
         -4   -1    0    0    0  501 -0.00000000000E+00  0.00000000000E+00  0.12163189164E+04  0.12163195794E+04  0.12700000000E+01 0.  1.
          4   -1    0    0  501    0  0.00000000000E+00 -0.00000000000E+00 -0.30853645913E+01  0.33365213414E+01  0.12700000000E+01 0.  1.
         25    2    1    2    0    0  0.00000000000E+00  0.00000000000E+00  0.12132335518E+04  0.12196561008E+04  0.12500141160E+03 0.  0.
    9000005    1    3    3    0    0  0.10779846298E+02 -0.16847185803E+02  0.11842942199E+04  0.11844635208E+04  0.10000000000E+01 0.  0.
    9000005    1    3    3    0    0 -0.10779846298E+02  0.16847185803E+02  0.28939331949E+02  0.35192580033E+02  0.10000000000E+01 0.  0.
<mgrwt>
<rscale>  0 0.12500141E+03</rscale>
<asrwt>0</asrwt>
<pdfrwt beam="2">  1        4 0.49404125E-03 0.12500141E+03</pdfrwt>
<pdfrwt beam="1">  1       -4 0.18714573E+00 0.12500141E+03</pdfrwt>
<totfact> 0.24203171E+03</totfact>
</mgrwt>
</event>
<event>
 5    1  0.3340698E-002  0.1250048E+03  0.7818608E-02  0.1235062E+00
         -4   -1    0    0    0  501 -0.00000000000E+00  0.00000000000E+00  0.90512346008E+01  0.91398986755E+01  0.12700000000E+01 0. -1.
          4   -1    0    0  501    0  0.00000000000E+00 -0.00000000000E+00 -0.42941055056E+03  0.42941242859E+03  0.12700000000E+01 0. -1.
         25    2    1    2    0    0  0.00000000000E+00  0.00000000000E+00 -0.42035931596E+03  0.43855232727E+03  0.12500475687E+03 0.  0.
    9000005    1    3    3    0    0 -0.38419078984E+02  0.10237698207E+02 -0.41026782179E+02  0.57140466839E+02  0.10000000000E+01 0.  0.
    9000005    1    3    3    0    0  0.38419078984E+02 -0.10237698207E+02 -0.37933253378E+03  0.38141186043E+03  0.10000000000E+01 0.  0.
<mgrwt>
<rscale>  0 0.12500476E+03</rscale>
<asrwt>0</asrwt>
<pdfrwt beam="2">  1        4 0.66070110E-01 0.12500476E+03</pdfrwt>
<pdfrwt beam="1">  1       -4 0.13994627E-02 0.12500476E+03</pdfrwt>
<totfact> 0.60961968E+03</totfact>
</mgrwt>
</event>
<event>
 5    1  0.3340698E-002  0.1249977E+03  0.7818608E-02  0.1235073E+00
         -4   -1    0    0    0  501 -0.00000000000E+00  0.00000000000E+00  0.20038223292E+03  0.20038625744E+03  0.12700000000E+01 0.  1.
          4   -1    0    0  501    0  0.00000000000E+00 -0.00000000000E+00 -0.19468357692E+02  0.19509737344E+02  0.12700000000E+01 0.  1.
         25    2    1    2    0    0  0.00000000000E+00  0.00000000000E+00  0.18091387523E+03  0.21989599478E+03  0.12499767306E+03 0.  0.
    9000005    1    3    3    0    0 -0.47312751446E+02 -0.27294845372E+02  0.14386250264E+03  0.15388607701E+03  0.10000000000E+01 0.  0.
    9000005    1    3    3    0    0  0.47312751446E+02  0.27294845372E+02  0.37051372595E+02  0.66009917773E+02  0.10000000000E+01 0.  0.
<mgrwt>
<rscale>  0 0.12499767E+03</rscale>
<asrwt>0</asrwt>
<pdfrwt beam="2">  1        4 0.29986246E-02 0.12499767E+03</pdfrwt>
<pdfrwt beam="1">  1       -4 0.30831528E-01 0.12499767E+03</pdfrwt>
<totfact> 0.86889326E+03</totfact>
</mgrwt>
</event>
<event>
 5    1  0.3340698E-002  0.1250002E+03  0.7818608E-02  0.1235069E+00
          4   -1    0    0  501    0  0.00000000000E+00  0.00000000000E+00  0.32332123832E+02  0.32357056904E+02  0.12700000000E+01 0. -1.
         -4   -1    0    0    0  501 -0.00000000000E+00 -0.00000000000E+00 -0.12074196799E+03  0.12074864693E+03  0.12700000000E+01 0. -1.
         25    2    1    2    0    0  0.00000000000E+00  0.00000000000E+00 -0.88409844163E+02  0.15310570383E+03  0.12500022401E+03 0.  0.
    9000005    1    3    3    0    0 -0.61332277588E+02 -0.11879263578E+02 -0.42268730474E+02  0.75434811282E+02  0.10000000000E+01 0.  0.
    9000005    1    3    3    0    0  0.61332277588E+02  0.11879263578E+02 -0.46141113688E+02  0.77670892551E+02  0.10000000000E+01 0.  0.
<mgrwt>
<rscale>  0 0.12500022E+03</rscale>
<asrwt>0</asrwt>
<pdfrwt beam="1">  1        4 0.49766047E-02 0.12500022E+03</pdfrwt>
<pdfrwt beam="2">  1       -4 0.18578119E-01 0.12500022E+03</pdfrwt>
<totfact> 0.98687689E+03</totfact>
</mgrwt>
</event>
<event>
 5    1  0.3340698E-002  0.1249993E+03  0.7818608E-02  0.1235070E+00
          4   -1    0    0  501    0  0.00000000000E+00  0.00000000000E+00  0.20220373596E+03  0.20220772423E+03  0.12700000000E+01 0.  1.
         -4   -1    0    0    0  501 -0.00000000000E+00 -0.00000000000E+00 -0.19293124645E+02  0.19334879326E+02  0.12700000000E+01 0.  1.
         25    2    1    2    0    0  0.00000000000E+00  0.00000000000E+00  0.18291061132E+03  0.22154260355E+03  0.12499933382E+03 0.  0.
    9000005    1    3    3    0    0  0.59779488166E+02 -0.14581611491E+02  0.11078918301E+03  0.12673379057E+03  0.10000000000E+01 0.  0.
    9000005    1    3    3    0    0 -0.59779488166E+02  0.14581611491E+02  0.72121428309E+02  0.94808812989E+02  0.10000000000E+01 0.  0.
<mgrwt>
<rscale>  0 0.12499933E+03</rscale>
<asrwt>0</asrwt>
<pdfrwt beam="1">  1        4 0.31111786E-01 0.12499933E+03</pdfrwt>
<pdfrwt beam="2">  1       -4 0.29716917E-02 0.12499933E+03</pdfrwt>
<totfact> 0.86626128E+03</totfact>
</mgrwt>
</event>
<event>
 5    1  0.3340698E-002  0.1249983E+03  0.7818608E-02  0.1235072E+00
          4   -1    0    0  501    0  0.00000000000E+00  0.00000000000E+00  0.14642496020E+02  0.14697468819E+02  0.12700000000E+01 0. -1.
         -4   -1    0    0    0  501 -0.00000000000E+00 -0.00000000000E+00 -0.26621109277E+03  0.26621412212E+03  0.12700000000E+01 0. -1.
         25    2    1    2    0    0  0.00000000000E+00  0.00000000000E+00 -0.25156859675E+03  0.28091159094E+03  0.12499825219E+03 0.  0.
    9000005    1    3    3    0    0 -0.59998530617E+02 -0.14928379201E+02 -0.10537684024E+03  0.12218002554E+03  0.10000000000E+01 0.  0.
    9000005    1    3    3    0    0  0.59998530617E+02  0.14928379201E+02 -0.14619175651E+03  0.15873156540E+03  0.10000000000E+01 0.  0.
<mgrwt>
<rscale>  0 0.12499825E+03</rscale>
<asrwt>0</asrwt>
<pdfrwt beam="1">  1        4 0.22571536E-02 0.12499825E+03</pdfrwt>
<pdfrwt beam="2">  1       -4 0.40960011E-01 0.12499825E+03</pdfrwt>
<totfact> 0.78060424E+03</totfact>
</mgrwt>
</event>
<event>
 5    1  0.3340698E-002  0.1250063E+03  0.7818608E-02  0.1235059E+00
         -4   -1    0    0    0  501 -0.00000000000E+00  0.00000000000E+00  0.22352722633E+02  0.22388771943E+02  0.12700000000E+01 0. -1.
          4   -1    0    0  501    0  0.00000000000E+00 -0.00000000000E+00 -0.17459347405E+03  0.17459809301E+03  0.12700000000E+01 0. -1.
         25    2    1    2    0    0  0.00000000000E+00  0.00000000000E+00 -0.15224075142E+03  0.19698686495E+03  0.12500631412E+03 0.  0.
    9000005    1    3    3    0    0  0.44032952085E+02 -0.22065836564E+02 -0.13673997838E+03  0.14534312402E+03  0.10000000000E+01 0.  0.
    9000005    1    3    3    0    0 -0.44032952085E+02  0.22065836564E+02 -0.15500773042E+02  0.51643740932E+02  0.10000000000E+01 0.  0.
<mgrwt>
<rscale>  0 0.12500631E+03</rscale>
<asrwt>0</asrwt>
<pdfrwt beam="2">  1        4 0.26863662E-01 0.12500631E+03</pdfrwt>
<pdfrwt beam="1">  1       -4 0.34420088E-02 0.12500631E+03</pdfrwt>
<totfact> 0.90632824E+03</totfact>
</mgrwt>
</event>
<event>
 5    1  0.3340698E-002  0.1250007E+03  0.7818608E-02  0.1235068E+00
         -4   -1    0    0    0  501 -0.00000000000E+00  0.00000000000E+00  0.38177231075E+02  0.38198349082E+02  0.12700000000E+01 0.  1.
          4   -1    0    0  501    0  0.00000000000E+00 -0.00000000000E+00 -0.10226658508E+03  0.10227447053E+03  0.12700000000E+01 0.  1.
         25    2    1    2    0    0  0.00000000000E+00  0.00000000000E+00 -0.64089354000E+02  0.14047281962E+03  0.12500067102E+03 0.  0.
    9000005    1    3    3    0    0 -0.13743749293E+01 -0.25033121736E+02 -0.96372867376E+02  0.99585519311E+02  0.10000000000E+01 0.  0.
    9000005    1    3    3    0    0  0.13743749293E+01  0.25033121736E+02  0.32283513375E+02  0.40887300304E+02  0.10000000000E+01 0.  0.
<mgrwt>
<rscale>  0 0.12500067E+03</rscale>
<asrwt>0</asrwt>
<pdfrwt beam="2">  1        4 0.15735552E-01 0.12500067E+03</pdfrwt>
<pdfrwt beam="1">  1       -4 0.58756512E-02 0.12500067E+03</pdfrwt>
<totfact> 0.10123643E+04</totfact>
</mgrwt>
</event>
<event>
 5    1  0.3340698E-002  0.1250013E+03  0.7818608E-02  0.1235067E+00
         -4   -1    0    0    0  501 -0.00000000000E+00  0.00000000000E+00  0.16256532548E+03  0.16257028618E+03  0.12700000000E+01 0. -1.
          4   -1    0    0  501    0  0.00000000000E+00 -0.00000000000E+00 -0.24007193046E+02  0.24040761593E+02  0.12700000000E+01 0. -1.
         25    2    1    2    0    0  0.00000000000E+00  0.00000000000E+00  0.13855813243E+03  0.18661104777E+03  0.12500130834E+03 0.  0.
    9000005    1    3    3    0    0 -0.54450419082E+02 -0.25304464459E+02  0.43414524956E+02  0.74101181076E+02  0.10000000000E+01 0.  0.
    9000005    1    3    3    0    0  0.54450419082E+02  0.25304464459E+02  0.95143607477E+02  0.11250986669E+03  0.10000000000E+01 0.  0.
<mgrwt>
<rscale>  0 0.12500131E+03</rscale>
<asrwt>0</asrwt>
<pdfrwt beam="2">  1        4 0.36963781E-02 0.12500131E+03</pdfrwt>
<pdfrwt beam="1">  1       -4 0.25013014E-01 0.12500131E+03</pdfrwt>
<totfact> 0.92437637E+03</totfact>
</mgrwt>
</event>
<event>
 5    1  0.3340698E-002  0.1249987E+03  0.7818608E-02  0.1235071E+00
          4   -1    0    0  501    0  0.00000000000E+00  0.00000000000E+00  0.10368980311E+03  0.10369758034E+03  0.12700000000E+01 0. -1.
         -4   -1    0    0    0  501 -0.00000000000E+00 -0.00000000000E+00 -0.37651762043E+02  0.37673174607E+02  0.12700000000E+01 0. -1.
         25    2    1    2    0    0  0.00000000000E+00  0.00000000000E+00  0.66038041066E+02  0.14137075495E+03  0.12499866994E+03 0.  0.
    9000005    1    3    3    0    0 -0.54953569126E+02 -0.17126287487E+02  0.60536030582E+02  0.83539305009E+02  0.10000000000E+01 0.  0.
    9000005    1    3    3    0    0  0.54953569126E+02  0.17126287487E+02  0.55020104839E+01  0.57831449940E+02  0.10000000000E+01 0.  0.
<mgrwt>
<rscale>  0 0.12499867E+03</rscale>
<asrwt>0</asrwt>
<pdfrwt beam="1">  1        4 0.15954523E-01 0.12499867E+03</pdfrwt>
<pdfrwt beam="2">  1       -4 0.57948242E-02 0.12499867E+03</pdfrwt>
<totfact> 0.10105558E+04</totfact>
</mgrwt>
</event>
<event>
 5    1  0.3340698E-002  0.1249928E+03  0.7818608E-02  0.1235081E+00
          4   -1    0    0  501    0  0.00000000000E+00  0.00000000000E+00  0.25953080995E+02  0.25984135798E+02  0.12700000000E+01 0. -1.
         -4   -1    0    0    0  501 -0.00000000000E+00 -0.00000000000E+00 -0.15037096816E+03  0.15037633113E+03  0.12700000000E+01 0. -1.
         25    2    1    2    0    0  0.00000000000E+00  0.00000000000E+00 -0.12441788717E+03  0.17636046693E+03  0.12499281439E+03 0.  0.
    9000005    1    3    3    0    0 -0.27486682299E+02 -0.50134785987E+02 -0.97786148441E+02  0.11327905939E+03  0.10000000000E+01 0.  0.
    9000005    1    3    3    0    0  0.27486682299E+02  0.50134785987E+02 -0.26631738724E+02  0.63081407540E+02  0.10000000000E+01 0.  0.
<mgrwt>
<rscale>  0 0.12499281E+03</rscale>
<asrwt>0</asrwt>
<pdfrwt beam="1">  1        4 0.39955832E-02 0.12499281E+03</pdfrwt>
<pdfrwt beam="2">  1       -4 0.23136796E-01 0.12499281E+03</pdfrwt>
<totfact> 0.94291460E+03</totfact>
</mgrwt>
</event>
<event>
 5    1  0.3340698E-002  0.1249998E+03  0.7818608E-02  0.1235070E+00
         -4   -1    0    0    0  501 -0.00000000000E+00  0.00000000000E+00  0.13318095015E+04  0.13318101070E+04  0.12700000000E+01 0.  1.
          4   -1    0    0  501    0  0.00000000000E+00 -0.00000000000E+00 -0.27949172498E+01  0.30699287342E+01  0.12700000000E+01 0.  1.
         25    2    1    2    0    0  0.00000000000E+00  0.00000000000E+00  0.13290145843E+04  0.13348800358E+04  0.12499977892E+03 0.  0.
    9000005    1    3    3    0    0 -0.25697642029E+02 -0.20370752221E+02  0.12325990973E+04  0.12330356325E+04  0.10000000000E+01 0.  0.
    9000005    1    3    3    0    0  0.25697642029E+02  0.20370752221E+02  0.96415486933E+02  0.10184440325E+03  0.10000000000E+01 0.  0.
<mgrwt>
<rscale>  0 0.12499978E+03</rscale>
<asrwt>0</asrwt>
<pdfrwt beam="2">  1        4 0.45118746E-03 0.12499978E+03</pdfrwt>
<pdfrwt beam="1">  1       -4 0.20491548E+00 0.12499978E+03</pdfrwt>
<totfact> 0.21419979E+03</totfact>
</mgrwt>
</event>
<event>
 5    1  0.3340698E-002  0.1249944E+03  0.7818608E-02  0.1235078E+00
         -4   -1    0    0    0  501 -0.00000000000E+00  0.00000000000E+00  0.44806039121E+03  0.44806219107E+03  0.12700000000E+01 0.  1.
          4   -1    0    0  501    0  0.00000000000E+00 -0.00000000000E+00 -0.86692622330E+01  0.87617924915E+01  0.12700000000E+01 0.  1.
         25    2    1    2    0    0  0.00000000000E+00  0.00000000000E+00  0.43939112898E+03  0.45682398357E+03  0.12499435083E+03 0.  0.
    9000005    1    3    3    0    0 -0.59027612503E+02  0.18223348689E+02  0.25408670379E+03  0.26149073123E+03  0.10000000000E+01 0.  0.
    9000005    1    3    3    0    0  0.59027612503E+02 -0.18223348689E+02  0.18530442518E+03  0.19533325233E+03  0.10000000000E+01 0.  0.
<mgrwt>
<rscale>  0 0.12499435E+03</rscale>
<asrwt>0</asrwt>
<pdfrwt beam="2">  1        4 0.13409884E-02 0.12499435E+03</pdfrwt>
<pdfrwt beam="1">  1       -4 0.68939644E-01 0.12499435E+03</pdfrwt>
<totfact> 0.59384534E+03</totfact>
</mgrwt>
</event>
<event>
 5    1  0.3340698E-002  0.1250006E+03  0.7818608E-02  0.1235068E+00
          4   -1    0    0  501    0  0.00000000000E+00  0.00000000000E+00  0.27931783003E+02  0.27960640224E+02  0.12700000000E+01 0.  1.
         -4   -1    0    0    0  501 -0.00000000000E+00 -0.00000000000E+00 -0.13974695835E+03  0.13975272902E+03  0.12700000000E+01 0.  1.
         25    2    1    2    0    0  0.00000000000E+00  0.00000000000E+00 -0.11181517535E+03  0.16771336924E+03  0.12500056314E+03 0.  0.
    9000005    1    3    3    0    0  0.11134628501E+02  0.28201224538E+02  0.17408678284E+02  0.34976436309E+02  0.10000000000E+01 0.  0.
    9000005    1    3    3    0    0 -0.11134628501E+02 -0.28201224538E+02 -0.12922385363E+03  0.13273693293E+03  0.10000000000E+01 0.  0.
<mgrwt>
<rscale>  0 0.12500056E+03</rscale>
<asrwt>0</asrwt>
<pdfrwt beam="1">  1        4 0.42998611E-02 0.12500056E+03</pdfrwt>
<pdfrwt beam="2">  1       -4 0.21502195E-01 0.12500056E+03</pdfrwt>
<totfact> 0.95874764E+03</totfact>
</mgrwt>
</event>
<event>
 5    1  0.3340698E-002  0.1250019E+03  0.7818608E-02  0.1235066E+00
          4   -1    0    0  501    0  0.00000000000E+00  0.00000000000E+00  0.22099851925E+02  0.22136313042E+02  0.12700000000E+01 0.  1.
         -4   -1    0    0    0  501 -0.00000000000E+00 -0.00000000000E+00 -0.17657542783E+03  0.17657999494E+03  0.12700000000E+01 0.  1.
         25    2    1    2    0    0  0.00000000000E+00  0.00000000000E+00 -0.15447557590E+03  0.19871630798E+03  0.12500187002E+03 0.  0.
    9000005    1    3    3    0    0 -0.57735583542E+02 -0.23027781080E+02 -0.66973332649E+02  0.91378901255E+02  0.10000000000E+01 0.  0.
    9000005    1    3    3    0    0  0.57735583542E+02  0.23027781080E+02 -0.87502243253E+02  0.10733740673E+03  0.10000000000E+01 0.  0.
<mgrwt>
<rscale>  0 0.12500187E+03</rscale>
<asrwt>0</asrwt>
<pdfrwt beam="1">  1        4 0.34031333E-02 0.12500187E+03</pdfrwt>
<pdfrwt beam="2">  1       -4 0.27168606E-01 0.12500187E+03</pdfrwt>
<totfact> 0.90348653E+03</totfact>
</mgrwt>
</event>
<event>
 5    1  0.3340698E-002  0.1249978E+03  0.7818608E-02  0.1235073E+00
          4   -1    0    0  501    0  0.00000000000E+00  0.00000000000E+00  0.15140036034E+02  0.15193208717E+02  0.12700000000E+01 0. -1.
         -4   -1    0    0    0  501 -0.00000000000E+00 -0.00000000000E+00 -0.25749176825E+03  0.25749490017E+03  0.12700000000E+01 0. -1.
         25    2    1    2    0    0  0.00000000000E+00  0.00000000000E+00 -0.24235173221E+03  0.27268810889E+03  0.12499777047E+03 0.  0.
    9000005    1    3    3    0    0  0.38212346077E+02  0.35866669407E+02 -0.19542881286E+03  0.20233640864E+03  0.10000000000E+01 0.  0.
    9000005    1    3    3    0    0 -0.38212346077E+02 -0.35866669407E+02 -0.46922919357E+02  0.70351700250E+02  0.10000000000E+01 0.  0.
<mgrwt>
<rscale>  0 0.12499777E+03</rscale>
<asrwt>0</asrwt>
<pdfrwt beam="1">  1        4 0.23335676E-02 0.12499777E+03</pdfrwt>
<pdfrwt beam="2">  1       -4 0.39618446E-01 0.12499777E+03</pdfrwt>
<totfact> 0.79161632E+03</totfact>
</mgrwt>
</event>
<event>
 5    1  0.3340698E-002  0.1250007E+03  0.7818608E-02  0.1235068E+00
         -4   -1    0    0    0  501 -0.00000000000E+00  0.00000000000E+00  0.40422376925E+02  0.40442322587E+02  0.12700000000E+01 0.  1.
          4   -1    0    0  501    0  0.00000000000E+00 -0.00000000000E+00 -0.96588935941E+02  0.96597284880E+02  0.12700000000E+01 0.  1.
         25    2    1    2    0    0  0.00000000000E+00  0.00000000000E+00 -0.56166559016E+02  0.13703960747E+03  0.12500068665E+03 0.  0.
    9000005    1    3    3    0    0  0.67668256186E+01  0.53452415738E+02  0.66256902688E+01  0.54294110627E+02  0.10000000000E+01 0.  0.
    9000005    1    3    3    0    0 -0.67668256186E+01 -0.53452415738E+02 -0.62792249285E+02  0.82745496841E+02  0.10000000000E+01 0.  0.
<mgrwt>
<rscale>  0 0.12500069E+03</rscale>
<asrwt>0</asrwt>
<pdfrwt beam="2">  1        4 0.14862013E-01 0.12500069E+03</pdfrwt>
<pdfrwt beam="1">  1       -4 0.62210037E-02 0.12500069E+03</pdfrwt>
<totfact> 0.10195100E+04</totfact>
</mgrwt>
</event>
<event>
 5    1  0.3340698E-002  0.1249972E+03  0.7818608E-02  0.1235074E+00
         -4   -1    0    0    0  501 -0.00000000000E+00  0.00000000000E+00  0.11211543017E+02  0.11283244073E+02  0.12700000000E+01 0. -1.
          4   -1    0    0  501    0  0.00000000000E+00 -0.00000000000E+00 -0.34721445975E+03  0.34721678237E+03  0.12700000000E+01 0. -1.
         25    2    1    2    0    0  0.00000000000E+00  0.00000000000E+00 -0.33600291673E+03  0.35850002644E+03  0.12499723560E+03 0.  0.
    9000005    1    3    3    0    0  0.41828476425E+02 -0.30076029193E+02 -0.66564074257E+02  0.84178173856E+02  0.10000000000E+01 0.  0.
    9000005    1    3    3    0    0 -0.41828476425E+02  0.30076029193E+02 -0.26943884247E+03  0.27432185258E+03  0.10000000000E+01 0.  0.
<mgrwt>
<rscale>  0 0.12499724E+03</rscale>
<asrwt>0</asrwt>
<pdfrwt beam="2">  1        4 0.53423295E-01 0.12499724E+03</pdfrwt>
<pdfrwt beam="1">  1       -4 0.17305472E-02 0.12499724E+03</pdfrwt>
<totfact> 0.68803672E+03</totfact>
</mgrwt>
</event>
<event>
 5    1  0.3340698E-002  0.1249969E+03  0.7818608E-02  0.1235074E+00
          4   -1    0    0  501    0  0.00000000000E+00  0.00000000000E+00  0.37065974163E+02  0.37087724932E+02  0.12700000000E+01 0.  1.
         -4   -1    0    0    0  501 -0.00000000000E+00 -0.00000000000E+00 -0.10532462519E+03  0.10533228171E+03  0.12700000000E+01 0.  1.
         25    2    1    2    0    0  0.00000000000E+00  0.00000000000E+00 -0.68258651023E+02  0.14242000664E+03  0.12499685937E+03 0.  0.
    9000005    1    3    3    0    0 -0.40912118971E+02 -0.33726141372E+02 -0.71811918984E+02  0.89270408304E+02  0.10000000000E+01 0.  0.
    9000005    1    3    3    0    0  0.40912118971E+02  0.33726141372E+02  0.35532679607E+01  0.53149598341E+02  0.10000000000E+01 0.  0.
<mgrwt>
<rscale>  0 0.12499686E+03</rscale>
<asrwt>0</asrwt>
<pdfrwt beam="1">  1        4 0.57047197E-02 0.12499686E+03</pdfrwt>
<pdfrwt beam="2">  1       -4 0.16206050E-01 0.12499686E+03</pdfrwt>
<totfact> 0.10084387E+04</totfact>
</mgrwt>
</event>
<event>
 5    1  0.3340698E-002  0.1249984E+03  0.7818608E-02  0.1235072E+00
         -4   -1    0    0    0  501 -0.00000000000E+00  0.00000000000E+00  0.14924373485E+03  0.14924913833E+03  0.12700000000E+01 0.  1.
          4   -1    0    0  501    0  0.00000000000E+00 -0.00000000000E+00 -0.26151690808E+02  0.26182510042E+02  0.12700000000E+01 0.  1.
         25    2    1    2    0    0  0.00000000000E+00  0.00000000000E+00  0.12309204405E+03  0.17543164838E+03  0.12499844777E+03 0.  0.
    9000005    1    3    3    0    0  0.93901729796E+01 -0.45075882091E+02  0.12084398408E+03  0.12932238392E+03  0.10000000000E+01 0.  0.
    9000005    1    3    3    0    0 -0.93901729796E+01  0.45075882091E+02  0.22480599659E+01  0.46109264454E+02  0.10000000000E+01 0.  0.
<mgrwt>
<rscale>  0 0.12499845E+03</rscale>
<asrwt>0</asrwt>
<pdfrwt beam="2">  1        4 0.40261233E-02 0.12499845E+03</pdfrwt>
<pdfrwt beam="1">  1       -4 0.22963361E-01 0.12499845E+03</pdfrwt>
<totfact> 0.94449133E+03</totfact>
</mgrwt>
</event>
<event>
 5    1  0.3340698E-002  0.1250007E+03  0.7818608E-02  0.1235068E+00
          4   -1    0    0  501    0  0.00000000000E+00  0.00000000000E+00  0.42259778041E+02  0.42278856892E+02  0.12700000000E+01 0.  1.
         -4   -1    0    0    0  501 -0.00000000000E+00 -0.00000000000E+00 -0.92390946661E+02  0.92399674917E+02  0.12700000000E+01 0.  1.
         25    2    1    2    0    0  0.00000000000E+00  0.00000000000E+00 -0.50131168619E+02  0.13467853181E+03  0.12500069145E+03 0.  0.
    9000005    1    3    3    0    0  0.29858267855E+02  0.24149119689E+02 -0.78183673448E+02  0.87111324952E+02  0.10000000000E+01 0.  0.
    9000005    1    3    3    0    0 -0.29858267855E+02 -0.24149119689E+02  0.28052504829E+02  0.47567206857E+02  0.10000000000E+01 0.  0.
<mgrwt>
<rscale>  0 0.12500069E+03</rscale>
<asrwt>0</asrwt>
<pdfrwt beam="1">  1        4 0.65036434E-02 0.12500069E+03</pdfrwt>
<pdfrwt beam="2">  1       -4 0.14216131E-01 0.12500069E+03</pdfrwt>
<totfact> 0.10244691E+04</totfact>
</mgrwt>
</event>
<event>
 5    1  0.3340698E-002  0.1249975E+03  0.7818608E-02  0.1235073E+00
         -4   -1    0    0    0  501 -0.00000000000E+00  0.00000000000E+00  0.30453294728E+03  0.30453559543E+03  0.12700000000E+01 0.  1.
          4   -1    0    0  501    0  0.00000000000E+00 -0.00000000000E+00 -0.12792363753E+02  0.12855250694E+02  0.12700000000E+01 0.  1.
         25    2    1    2    0    0  0.00000000000E+00  0.00000000000E+00  0.29174058353E+03  0.31739084612E+03  0.12499752446E+03 0.  0.
    9000005    1    3    3    0    0  0.38827290906E+02  0.48963719505E+02  0.14510459802E+03  0.15799160963E+03  0.10000000000E+01 0.  0.
    9000005    1    3    3    0    0 -0.38827290906E+02 -0.48963719505E+02  0.14663598551E+03  0.15939923649E+03  0.10000000000E+01 0.  0.
<mgrwt>
<rscale>  0 0.12499752E+03</rscale>
<asrwt>0</asrwt>
<pdfrwt beam="2">  1        4 0.19730975E-02 0.12499752E+03</pdfrwt>
<pdfrwt beam="1">  1       -4 0.46856256E-01 0.12499752E+03</pdfrwt>
<totfact> 0.73471564E+03</totfact>
</mgrwt>
</event>
<event>
 5    1  0.3340698E-002  0.1249950E+03  0.7818608E-02  0.1235077E+00
         -4   -1    0    0    0  501 -0.00000000000E+00  0.00000000000E+00  0.43090942127E+02  0.43109653135E+02  0.12700000000E+01 0.  1.
          4   -1    0    0  501    0  0.00000000000E+00 -0.00000000000E+00 -0.90601215512E+02  0.90610116170E+02  0.12700000000E+01 0.  1.
         25    2    1    2    0    0  0.00000000000E+00  0.00000000000E+00 -0.47510273385E+02  0.13371976930E+03  0.12499500240E+03 0.  0.
    9000005    1    3    3    0    0  0.47233711941E+02  0.10293844041E+00 -0.67524293507E+02  0.82410948021E+02  0.10000000000E+01 0.  0.
    9000005    1    3    3    0    0 -0.47233711941E+02 -0.10293844041E+00  0.20014020122E+02  0.51308821283E+02  0.10000000000E+01 0.  0.
<mgrwt>
<rscale>  0 0.12499500E+03</rscale>
<asrwt>0</asrwt>
<pdfrwt beam="2">  1        4 0.13940772E-01 0.12499500E+03</pdfrwt>
<pdfrwt beam="1">  1       -4 0.66314997E-02 0.12499500E+03</pdfrwt>
<totfact> 0.10266283E+04</totfact>
</mgrwt>
</event>
<event>
 5    1  0.3340698E-002  0.1250127E+03  0.7818608E-02  0.1235049E+00
         -4   -1    0    0    0  501 -0.00000000000E+00  0.00000000000E+00  0.15941574007E+04  0.15941579065E+04  0.12700000000E+01 0.  1.
          4   -1    0    0  501    0  0.00000000000E+00 -0.00000000000E+00 -0.22857858210E+01  0.26149028317E+01  0.12700000000E+01 0.  1.
         25    2    1    2    0    0  0.00000000000E+00  0.00000000000E+00  0.15918716148E+04  0.15967728094E+04  0.12501266581E+03 0.  0.
    9000005    1    3    3    0    0  0.46976840442E+02  0.28830501052E+02  0.41961861545E+03  0.42322429486E+03  0.10000000000E+01 0.  0.
    9000005    1    3    3    0    0 -0.46976840442E+02 -0.28830501052E+02  0.11722529994E+04  0.11735485145E+04  0.10000000000E+01 0.  0.
<mgrwt>
<rscale>  0 0.12501267E+03</rscale>
<asrwt>0</asrwt>
<pdfrwt beam="2">  1        4 0.37701410E-03 0.12501267E+03</pdfrwt>
<pdfrwt beam="1">  1       -4 0.24528090E+00 0.12501267E+03</pdfrwt>
<totfact> 0.16099956E+03</totfact>
</mgrwt>
</event>
<event>
 5    1  0.3340698E-002  0.1249988E+03  0.7818608E-02  0.1235071E+00
          4   -1    0    0  501    0  0.00000000000E+00  0.00000000000E+00  0.38865575059E+04  0.38865577134E+04  0.12700000000E+01 0.  1.
         -4   -1    0    0    0  501 -0.00000000000E+00 -0.00000000000E+00 -0.60355668401E+00  0.14061225661E+01  0.12700000000E+01 0.  1.
         25    2    1    2    0    0  0.00000000000E+00  0.00000000000E+00  0.38859539493E+04  0.38879638360E+04  0.12499877732E+03 0.  0.
    9000005    1    3    3    0    0  0.28436470961E+02  0.94736583384E+01  0.23741291263E+03  0.23929954903E+03  0.10000000000E+01 0.  0.
    9000005    1    3    3    0    0 -0.28436470961E+02 -0.94736583384E+01  0.36485410366E+04  0.36486642870E+04  0.10000000000E+01 0.  0.
<mgrwt>
<rscale>  0 0.12499878E+03</rscale>
<asrwt>0</asrwt>
<pdfrwt beam="1">  1        4 0.59799574E+00 0.12499878E+03</pdfrwt>
<pdfrwt beam="2">  1       -4 0.15460614E-03 0.12499878E+03</pdfrwt>
<totfact> 0.21008746E+01</totfact>
</mgrwt>
</event>
<event>
 5    1  0.3340698E-002  0.1249948E+03  0.7818608E-02  0.1235077E+00
          4   -1    0    0  501    0  0.00000000000E+00  0.00000000000E+00  0.11831265344E+04  0.11831272160E+04  0.12700000000E+01 0.  1.
         -4   -1    0    0    0  501 -0.00000000000E+00 -0.00000000000E+00 -0.31785129194E+01  0.34228415650E+01  0.12700000000E+01 0.  1.
         25    2    1    2    0    0  0.00000000000E+00  0.00000000000E+00  0.11799480215E+04  0.11865500576E+04  0.12499482299E+03 0.  0.
    9000005    1    3    3    0    0 -0.15302365261E+01  0.10657785509E+02  0.56467650918E+01  0.12199015197E+02  0.10000000000E+01 0.  0.
    9000005    1    3    3    0    0  0.15302365261E+01 -0.10657785509E+02  0.11743012564E+04  0.11743510424E+04  0.10000000000E+01 0.  0.
<mgrwt>
<rscale>  0 0.12499482E+03</rscale>
<asrwt>0</asrwt>
<pdfrwt beam="1">  1        4 0.18203852E+00 0.12499482E+03</pdfrwt>
<pdfrwt beam="2">  1       -4 0.50784836E-03 0.12499482E+03</pdfrwt>
<totfact> 0.25070334E+03</totfact>
</mgrwt>
</event>
<event>
 5    1  0.3340698E-002  0.1250012E+03  0.7818608E-02  0.1235067E+00
         -4   -1    0    0    0  501 -0.00000000000E+00  0.00000000000E+00  0.37057845350E+03  0.37058062969E+03  0.12700000000E+01 0.  1.
          4   -1    0    0  501    0  0.00000000000E+00 -0.00000000000E+00 -0.10500693175E+02  0.10577214054E+02  0.12700000000E+01 0.  1.
         25    2    1    2    0    0  0.00000000000E+00  0.00000000000E+00  0.36007776033E+03  0.38115784374E+03  0.12500123345E+03 0.  0.
    9000005    1    3    3    0    0 -0.92374791544E+01  0.50705860786E+02  0.72279163929E+02  0.88778898830E+02  0.10000000000E+01 0.  0.
    9000005    1    3    3    0    0  0.92374791544E+01 -0.50705860786E+02  0.28779859640E+03  0.29237894491E+03  0.10000000000E+01 0.  0.
<mgrwt>
<rscale>  0 0.12500123E+03</rscale>
<asrwt>0</asrwt>
<pdfrwt beam="2">  1        4 0.16215449E-02 0.12500123E+03</pdfrwt>
<pdfrwt beam="1">  1       -4 0.57018124E-01 0.12500123E+03</pdfrwt>
<totfact> 0.66425738E+03</totfact>
</mgrwt>
</event>
<event>
 5    1  0.3340698E-002  0.1250012E+03  0.7818608E-02  0.1235067E+00
          4   -1    0    0  501    0  0.00000000000E+00  0.00000000000E+00  0.34742442897E+02  0.34765647390E+02  0.12700000000E+01 0. -1.
         -4   -1    0    0    0  501 -0.00000000000E+00 -0.00000000000E+00 -0.11237236133E+03  0.11237953769E+03  0.12700000000E+01 0. -1.
         25    2    1    2    0    0  0.00000000000E+00  0.00000000000E+00 -0.77629918436E+02  0.14714518508E+03  0.12500120502E+03 0.  0.
    9000005    1    3    3    0    0 -0.59658841398E+02  0.18414523236E+02 -0.41941238393E+02  0.75221934972E+02  0.10000000000E+01 0.  0.
    9000005    1    3    3    0    0  0.59658841398E+02 -0.18414523236E+02 -0.35688680043E+02  0.71923250108E+02  0.10000000000E+01 0.  0.
<mgrwt>
<rscale>  0 0.12500121E+03</rscale>
<asrwt>0</asrwt>
<pdfrwt beam="1">  1        4 0.53473282E-02 0.12500121E+03</pdfrwt>
<pdfrwt beam="2">  1       -4 0.17290392E-01 0.12500121E+03</pdfrwt>
<totfact> 0.99873128E+03</totfact>
</mgrwt>
</event>
<event>
 5    1  0.3340698E-002  0.1249974E+03  0.7818608E-02  0.1235073E+00
         -4   -1    0    0    0  501 -0.00000000000E+00  0.00000000000E+00  0.11945423818E+02  0.12012745323E+02  0.12700000000E+01 0. -1.
          4   -1    0    0  501    0  0.00000000000E+00 -0.00000000000E+00 -0.32600687740E+03  0.32600935112E+03  0.12700000000E+01 0. -1.
         25    2    1    2    0    0  0.00000000000E+00  0.00000000000E+00 -0.31406145359E+03  0.33802209644E+03  0.12499736418E+03 0.  0.
    9000005    1    3    3    0    0 -0.35460462096E+02 -0.37210248901E+02 -0.25313716680E+03  0.25830499843E+03  0.10000000000E+01 0.  0.
    9000005    1    3    3    0    0  0.35460462096E+02  0.37210248901E+02 -0.60924286783E+02  0.79717098011E+02  0.10000000000E+01 0.  0.
<mgrwt>
<rscale>  0 0.12499736E+03</rscale>
<asrwt>0</asrwt>
<pdfrwt beam="2">  1        4 0.50160266E-01 0.12499736E+03</pdfrwt>
<pdfrwt beam="1">  1       -4 0.18431266E-02 0.12499736E+03</pdfrwt>
<totfact> 0.71066840E+03</totfact>
</mgrwt>
</event>
<event>
 5    1  0.3340698E-002  0.1250232E+03  0.7818608E-02  0.1235033E+00
         -4   -1    0    0    0  501 -0.00000000000E+00  0.00000000000E+00  0.77504090675E+03  0.77504194727E+03  0.12700000000E+01 0.  1.
          4   -1    0    0  501    0  0.00000000000E+00 -0.00000000000E+00 -0.49608935308E+01  0.51208753767E+01  0.12700000000E+01 0.  1.
         25    2    1    2    0    0  0.00000000000E+00  0.00000000000E+00  0.77008001322E+03  0.78016282265E+03  0.12502321020E+03 0.  0.
    9000005    1    3    3    0    0  0.17417344058E+02 -0.32826076752E+00  0.75961652235E+03  0.75981690733E+03  0.10000000000E+01 0.  0.
    9000005    1    3    3    0    0 -0.17417344058E+02  0.32826076752E+00  0.10463490862E+02  0.20345915320E+02  0.10000000000E+01 0.  0.
<mgrwt>
<rscale>  0 0.12502321E+03</rscale>
<asrwt>0</asrwt>
<pdfrwt beam="2">  1        4 0.77560047E-03 0.12502321E+03</pdfrwt>
<pdfrwt beam="1">  1       -4 0.11924949E+00 0.12502321E+03</pdfrwt>
<totfact> 0.39145923E+03</totfact>
</mgrwt>
</event>
<event>
 5    1  0.3340698E-002  0.1249990E+03  0.7818608E-02  0.1235071E+00
         -4   -1    0    0    0  501 -0.00000000000E+00  0.00000000000E+00  0.32964908955E+03  0.32965153593E+03  0.12700000000E+01 0.  1.
          4   -1    0    0  501    0  0.00000000000E+00 -0.00000000000E+00 -0.11813002454E+02  0.11881074320E+02  0.12700000000E+01 0.  1.
         25    2    1    2    0    0  0.00000000000E+00  0.00000000000E+00  0.31783608710E+03  0.34153261025E+03  0.12499898241E+03 0.  0.
    9000005    1    3    3    0    0  0.43841126240E+02  0.44499649189E+02  0.15424650010E+03  0.16641888691E+03  0.10000000000E+01 0.  0.
    9000005    1    3    3    0    0 -0.43841126240E+02 -0.44499649189E+02  0.16358958700E+03  0.17511372334E+03  0.10000000000E+01 0.  0.
<mgrwt>
<rscale>  0 0.12499898E+03</rscale>
<asrwt>0</asrwt>
<pdfrwt beam="2">  1        4 0.18228094E-02 0.12499898E+03</pdfrwt>
<pdfrwt beam="1">  1       -4 0.50720670E-01 0.12499898E+03</pdfrwt>
<totfact> 0.70667818E+03</totfact>
</mgrwt>
</event>
<event>
 5    1  0.3340698E-002  0.1249966E+03  0.7818608E-02  0.1235075E+00
         -4   -1    0    0    0  501 -0.00000000000E+00  0.00000000000E+00  0.80469493091E+01  0.81465509993E+01  0.12700000000E+01 0.  1.
          4   -1    0    0  501    0  0.00000000000E+00 -0.00000000000E+00 -0.48231996990E+03  0.48232164192E+03  0.12700000000E+01 0.  1.
         25    2    1    2    0    0  0.00000000000E+00  0.00000000000E+00 -0.47427302059E+03  0.49046819292E+03  0.12499660077E+03 0.  0.
    9000005    1    3    3    0    0 -0.32856570923E+02  0.19387116733E+01 -0.28701837316E+02  0.43681899239E+02  0.10000000000E+01 0.  0.
    9000005    1    3    3    0    0  0.32856570923E+02 -0.19387116733E+01 -0.44557118328E+03  0.44678629368E+03  0.10000000000E+01 0.  0.
<mgrwt>
<rscale>  0 0.12499660E+03</rscale>
<asrwt>0</asrwt>
<pdfrwt beam="2">  1        4 0.74210840E-01 0.12499660E+03</pdfrwt>
<pdfrwt beam="1">  1       -4 0.12457829E-02 0.12499660E+03</pdfrwt>
<totfact> 0.56615819E+03</totfact>
</mgrwt>
</event>
<event>
 5    1  0.3340698E-002  0.1249981E+03  0.7818608E-02  0.1235072E+00
         -4   -1    0    0    0  501 -0.00000000000E+00  0.00000000000E+00  0.21353345611E+02  0.21391079187E+02  0.12700000000E+01 0. -1.
          4   -1    0    0  501    0  0.00000000000E+00 -0.00000000000E+00 -0.18272696352E+03  0.18273137688E+03  0.12700000000E+01 0. -1.
         25    2    1    2    0    0  0.00000000000E+00  0.00000000000E+00 -0.16137361790E+03  0.20412245607E+03  0.12499813004E+03 0.  0.
    9000005    1    3    3    0    0  0.42172695695E+02 -0.38645461761E+02 -0.39597195795E+02  0.69576906311E+02  0.10000000000E+01 0.  0.
    9000005    1    3    3    0    0 -0.42172695695E+02  0.38645461761E+02 -0.12177642211E+03  0.13454554975E+03  0.10000000000E+01 0.  0.
<mgrwt>
<rscale>  0 0.12499813E+03</rscale>
<asrwt>0</asrwt>
<pdfrwt beam="2">  1        4 0.28115082E-01 0.12499813E+03</pdfrwt>
<pdfrwt beam="1">  1       -4 0.32883723E-02 0.12499813E+03</pdfrwt>
<totfact> 0.89448590E+03</totfact>
</mgrwt>
</event>
<event>
 5    1  0.3340698E-002  0.1249990E+03  0.7818608E-02  0.1235071E+00
          4   -1    0    0  501    0  0.00000000000E+00  0.00000000000E+00  0.42593071973E+03  0.42593261311E+03  0.12700000000E+01 0. -1.
         -4   -1    0    0    0  501 -0.00000000000E+00 -0.00000000000E+00 -0.91250520240E+01  0.92130057224E+01  0.12700000000E+01 0. -1.
         25    2    1    2    0    0  0.00000000000E+00  0.00000000000E+00  0.41680566771E+03  0.43514561884E+03  0.12499897982E+03 0.  0.
    9000005    1    3    3    0    0  0.23731849671E+02  0.57314082108E+02  0.23470406006E+03  0.24276552578E+03  0.10000000000E+01 0.  0.
    9000005    1    3    3    0    0 -0.23731849671E+02 -0.57314082108E+02  0.18210160765E+03  0.19238009305E+03  0.10000000000E+01 0.  0.
<mgrwt>
<rscale>  0 0.12499898E+03</rscale>
<asrwt>0</asrwt>
<pdfrwt beam="1">  1        4 0.65534724E-01 0.12499898E+03</pdfrwt>
<pdfrwt beam="2">  1       -4 0.14107653E-02 0.12499898E+03</pdfrwt>
<totfact> 0.61273697E+03</totfact>
</mgrwt>
</event>
<event>
 5    1  0.3340698E-002  0.1250002E+03  0.7818608E-02  0.1235069E+00
          4   -1    0    0  501    0  0.00000000000E+00  0.00000000000E+00  0.16555432379E+03  0.16555919493E+03  0.12700000000E+01 0.  1.
         -4   -1    0    0    0  501 -0.00000000000E+00 -0.00000000000E+00 -0.23572747058E+02  0.23606933386E+02  0.12700000000E+01 0.  1.
         25    2    1    2    0    0  0.00000000000E+00  0.00000000000E+00  0.14198157673E+03  0.18916612831E+03  0.12500022388E+03 0.  0.
    9000005    1    3    3    0    0  0.52476289997E+02  0.32784070472E+02  0.84244944314E+02  0.10453117684E+03  0.10000000000E+01 0.  0.
    9000005    1    3    3    0    0 -0.52476289997E+02 -0.32784070472E+02  0.57736632416E+02  0.84634951476E+02  0.10000000000E+01 0.  0.
<mgrwt>
<rscale>  0 0.12500022E+03</rscale>
<asrwt>0</asrwt>
<pdfrwt beam="1">  1        4 0.25472900E-01 0.12500022E+03</pdfrwt>
<pdfrwt beam="2">  1       -4 0.36295809E-02 0.12500022E+03</pdfrwt>
<totfact> 0.91992146E+03</totfact>
</mgrwt>
</event>
<event>
 5    1  0.3340698E-002  0.1249936E+03  0.7818608E-02  0.1235079E+00
         -4   -1    0    0    0  501 -0.00000000000E+00  0.00000000000E+00  0.15738183506E+02  0.15789341977E+02  0.12700000000E+01 0. -1.
          4   -1    0    0  501    0  0.00000000000E+00 -0.00000000000E+00 -0.24772113955E+03  0.24772439501E+03  0.12700000000E+01 0. -1.
         25    2    1    2    0    0  0.00000000000E+00  0.00000000000E+00 -0.23198295605E+03  0.26351373698E+03  0.12499359057E+03 0.  0.
    9000005    1    3    3    0    0 -0.58050202174E+01  0.29951587983E+02 -0.10200548499E+01  0.30542370477E+02  0.10000000000E+01 0.  0.
    9000005    1    3    3    0    0  0.58050202174E+01 -0.29951587983E+02 -0.23096290120E+03  0.23297136651E+03  0.10000000000E+01 0.  0.
<mgrwt>
<rscale>  0 0.12499359E+03</rscale>
<asrwt>0</asrwt>
<pdfrwt beam="2">  1        4 0.38115127E-01 0.12499359E+03</pdfrwt>
<pdfrwt beam="1">  1       -4 0.24254449E-02 0.12499359E+03</pdfrwt>
<totfact> 0.80426945E+03</totfact>
</mgrwt>
</event>
<event>
 5    1  0.3340698E-002  0.1250069E+03  0.7818608E-02  0.1235059E+00
          4   -1    0    0  501    0  0.00000000000E+00  0.00000000000E+00  0.10518920708E+02  0.10595309947E+02  0.12700000000E+01 0.  1.
         -4   -1    0    0    0  501 -0.00000000000E+00 -0.00000000000E+00 -0.36997429329E+03  0.36997647303E+03  0.12700000000E+01 0.  1.
         25    2    1    2    0    0  0.00000000000E+00  0.00000000000E+00 -0.35945537258E+03  0.38057178298E+03  0.12500686829E+03 0.  0.
    9000005    1    3    3    0    0  0.22919318553E+02 -0.52454480647E+02 -0.10337971450E+03  0.11817416415E+03  0.10000000000E+01 0.  0.
    9000005    1    3    3    0    0 -0.22919318553E+02  0.52454480647E+02 -0.25607565808E+03  0.26239761883E+03  0.10000000000E+01 0.  0.
<mgrwt>
<rscale>  0 0.12500687E+03</rscale>
<asrwt>0</asrwt>
<pdfrwt beam="1">  1        4 0.16243395E-02 0.12500687E+03</pdfrwt>
<pdfrwt beam="2">  1       -4 0.56925156E-01 0.12500687E+03</pdfrwt>
<totfact> 0.66477159E+03</totfact>
</mgrwt>
</event>
<event>
 5    1  0.3340698E-002  0.1250000E+03  0.7818608E-02  0.1235069E+00
         -4   -1    0    0    0  501 -0.00000000000E+00  0.00000000000E+00  0.47439690112E+02  0.47456686546E+02  0.12700000000E+01 0.  1.
          4   -1    0    0  501    0  0.00000000000E+00 -0.00000000000E+00 -0.82304748667E+02  0.82314546425E+02  0.12700000000E+01 0.  1.
         25    2    1    2    0    0  0.00000000000E+00  0.00000000000E+00 -0.34865058555E+02  0.12977123297E+03  0.12500000239E+03 0.  0.
    9000005    1    3    3    0    0  0.27681391692E+02  0.20507587880E+02 -0.71561211009E+02  0.79428128064E+02  0.10000000000E+01 0.  0.
    9000005    1    3    3    0    0 -0.27681391692E+02 -0.20507587880E+02  0.36696152454E+02  0.50343104906E+02  0.10000000000E+01 0.  0.
<mgrwt>
<rscale>  0 0.12500000E+03</rscale>
<asrwt>0</asrwt>
<pdfrwt beam="2">  1        4 0.12664330E-01 0.12500000E+03</pdfrwt>
<pdfrwt beam="1">  1       -4 0.73004749E-02 0.12500000E+03</pdfrwt>
<totfact> 0.10349403E+04</totfact>
</mgrwt>
</event>
<event>
 5    1  0.3340698E-002  0.1249973E+03  0.7818608E-02  0.1235073E+00
         -4   -1    0    0    0  501 -0.00000000000E+00  0.00000000000E+00  0.41680148421E+02  0.41699492472E+02  0.12700000000E+01 0.  1.
          4   -1    0    0  501    0  0.00000000000E+00 -0.00000000000E+00 -0.93670301304E+02  0.93678910361E+02  0.12700000000E+01 0.  1.
         25    2    1    2    0    0  0.00000000000E+00  0.00000000000E+00 -0.51990152882E+02  0.13537840283E+03  0.12499734380E+03 0.  0.
    9000005    1    3    3    0    0 -0.15667767687E+02  0.12494810181E+01  0.39509712983E+02  0.42533017376E+02  0.10000000000E+01 0.  0.
    9000005    1    3    3    0    0  0.15667767687E+02 -0.12494810181E+01 -0.91499865866E+02  0.92845385456E+02  0.10000000000E+01 0.  0.
<mgrwt>
<rscale>  0 0.12499734E+03</rscale>
<asrwt>0</asrwt>
<pdfrwt beam="2">  1        4 0.14412966E-01 0.12499734E+03</pdfrwt>
<pdfrwt beam="1">  1       -4 0.64144808E-02 0.12499734E+03</pdfrwt>
<totfact> 0.10230714E+04</totfact>
</mgrwt>
</event>
<event>
 5    1  0.3340698E-002  0.1250000E+03  0.7818608E-02  0.1235069E+00
         -4   -1    0    0    0  501 -0.00000000000E+00  0.00000000000E+00  0.77091623407E+02  0.77102083626E+02  0.12700000000E+01 0.  1.
          4   -1    0    0  501    0  0.00000000000E+00 -0.00000000000E+00 -0.50648371018E+02  0.50664291042E+02  0.12700000000E+01 0.  1.
         25    2    1    2    0    0  0.00000000000E+00  0.00000000000E+00  0.26443252389E+02  0.12776637467E+03  0.12500000360E+03 0.  0.
    9000005    1    3    3    0    0 -0.54623531784E+02 -0.22074581227E+02  0.34521051761E+02  0.68291437059E+02  0.10000000000E+01 0.  0.
    9000005    1    3    3    0    0  0.54623531784E+02  0.22074581227E+02 -0.80777993723E+01  0.59474937609E+02  0.10000000000E+01 0.  0.
<mgrwt>
<rscale>  0 0.12500000E+03</rscale>
<asrwt>0</asrwt>
<pdfrwt beam="2">  1        4 0.77940864E-02 0.12500000E+03</pdfrwt>
<pdfrwt beam="1">  1       -4 0.11862279E-01 0.12500000E+03</pdfrwt>
<totfact> 0.10392535E+04</totfact>
</mgrwt>
</event>
<event>
 5    1  0.3340698E-002  0.1250009E+03  0.7818608E-02  0.1235068E+00
         -4   -1    0    0    0  501 -0.00000000000E+00  0.00000000000E+00  0.18461983924E+02  0.18505614024E+02  0.12700000000E+01 0.  1.
          4   -1    0    0  501    0  0.00000000000E+00 -0.00000000000E+00 -0.21129117727E+03  0.21129499401E+03  0.12700000000E+01 0.  1.
         25    2    1    2    0    0  0.00000000000E+00  0.00000000000E+00 -0.19282919335E+03  0.22980060803E+03  0.12500088658E+03 0.  0.
    9000005    1    3    3    0    0 -0.15491765116E+02  0.40426983319E+02 -0.17926407847E+03  0.18442056717E+03  0.10000000000E+01 0.  0.
    9000005    1    3    3    0    0  0.15491765116E+02 -0.40426983319E+02 -0.13565114877E+02  0.45380040858E+02  0.10000000000E+01 0.  0.
<mgrwt>
<rscale>  0 0.12500089E+03</rscale>
<asrwt>0</asrwt>
<pdfrwt beam="2">  1        4 0.32509983E-01 0.12500089E+03</pdfrwt>
<pdfrwt beam="1">  1       -4 0.28439551E-02 0.12500089E+03</pdfrwt>
<totfact> 0.85338536E+03</totfact>
</mgrwt>
</event>
<event>
 5    1  0.3340698E-002  0.1249982E+03  0.7818608E-02  0.1235072E+00
         -4   -1    0    0    0  501 -0.00000000000E+00  0.00000000000E+00  0.42975589370E+02  0.42994350579E+02  0.12700000000E+01 0.  1.
          4   -1    0    0  501    0  0.00000000000E+00 -0.00000000000E+00 -0.90848897894E+02  0.90857774287E+02  0.12700000000E+01 0.  1.
         25    2    1    2    0    0  0.00000000000E+00  0.00000000000E+00 -0.47873308524E+02  0.13385212487E+03  0.12499815064E+03 0.  0.
    9000005    1    3    3    0    0 -0.46732958583E+02 -0.40101899346E+02 -0.35319897814E+02  0.70997372703E+02  0.10000000000E+01 0.  0.
    9000005    1    3    3    0    0  0.46732958583E+02  0.40101899346E+02 -0.12553410710E+02  0.62854752164E+02  0.10000000000E+01 0.  0.
<mgrwt>
<rscale>  0 0.12499815E+03</rscale>
<asrwt>0</asrwt>
<pdfrwt beam="2">  1        4 0.13978880E-01 0.12499815E+03</pdfrwt>
<pdfrwt beam="1">  1       -4 0.66137551E-02 0.12499815E+03</pdfrwt>
<totfact> 0.10262750E+04</totfact>
</mgrwt>
</event>
<event>
 5    1  0.3340698E-002  0.1249992E+03  0.7818608E-02  0.1235070E+00
          4   -1    0    0  501    0  0.00000000000E+00  0.00000000000E+00  0.34379484645E+03  0.34379719217E+03  0.12700000000E+01 0. -1.
         -4   -1    0    0    0  501 -0.00000000000E+00 -0.00000000000E+00 -0.11324132160E+02  0.11395124798E+02  0.12700000000E+01 0. -1.
         25    2    1    2    0    0  0.00000000000E+00  0.00000000000E+00  0.33247071429E+03  0.35519231697E+03  0.12499922469E+03 0.  0.
    9000005    1    3    3    0    0 -0.20211925010E+02  0.30312845000E+02  0.31050726836E+03  0.31263901578E+03  0.10000000000E+01 0.  0.
    9000005    1    3    3    0    0  0.20211925010E+02 -0.30312845000E+02  0.21963445923E+02  0.42553301182E+02  0.10000000000E+01 0.  0.
<mgrwt>
<rscale>  0 0.12499922E+03</rscale>
<asrwt>0</asrwt>
<pdfrwt beam="1">  1        4 0.52897161E-01 0.12499922E+03</pdfrwt>
<pdfrwt beam="2">  1       -4 0.17478154E-02 0.12499922E+03</pdfrwt>
<totfact> 0.69158271E+03</totfact>
</mgrwt>
</event>
<event>
 5    1  0.3340698E-002  0.1249899E+03  0.7818608E-02  0.1235085E+00
          4   -1    0    0  501    0  0.00000000000E+00  0.00000000000E+00  0.98514823822E+01  0.99330058455E+01  0.12700000000E+01 0. -1.
         -4   -1    0    0    0  501 -0.00000000000E+00 -0.00000000000E+00 -0.39473396999E+03  0.39473601301E+03  0.12700000000E+01 0. -1.
         25    2    1    2    0    0  0.00000000000E+00  0.00000000000E+00 -0.38488248761E+03  0.40466901885E+03  0.12498994180E+03 0.  0.
    9000005    1    3    3    0    0 -0.23913266083E+02  0.56971631996E+02 -0.22264146165E+03  0.23105806974E+03  0.10000000000E+01 0.  0.
    9000005    1    3    3    0    0  0.23913266083E+02 -0.56971631996E+02 -0.16224102596E+03  0.17361094911E+03  0.10000000000E+01 0.  0.
<mgrwt>
<rscale>  0 0.12498994E+03</rscale>
<asrwt>0</asrwt>
<pdfrwt beam="1">  1        4 0.15220412E-02 0.12498994E+03</pdfrwt>
<pdfrwt beam="2">  1       -4 0.60734719E-01 0.12498994E+03</pdfrwt>
<totfact> 0.64115444E+03</totfact>
</mgrwt>
</event>
<event>
 5    1  0.3340698E-002  0.1249975E+03  0.7818608E-02  0.1235073E+00
         -4   -1    0    0    0  501 -0.00000000000E+00  0.00000000000E+00  0.10013053876E+03  0.10013859242E+03  0.12700000000E+01 0.  1.
          4   -1    0    0  501    0  0.00000000000E+00 -0.00000000000E+00 -0.38990050942E+02  0.39010728940E+02  0.12700000000E+01 0.  1.
         25    2    1    2    0    0  0.00000000000E+00  0.00000000000E+00  0.61140487815E+02  0.13914932136E+03  0.12499749751E+03 0.  0.
    9000005    1    3    3    0    0  0.71609569183E+01  0.13255683988E+02 -0.36943409129E+02  0.39909997996E+02  0.10000000000E+01 0.  0.
    9000005    1    3    3    0    0 -0.71609569183E+01 -0.13255683988E+02  0.98083896944E+02  0.99239323363E+02  0.10000000000E+01 0.  0.
<mgrwt>
<rscale>  0 0.12499750E+03</rscale>
<asrwt>0</asrwt>
<pdfrwt beam="2">  1        4 0.60006796E-02 0.12499750E+03</pdfrwt>
<pdfrwt beam="1">  1       -4 0.15406908E-01 0.12499750E+03</pdfrwt>
<totfact> 0.10151819E+04</totfact>
</mgrwt>
</event>
<event>
 5    1  0.3340698E-002  0.1249984E+03  0.7818608E-02  0.1235072E+00
          4   -1    0    0  501    0  0.00000000000E+00  0.00000000000E+00  0.76461032639E+01  0.77508577023E+01  0.12700000000E+01 0. -1.
         -4   -1    0    0    0  501 -0.00000000000E+00 -0.00000000000E+00 -0.50728669679E+03  0.50728828651E+03  0.12700000000E+01 0. -1.
         25    2    1    2    0    0  0.00000000000E+00  0.00000000000E+00 -0.49964059352E+03  0.51503914422E+03  0.12499838952E+03 0.  0.
    9000005    1    3    3    0    0 -0.47284619760E+02 -0.39934654316E+02 -0.21424708095E+03  0.22300991811E+03  0.10000000000E+01 0.  0.
    9000005    1    3    3    0    0  0.47284619760E+02  0.39934654316E+02 -0.28539351257E+03  0.29202922611E+03  0.10000000000E+01 0.  0.
<mgrwt>
<rscale>  0 0.12499839E+03</rscale>
<asrwt>0</asrwt>
<pdfrwt beam="1">  1        4 0.11845043E-02 0.12499839E+03</pdfrwt>
<pdfrwt beam="2">  1       -4 0.78052262E-01 0.12499839E+03</pdfrwt>
<totfact> 0.54718055E+03</totfact>
</mgrwt>
</event>
<event>
 5    1  0.3340698E-002  0.1249963E+03  0.7818608E-02  0.1235075E+00
         -4   -1    0    0    0  501 -0.00000000000E+00  0.00000000000E+00  0.26742409147E+03  0.26742710708E+03  0.12700000000E+01 0. -1.
          4   -1    0    0  501    0  0.00000000000E+00 -0.00000000000E+00 -0.14575368424E+02  0.14630593450E+02  0.12700000000E+01 0. -1.
         25    2    1    2    0    0  0.00000000000E+00  0.00000000000E+00  0.25284872305E+03  0.28205770053E+03  0.12499627866E+03 0.  0.
    9000005    1    3    3    0    0  0.42191759239E+02 -0.14203455280E+02  0.27467541017E+02  0.52319676023E+02  0.10000000000E+01 0.  0.
    9000005    1    3    3    0    0 -0.42191759239E+02  0.14203455280E+02  0.22538118203E+03  0.22973802451E+03  0.10000000000E+01 0.  0.
<mgrwt>
<rscale>  0 0.12499628E+03</rscale>
<asrwt>0</asrwt>
<pdfrwt beam="2">  1        4 0.22468446E-02 0.12499628E+03</pdfrwt>
<pdfrwt beam="1">  1       -4 0.41146645E-01 0.12499628E+03</pdfrwt>
<totfact> 0.77912503E+03</totfact>
</mgrwt>
</event>
<event>
 5    1  0.3340698E-002  0.1249994E+03  0.7818608E-02  0.1235070E+00
          4   -1    0    0  501    0  0.00000000000E+00  0.00000000000E+00  0.26022861544E+03  0.26023171443E+03  0.12700000000E+01 0. -1.
         -4   -1    0    0    0  501 -0.00000000000E+00 -0.00000000000E+00 -0.14980631926E+02  0.15034368391E+02  0.12700000000E+01 0. -1.
         25    2    1    2    0    0  0.00000000000E+00  0.00000000000E+00  0.24524798352E+03  0.27526608282E+03  0.12499937173E+03 0.  0.
    9000005    1    3    3    0    0 -0.16790710304E+02  0.32692503348E+02  0.11323679857E+02  0.38470163155E+02  0.10000000000E+01 0.  0.
    9000005    1    3    3    0    0  0.16790710304E+02 -0.32692503348E+02  0.23392430366E+03  0.23679591967E+03  0.10000000000E+01 0.  0.
<mgrwt>
<rscale>  0 0.12499937E+03</rscale>
<asrwt>0</asrwt>
<pdfrwt beam="1">  1        4 0.40039543E-01 0.12499937E+03</pdfrwt>
<pdfrwt beam="2">  1       -4 0.23090846E-02 0.12499937E+03</pdfrwt>
<totfact> 0.78811104E+03</totfact>
</mgrwt>
</event>
<event>
 5    1  0.3340698E-002  0.1250017E+03  0.7818608E-02  0.1235067E+00
         -4   -1    0    0    0  501 -0.00000000000E+00  0.00000000000E+00  0.48773321814E+03  0.48773487160E+03  0.12700000000E+01 0.  1.
          4   -1    0    0  501    0  0.00000000000E+00 -0.00000000000E+00 -0.79571804073E+01  0.80578917860E+01  0.12700000000E+01 0.  1.
         25    2    1    2    0    0  0.00000000000E+00  0.00000000000E+00  0.47977603773E+03  0.49579276339E+03  0.12500167137E+03 0.  0.
    9000005    1    3    3    0    0  0.91048153290E+00  0.56926015243E+02  0.34208861966E+03  0.34679536313E+03  0.10000000000E+01 0.  0.
    9000005    1    3    3    0    0 -0.91048153290E+00 -0.56926015243E+02  0.13768741807E+03  0.14899740026E+03  0.10000000000E+01 0.  0.
<mgrwt>
<rscale>  0 0.12500167E+03</rscale>
<asrwt>0</asrwt>
<pdfrwt beam="2">  1        4 0.12320561E-02 0.12500167E+03</pdfrwt>
<pdfrwt beam="1">  1       -4 0.75043735E-01 0.12500167E+03</pdfrwt>
<totfact> 0.56190223E+03</totfact>
</mgrwt>
</event>
<event>
 5    1  0.3340698E-002  0.1250051E+03  0.7818608E-02  0.1235061E+00
         -4   -1    0    0    0  501 -0.00000000000E+00  0.00000000000E+00  0.11689354720E+02  0.11758142445E+02  0.12700000000E+01 0.  1.
          4   -1    0    0  501    0  0.00000000000E+00 -0.00000000000E+00 -0.33314840311E+03  0.33315082379E+03  0.12700000000E+01 0.  1.
         25    2    1    2    0    0  0.00000000000E+00  0.00000000000E+00 -0.32145904839E+03  0.34490896624E+03  0.12500510070E+03 0.  0.
    9000005    1    3    3    0    0 -0.36008333542E+02 -0.51056096493E+02 -0.15659655933E+03  0.16860251323E+03  0.10000000000E+01 0.  0.
    9000005    1    3    3    0    0  0.36008333542E+02  0.51056096493E+02 -0.16486248906E+03  0.17630645301E+03  0.10000000000E+01 0.  0.
<mgrwt>
<rscale>  0 0.12500510E+03</rscale>
<asrwt>0</asrwt>
<pdfrwt beam="2">  1        4 0.51259071E-01 0.12500510E+03</pdfrwt>
<pdfrwt beam="1">  1       -4 0.18038401E-02 0.12500510E+03</pdfrwt>
<totfact> 0.70280354E+03</totfact>
</mgrwt>
</event>
<event>
 5    1  0.3340698E-002  0.1250079E+03  0.7818608E-02  0.1235057E+00
          4   -1    0    0  501    0  0.00000000000E+00  0.00000000000E+00  0.34083855182E+03  0.34084091789E+03  0.12700000000E+01 0.  1.
         -4   -1    0    0    0  501 -0.00000000000E+00 -0.00000000000E+00 -0.11424558298E+02  0.11494930722E+02  0.12700000000E+01 0.  1.
         25    2    1    2    0    0  0.00000000000E+00  0.00000000000E+00  0.32941399353E+03  0.35233584861E+03  0.12500788410E+03 0.  0.
    9000005    1    3    3    0    0  0.24029171902E+02 -0.46205188263E+02  0.26207505146E+03  0.26720152156E+03  0.10000000000E+01 0.  0.
    9000005    1    3    3    0    0 -0.24029171902E+02  0.46205188263E+02  0.67338942068E+02  0.85134327058E+02  0.10000000000E+01 0.  0.
<mgrwt>
<rscale>  0 0.12500788E+03</rscale>
<asrwt>0</asrwt>
<pdfrwt beam="1">  1        4 0.52442288E-01 0.12500788E+03</pdfrwt>
<pdfrwt beam="2">  1       -4 0.17632199E-02 0.12500788E+03</pdfrwt>
<totfact> 0.69456231E+03</totfact>
</mgrwt>
</event>
<event>
 5    1  0.3340698E-002  0.1249957E+03  0.7818608E-02  0.1235076E+00
          4   -1    0    0  501    0  0.00000000000E+00  0.00000000000E+00  0.62264169305E+02  0.62277120030E+02  0.12700000000E+01 0.  1.
         -4   -1    0    0    0  501 -0.00000000000E+00 -0.00000000000E+00 -0.62706496400E+02  0.62719355791E+02  0.12700000000E+01 0.  1.
         25    2    1    2    0    0  0.00000000000E+00  0.00000000000E+00 -0.44232709534E+00  0.12499647582E+03  0.12499569318E+03 0.  0.
    9000005    1    3    3    0    0  0.57988045868E+02 -0.21950870530E+02 -0.80010996657E+01  0.62525768899E+02  0.10000000000E+01 0.  0.
    9000005    1    3    3    0    0 -0.57988045868E+02  0.21950870530E+02  0.75587725703E+01  0.62470706922E+02  0.10000000000E+01 0.  0.
<mgrwt>
<rscale>  0 0.12499569E+03</rscale>
<asrwt>0</asrwt>
<pdfrwt beam="1">  1        4 0.95810883E-02 0.12499569E+03</pdfrwt>
<pdfrwt beam="2">  1       -4 0.96491387E-02 0.12499569E+03</pdfrwt>
<totfact> 0.10453957E+04</totfact>
</mgrwt>
</event>
<event>
 5    1  0.3340698E-002  0.1250005E+03  0.7818608E-02  0.1235068E+00
          4   -1    0    0  501    0  0.00000000000E+00  0.00000000000E+00  0.71631180867E+03  0.71631293450E+03  0.12700000000E+01 0. -1.
         -4   -1    0    0    0  501 -0.00000000000E+00 -0.00000000000E+00 -0.53782388010E+01  0.55261516990E+01  0.12700000000E+01 0. -1.
         25    2    1    2    0    0  0.00000000000E+00  0.00000000000E+00  0.71093356987E+03  0.72183908620E+03  0.12500050242E+03 0.  0.
    9000005    1    3    3    0    0 -0.24861254821E+01 -0.46957491488E+02  0.11778414539E+03  0.12682780347E+03  0.10000000000E+01 0.  0.
    9000005    1    3    3    0    0  0.24861254821E+01  0.46957491488E+02  0.59314942448E+03  0.59501128274E+03  0.10000000000E+01 0.  0.
<mgrwt>
<rscale>  0 0.12500050E+03</rscale>
<asrwt>0</asrwt>
<pdfrwt beam="1">  1        4 0.11021324E+00 0.12500050E+03</pdfrwt>
<pdfrwt beam="2">  1       -4 0.83888618E-03 0.12500050E+03</pdfrwt>
<totfact> 0.41958159E+03</totfact>
</mgrwt>
</event>
<event>
 5    1  0.3340698E-002  0.1249997E+03  0.7818608E-02  0.1235070E+00
          4   -1    0    0  501    0  0.00000000000E+00  0.00000000000E+00  0.14523980306E+04  0.14523985859E+04  0.12700000000E+01 0.  1.
         -4   -1    0    0    0  501 -0.00000000000E+00 -0.00000000000E+00 -0.25389916947E+01  0.28389045115E+01  0.12700000000E+01 0.  1.
         25    2    1    2    0    0  0.00000000000E+00  0.00000000000E+00  0.14498590389E+04  0.14552374904E+04  0.12499968268E+03 0.  0.
    9000005    1    3    3    0    0 -0.62285236563E+02 -0.35018440995E+01  0.76773092999E+03  0.77026196484E+03  0.10000000000E+01 0.  0.
    9000005    1    3    3    0    0  0.62285236563E+02  0.35018440995E+01  0.68212810895E+03  0.68497552557E+03  0.10000000000E+01 0.  0.
<mgrwt>
<rscale>  0 0.12499968E+03</rscale>
<asrwt>0</asrwt>
<pdfrwt beam="1">  1        4 0.22346878E+00 0.12499968E+03</pdfrwt>
<pdfrwt beam="2">  1       -4 0.41372737E-03 0.12499968E+03</pdfrwt>
<totfact> 0.18825868E+03</totfact>
</mgrwt>
</event>
<event>
 5    1  0.3340698E-002  0.1250001E+03  0.7818608E-02  0.1235069E+00
          4   -1    0    0  501    0  0.00000000000E+00  0.00000000000E+00  0.56286441556E+02  0.56300767340E+02  0.12700000000E+01 0. -1.
         -4   -1    0    0    0  501 -0.00000000000E+00 -0.00000000000E+00 -0.69370639778E+02  0.69382264039E+02  0.12700000000E+01 0. -1.
         25    2    1    2    0    0  0.00000000000E+00  0.00000000000E+00 -0.13084198221E+02  0.12568303138E+03  0.12500011253E+03 0.  0.
    9000005    1    3    3    0    0 -0.50803651120E+02 -0.15086688903E+02 -0.39838543979E+02  0.66307833138E+02  0.10000000000E+01 0.  0.
    9000005    1    3    3    0    0  0.50803651120E+02  0.15086688903E+02  0.26754345758E+02  0.59375198240E+02  0.10000000000E+01 0.  0.
<mgrwt>
<rscale>  0 0.12500011E+03</rscale>
<asrwt>0</asrwt>
<pdfrwt beam="1">  1        4 0.86614487E-02 0.12500011E+03</pdfrwt>
<pdfrwt beam="2">  1       -4 0.10674402E-01 0.12500011E+03</pdfrwt>
<totfact> 0.10437891E+04</totfact>
</mgrwt>
</event>
<event>
 4    1  0.3340698E-002  0.1248594E+03  0.7818608E-02  0.1235289E+00
          4   -1    0    0  501    0  0.00000000000E+00  0.00000000000E+00  0.15591454655E+03  0.15591971885E+03  0.12700000000E+01 0. -1.
         -4   -1    0    0    0  501 -0.00000000000E+00 -0.00000000000E+00 -0.24975724237E+02  0.25007992745E+02  0.12700000000E+01 0. -1.
    9000005    1    1    2    0    0 -0.60215913599E+02  0.15468754189E+02  0.57371971638E+02  0.84603674485E+02  0.10000000000E+01 0.  0.
    9000005    1    1    2    0    0  0.60215913599E+02 -0.15468754189E+02  0.73566850673E+02  0.96324037107E+02  0.10000000000E+01 0.  0.
<mgrwt>
<rscale>  0 0.12485937E+03</rscale>
<asrwt>0</asrwt>
<pdfrwt beam="1">  1        4 0.23989733E-01 0.12485937E+03</pdfrwt>
<pdfrwt beam="2">  1       -4 0.38452992E-02 0.12485937E+03</pdfrwt>
<totfact> 0.93745535E+03</totfact>
</mgrwt>
</event>
<event>
 5    1  0.3340698E-002  0.1249995E+03  0.7818608E-02  0.1235070E+00
          4   -1    0    0  501    0  0.00000000000E+00  0.00000000000E+00  0.42959841064E+03  0.42960028786E+03  0.12700000000E+01 0.  1.
         -4   -1    0    0    0  501 -0.00000000000E+00 -0.00000000000E+00 -0.90464726354E+01  0.91351829288E+01  0.12700000000E+01 0.  1.
         25    2    1    2    0    0  0.00000000000E+00  0.00000000000E+00  0.42055193801E+03  0.43873547079E+03  0.12499952306E+03 0.  0.
    9000005    1    3    3    0    0 -0.30370550581E+02 -0.49785800659E+02  0.28909046556E+03  0.29491573977E+03  0.10000000000E+01 0.  0.
    9000005    1    3    3    0    0  0.30370550581E+02  0.49785800659E+02  0.13146147245E+03  0.14381973102E+03  0.10000000000E+01 0.  0.
<mgrwt>
<rscale>  0 0.12499952E+03</rscale>
<asrwt>0</asrwt>
<pdfrwt beam="1">  1        4 0.66099012E-01 0.12499952E+03</pdfrwt>
<pdfrwt beam="2">  1       -4 0.13987337E-02 0.12499952E+03</pdfrwt>
<totfact> 0.60952728E+03</totfact>
</mgrwt>
</event>
<event>
 5    1  0.3340698E-002  0.1250002E+03  0.7818608E-02  0.1235069E+00
          4   -1    0    0  501    0  0.00000000000E+00  0.00000000000E+00  0.25948349052E+02  0.25979409510E+02  0.12700000000E+01 0. -1.
         -4   -1    0    0    0  501 -0.00000000000E+00 -0.00000000000E+00 -0.15041623798E+03  0.15042159934E+03  0.12700000000E+01 0. -1.
         25    2    1    2    0    0  0.00000000000E+00  0.00000000000E+00 -0.12446788892E+03  0.17640100885E+03  0.12500024219E+03 0.  0.
    9000005    1    3    3    0    0 -0.51968201239E+02  0.23672188344E+02 -0.26416043537E+02  0.62927528135E+02  0.10000000000E+01 0.  0.
    9000005    1    3    3    0    0  0.51968201239E+02 -0.23672188344E+02 -0.98051845386E+02  0.11347348071E+03  0.10000000000E+01 0.  0.
<mgrwt>
<rscale>  0 0.12500024E+03</rscale>
<asrwt>0</asrwt>
<pdfrwt beam="1">  1        4 0.39948555E-02 0.12500024E+03</pdfrwt>
<pdfrwt beam="2">  1       -4 0.23143761E-01 0.12500024E+03</pdfrwt>
<totfact> 0.94268362E+03</totfact>
</mgrwt>
</event>
<event>
 5    1  0.3340698E-002  0.1249986E+03  0.7818608E-02  0.1235072E+00
         -4   -1    0    0    0  501 -0.00000000000E+00  0.00000000000E+00  0.31505285786E+02  0.31530872688E+02  0.12700000000E+01 0. -1.
          4   -1    0    0  501    0  0.00000000000E+00 -0.00000000000E+00 -0.12390511917E+03  0.12391162761E+03  0.12700000000E+01 0. -1.
         25    2    1    2    0    0  0.00000000000E+00  0.00000000000E+00 -0.92399833388E+02  0.15544250030E+03  0.12499856675E+03 0.  0.
    9000005    1    3    3    0    0 -0.10205780478E+01 -0.47932021774E+01 -0.12367189056E+03  0.12377298931E+03  0.10000000000E+01 0.  0.
    9000005    1    3    3    0    0  0.10205780478E+01  0.47932021774E+01  0.31272057174E+02  0.31669510994E+02  0.10000000000E+01 0.  0.
<mgrwt>
<rscale>  0 0.12499857E+03</rscale>
<asrwt>0</asrwt>
<pdfrwt beam="2">  1        4 0.19064795E-01 0.12499857E+03</pdfrwt>
<pdfrwt beam="1">  1       -4 0.48494360E-02 0.12499857E+03</pdfrwt>
<totfact> 0.98231867E+03</totfact>
</mgrwt>
</event>
<event>
 5    1  0.3340698E-002  0.1250010E+03  0.7818608E-02  0.1235068E+00
          4   -1    0    0  501    0  0.00000000000E+00  0.00000000000E+00  0.13226115328E+02  0.13286949487E+02  0.12700000000E+01 0.  1.
         -4   -1    0    0    0  501 -0.00000000000E+00 -0.00000000000E+00 -0.29460872615E+03  0.29461146349E+03  0.12700000000E+01 0.  1.
         25    2    1    2    0    0  0.00000000000E+00  0.00000000000E+00 -0.28138261082E+03  0.30789841298E+03  0.12500103617E+03 0.  0.
    9000005    1    3    3    0    0  0.21614599289E+01 -0.61762412924E+02 -0.16354004318E+03  0.17483024133E+03  0.10000000000E+01 0.  0.
    9000005    1    3    3    0    0 -0.21614599289E+01  0.61762412924E+02 -0.11784256764E+03  0.13306817165E+03  0.10000000000E+01 0.  0.
<mgrwt>
<rscale>  0 0.12500104E+03</rscale>
<asrwt>0</asrwt>
<pdfrwt beam="1">  1        4 0.20396773E-02 0.12500104E+03</pdfrwt>
<pdfrwt beam="2">  1       -4 0.45329305E-01 0.12500104E+03</pdfrwt>
<totfact> 0.74616925E+03</totfact>
</mgrwt>
</event>
<event>
 5    1  0.3340698E-002  0.1249990E+03  0.7818608E-02  0.1235071E+00
          4   -1    0    0  501    0  0.00000000000E+00  0.00000000000E+00  0.16223806191E+02  0.16273438092E+02  0.12700000000E+01 0. -1.
         -4   -1    0    0    0  501 -0.00000000000E+00 -0.00000000000E+00 -0.24034992914E+03  0.24035328443E+03  0.12700000000E+01 0. -1.
         25    2    1    2    0    0  0.00000000000E+00  0.00000000000E+00 -0.22412612295E+03  0.25662672252E+03  0.12499902290E+03 0.  0.
    9000005    1    3    3    0    0  0.43012556679E+02  0.35126161255E+02 -0.17089810008E+03  0.17969721157E+03  0.10000000000E+01 0.  0.
    9000005    1    3    3    0    0 -0.43012556679E+02 -0.35126161255E+02 -0.53228022871E+02  0.76929510952E+02  0.10000000000E+01 0.  0.
<mgrwt>
<rscale>  0 0.12499902E+03</rscale>
<asrwt>0</asrwt>
<pdfrwt beam="1">  1        4 0.25000463E-02 0.12499902E+03</pdfrwt>
<pdfrwt beam="2">  1       -4 0.36980985E-01 0.12499902E+03</pdfrwt>
<totfact> 0.81383567E+03</totfact>
</mgrwt>
</event>
<event>
 5    1  0.3340698E-002  0.1250064E+03  0.7818608E-02  0.1235059E+00
          4   -1    0    0  501    0  0.00000000000E+00  0.00000000000E+00  0.54511287298E+02  0.54526079474E+02  0.12700000000E+01 0.  1.
         -4   -1    0    0    0  501 -0.00000000000E+00 -0.00000000000E+00 -0.71636618838E+02  0.71647875464E+02  0.12700000000E+01 0.  1.
         25    2    1    2    0    0  0.00000000000E+00  0.00000000000E+00 -0.17125331540E+02  0.12617395494E+03  0.12500635954E+03 0.  0.
    9000005    1    3    3    0    0 -0.22672214595E+02 -0.46587863275E+02 -0.43834584015E+02  0.67874362428E+02  0.10000000000E+01 0.  0.
    9000005    1    3    3    0    0  0.22672214595E+02  0.46587863275E+02  0.26709252475E+02  0.58299592511E+02  0.10000000000E+01 0.  0.
<mgrwt>
<rscale>  0 0.12500636E+03</rscale>
<asrwt>0</asrwt>
<pdfrwt beam="1">  1        4 0.83883556E-02 0.12500636E+03</pdfrwt>
<pdfrwt beam="2">  1       -4 0.11023022E-01 0.12500636E+03</pdfrwt>
<totfact> 0.10425652E+04</totfact>
</mgrwt>
</event>
<event>
 5    1  0.3340698E-002  0.1250063E+03  0.7818608E-02  0.1235060E+00
          4   -1    0    0  501    0  0.00000000000E+00  0.00000000000E+00  0.13152360973E+03  0.13152974119E+03  0.12700000000E+01 0.  1.
         -4   -1    0    0    0  501 -0.00000000000E+00 -0.00000000000E+00 -0.29682560235E+02  0.29709716964E+02  0.12700000000E+01 0.  1.
         25    2    1    2    0    0  0.00000000000E+00  0.00000000000E+00  0.10184104950E+03  0.16123945815E+03  0.12500625385E+03 0.  0.
    9000005    1    3    3    0    0 -0.30976821695E+02  0.52188768818E+02  0.70156603731E+02  0.92769499946E+02  0.10000000000E+01 0.  0.
    9000005    1    3    3    0    0  0.30976821695E+02 -0.52188768818E+02  0.31684445764E+02  0.68469958204E+02  0.10000000000E+01 0.  0.
<mgrwt>
<rscale>  0 0.12500625E+03</rscale>
<asrwt>0</asrwt>
<pdfrwt beam="1">  1        4 0.20236963E-01 0.12500625E+03</pdfrwt>
<pdfrwt beam="2">  1       -4 0.45691082E-02 0.12500625E+03</pdfrwt>
<totfact> 0.97090711E+03</totfact>
</mgrwt>
</event>
<event>
 5    1  0.3340698E-002  0.1249980E+03  0.7818608E-02  0.1235072E+00
          4   -1    0    0  501    0  0.00000000000E+00  0.00000000000E+00  0.12619137395E+03  0.12619776448E+03  0.12700000000E+01 0. -1.
         -4   -1    0    0    0  501 -0.00000000000E+00 -0.00000000000E+00 -0.30933792401E+02  0.30959851620E+02  0.12700000000E+01 0. -1.
         25    2    1    2    0    0  0.00000000000E+00  0.00000000000E+00  0.95257581553E+02  0.15715761610E+03  0.12499803781E+03 0.  0.
    9000005    1    3    3    0    0  0.13029277524E+02  0.58351619909E+02  0.70484124968E+02  0.92432058785E+02  0.10000000000E+01 0.  0.
    9000005    1    3    3    0    0 -0.13029277524E+02 -0.58351619909E+02  0.24773456584E+02  0.64725557316E+02  0.10000000000E+01 0.  0.
<mgrwt>
<rscale>  0 0.12499804E+03</rscale>
<asrwt>0</asrwt>
<pdfrwt beam="1">  1        4 0.19416554E-01 0.12499804E+03</pdfrwt>
<pdfrwt beam="2">  1       -4 0.47615410E-02 0.12499804E+03</pdfrwt>
<totfact> 0.97897908E+03</totfact>
</mgrwt>
</event>
<event>
 5    1  0.3340698E-002  0.1250015E+03  0.7818608E-02  0.1235067E+00
         -4   -1    0    0    0  501 -0.00000000000E+00  0.00000000000E+00  0.64012459428E+02  0.64025056518E+02  0.12700000000E+01 0. -1.
          4   -1    0    0  501    0  0.00000000000E+00 -0.00000000000E+00 -0.60999528452E+02  0.61012747614E+02  0.12700000000E+01 0. -1.
         25    2    1    2    0    0  0.00000000000E+00  0.00000000000E+00  0.30129309765E+01  0.12503780413E+03  0.12500149883E+03 0.  0.
    9000005    1    3    3    0    0 -0.57406694139E+02 -0.24009002599E+02 -0.42730097216E+01  0.62379638904E+02  0.10000000000E+01 0.  0.
    9000005    1    3    3    0    0  0.57406694139E+02  0.24009002599E+02  0.72859406980E+01  0.62658165227E+02  0.10000000000E+01 0.  0.
<mgrwt>
<rscale>  0 0.12500150E+03</rscale>
<asrwt>0</asrwt>
<pdfrwt beam="2">  1        4 0.93865287E-02 0.12500150E+03</pdfrwt>
<pdfrwt beam="1">  1       -4 0.98500566E-02 0.12500150E+03</pdfrwt>
<totfact> 0.10451687E+04</totfact>
</mgrwt>
</event>
<event>
 5    1  0.3340698E-002  0.1249987E+03  0.7818608E-02  0.1235071E+00
          4   -1    0    0  501    0  0.00000000000E+00  0.00000000000E+00  0.51118238401E+03  0.51118396162E+03  0.12700000000E+01 0. -1.
         -4   -1    0    0    0  501 -0.00000000000E+00 -0.00000000000E+00 -0.75870659618E+01  0.76926243837E+01  0.12700000000E+01 0. -1.
         25    2    1    2    0    0  0.00000000000E+00  0.00000000000E+00  0.50359531805E+03  0.51887658601E+03  0.12499866858E+03 0.  0.
    9000005    1    3    3    0    0  0.47924244376E+02 -0.30252693848E+02  0.36109019467E+03  0.36551208923E+03  0.10000000000E+01 0.  0.
    9000005    1    3    3    0    0 -0.47924244376E+02  0.30252693848E+02  0.14250512338E+03  0.15336449678E+03  0.10000000000E+01 0.  0.
<mgrwt>
<rscale>  0 0.12499867E+03</rscale>
<asrwt>0</asrwt>
<pdfrwt beam="1">  1        4 0.78651672E-01 0.12499867E+03</pdfrwt>
<pdfrwt beam="2">  1       -4 0.11754823E-02 0.12499867E+03</pdfrwt>
<totfact> 0.54430552E+03</totfact>
</mgrwt>
</event>
<event>
 5    1  0.3340698E-002  0.1249976E+03  0.7818608E-02  0.1235073E+00
         -4   -1    0    0    0  501 -0.00000000000E+00  0.00000000000E+00  0.67559052260E+02  0.67570988170E+02  0.12700000000E+01 0.  1.
          4   -1    0    0  501    0  0.00000000000E+00 -0.00000000000E+00 -0.57793583171E+02  0.57807535459E+02  0.12700000000E+01 0.  1.
         25    2    1    2    0    0  0.00000000000E+00  0.00000000000E+00  0.97654690882E+01  0.12537852363E+03  0.12499763918E+03 0.  0.
    9000005    1    3    3    0    0 -0.62350158467E+02 -0.36969224192E+01  0.68618036996E+01  0.62843407342E+02  0.10000000000E+01 0.  0.
    9000005    1    3    3    0    0  0.62350158467E+02  0.36969224192E+01  0.29036653886E+01  0.62535116287E+02  0.10000000000E+01 0.  0.
<mgrwt>
<rscale>  0 0.12499764E+03</rscale>
<asrwt>0</asrwt>
<pdfrwt beam="2">  1        4 0.88933119E-02 0.12499764E+03</pdfrwt>
<pdfrwt beam="1">  1       -4 0.10395692E-01 0.12499764E+03</pdfrwt>
<totfact> 0.10445199E+04</totfact>
</mgrwt>
</event>
<event>
 5    1  0.3340698E-002  0.1250041E+03  0.7818608E-02  0.1235063E+00
         -4   -1    0    0    0  501 -0.00000000000E+00  0.00000000000E+00  0.64190296927E+02  0.64202859123E+02  0.12700000000E+01 0. -1.
          4   -1    0    0  501    0  0.00000000000E+00 -0.00000000000E+00 -0.60833054496E+02  0.60846309825E+02  0.12700000000E+01 0. -1.
         25    2    1    2    0    0  0.00000000000E+00  0.00000000000E+00  0.33572424313E+01  0.12504916895E+03  0.12500409424E+03 0.  0.
    9000005    1    3    3    0    0  0.45944411972E+02  0.32669627577E+02 -0.25299832199E+02  0.61800283711E+02  0.10000000000E+01 0.  0.
    9000005    1    3    3    0    0 -0.45944411972E+02 -0.32669627577E+02  0.28657074630E+02  0.63248885237E+02  0.10000000000E+01 0.  0.
<mgrwt>
<rscale>  0 0.12500409E+03</rscale>
<asrwt>0</asrwt>
<pdfrwt beam="2">  1        4 0.93609174E-02 0.12500409E+03</pdfrwt>
<pdfrwt beam="1">  1       -4 0.98774162E-02 0.12500409E+03</pdfrwt>
<totfact> 0.10450828E+04</totfact>
</mgrwt>
</event>
<event>
 5    1  0.3340698E-002  0.1250001E+03  0.7818608E-02  0.1235069E+00
         -4   -1    0    0    0  501 -0.00000000000E+00  0.00000000000E+00  0.13291212707E+02  0.13351750269E+02  0.12700000000E+01 0. -1.
          4   -1    0    0  501    0  0.00000000000E+00 -0.00000000000E+00 -0.29316816128E+03  0.29317091208E+03  0.12700000000E+01 0. -1.
         25    2    1    2    0    0  0.00000000000E+00  0.00000000000E+00 -0.27987694858E+03  0.30652266235E+03  0.12500014476E+03 0.  0.
    9000005    1    3    3    0    0  0.28890939863E+02 -0.29775491456E+02 -0.25453664078E+03  0.25789759169E+03  0.10000000000E+01 0.  0.
    9000005    1    3    3    0    0 -0.28890939863E+02  0.29775491456E+02 -0.25340307792E+02  0.48625070659E+02  0.10000000000E+01 0.  0.
<mgrwt>
<rscale>  0 0.12500014E+03</rscale>
<asrwt>0</asrwt>
<pdfrwt beam="2">  1        4 0.45107658E-01 0.12500014E+03</pdfrwt>
<pdfrwt beam="1">  1       -4 0.20496705E-02 0.12500014E+03</pdfrwt>
<totfact> 0.74787627E+03</totfact>
</mgrwt>
</event>
<event>
 5    1  0.3340698E-002  0.1250005E+03  0.7818608E-02  0.1235068E+00
          4   -1    0    0  501    0  0.00000000000E+00  0.00000000000E+00  0.47197372105E+02  0.47214455769E+02  0.12700000000E+01 0.  1.
         -4   -1    0    0    0  501 -0.00000000000E+00 -0.00000000000E+00 -0.82727891480E+02  0.82737639130E+02  0.12700000000E+01 0.  1.
         25    2    1    2    0    0  0.00000000000E+00  0.00000000000E+00 -0.35530519376E+02  0.12995209490E+03  0.12500051665E+03 0.  0.
    9000005    1    3    3    0    0 -0.61376100967E+02 -0.63292660703E+00 -0.29971564035E+02  0.68313402907E+02  0.10000000000E+01 0.  0.
    9000005    1    3    3    0    0  0.61376100967E+02  0.63292660703E+00 -0.55589553404E+01  0.61638691992E+02  0.10000000000E+01 0.  0.
<mgrwt>
<rscale>  0 0.12500052E+03</rscale>
<asrwt>0</asrwt>
<pdfrwt beam="1">  1        4 0.72631981E-02 0.12500052E+03</pdfrwt>
<pdfrwt beam="2">  1       -4 0.12729432E-01 0.12500052E+03</pdfrwt>
<totfact> 0.10345412E+04</totfact>
</mgrwt>
</event>
<event>
 5    1  0.3340698E-002  0.1250021E+03  0.7818608E-02  0.1235066E+00
         -4   -1    0    0    0  501 -0.00000000000E+00  0.00000000000E+00  0.30548662069E+02  0.30575049538E+02  0.12700000000E+01 0.  1.
          4   -1    0    0  501    0  0.00000000000E+00 -0.00000000000E+00 -0.12778936348E+03  0.12779567410E+03  0.12700000000E+01 0.  1.
         25    2    1    2    0    0  0.00000000000E+00  0.00000000000E+00 -0.97240701414E+02  0.15837072364E+03  0.12500212836E+03 0.  0.
    9000005    1    3    3    0    0  0.17370788708E+02 -0.42403814411E+02  0.52144220656E+01  0.46130445201E+02  0.10000000000E+01 0.  0.
    9000005    1    3    3    0    0 -0.17370788708E+02  0.42403814411E+02 -0.10245512348E+03  0.11224027844E+03  0.10000000000E+01 0.  0.
<mgrwt>
<rscale>  0 0.12500213E+03</rscale>
<asrwt>0</asrwt>
<pdfrwt beam="2">  1        4 0.19662417E-01 0.12500213E+03</pdfrwt>
<pdfrwt beam="1">  1       -4 0.47023095E-02 0.12500213E+03</pdfrwt>
<totfact> 0.97653146E+03</totfact>
</mgrwt>
</event>
<event>
 5    1  0.3340698E-002  0.1250023E+03  0.7818608E-02  0.1235066E+00
          4   -1    0    0  501    0  0.00000000000E+00  0.00000000000E+00  0.11107214753E+03  0.11107940789E+03  0.12700000000E+01 0.  1.
         -4   -1    0    0    0  501 -0.00000000000E+00 -0.00000000000E+00 -0.35149980358E+02  0.35172915989E+02  0.12700000000E+01 0.  1.
         25    2    1    2    0    0  0.00000000000E+00  0.00000000000E+00  0.75922167169E+02  0.14625232387E+03  0.12500226706E+03 0.  0.
    9000005    1    3    3    0    0  0.39747520046E+02  0.42868238357E+02  0.12119221489E+02  0.59711194421E+02  0.10000000000E+01 0.  0.
    9000005    1    3    3    0    0 -0.39747520046E+02 -0.42868238357E+02  0.63802945680E+02  0.86541129454E+02  0.10000000000E+01 0.  0.
<mgrwt>
<rscale>  0 0.12500227E+03</rscale>
<asrwt>0</asrwt>
<pdfrwt beam="1">  1        4 0.17090346E-01 0.12500227E+03</pdfrwt>
<pdfrwt beam="2">  1       -4 0.54100120E-02 0.12500227E+03</pdfrwt>
<totfact> 0.10005095E+04</totfact>
</mgrwt>
</event>
<event>
 5    1  0.3340698E-002  0.1250002E+03  0.7818608E-02  0.1235069E+00
          4   -1    0    0  501    0  0.00000000000E+00  0.00000000000E+00  0.35006187730E+03  0.35006418103E+03  0.12700000000E+01 0.  1.
         -4   -1    0    0    0  501 -0.00000000000E+00 -0.00000000000E+00 -0.11120301767E+02  0.11192587341E+02  0.12700000000E+01 0.  1.
         25    2    1    2    0    0  0.00000000000E+00  0.00000000000E+00  0.33894157553E+03  0.36125676837E+03  0.12500024427E+03 0.  0.
    9000005    1    3    3    0    0 -0.54740529819E+02  0.24809690027E+02  0.11998264646E+03  0.13419717499E+03  0.10000000000E+01 0.  0.
    9000005    1    3    3    0    0  0.54740529819E+02 -0.24809690027E+02  0.21895892907E+03  0.22705959338E+03  0.10000000000E+01 0.  0.
<mgrwt>
<rscale>  0 0.12500024E+03</rscale>
<asrwt>0</asrwt>
<pdfrwt beam="1">  1        4 0.53861395E-01 0.12500024E+03</pdfrwt>
<pdfrwt beam="2">  1       -4 0.17165538E-02 0.12500024E+03</pdfrwt>
<totfact> 0.68503311E+03</totfact>
</mgrwt>
</event>
<event>
 5    1  0.3340698E-002  0.1250029E+03  0.7818608E-02  0.1235065E+00
          4   -1    0    0  501    0  0.00000000000E+00  0.00000000000E+00  0.59043187185E+02  0.59056844251E+02  0.12700000000E+01 0. -1.
         -4   -1    0    0    0  501 -0.00000000000E+00 -0.00000000000E+00 -0.66134898505E+02  0.66147091396E+02  0.12700000000E+01 0. -1.
         25    2    1    2    0    0  0.00000000000E+00  0.00000000000E+00 -0.70917113197E+01  0.12520393565E+03  0.12500293249E+03 0.  0.
    9000005    1    3    3    0    0  0.31329533146E+02 -0.35720080251E+02  0.37114611535E+02  0.60298906870E+02  0.10000000000E+01 0.  0.
    9000005    1    3    3    0    0 -0.31329533146E+02  0.35720080251E+02 -0.44206322855E+02  0.64905028778E+02  0.10000000000E+01 0.  0.
<mgrwt>
<rscale>  0 0.12500293E+03</rscale>
<asrwt>0</asrwt>
<pdfrwt beam="1">  1        4 0.90855557E-02 0.12500293E+03</pdfrwt>
<pdfrwt beam="2">  1       -4 0.10176588E-01 0.12500293E+03</pdfrwt>
<totfact> 0.10447742E+04</totfact>
</mgrwt>
</event>
<event>
 5    1  0.3340698E-002  0.1250097E+03  0.7818608E-02  0.1235054E+00
          4   -1    0    0  501    0  0.00000000000E+00  0.00000000000E+00  0.23067610644E+03  0.23067960244E+03  0.12700000000E+01 0.  1.
         -4   -1    0    0    0  501 -0.00000000000E+00 -0.00000000000E+00 -0.16909117670E+02  0.16956743802E+02  0.12700000000E+01 0.  1.
         25    2    1    2    0    0  0.00000000000E+00  0.00000000000E+00  0.21376698877E+03  0.24763634624E+03  0.12500973759E+03 0.  0.
    9000005    1    3    3    0    0  0.30210947304E+02 -0.54654071957E+02  0.10199507271E+03  0.11959834354E+03  0.10000000000E+01 0.  0.
    9000005    1    3    3    0    0 -0.30210947304E+02  0.54654071957E+02  0.11177191606E+03  0.12803800271E+03  0.10000000000E+01 0.  0.
<mgrwt>
<rscale>  0 0.12500974E+03</rscale>
<asrwt>0</asrwt>
<pdfrwt beam="1">  1        4 0.35492561E-01 0.12500974E+03</pdfrwt>
<pdfrwt beam="2">  1       -4 0.26053354E-02 0.12500974E+03</pdfrwt>
<totfact> 0.82655122E+03</totfact>
</mgrwt>
</event>
<event>
 5    1  0.3340698E-002  0.1249944E+03  0.7818608E-02  0.1235078E+00
         -4   -1    0    0    0  501 -0.00000000000E+00  0.00000000000E+00  0.93620620352E+02  0.93629233976E+02  0.12700000000E+01 0. -1.
          4   -1    0    0  501    0  0.00000000000E+00 -0.00000000000E+00 -0.41700295553E+02  0.41719630262E+02  0.12700000000E+01 0. -1.
         25    2    1    2    0    0  0.00000000000E+00  0.00000000000E+00  0.51920324799E+02  0.13534886424E+03  0.12499437957E+03 0.  0.
    9000005    1    3    3    0    0  0.58772747479E+00  0.62453045311E+02  0.28171499750E+02  0.68522709304E+02  0.10000000000E+01 0.  0.
    9000005    1    3    3    0    0 -0.58772747479E+00 -0.62453045311E+02  0.23748825049E+02  0.66826154935E+02  0.10000000000E+01 0.  0.
<mgrwt>
<rscale>  0 0.12499438E+03</rscale>
<asrwt>0</asrwt>
<pdfrwt beam="2">  1        4 0.64175800E-02 0.12499438E+03</pdfrwt>
<pdfrwt beam="1">  1       -4 0.14405322E-01 0.12499438E+03</pdfrwt>
<totfact> 0.10232020E+04</totfact>
</mgrwt>
</event>
<event>
 5    1  0.3340698E-002  0.1249993E+03  0.7818608E-02  0.1235070E+00
         -4   -1    0    0    0  501 -0.00000000000E+00  0.00000000000E+00  0.13589611697E+02  0.13648825813E+02  0.12700000000E+01 0. -1.
          4   -1    0    0  501    0  0.00000000000E+00 -0.00000000000E+00 -0.28675514346E+03  0.28675795577E+03  0.12700000000E+01 0. -1.
         25    2    1    2    0    0  0.00000000000E+00  0.00000000000E+00 -0.27316553176E+03  0.30040678159E+03  0.12499930672E+03 0.  0.
    9000005    1    3    3    0    0  0.58927751765E+02 -0.10489628659E+02 -0.93411193699E+02  0.11094666893E+03  0.10000000000E+01 0.  0.
    9000005    1    3    3    0    0 -0.58927751765E+02  0.10489628659E+02 -0.17975433806E+03  0.18946011266E+03  0.10000000000E+01 0.  0.
<mgrwt>
<rscale>  0 0.12499931E+03</rscale>
<asrwt>0</asrwt>
<pdfrwt beam="2">  1        4 0.44120943E-01 0.12499931E+03</pdfrwt>
<pdfrwt beam="1">  1       -4 0.20954810E-02 0.12499931E+03</pdfrwt>
<totfact> 0.75549006E+03</totfact>
</mgrwt>
</event>
<event>
 5    1  0.3340698E-002  0.1249985E+03  0.7818608E-02  0.1235072E+00
         -4   -1    0    0    0  501 -0.00000000000E+00  0.00000000000E+00  0.94362296240E+01  0.95213092333E+01  0.12700000000E+01 0. -1.
          4   -1    0    0  501    0  0.00000000000E+00 -0.00000000000E+00 -0.41200939437E+03  0.41201135173E+03  0.12700000000E+01 0. -1.
         25    2    1    2    0    0  0.00000000000E+00  0.00000000000E+00 -0.40257316475E+03  0.42153266096E+03  0.12499852511E+03 0.  0.
    9000005    1    3    3    0    0  0.94876230835E+01 -0.58107757724E+02 -0.27191446083E+03  0.27821754170E+03  0.10000000000E+01 0.  0.
    9000005    1    3    3    0    0 -0.94876230835E+01  0.58107757724E+02 -0.13065870392E+03  0.14331511926E+03  0.10000000000E+01 0.  0.
<mgrwt>
<rscale>  0 0.12499853E+03</rscale>
<asrwt>0</asrwt>
<pdfrwt beam="2">  1        4 0.63392742E-01 0.12499853E+03</pdfrwt>
<pdfrwt beam="1">  1       -4 0.14584231E-02 0.12499853E+03</pdfrwt>
<totfact> 0.62513115E+03</totfact>
</mgrwt>
</event>
<event>
 5    1  0.3340698E-002  0.1250012E+03  0.7818608E-02  0.1235067E+00
          4   -1    0    0  501    0  0.00000000000E+00  0.00000000000E+00  0.20387215020E+03  0.20387610583E+03  0.12700000000E+01 0.  1.
         -4   -1    0    0    0  501 -0.00000000000E+00 -0.00000000000E+00 -0.19135460496E+02  0.19177558458E+02  0.12700000000E+01 0.  1.
         25    2    1    2    0    0  0.00000000000E+00  0.00000000000E+00  0.18473668970E+03  0.22305366428E+03  0.12500117051E+03 0.  0.
    9000005    1    3    3    0    0 -0.36312177609E+02  0.45530842432E+02  0.13281162655E+03  0.14502261893E+03  0.10000000000E+01 0.  0.
    9000005    1    3    3    0    0  0.36312177609E+02 -0.45530842432E+02  0.51925063157E+02  0.78031045355E+02  0.10000000000E+01 0.  0.
<mgrwt>
<rscale>  0 0.12500117E+03</rscale>
<asrwt>0</asrwt>
<pdfrwt beam="1">  1        4 0.31368492E-01 0.12500117E+03</pdfrwt>
<pdfrwt beam="2">  1       -4 0.29474593E-02 0.12500117E+03</pdfrwt>
<totfact> 0.86385181E+03</totfact>
</mgrwt>
</event>
<event>
 5    1  0.3340698E-002  0.1249982E+03  0.7818608E-02  0.1235072E+00
         -4   -1    0    0    0  501 -0.00000000000E+00  0.00000000000E+00  0.47541915472E+03  0.47542085101E+03  0.12700000000E+01 0. -1.
          4   -1    0    0  501    0  0.00000000000E+00 -0.00000000000E+00 -0.81654035741E+01  0.82635776470E+01  0.12700000000E+01 0. -1.
         25    2    1    2    0    0  0.00000000000E+00  0.00000000000E+00  0.46725375114E+03  0.48368442866E+03  0.12499823425E+03 0.  0.
    9000005    1    3    3    0    0  0.65111002199E+01 -0.25380328131E+01 -0.66676281966E+01  0.97104738505E+01  0.10000000000E+01 0.  0.
    9000005    1    3    3    0    0 -0.65111002199E+01  0.25380328131E+01  0.47392137934E+03  0.47397395480E+03  0.10000000000E+01 0.  0.
<mgrwt>
<rscale>  0 0.12499823E+03</rscale>
<asrwt>0</asrwt>
<pdfrwt beam="2">  1        4 0.12638989E-02 0.12499823E+03</pdfrwt>
<pdfrwt beam="1">  1       -4 0.73149052E-01 0.12499823E+03</pdfrwt>
<totfact> 0.57155092E+03</totfact>
</mgrwt>
</event>
<event>
 4    1  0.3340698E-002  0.1250992E+03  0.7818608E-02  0.1234914E+00
          4   -1    0    0  501    0  0.00000000000E+00  0.00000000000E+00  0.11690949507E+04  0.11690956405E+04  0.12700000000E+01 0.  1.
         -4   -1    0    0    0  501 -0.00000000000E+00 -0.00000000000E+00 -0.32253576518E+01  0.34663860117E+01  0.12700000000E+01 0.  1.
    9000005    1    1    2    0    0  0.41231021912E+02  0.39403884604E+02  0.34235801533E+03  0.34707733136E+03  0.10000000000E+01 0.  0.
    9000005    1    1    2    0    0 -0.41231021912E+02 -0.39403884604E+02  0.82351157774E+03  0.82548469517E+03  0.10000000000E+01 0.  0.
<mgrwt>
<rscale>  0 0.12509915E+03</rscale>
<asrwt>0</asrwt>
<pdfrwt beam="1">  1        4 0.17987947E+00 0.12509915E+03</pdfrwt>
<pdfrwt beam="2">  1       -4 0.51480225E-03 0.12509915E+03</pdfrwt>
<totfact> 0.25387476E+03</totfact>
</mgrwt>
</event>
<event>
 5    1  0.3340698E-002  0.1250007E+03  0.7818608E-02  0.1235068E+00
         -4   -1    0    0    0  501 -0.00000000000E+00  0.00000000000E+00  0.87916537186E+02  0.87925709612E+02  0.12700000000E+01 0.  1.
          4   -1    0    0  501    0  0.00000000000E+00 -0.00000000000E+00 -0.44411278560E+02  0.44429433525E+02  0.12700000000E+01 0.  1.
         25    2    1    2    0    0  0.00000000000E+00  0.00000000000E+00  0.43505258625E+02  0.13235514314E+03  0.12500070555E+03 0.  0.
    9000005    1    3    3    0    0  0.32787769892E+02  0.11857694514E+02  0.76665778346E+02  0.84227574719E+02  0.10000000000E+01 0.  0.
    9000005    1    3    3    0    0 -0.32787769892E+02 -0.11857694514E+02 -0.33160519721E+02  0.48127568418E+02  0.10000000000E+01 0.  0.
<mgrwt>
<rscale>  0 0.12500071E+03</rscale>
<asrwt>0</asrwt>
<pdfrwt beam="2">  1        4 0.68346065E-02 0.12500071E+03</pdfrwt>
<pdfrwt beam="1">  1       -4 0.13527723E-01 0.12500071E+03</pdfrwt>
<totfact> 0.10293960E+04</totfact>
</mgrwt>
</event>
<event>
 5    1  0.3340698E-002  0.1250039E+03  0.7818608E-02  0.1235063E+00
          4   -1    0    0  501    0  0.00000000000E+00  0.00000000000E+00  0.23259763652E+02  0.23294409311E+02  0.12700000000E+01 0.  1.
         -4   -1    0    0    0  501 -0.00000000000E+00 -0.00000000000E+00 -0.16778861712E+03  0.16779342340E+03  0.12700000000E+01 0.  1.
         25    2    1    2    0    0  0.00000000000E+00  0.00000000000E+00 -0.14452885347E+03  0.19108783271E+03  0.12500388124E+03 0.  0.
    9000005    1    3    3    0    0 -0.16729680998E+02  0.46776906941E+02 -0.13022306814E+03  0.13938080472E+03  0.10000000000E+01 0.  0.
    9000005    1    3    3    0    0  0.16729680998E+02 -0.46776906941E+02 -0.14305785328E+02  0.51707027986E+02  0.10000000000E+01 0.  0.
<mgrwt>
<rscale>  0 0.12500388E+03</rscale>
<asrwt>0</asrwt>
<pdfrwt beam="1">  1        4 0.35814601E-02 0.12500388E+03</pdfrwt>
<pdfrwt beam="2">  1       -4 0.25816667E-01 0.12500388E+03</pdfrwt>
<totfact> 0.91650412E+03</totfact>
</mgrwt>
</event>
<event>
 5    1  0.3340698E-002  0.1249998E+03  0.7818608E-02  0.1235070E+00
         -4   -1    0    0    0  501 -0.00000000000E+00  0.00000000000E+00  0.11983382799E+03  0.11984055753E+03  0.12700000000E+01 0.  1.
          4   -1    0    0  501    0  0.00000000000E+00 -0.00000000000E+00 -0.32577090257E+02  0.32601835986E+02  0.12700000000E+01 0.  1.
         25    2    1    2    0    0  0.00000000000E+00  0.00000000000E+00  0.87256737730E+02  0.15244239352E+03  0.12499978025E+03 0.  0.
    9000005    1    3    3    0    0  0.48095349970E+02 -0.17824100553E+02  0.92708748167E-01  0.51301752837E+02  0.10000000000E+01 0.  0.
    9000005    1    3    3    0    0 -0.48095349970E+02  0.17824100553E+02  0.87164028982E+02  0.10114064068E+03  0.10000000000E+01 0.  0.
<mgrwt>
<rscale>  0 0.12499978E+03</rscale>
<asrwt>0</asrwt>
<pdfrwt beam="2">  1        4 0.50142813E-02 0.12499978E+03</pdfrwt>
<pdfrwt beam="1">  1       -4 0.18438394E-01 0.12499978E+03</pdfrwt>
<totfact> 0.98819542E+03</totfact>
</mgrwt>
</event>
<event>
 5    1  0.3340698E-002  0.1250021E+03  0.7818608E-02  0.1235066E+00
         -4   -1    0    0    0  501 -0.00000000000E+00  0.00000000000E+00  0.23243602111E+03  0.23243949064E+03  0.12700000000E+01 0. -1.
          4   -1    0    0  501    0  0.00000000000E+00 -0.00000000000E+00 -0.16778664988E+02  0.16826660358E+02  0.12700000000E+01 0. -1.
         25    2    1    2    0    0  0.00000000000E+00  0.00000000000E+00  0.21565735612E+03  0.24926615100E+03  0.12500207512E+03 0.  0.
    9000005    1    3    3    0    0  0.54288874708E+02  0.15376367551E+02  0.16139772707E+03  0.17097935811E+03  0.10000000000E+01 0.  0.
    9000005    1    3    3    0    0 -0.54288874708E+02 -0.15376367551E+02  0.54259629054E+02  0.78286792891E+02  0.10000000000E+01 0.  0.
<mgrwt>
<rscale>  0 0.12500208E+03</rscale>
<asrwt>0</asrwt>
<pdfrwt beam="2">  1        4 0.25852919E-02 0.12500208E+03</pdfrwt>
<pdfrwt beam="1">  1       -4 0.35763347E-01 0.12500208E+03</pdfrwt>
<totfact> 0.82432596E+03</totfact>
</mgrwt>
</event>
<event>
 5    1  0.3340698E-002  0.1250024E+03  0.7818608E-02  0.1235066E+00
          4   -1    0    0  501    0  0.00000000000E+00  0.00000000000E+00  0.51238283885E+02  0.51254020677E+02  0.12700000000E+01 0.  1.
         -4   -1    0    0    0  501 -0.00000000000E+00 -0.00000000000E+00 -0.76207146007E+02  0.76217727613E+02  0.12700000000E+01 0.  1.
         25    2    1    2    0    0  0.00000000000E+00  0.00000000000E+00 -0.24968862121E+02  0.12747174829E+03  0.12500241012E+03 0.  0.
    9000005    1    3    3    0    0 -0.16632092799E+02 -0.52738406982E+02  0.17201360887E+02  0.57921091999E+02  0.10000000000E+01 0.  0.
    9000005    1    3    3    0    0  0.16632092799E+02  0.52738406982E+02 -0.42170223009E+02  0.69550656291E+02  0.10000000000E+01 0.  0.
<mgrwt>
<rscale>  0 0.12500241E+03</rscale>
<asrwt>0</asrwt>
<pdfrwt beam="1">  1        4 0.78848374E-02 0.12500241E+03</pdfrwt>
<pdfrwt beam="2">  1       -4 0.11726201E-01 0.12500241E+03</pdfrwt>
<totfact> 0.10398347E+04</totfact>
</mgrwt>
</event>
<event>
 5    1  0.3340698E-002  0.1250048E+03  0.7818608E-02  0.1235062E+00
         -4   -1    0    0    0  501 -0.00000000000E+00  0.00000000000E+00  0.19561497838E+02  0.19602680880E+02  0.12700000000E+01 0. -1.
          4   -1    0    0  501    0  0.00000000000E+00 -0.00000000000E+00 -0.19945291485E+03  0.19945695812E+03  0.12700000000E+01 0. -1.
         25    2    1    2    0    0  0.00000000000E+00  0.00000000000E+00 -0.17989141701E+03  0.21905963900E+03  0.12500481400E+03 0.  0.
    9000005    1    3    3    0    0 -0.37993849013E+02 -0.49618688002E+02 -0.89833237929E+02  0.10943745885E+03  0.10000000000E+01 0.  0.
    9000005    1    3    3    0    0  0.37993849013E+02  0.49618688002E+02 -0.90058179086E+02  0.10962218016E+03  0.10000000000E+01 0.  0.
<mgrwt>
<rscale>  0 0.12500481E+03</rscale>
<asrwt>0</asrwt>
<pdfrwt beam="2">  1        4 0.30688541E-01 0.12500481E+03</pdfrwt>
<pdfrwt beam="1">  1       -4 0.30129403E-02 0.12500481E+03</pdfrwt>
<totfact> 0.87008012E+03</totfact>
</mgrwt>
</event>
<event>
 5    1  0.3340698E-002  0.1249993E+03  0.7818608E-02  0.1235070E+00
          4   -1    0    0  501    0  0.00000000000E+00  0.00000000000E+00  0.89455670775E+03  0.89455760926E+03  0.12700000000E+01 0. -1.
         -4   -1    0    0    0  501 -0.00000000000E+00 -0.00000000000E+00 -0.42733754503E+01  0.44580979957E+01  0.12700000000E+01 0. -1.
         25    2    1    2    0    0  0.00000000000E+00  0.00000000000E+00  0.89028333230E+03  0.89901570725E+03  0.12499932047E+03 0.  0.
    9000005    1    3    3    0    0  0.93922549841E+01  0.12720567886E+02  0.87996618542E+03  0.88010880849E+03  0.10000000000E+01 0.  0.
    9000005    1    3    3    0    0 -0.93922549841E+01 -0.12720567886E+02  0.10317146877E+02  0.18906898760E+02  0.10000000000E+01 0.  0.
<mgrwt>
<rscale>  0 0.12499932E+03</rscale>
<asrwt>0</asrwt>
<pdfrwt beam="1">  1        4 0.13763845E+00 0.12499932E+03</pdfrwt>
<pdfrwt beam="2">  1       -4 0.67172086E-03 0.12499932E+03</pdfrwt>
<totfact> 0.34198125E+03</totfact>
</mgrwt>
</event>
<event>
 5    1  0.3340698E-002  0.1250140E+03  0.7818608E-02  0.1235047E+00
          4   -1    0    0  501    0  0.00000000000E+00  0.00000000000E+00  0.40044748967E+01  0.42010378715E+01  0.12700000000E+01 0.  1.
         -4   -1    0    0    0  501 -0.00000000000E+00 -0.00000000000E+00 -0.95212001104E+03  0.95212085805E+03  0.12700000000E+01 0.  1.
         25    2    1    2    0    0  0.00000000000E+00  0.00000000000E+00 -0.94811553615E+03  0.95632189592E+03  0.12501399414E+03 0.  0.
    9000005    1    3    3    0    0 -0.29796916889E+02 -0.54161194073E+02 -0.40359996154E+03  0.40830775177E+03  0.10000000000E+01 0.  0.
    9000005    1    3    3    0    0  0.29796916889E+02  0.54161194073E+02 -0.54451557461E+03  0.54801414415E+03  0.10000000000E+01 0.  0.
<mgrwt>
<rscale>  0 0.12501399E+03</rscale>
<asrwt>0</asrwt>
<pdfrwt beam="1">  1        4 0.63125920E-03 0.12501399E+03</pdfrwt>
<pdfrwt beam="2">  1       -4 0.14649501E+00 0.12501399E+03</pdfrwt>
<totfact> 0.32082818E+03</totfact>
</mgrwt>
</event>
<event>
 5    1  0.3340698E-002  0.1250003E+03  0.7818608E-02  0.1235069E+00
         -4   -1    0    0    0  501 -0.00000000000E+00  0.00000000000E+00  0.19573390048E+03  0.19573802057E+03  0.12700000000E+01 0.  1.
          4   -1    0    0  501    0  0.00000000000E+00 -0.00000000000E+00 -0.19932499411E+02  0.19972917483E+02  0.12700000000E+01 0.  1.
         25    2    1    2    0    0  0.00000000000E+00  0.00000000000E+00  0.17580140107E+03  0.21571093806E+03  0.12500030471E+03 0.  0.
    9000005    1    3    3    0    0 -0.30958832685E+02  0.37771230662E+02  0.20617774703E+02  0.53020824405E+02  0.10000000000E+01 0.  0.
    9000005    1    3    3    0    0  0.30958832685E+02 -0.37771230662E+02  0.15518362637E+03  0.16269011365E+03  0.10000000000E+01 0.  0.
<mgrwt>
<rscale>  0 0.12500030E+03</rscale>
<asrwt>0</asrwt>
<pdfrwt beam="2">  1        4 0.30699642E-02 0.12500030E+03</pdfrwt>
<pdfrwt beam="1">  1       -4 0.30116336E-01 0.12500030E+03</pdfrwt>
<totfact> 0.87551022E+03</totfact>
</mgrwt>
</event>
<event>
 5    1  0.3340698E-002  0.1250017E+03  0.7818608E-02  0.1235067E+00
          4   -1    0    0  501    0  0.00000000000E+00  0.00000000000E+00  0.40845616925E+03  0.40845814363E+03  0.12700000000E+01 0.  1.
         -4   -1    0    0    0  501 -0.00000000000E+00 -0.00000000000E+00 -0.95195483029E+01  0.96038898312E+01  0.12700000000E+01 0.  1.
         25    2    1    2    0    0  0.00000000000E+00  0.00000000000E+00  0.39893662095E+03  0.41806203346E+03  0.12500174515E+03 0.  0.
    9000005    1    3    3    0    0  0.19009230379E+02  0.43004608197E+02  0.61791822419E+02  0.77652923214E+02  0.10000000000E+01 0.  0.
    9000005    1    3    3    0    0 -0.19009230379E+02 -0.43004608197E+02  0.33714479853E+03  0.34040911025E+03  0.10000000000E+01 0.  0.
<mgrwt>
<rscale>  0 0.12500175E+03</rscale>
<asrwt>0</asrwt>
<pdfrwt beam="1">  1        4 0.62846047E-01 0.12500175E+03</pdfrwt>
<pdfrwt beam="2">  1       -4 0.14711857E-02 0.12500175E+03</pdfrwt>
<totfact> 0.62830787E+03</totfact>
</mgrwt>
</event>
<event>
 4    1  0.3340698E-002  0.1243705E+03  0.7818608E-02  0.1236056E+00
          4   -1    0    0  501    0  0.00000000000E+00  0.00000000000E+00  0.64482019018E+02  0.64494524393E+02  0.12700000000E+01 0.  1.
         -4   -1    0    0    0  501 -0.00000000000E+00 -0.00000000000E+00 -0.59945253846E+02  0.59958705445E+02  0.12700000000E+01 0.  1.
    9000005    1    1    2    0    0  0.59307109725E+02 -0.10113418181E+02  0.17975686932E+02  0.62799202319E+02  0.10000000000E+01 0.  0.
    9000005    1    1    2    0    0 -0.59307109725E+02  0.10113418181E+02 -0.13438921760E+02  0.61654027519E+02  0.10000000000E+01 0.  0.
<mgrwt>
<rscale>  0 0.12437051E+03</rscale>
<asrwt>0</asrwt>
<pdfrwt beam="1">  1        4 0.99223073E-02 0.12437051E+03</pdfrwt>
<pdfrwt beam="2">  1       -4 0.92243434E-02 0.12437051E+03</pdfrwt>
<totfact> 0.10615043E+04</totfact>
</mgrwt>
</event>
<event>
 5    1  0.3340698E-002  0.1250077E+03  0.7818608E-02  0.1235057E+00
          4   -1    0    0  501    0  0.00000000000E+00  0.00000000000E+00  0.98238473236E+01  0.99055982271E+01  0.12700000000E+01 0.  1.
         -4   -1    0    0    0  501 -0.00000000000E+00 -0.00000000000E+00 -0.39594749248E+03  0.39594952923E+03  0.12700000000E+01 0.  1.
         25    2    1    2    0    0  0.00000000000E+00  0.00000000000E+00 -0.38612364516E+03  0.40585512746E+03  0.12500766032E+03 0.  0.
    9000005    1    3    3    0    0 -0.51461411954E+02 -0.27034961159E+01 -0.78269127500E+02  0.93715751777E+02  0.10000000000E+01 0.  0.
    9000005    1    3    3    0    0  0.51461411954E+02  0.27034961159E+01 -0.30785451766E+03  0.31213937568E+03  0.10000000000E+01 0.  0.
<mgrwt>
<rscale>  0 0.12500766E+03</rscale>
<asrwt>0</asrwt>
<pdfrwt beam="1">  1        4 0.15178066E-02 0.12500766E+03</pdfrwt>
<pdfrwt beam="2">  1       -4 0.60921432E-01 0.12500766E+03</pdfrwt>
<totfact> 0.63976471E+03</totfact>
</mgrwt>
</event>
<event>
 5    1  0.3340698E-002  0.1250008E+03  0.7818608E-02  0.1235068E+00
          4   -1    0    0  501    0  0.00000000000E+00  0.00000000000E+00  0.54059412836E+02  0.54074328624E+02  0.12700000000E+01 0.  1.
         -4   -1    0    0    0  501 -0.00000000000E+00 -0.00000000000E+00 -0.72228970541E+02  0.72240134866E+02  0.12700000000E+01 0.  1.
         25    2    1    2    0    0  0.00000000000E+00  0.00000000000E+00 -0.18169557705E+02  0.12631446349E+03  0.12500084344E+03 0.  0.
    9000005    1    3    3    0    0  0.38666320583E+02 -0.18876242422E+02  0.36711522366E+02  0.56569715837E+02  0.10000000000E+01 0.  0.
    9000005    1    3    3    0    0 -0.38666320583E+02  0.18876242422E+02 -0.54881080071E+02  0.69744747654E+02  0.10000000000E+01 0.  0.
<mgrwt>
<rscale>  0 0.12500084E+03</rscale>
<asrwt>0</asrwt>
<pdfrwt beam="1">  1        4 0.83188389E-02 0.12500084E+03</pdfrwt>
<pdfrwt beam="2">  1       -4 0.11114155E-01 0.12500084E+03</pdfrwt>
<totfact> 0.10423879E+04</totfact>
</mgrwt>
</event>
<event>
 5    1  0.3340698E-002  0.1250009E+03  0.7818608E-02  0.1235068E+00
          4   -1    0    0  501    0  0.00000000000E+00  0.00000000000E+00  0.13751587766E+02  0.13810107389E+02  0.12700000000E+01 0.  1.
         -4   -1    0    0    0  501 -0.00000000000E+00 -0.00000000000E+00 -0.28339902814E+03  0.28340187376E+03  0.12700000000E+01 0.  1.
         25    2    1    2    0    0  0.00000000000E+00  0.00000000000E+00 -0.26964744037E+03  0.29721198114E+03  0.12500087855E+03 0.  0.
    9000005    1    3    3    0    0 -0.87784430751E+01 -0.41260992255E+02 -0.25198158900E+02  0.49147510178E+02  0.10000000000E+01 0.  0.
    9000005    1    3    3    0    0  0.87784430751E+01  0.41260992255E+02 -0.24444928147E+03  0.24806447097E+03  0.10000000000E+01 0.  0.
<mgrwt>
<rscale>  0 0.12500088E+03</rscale>
<asrwt>0</asrwt>
<pdfrwt beam="1">  1        4 0.21203495E-02 0.12500088E+03</pdfrwt>
<pdfrwt beam="2">  1       -4 0.43604567E-01 0.12500088E+03</pdfrwt>
<totfact> 0.75948419E+03</totfact>
</mgrwt>
</event>
<event>
 5    1  0.3340698E-002  0.1249981E+03  0.7818608E-02  0.1235072E+00
          4   -1    0    0  501    0  0.00000000000E+00  0.00000000000E+00  0.62308080496E+01  0.63589204233E+01  0.12700000000E+01 0. -1.
         -4   -1    0    0    0  501 -0.00000000000E+00 -0.00000000000E+00 -0.62039840152E+03  0.62039970141E+03  0.12700000000E+01 0. -1.
         25    2    1    2    0    0  0.00000000000E+00  0.00000000000E+00 -0.61416759347E+03  0.62675862183E+03  0.12499814867E+03 0.  0.
    9000005    1    3    3    0    0 -0.24089226081E+02 -0.37430038724E+02 -0.87155696001E+02  0.97869371907E+02  0.10000000000E+01 0.  0.
    9000005    1    3    3    0    0  0.24089226081E+02  0.37430038724E+02 -0.52701189747E+03  0.52888924993E+03  0.10000000000E+01 0.  0.
<mgrwt>
<rscale>  0 0.12499815E+03</rscale>
<asrwt>0</asrwt>
<pdfrwt beam="1">  1        4 0.96854113E-03 0.12499815E+03</pdfrwt>
<pdfrwt beam="2">  1       -4 0.95455814E-01 0.12499815E+03</pdfrwt>
<totfact> 0.47222884E+03</totfact>
</mgrwt>
</event>
<event>
 5    1  0.3340698E-002  0.1249984E+03  0.7818608E-02  0.1235072E+00
          4   -1    0    0  501    0  0.00000000000E+00  0.00000000000E+00  0.64589086928E+02  0.64601571577E+02  0.12700000000E+01 0.  1.
         -4   -1    0    0    0  501 -0.00000000000E+00 -0.00000000000E+00 -0.60451898328E+02  0.60465237215E+02  0.12700000000E+01 0.  1.
         25    2    1    2    0    0  0.00000000000E+00  0.00000000000E+00  0.41371886001E+01  0.12506680879E+03  0.12499836132E+03 0.  0.
    9000005    1    3    3    0    0 -0.36628946820E+01  0.18974169769E+02 -0.57392153801E+02  0.60566453040E+02  0.10000000000E+01 0.  0.
    9000005    1    3    3    0    0  0.36628946820E+01 -0.18974169769E+02  0.61529342401E+02  0.64500355752E+02  0.10000000000E+01 0.  0.
<mgrwt>
<rscale>  0 0.12499836E+03</rscale>
<asrwt>0</asrwt>
<pdfrwt beam="1">  1        4 0.99387690E-02 0.12499836E+03</pdfrwt>
<pdfrwt beam="2">  1       -4 0.93022785E-02 0.12499836E+03</pdfrwt>
<totfact> 0.10451799E+04</totfact>
</mgrwt>
</event>
<event>
 5    1  0.3340698E-002  0.1250067E+03  0.7818608E-02  0.1235059E+00
         -4   -1    0    0    0  501 -0.00000000000E+00  0.00000000000E+00  0.29435246224E+02  0.29462630913E+02  0.12700000000E+01 0. -1.
          4   -1    0    0  501    0  0.00000000000E+00 -0.00000000000E+00 -0.13262874245E+03  0.13263482282E+03  0.12700000000E+01 0. -1.
         25    2    1    2    0    0  0.00000000000E+00  0.00000000000E+00 -0.10319349623E+03  0.16209745373E+03  0.12500674719E+03 0.  0.
    9000005    1    3    3    0    0 -0.36866333397E+02 -0.65502585532E+01 -0.11647940375E+03  0.12235392893E+03  0.10000000000E+01 0.  0.
    9000005    1    3    3    0    0  0.36866333397E+02  0.65502585532E+01  0.13285907524E+02  0.39743524806E+02  0.10000000000E+01 0.  0.
<mgrwt>
<rscale>  0 0.12500675E+03</rscale>
<asrwt>0</asrwt>
<pdfrwt beam="2">  1        4 0.20406996E-01 0.12500675E+03</pdfrwt>
<pdfrwt beam="1">  1       -4 0.45310737E-02 0.12500675E+03</pdfrwt>
<totfact> 0.96925233E+03</totfact>
</mgrwt>
</event>
<event>
 5    1  0.3340698E-002  0.1250001E+03  0.7818608E-02  0.1235069E+00
         -4   -1    0    0    0  501 -0.00000000000E+00  0.00000000000E+00  0.31903568890E+02  0.31928836620E+02  0.12700000000E+01 0. -1.
          4   -1    0    0  501    0  0.00000000000E+00 -0.00000000000E+00 -0.12236252617E+03  0.12236911666E+03  0.12700000000E+01 0. -1.
         25    2    1    2    0    0  0.00000000000E+00  0.00000000000E+00 -0.90458957284E+02  0.15429795328E+03  0.12500014173E+03 0.  0.
    9000005    1    3    3    0    0 -0.97467506409E+01 -0.39258526819E+02  0.13569470796E+02  0.42677413391E+02  0.10000000000E+01 0.  0.
    9000005    1    3    3    0    0  0.97467506409E+01  0.39258526819E+02 -0.10402842808E+03  0.11162053989E+03  0.10000000000E+01 0.  0.
<mgrwt>
<rscale>  0 0.12500014E+03</rscale>
<asrwt>0</asrwt>
<pdfrwt beam="2">  1        4 0.18827454E-01 0.12500014E+03</pdfrwt>
<pdfrwt beam="1">  1       -4 0.49106921E-02 0.12500014E+03</pdfrwt>
<totfact> 0.98453182E+03</totfact>
</mgrwt>
</event>
<event>
 5    1  0.3340698E-002  0.1250005E+03  0.7818608E-02  0.1235069E+00
          4   -1    0    0  501    0  0.00000000000E+00  0.00000000000E+00  0.38912927198E+02  0.38933646157E+02  0.12700000000E+01 0.  1.
         -4   -1    0    0    0  501 -0.00000000000E+00 -0.00000000000E+00 -0.10033366606E+03  0.10034170342E+03  0.12700000000E+01 0.  1.
         25    2    1    2    0    0  0.00000000000E+00  0.00000000000E+00 -0.61420738865E+02  0.13927534958E+03  0.12500046335E+03 0.  0.
    9000005    1    3    3    0    0 -0.24987576013E+02  0.72105649140E+01 -0.94023013886E+02  0.97558691779E+02  0.10000000000E+01 0.  0.
    9000005    1    3    3    0    0  0.24987576013E+02 -0.72105649140E+01  0.32602275021E+02  0.41716657800E+02  0.10000000000E+01 0.  0.
<mgrwt>
<rscale>  0 0.12500046E+03</rscale>
<asrwt>0</asrwt>
<pdfrwt beam="1">  1        4 0.59888163E-02 0.12500046E+03</pdfrwt>
<pdfrwt beam="2">  1       -4 0.15438161E-01 0.12500046E+03</pdfrwt>
<totfact> 0.10148521E+04</totfact>
</mgrwt>
</event>
<event>
 5    1  0.3340698E-002  0.1249979E+03  0.7818608E-02  0.1235073E+00
          4   -1    0    0  501    0  0.00000000000E+00  0.00000000000E+00  0.25001273511E+03  0.25001596073E+03  0.12700000000E+01 0. -1.
         -4   -1    0    0    0  501 -0.00000000000E+00 -0.00000000000E+00 -0.15594544429E+02  0.15646172565E+02  0.12700000000E+01 0. -1.
         25    2    1    2    0    0  0.00000000000E+00  0.00000000000E+00  0.23441819068E+03  0.26566213329E+03  0.12499792375E+03 0.  0.
    9000005    1    3    3    0    0 -0.25141798291E+02  0.19369518095E+02  0.23161895612E+03  0.23378543386E+03  0.10000000000E+01 0.  0.
    9000005    1    3    3    0    0  0.25141798291E+02 -0.19369518095E+02  0.27992345670E+01  0.31876699432E+02  0.10000000000E+01 0.  0.
<mgrwt>
<rscale>  0 0.12499792E+03</rscale>
<asrwt>0</asrwt>
<pdfrwt beam="1">  1        4 0.38467715E-01 0.12499792E+03</pdfrwt>
<pdfrwt beam="2">  1       -4 0.24033803E-02 0.12499792E+03</pdfrwt>
<totfact> 0.80121671E+03</totfact>
</mgrwt>
</event>
<event>
 5    1  0.3340698E-002  0.1250015E+03  0.7818608E-02  0.1235067E+00
          4   -1    0    0  501    0  0.00000000000E+00  0.00000000000E+00  0.67170658584E+01  0.68360715141E+01  0.12700000000E+01 0. -1.
         -4   -1    0    0    0  501 -0.00000000000E+00 -0.00000000000E+00 -0.57632897860E+03  0.57633037788E+03  0.12700000000E+01 0. -1.
         25    2    1    2    0    0  0.00000000000E+00  0.00000000000E+00 -0.56961191274E+03  0.58316644940E+03  0.12500150627E+03 0.  0.
    9000005    1    3    3    0    0  0.48094158478E+02  0.36483087016E+02 -0.20939564738E+03  0.21792567738E+03  0.10000000000E+01 0.  0.
    9000005    1    3    3    0    0 -0.48094158478E+02 -0.36483087016E+02 -0.36021626536E+03  0.36524077202E+03  0.10000000000E+01 0.  0.
<mgrwt>
<rscale>  0 0.12500151E+03</rscale>
<asrwt>0</asrwt>
<pdfrwt beam="1">  1        4 0.10426571E-02 0.12500151E+03</pdfrwt>
<pdfrwt beam="2">  1       -4 0.88675220E-01 0.12500151E+03</pdfrwt>
<totfact> 0.49946095E+03</totfact>
</mgrwt>
</event>
<event>
 5    1  0.3340698E-002  0.1249999E+03  0.7818608E-02  0.1235070E+00
          4   -1    0    0  501    0  0.00000000000E+00  0.00000000000E+00  0.57845982559E+01  0.59223708920E+01  0.12700000000E+01 0.  1.
         -4   -1    0    0    0  501 -0.00000000000E+00 -0.00000000000E+00 -0.66719765663E+03  0.66719886534E+03  0.12700000000E+01 0.  1.
         25    2    1    2    0    0  0.00000000000E+00  0.00000000000E+00 -0.66141305837E+03  0.67312123623E+03  0.12499985952E+03 0.  0.
    9000005    1    3    3    0    0  0.58063218636E+02 -0.22746486820E+02 -0.35258119965E+03  0.35805480358E+03  0.10000000000E+01 0.  0.
    9000005    1    3    3    0    0 -0.58063218636E+02  0.22746486820E+02 -0.30883185872E+03  0.31506643265E+03  0.10000000000E+01 0.  0.
<mgrwt>
<rscale>  0 0.12499986E+03</rscale>
<asrwt>0</asrwt>
<pdfrwt beam="1">  1        4 0.90062959E-03 0.12499986E+03</pdfrwt>
<pdfrwt beam="2">  1       -4 0.10265642E+00 0.12499986E+03</pdfrwt>
<totfact> 0.44544228E+03</totfact>
</mgrwt>
</event>
<event>
 5    1  0.3340698E-002  0.1249991E+03  0.7818608E-02  0.1235071E+00
          4   -1    0    0  501    0  0.00000000000E+00  0.00000000000E+00  0.34834520982E+01  0.37077403523E+01  0.12700000000E+01 0.  1.
         -4   -1    0    0    0  501 -0.00000000000E+00 -0.00000000000E+00 -0.10861585473E+04  0.10861592898E+04  0.12700000000E+01 0.  1.
         25    2    1    2    0    0  0.00000000000E+00  0.00000000000E+00 -0.10826750952E+04  0.10898670301E+04  0.12499912638E+03 0.  0.
    9000005    1    3    3    0    0 -0.35563420777E+01 -0.55720226861E+02 -0.78606104401E+03  0.78804210304E+03  0.10000000000E+01 0.  0.
    9000005    1    3    3    0    0  0.35563420777E+01  0.55720226861E+02 -0.29661405119E+03  0.30182492710E+03  0.10000000000E+01 0.  0.
<mgrwt>
<rscale>  0 0.12499913E+03</rscale>
<asrwt>0</asrwt>
<pdfrwt beam="1">  1        4 0.55322663E-03 0.12499913E+03</pdfrwt>
<pdfrwt beam="2">  1       -4 0.16711836E+00 0.12499913E+03</pdfrwt>
<totfact> 0.27782435E+03</totfact>
</mgrwt>
</event>
<event>
 5    1  0.3340698E-002  0.1250020E+03  0.7818608E-02  0.1235066E+00
         -4   -1    0    0    0  501 -0.00000000000E+00  0.00000000000E+00  0.23920303402E+01  0.27082668164E+01  0.12700000000E+01 0.  1.
          4   -1    0    0  501    0  0.00000000000E+00 -0.00000000000E+00 -0.15315061183E+04  0.15315066449E+04  0.12700000000E+01 0.  1.
         25    2    1    2    0    0  0.00000000000E+00  0.00000000000E+00 -0.15291140880E+04  0.15342149117E+04  0.12500200500E+03 0.  0.
    9000005    1    3    3    0    0 -0.48235541346E+02 -0.26593568457E+02 -0.40223027615E+03  0.40598532040E+03  0.10000000000E+01 0.  0.
    9000005    1    3    3    0    0  0.48235541346E+02  0.26593568457E+02 -0.11268838118E+04  0.11282295913E+04  0.10000000000E+01 0.  0.
<mgrwt>
<rscale>  0 0.12500200E+03</rscale>
<asrwt>0</asrwt>
<pdfrwt beam="2">  1        4 0.23563996E+00 0.12500200E+03</pdfrwt>
<pdfrwt beam="1">  1       -4 0.39237228E-03 0.12500200E+03</pdfrwt>
<totfact> 0.17266883E+03</totfact>
</mgrwt>
</event>
<event>
 5    1  0.3340698E-002  0.1249795E+03  0.7818608E-02  0.1235101E+00
          4   -1    0    0  501    0  0.00000000000E+00  0.00000000000E+00  0.51605172578E+01  0.53144932371E+01  0.12700000000E+01 0.  1.
         -4   -1    0    0    0  501 -0.00000000000E+00 -0.00000000000E+00 -0.74542299457E+03  0.74542407644E+03  0.12700000000E+01 0.  1.
         25    2    1    2    0    0  0.00000000000E+00  0.00000000000E+00 -0.74026247731E+03  0.75073856968E+03  0.12497945704E+03 0.  0.
    9000005    1    3    3    0    0 -0.27525960714E+02  0.38917218280E+02 -0.12748404139E+03  0.13610807911E+03  0.10000000000E+01 0.  0.
    9000005    1    3    3    0    0  0.27525960714E+02 -0.38917218280E+02 -0.61277843593E+03  0.61463049056E+03  0.10000000000E+01 0.  0.
<mgrwt>
<rscale>  0 0.12497946E+03</rscale>
<asrwt>0</asrwt>
<pdfrwt beam="1">  1        4 0.80585385E-03 0.12497946E+03</pdfrwt>
<pdfrwt beam="2">  1       -4 0.11469230E+00 0.12497946E+03</pdfrwt>
<totfact> 0.40557071E+03</totfact>
</mgrwt>
</event>
<event>
 5    1  0.3340698E-002  0.1250003E+03  0.7818608E-02  0.1235069E+00
         -4   -1    0    0    0  501 -0.00000000000E+00  0.00000000000E+00  0.28143971498E+01  0.30876740950E+01  0.12700000000E+01 0. -1.
          4   -1    0    0  501    0  0.00000000000E+00 -0.00000000000E+00 -0.13234199969E+04  0.13234206063E+04  0.12700000000E+01 0. -1.
         25    2    1    2    0    0  0.00000000000E+00  0.00000000000E+00 -0.13206055997E+04  0.13265082803E+04  0.12500027112E+03 0.  0.
    9000005    1    3    3    0    0  0.58399028514E+02  0.17817656626E+02 -0.80162698013E+03  0.80394945780E+03  0.10000000000E+01 0.  0.
    9000005    1    3    3    0    0 -0.58399028514E+02 -0.17817656626E+02 -0.51897861961E+03  0.52255882255E+03  0.10000000000E+01 0.  0.
<mgrwt>
<rscale>  0 0.12500027E+03</rscale>
<asrwt>0</asrwt>
<pdfrwt beam="2">  1        4 0.20362367E+00 0.12500027E+03</pdfrwt>
<pdfrwt beam="1">  1       -4 0.45405341E-03 0.12500027E+03</pdfrwt>
<totfact> 0.21611340E+03</totfact>
</mgrwt>
</event>
<event>
 5    1  0.3340698E-002  0.1250019E+03  0.7818608E-02  0.1235066E+00
         -4   -1    0    0    0  501 -0.00000000000E+00  0.00000000000E+00  0.15483539833E+02  0.15535536867E+02  0.12700000000E+01 0. -1.
          4   -1    0    0  501    0  0.00000000000E+00 -0.00000000000E+00 -0.25181508509E+03  0.25181828762E+03  0.12700000000E+01 0. -1.
         25    2    1    2    0    0  0.00000000000E+00  0.00000000000E+00 -0.23633154526E+03  0.26735382448E+03  0.12500187272E+03 0.  0.
    9000005    1    3    3    0    0  0.36623611837E+02 -0.23927847166E+02 -0.21361314733E+03  0.21804909430E+03  0.10000000000E+01 0.  0.
    9000005    1    3    3    0    0 -0.36623611837E+02  0.23927847166E+02 -0.22718397928E+02  0.49304730183E+02  0.10000000000E+01 0.  0.
<mgrwt>
<rscale>  0 0.12500187E+03</rscale>
<asrwt>0</asrwt>
<pdfrwt beam="2">  1        4 0.38745025E-01 0.12500187E+03</pdfrwt>
<pdfrwt beam="1">  1       -4 0.23863294E-02 0.12500187E+03</pdfrwt>
<totfact> 0.79881679E+03</totfact>
</mgrwt>
</event>
<event>
 5    1  0.3340698E-002  0.1250009E+03  0.7818608E-02  0.1235068E+00
         -4   -1    0    0    0  501 -0.00000000000E+00  0.00000000000E+00  0.79728970399E+02  0.79739084651E+02  0.12700000000E+01 0.  1.
          4   -1    0    0  501    0  0.00000000000E+00 -0.00000000000E+00 -0.48973381988E+02  0.48989846329E+02  0.12700000000E+01 0.  1.
         25    2    1    2    0    0  0.00000000000E+00  0.00000000000E+00  0.30755588412E+02  0.12872893098E+03  0.12500092581E+03 0.  0.
    9000005    1    3    3    0    0 -0.32676667067E+02 -0.42457967447E+01  0.70060532419E+02  0.77429126067E+02  0.10000000000E+01 0.  0.
    9000005    1    3    3    0    0  0.32676667067E+02  0.42457967447E+01 -0.39304944008E+02  0.51299804912E+02  0.10000000000E+01 0.  0.
<mgrwt>
<rscale>  0 0.12500093E+03</rscale>
<asrwt>0</asrwt>
<pdfrwt beam="2">  1        4 0.75364111E-02 0.12500093E+03</pdfrwt>
<pdfrwt beam="1">  1       -4 0.12268040E-01 0.12500093E+03</pdfrwt>
<totfact> 0.10371559E+04</totfact>
</mgrwt>
</event>
<event>
 5    1  0.3340698E-002  0.1249995E+03  0.7818608E-02  0.1235070E+00
         -4   -1    0    0    0  501 -0.00000000000E+00  0.00000000000E+00  0.29109507577E+03  0.29109784616E+03  0.12700000000E+01 0. -1.
          4   -1    0    0  501    0  0.00000000000E+00 -0.00000000000E+00 -0.13386153921E+02  0.13446264046E+02  0.12700000000E+01 0. -1.
         25    2    1    2    0    0  0.00000000000E+00  0.00000000000E+00  0.27770892185E+03  0.30454411020E+03  0.12499947914E+03 0.  0.
    9000005    1    3    3    0    0  0.41608222415E+02 -0.13513201293E+02  0.30132414627E+02  0.53130153331E+02  0.10000000000E+01 0.  0.
    9000005    1    3    3    0    0 -0.41608222415E+02  0.13513201293E+02  0.24757650722E+03  0.25141395687E+03  0.10000000000E+01 0.  0.
<mgrwt>
<rscale>  0 0.12499948E+03</rscale>
<asrwt>0</asrwt>
<pdfrwt beam="2">  1        4 0.20642452E-02 0.12499948E+03</pdfrwt>
<pdfrwt beam="1">  1       -4 0.44788696E-01 0.12499948E+03</pdfrwt>
<totfact> 0.75033211E+03</totfact>
</mgrwt>
</event>
<event>
 5    1  0.3340698E-002  0.1250009E+03  0.7818608E-02  0.1235068E+00
         -4   -1    0    0    0  501 -0.00000000000E+00  0.00000000000E+00  0.16538593726E+02  0.16587283756E+02  0.12700000000E+01 0. -1.
          4   -1    0    0  501    0  0.00000000000E+00 -0.00000000000E+00 -0.23579568299E+03  0.23579910309E+03  0.12700000000E+01 0. -1.
         25    2    1    2    0    0  0.00000000000E+00  0.00000000000E+00 -0.21925708927E+03  0.25238638684E+03  0.12500086828E+03 0.  0.
    9000005    1    3    3    0    0 -0.53597714987E+02 -0.28669257672E+02 -0.80323195094E+02  0.10073458720E+03  0.10000000000E+01 0.  0.
    9000005    1    3    3    0    0  0.53597714987E+02  0.28669257672E+02 -0.13893389417E+03  0.15165179965E+03  0.10000000000E+01 0.  0.
<mgrwt>
<rscale>  0 0.12500087E+03</rscale>
<asrwt>0</asrwt>
<pdfrwt beam="2">  1        4 0.36280265E-01 0.12500087E+03</pdfrwt>
<pdfrwt beam="1">  1       -4 0.25484077E-02 0.12500087E+03</pdfrwt>
<totfact> 0.81984955E+03</totfact>
</mgrwt>
</event>
<event>
 5    1  0.3340698E-002  0.1250338E+03  0.7818608E-02  0.1235017E+00
         -4   -1    0    0    0  501 -0.00000000000E+00  0.00000000000E+00  0.35941986636E+02  0.35964417183E+02  0.12700000000E+01 0. -1.
          4   -1    0    0  501    0  0.00000000000E+00 -0.00000000000E+00 -0.10868076150E+03  0.10868818160E+03  0.12700000000E+01 0. -1.
         25    2    1    2    0    0  0.00000000000E+00  0.00000000000E+00 -0.72738774860E+02  0.14465259878E+03  0.12503377530E+03 0.  0.
    9000005    1    3    3    0    0  0.18342178626E+02  0.57260502993E+02 -0.16594698446E+02  0.62382567567E+02  0.10000000000E+01 0.  0.
    9000005    1    3    3    0    0 -0.18342178626E+02 -0.57260502993E+02 -0.56144076413E+02  0.82270031215E+02  0.10000000000E+01 0.  0.
<mgrwt>
<rscale>  0 0.12503378E+03</rscale>
<asrwt>0</asrwt>
<pdfrwt beam="2">  1        4 0.16722413E-01 0.12503378E+03</pdfrwt>
<pdfrwt beam="1">  1       -4 0.55318326E-02 0.12503378E+03</pdfrwt>
<totfact> 0.10030421E+04</totfact>
</mgrwt>
</event>
<event>
 5    1  0.3340698E-002  0.1250136E+03  0.7818608E-02  0.1235048E+00
          4   -1    0    0  501    0  0.00000000000E+00  0.00000000000E+00  0.34341706714E+02  0.34365181798E+02  0.12700000000E+01 0.  1.
         -4   -1    0    0    0  501 -0.00000000000E+00 -0.00000000000E+00 -0.11370541400E+03  0.11371250623E+03  0.12700000000E+01 0.  1.
         25    2    1    2    0    0  0.00000000000E+00  0.00000000000E+00 -0.79363707291E+02  0.14807768803E+03  0.12501361389E+03 0.  0.
    9000005    1    3    3    0    0 -0.16970746851E+02 -0.31338100200E+02  0.21132558431E+02  0.41444755985E+02  0.10000000000E+01 0.  0.
    9000005    1    3    3    0    0  0.16970746851E+02  0.31338100200E+02 -0.10049626572E+03  0.10663293205E+03  0.10000000000E+01 0.  0.
<mgrwt>
<rscale>  0 0.12501361E+03</rscale>
<asrwt>0</asrwt>
<pdfrwt beam="1">  1        4 0.52856909E-02 0.12501361E+03</pdfrwt>
<pdfrwt beam="2">  1       -4 0.17495492E-01 0.12501361E+03</pdfrwt>
<totfact> 0.99657727E+03</totfact>
</mgrwt>
</event>
<event>
 5    1  0.3340698E-002  0.1250016E+03  0.7818608E-02  0.1235067E+00
          4   -1    0    0  501    0  0.00000000000E+00  0.00000000000E+00  0.60564434995E+01  0.61881667611E+01  0.12700000000E+01 0.  1.
         -4   -1    0    0    0  501 -0.00000000000E+00 -0.00000000000E+00 -0.63791981684E+03  0.63792108103E+03  0.12700000000E+01 0.  1.
         25    2    1    2    0    0  0.00000000000E+00  0.00000000000E+00 -0.63186337334E+03  0.64410924779E+03  0.12500160205E+03 0.  0.
    9000005    1    3    3    0    0 -0.28836236931E+02 -0.39056072212E+02 -0.11316723463E+03  0.12314515147E+03  0.10000000000E+01 0.  0.
    9000005    1    3    3    0    0  0.28836236931E+02  0.39056072212E+02 -0.51869613872E+03  0.52096409632E+03  0.10000000000E+01 0.  0.
<mgrwt>
<rscale>  0 0.12500160E+03</rscale>
<asrwt>0</asrwt>
<pdfrwt beam="1">  1        4 0.94199085E-03 0.12500160E+03</pdfrwt>
<pdfrwt beam="2">  1       -4 0.98151688E-01 0.12500160E+03</pdfrwt>
<totfact> 0.46194939E+03</totfact>
</mgrwt>
</event>
<event>
 5    1  0.3340698E-002  0.1250004E+03  0.7818608E-02  0.1235069E+00
          4   -1    0    0  501    0  0.00000000000E+00  0.00000000000E+00  0.12701748038E+03  0.12702382935E+03  0.12700000000E+01 0. -1.
         -4   -1    0    0    0  501 -0.00000000000E+00 -0.00000000000E+00 -0.30733629163E+02  0.30759857957E+02  0.12700000000E+01 0. -1.
         25    2    1    2    0    0  0.00000000000E+00  0.00000000000E+00  0.96283851222E+02  0.15778368731E+03  0.12500044790E+03 0.  0.
    9000005    1    3    3    0    0  0.50929168191E+02  0.25706384566E+01  0.93739046724E+02  0.10671643376E+03  0.10000000000E+01 0.  0.
    9000005    1    3    3    0    0 -0.50929168191E+02 -0.25706384566E+01  0.25448044980E+01  0.51067253545E+02  0.10000000000E+01 0.  0.
<mgrwt>
<rscale>  0 0.12500045E+03</rscale>
<asrwt>0</asrwt>
<pdfrwt beam="1">  1        4 0.19543657E-01 0.12500045E+03</pdfrwt>
<pdfrwt beam="2">  1       -4 0.47307566E-02 0.12500045E+03</pdfrwt>
<totfact> 0.97770797E+03</totfact>
</mgrwt>
</event>
<event>
 5    1  0.3340698E-002  0.1249966E+03  0.7818608E-02  0.1235075E+00
          4   -1    0    0  501    0  0.00000000000E+00  0.00000000000E+00  0.67037677992E+02  0.67049706715E+02  0.12700000000E+01 0.  1.
         -4   -1    0    0    0  501 -0.00000000000E+00 -0.00000000000E+00 -0.58242079965E+02  0.58255924837E+02  0.12700000000E+01 0.  1.
         25    2    1    2    0    0  0.00000000000E+00  0.00000000000E+00  0.87955980272E+01  0.12530563155E+03  0.12499655497E+03 0.  0.
    9000005    1    3    3    0    0  0.72934712928E+01  0.43017896883E+02  0.49244313971E+02  0.65800734298E+02  0.10000000000E+01 0.  0.
    9000005    1    3    3    0    0 -0.72934712928E+01 -0.43017896883E+02 -0.40448715944E+02  0.59504897254E+02  0.10000000000E+01 0.  0.
<mgrwt>
<rscale>  0 0.12499655E+03</rscale>
<asrwt>0</asrwt>
<pdfrwt beam="1">  1        4 0.10315479E-01 0.12499655E+03</pdfrwt>
<pdfrwt beam="2">  1       -4 0.89623103E-02 0.12499655E+03</pdfrwt>
<totfact> 0.10447041E+04</totfact>
</mgrwt>
</event>
<event>
 5    1  0.3340698E-002  0.1250002E+03  0.7818608E-02  0.1235069E+00
          4   -1    0    0  501    0  0.00000000000E+00  0.00000000000E+00  0.16770813333E+03  0.16771294191E+03  0.12700000000E+01 0.  1.
         -4   -1    0    0    0  501 -0.00000000000E+00 -0.00000000000E+00 -0.23269552996E+02  0.23304184102E+02  0.12700000000E+01 0.  1.
         25    2    1    2    0    0  0.00000000000E+00  0.00000000000E+00  0.14443858033E+03  0.19101712601E+03  0.12500015577E+03 0.  0.
    9000005    1    3    3    0    0  0.51072516497E+02  0.18917562108E+02  0.25392890811E+02  0.60100540773E+02  0.10000000000E+01 0.  0.
    9000005    1    3    3    0    0 -0.51072516497E+02 -0.18917562108E+02  0.11904568952E+03  0.13091658524E+03  0.10000000000E+01 0.  0.
<mgrwt>
<rscale>  0 0.12500016E+03</rscale>
<asrwt>0</asrwt>
<pdfrwt beam="1">  1        4 0.25804285E-01 0.12500016E+03</pdfrwt>
<pdfrwt beam="2">  1       -4 0.35829651E-02 0.12500016E+03</pdfrwt>
<totfact> 0.91670319E+03</totfact>
</mgrwt>
</event>
<event>
 4    1  0.3340698E-002  0.1251268E+03  0.7818608E-02  0.1234871E+00
          4   -1    0    0  501    0  0.00000000000E+00  0.00000000000E+00  0.15136143664E+02  0.15189329972E+02  0.12700000000E+01 0.  1.
         -4   -1    0    0    0  501 -0.00000000000E+00 -0.00000000000E+00 -0.25808999815E+03  0.25809312282E+03  0.12700000000E+01 0.  1.
    9000005    1    1    2    0    0  0.21570731765E+01 -0.21640255488E+02 -0.24957862103E+03  0.25052632935E+03  0.10000000000E+01 0.  0.
    9000005    1    1    2    0    0 -0.21570731765E+01  0.21640255488E+02  0.66247665423E+01  0.22756123440E+02  0.10000000000E+01 0.  0.
<mgrwt>
<rscale>  0 0.12512683E+03</rscale>
<asrwt>0</asrwt>
<pdfrwt beam="1">  1        4 0.23329693E-02 0.12512683E+03</pdfrwt>
<pdfrwt beam="2">  1       -4 0.39710482E-01 0.12512683E+03</pdfrwt>
<totfact> 0.78854694E+03</totfact>
</mgrwt>
</event>
<event>
 5    1  0.3340698E-002  0.1250009E+03  0.7818608E-02  0.1235068E+00
          4   -1    0    0  501    0  0.00000000000E+00  0.00000000000E+00  0.41812892673E+03  0.41813085544E+03  0.12700000000E+01 0.  1.
         -4   -1    0    0    0  501 -0.00000000000E+00 -0.00000000000E+00 -0.92972265759E+01  0.93835665929E+01  0.12700000000E+01 0.  1.
         25    2    1    2    0    0  0.00000000000E+00  0.00000000000E+00  0.40883170015E+03  0.42751442203E+03  0.12500088797E+03 0.  0.
    9000005    1    3    3    0    0  0.66727638750E+00  0.30354415455E+02  0.17606552300E+02  0.35111628833E+02  0.10000000000E+01 0.  0.
    9000005    1    3    3    0    0 -0.66727638750E+00 -0.30354415455E+02  0.39122514785E+03  0.39240279320E+03  0.10000000000E+01 0.  0.
<mgrwt>
<rscale>  0 0.12500089E+03</rscale>
<asrwt>0</asrwt>
<pdfrwt beam="1">  1        4 0.64334336E-01 0.12500089E+03</pdfrwt>
<pdfrwt beam="2">  1       -4 0.14371320E-02 0.12500089E+03</pdfrwt>
<totfact> 0.61960715E+03</totfact>
</mgrwt>
</event>
<event>
 5    1  0.3340698E-002  0.1250008E+03  0.7818608E-02  0.1235068E+00
          4   -1    0    0  501    0  0.00000000000E+00  0.00000000000E+00  0.14470581943E+03  0.14471139236E+03  0.12700000000E+01 0. -1.
         -4   -1    0    0    0  501 -0.00000000000E+00 -0.00000000000E+00 -0.26973741010E+02  0.27003622054E+02  0.12700000000E+01 0. -1.
         25    2    1    2    0    0  0.00000000000E+00  0.00000000000E+00  0.11773207842E+03  0.17171501441E+03  0.12500081553E+03 0.  0.
    9000005    1    3    3    0    0  0.32201337223E+02 -0.19842593445E+02  0.12720242322E+03  0.13271062922E+03  0.10000000000E+01 0.  0.
    9000005    1    3    3    0    0 -0.32201337223E+02  0.19842593445E+02 -0.94703448004E+01  0.39004385192E+02  0.10000000000E+01 0.  0.
<mgrwt>
<rscale>  0 0.12500082E+03</rscale>
<asrwt>0</asrwt>
<pdfrwt beam="1">  1        4 0.22265160E-01 0.12500082E+03</pdfrwt>
<pdfrwt beam="2">  1       -4 0.41525336E-02 0.12500082E+03</pdfrwt>
<totfact> 0.95128203E+03</totfact>
</mgrwt>
</event>
<event>
 5    1  0.3340698E-002  0.1249984E+03  0.7818608E-02  0.1235072E+00
         -4   -1    0    0    0  501 -0.00000000000E+00  0.00000000000E+00  0.84543192966E+02  0.84552731339E+02  0.12700000000E+01 0.  1.
          4   -1    0    0  501    0  0.00000000000E+00 -0.00000000000E+00 -0.46182170010E+02  0.46199629076E+02  0.12700000000E+01 0.  1.
         25    2    1    2    0    0  0.00000000000E+00  0.00000000000E+00  0.38361022957E+02  0.13075236042E+03  0.12499844668E+03 0.  0.
    9000005    1    3    3    0    0  0.59737532053E+02  0.18329623063E+02  0.18366822008E+02  0.65137454419E+02  0.10000000000E+01 0.  0.
    9000005    1    3    3    0    0 -0.59737532053E+02 -0.18329623063E+02  0.19994200948E+02  0.65614905997E+02  0.10000000000E+01 0.  0.
<mgrwt>
<rscale>  0 0.12499845E+03</rscale>
<asrwt>0</asrwt>
<pdfrwt beam="2">  1        4 0.71070261E-02 0.12499845E+03</pdfrwt>
<pdfrwt beam="1">  1       -4 0.13008722E-01 0.12499845E+03</pdfrwt>
<totfact> 0.10328763E+04</totfact>
</mgrwt>
</event>
<event>
 5    1  0.3340698E-002  0.1249999E+03  0.7818608E-02  0.1235069E+00
         -4   -1    0    0    0  501 -0.00000000000E+00  0.00000000000E+00  0.80783459478E+02  0.80793441721E+02  0.12700000000E+01 0. -1.
          4   -1    0    0  501    0  0.00000000000E+00 -0.00000000000E+00 -0.48333193729E+02  0.48349876070E+02  0.12700000000E+01 0. -1.
         25    2    1    2    0    0  0.00000000000E+00  0.00000000000E+00  0.32450265749E+02  0.12914331779E+03  0.12499990713E+03 0.  0.
    9000005    1    3    3    0    0 -0.52434966064E+02 -0.12787491276E+02 -0.16319804320E+02  0.56393985604E+02  0.10000000000E+01 0.  0.
    9000005    1    3    3    0    0  0.52434966064E+02  0.12787491276E+02  0.48770070069E+02  0.72749332188E+02  0.10000000000E+01 0.  0.
<mgrwt>
<rscale>  0 0.12499991E+03</rscale>
<asrwt>0</asrwt>
<pdfrwt beam="2">  1        4 0.74379271E-02 0.12499991E+03</pdfrwt>
<pdfrwt beam="1">  1       -4 0.12430276E-01 0.12499991E+03</pdfrwt>
<totfact> 0.10362890E+04</totfact>
</mgrwt>
</event>
<event>
 5    1  0.3340698E-002  0.1250023E+03  0.7818608E-02  0.1235066E+00
          4   -1    0    0  501    0  0.00000000000E+00  0.00000000000E+00  0.17343693975E+03  0.17344158950E+03  0.12700000000E+01 0. -1.
         -4   -1    0    0    0  501 -0.00000000000E+00 -0.00000000000E+00 -0.22500560474E+02  0.22536373303E+02  0.12700000000E+01 0. -1.
         25    2    1    2    0    0  0.00000000000E+00  0.00000000000E+00  0.15093637927E+03  0.19597796281E+03  0.12500228525E+03 0.  0.
    9000005    1    3    3    0    0 -0.49732149990E+02 -0.28594992886E+02  0.11433029856E+03  0.12791941811E+03  0.10000000000E+01 0.  0.
    9000005    1    3    3    0    0  0.49732149990E+02  0.28594992886E+02  0.36606080713E+02  0.68058544695E+02  0.10000000000E+01 0.  0.
<mgrwt>
<rscale>  0 0.12500229E+03</rscale>
<asrwt>0</asrwt>
<pdfrwt beam="1">  1        4 0.26685718E-01 0.12500229E+03</pdfrwt>
<pdfrwt beam="2">  1       -4 0.34647373E-02 0.12500229E+03</pdfrwt>
<totfact> 0.90812801E+03</totfact>
</mgrwt>
</event>
<event>
 5    1  0.3340698E-002  0.1250031E+03  0.7818608E-02  0.1235064E+00
          4   -1    0    0  501    0  0.00000000000E+00  0.00000000000E+00  0.96245413799E+02  0.96253792535E+02  0.12700000000E+01 0.  1.
         -4   -1    0    0    0  501 -0.00000000000E+00 -0.00000000000E+00 -0.40568301382E+02  0.40588175335E+02  0.12700000000E+01 0.  1.
         25    2    1    2    0    0  0.00000000000E+00  0.00000000000E+00  0.55677112417E+02  0.13684196787E+03  0.12500313325E+03 0.  0.
    9000005    1    3    3    0    0  0.27387839130E+02  0.23450874229E+02  0.83715974600E+02  0.91155919377E+02  0.10000000000E+01 0.  0.
    9000005    1    3    3    0    0 -0.27387839130E+02 -0.23450874229E+02 -0.28038862183E+02  0.45686048492E+02  0.10000000000E+01 0.  0.
<mgrwt>
<rscale>  0 0.12500313E+03</rscale>
<asrwt>0</asrwt>
<pdfrwt beam="1">  1        4 0.14809160E-01 0.12500313E+03</pdfrwt>
<pdfrwt beam="2">  1       -4 0.62434505E-02 0.12500313E+03</pdfrwt>
<totfact> 0.10198671E+04</totfact>
</mgrwt>
</event>
<event>
 5    1  0.3340698E-002  0.1249905E+03  0.7818608E-02  0.1235084E+00
         -4   -1    0    0    0  501 -0.00000000000E+00  0.00000000000E+00  0.18048986990E+02  0.18093612999E+02  0.12700000000E+01 0.  1.
          4   -1    0    0  501    0  0.00000000000E+00 -0.00000000000E+00 -0.21607833522E+03  0.21608206740E+03  0.12700000000E+01 0.  1.
         25    2    1    2    0    0  0.00000000000E+00  0.00000000000E+00 -0.19802934823E+03  0.23417568040E+03  0.12499050576E+03 0.  0.
    9000005    1    3    3    0    0 -0.16164379703E+02  0.60348293610E+02 -0.10127299451E+03  0.11899757615E+03  0.10000000000E+01 0.  0.
    9000005    1    3    3    0    0  0.16164379703E+02 -0.60348293610E+02 -0.96756353716E+02  0.11517810424E+03  0.10000000000E+01 0.  0.
<mgrwt>
<rscale>  0 0.12499051E+03</rscale>
<asrwt>0</asrwt>
<pdfrwt beam="2">  1        4 0.33246539E-01 0.12499051E+03</pdfrwt>
<pdfrwt beam="1">  1       -4 0.27804872E-02 0.12499051E+03</pdfrwt>
<totfact> 0.84690448E+03</totfact>
</mgrwt>
</event>
<event>
 5    1  0.3340698E-002  0.1249837E+03  0.7818608E-02  0.1235095E+00
         -4   -1    0    0    0  501 -0.00000000000E+00  0.00000000000E+00  0.52193529965E+02  0.52208978827E+02  0.12700000000E+01 0.  1.
          4   -1    0    0  501    0  0.00000000000E+00 -0.00000000000E+00 -0.74790187373E+02  0.74800969427E+02  0.12700000000E+01 0.  1.
         25    2    1    2    0    0  0.00000000000E+00  0.00000000000E+00 -0.22596657408E+02  0.12700994825E+03  0.12498367105E+03 0.  0.
    9000005    1    3    3    0    0 -0.40542087836E+02 -0.28375459032E+02 -0.50066555550E+02  0.70402326283E+02  0.10000000000E+01 0.  0.
    9000005    1    3    3    0    0  0.40542087836E+02  0.28375459032E+02  0.27469898141E+02  0.56607621972E+02  0.10000000000E+01 0.  0.
<mgrwt>
<rscale>  0 0.12498367E+03</rscale>
<asrwt>0</asrwt>
<pdfrwt beam="2">  1        4 0.11508200E-01 0.12498367E+03</pdfrwt>
<pdfrwt beam="1">  1       -4 0.80317916E-02 0.12498367E+03</pdfrwt>
<totfact> 0.10412767E+04</totfact>
</mgrwt>
</event>
<event>
 5    1  0.3340698E-002  0.1249998E+03  0.7818608E-02  0.1235070E+00
          4   -1    0    0  501    0  0.00000000000E+00  0.00000000000E+00  0.58714226690E+02  0.58727960256E+02  0.12700000000E+01 0.  1.
         -4   -1    0    0    0  501 -0.00000000000E+00 -0.00000000000E+00 -0.66502079986E+02  0.66514205569E+02  0.12700000000E+01 0.  1.
         25    2    1    2    0    0  0.00000000000E+00  0.00000000000E+00 -0.77878532958E+01  0.12524216583E+03  0.12499979777E+03 0.  0.
    9000005    1    3    3    0    0 -0.44196580312E+02 -0.94019532607E+01 -0.47145936994E+02  0.65310594940E+02  0.10000000000E+01 0.  0.
    9000005    1    3    3    0    0  0.44196580312E+02  0.94019532607E+01  0.39358083698E+02  0.59931570885E+02  0.10000000000E+01 0.  0.
<mgrwt>
<rscale>  0 0.12499980E+03</rscale>
<asrwt>0</asrwt>
<pdfrwt beam="1">  1        4 0.90349471E-02 0.12499980E+03</pdfrwt>
<pdfrwt beam="2">  1       -4 0.10233078E-01 0.12499980E+03</pdfrwt>
<totfact> 0.10447653E+04</totfact>
</mgrwt>
</event>
<event>
 5    1  0.3340698E-002  0.1249974E+03  0.7818608E-02  0.1235073E+00
          4   -1    0    0  501    0  0.00000000000E+00  0.00000000000E+00  0.67637395107E+02  0.67649317194E+02  0.12700000000E+01 0. -1.
         -4   -1    0    0    0  501 -0.00000000000E+00 -0.00000000000E+00 -0.57726389336E+02  0.57740357859E+02  0.12700000000E+01 0. -1.
         25    2    1    2    0    0  0.00000000000E+00  0.00000000000E+00  0.99110057710E+01  0.12538967505E+03  0.12499737027E+03 0.  0.
    9000005    1    3    3    0    0 -0.48741442502E+02 -0.28659435241E+02 -0.21736167307E+02  0.60585084094E+02  0.10000000000E+01 0.  0.
    9000005    1    3    3    0    0  0.48741442502E+02  0.28659435241E+02  0.31647173078E+02  0.64804590959E+02  0.10000000000E+01 0.  0.
<mgrwt>
<rscale>  0 0.12499737E+03</rscale>
<asrwt>0</asrwt>
<pdfrwt beam="1">  1        4 0.10407745E-01 0.12499737E+03</pdfrwt>
<pdfrwt beam="2">  1       -4 0.88829745E-02 0.12499737E+03</pdfrwt>
<totfact> 0.10445015E+04</totfact>
</mgrwt>
</event>
<event>
 5    1  0.3340698E-002  0.1249999E+03  0.7818608E-02  0.1235069E+00
         -4   -1    0    0    0  501 -0.00000000000E+00  0.00000000000E+00  0.68734368951E+01  0.69897807370E+01  0.12700000000E+01 0.  1.
          4   -1    0    0  501    0  0.00000000000E+00 -0.00000000000E+00 -0.56342389716E+03  0.56342532849E+03  0.12700000000E+01 0.  1.
         25    2    1    2    0    0  0.00000000000E+00  0.00000000000E+00 -0.55655046026E+03  0.57041510923E+03  0.12499992808E+03 0.  0.
    9000005    1    3    3    0    0 -0.47755410304E+02 -0.73413072772E+00 -0.94371178826E+02  0.10577352010E+03  0.10000000000E+01 0.  0.
    9000005    1    3    3    0    0  0.47755410304E+02  0.73413072772E+00 -0.46217928143E+03  0.46464158913E+03  0.10000000000E+01 0.  0.
<mgrwt>
<rscale>  0 0.12499993E+03</rscale>
<asrwt>0</asrwt>
<pdfrwt beam="2">  1        4 0.86689623E-01 0.12499993E+03</pdfrwt>
<pdfrwt beam="1">  1       -4 0.10665119E-02 0.12499993E+03</pdfrwt>
<totfact> 0.50790076E+03</totfact>
</mgrwt>
</event>
<event>
 5    1  0.3340698E-002  0.1249979E+03  0.7818608E-02  0.1235073E+00
         -4   -1    0    0    0  501 -0.00000000000E+00  0.00000000000E+00  0.31075536579E+02  0.31101477034E+02  0.12700000000E+01 0. -1.
          4   -1    0    0  501    0  0.00000000000E+00 -0.00000000000E+00 -0.12561601929E+03  0.12562243909E+03  0.12700000000E+01 0. -1.
         25    2    1    2    0    0  0.00000000000E+00  0.00000000000E+00 -0.94540482713E+02  0.15672391612E+03  0.12499793204E+03 0.  0.
    9000005    1    3    3    0    0  0.26243920729E+02  0.14021584289E+01 -0.11835609319E+03  0.12124303781E+03  0.10000000000E+01 0.  0.
    9000005    1    3    3    0    0 -0.26243920729E+02 -0.14021584289E+01  0.23815610474E+02  0.35480878311E+02  0.10000000000E+01 0.  0.
<mgrwt>
<rscale>  0 0.12499793E+03</rscale>
<asrwt>0</asrwt>
<pdfrwt beam="2">  1        4 0.19328030E-01 0.12499793E+03</pdfrwt>
<pdfrwt beam="1">  1       -4 0.47833411E-02 0.12499793E+03</pdfrwt>
<totfact> 0.97982688E+03</totfact>
</mgrwt>
</event>
<event>
 5    1  0.3340698E-002  0.1249974E+03  0.7818608E-02  0.1235073E+00
         -4   -1    0    0    0  501 -0.00000000000E+00  0.00000000000E+00  0.42879578594E+03  0.42879766667E+03  0.12700000000E+01 0. -1.
          4   -1    0    0  501    0  0.00000000000E+00 -0.00000000000E+00 -0.90632657047E+01  0.91518132211E+01  0.12700000000E+01 0. -1.
         25    2    1    2    0    0  0.00000000000E+00  0.00000000000E+00  0.41973252024E+03  0.43794947989E+03  0.12499743354E+03 0.  0.
    9000005    1    3    3    0    0  0.20003951361E+02  0.58560221217E+02  0.24033649246E+03  0.24817753159E+03  0.10000000000E+01 0.  0.
    9000005    1    3    3    0    0 -0.20003951361E+02 -0.58560221217E+02  0.17939602778E+03  0.18977194830E+03  0.10000000000E+01 0.  0.
<mgrwt>
<rscale>  0 0.12499743E+03</rscale>
<asrwt>0</asrwt>
<pdfrwt beam="2">  1        4 0.14013046E-02 0.12499743E+03</pdfrwt>
<pdfrwt beam="1">  1       -4 0.65975537E-01 0.12499743E+03</pdfrwt>
<totfact> 0.61025422E+03</totfact>
</mgrwt>
</event>
<event>
 5    1  0.3340698E-002  0.1249991E+03  0.7818608E-02  0.1235071E+00
          4   -1    0    0  501    0  0.00000000000E+00  0.00000000000E+00  0.17577367958E+02  0.17623188257E+02  0.12700000000E+01 0.  1.
         -4   -1    0    0    0  501 -0.00000000000E+00 -0.00000000000E+00 -0.22189184417E+03  0.22189547857E+03  0.12700000000E+01 0.  1.
         25    2    1    2    0    0  0.00000000000E+00  0.00000000000E+00 -0.20431447621E+03  0.23951866683E+03  0.12499914627E+03 0.  0.
    9000005    1    3    3    0    0  0.75393295171E+01  0.57013382221E+02 -0.14900846340E+03  0.15972441706E+03  0.10000000000E+01 0.  0.
    9000005    1    3    3    0    0 -0.75393295171E+01 -0.57013382221E+02 -0.55306012815E+02  0.79794249764E+02  0.10000000000E+01 0.  0.
<mgrwt>
<rscale>  0 0.12499915E+03</rscale>
<asrwt>0</asrwt>
<pdfrwt beam="1">  1        4 0.27080148E-02 0.12499915E+03</pdfrwt>
<pdfrwt beam="2">  1       -4 0.34141009E-01 0.12499915E+03</pdfrwt>
<totfact> 0.83870703E+03</totfact>
</mgrwt>
</event>
<event>
 5    1  0.3340698E-002  0.1250007E+03  0.7818608E-02  0.1235068E+00
          4   -1    0    0  501    0  0.00000000000E+00  0.00000000000E+00  0.13688373842E+03  0.13688962979E+03  0.12700000000E+01 0. -1.
         -4   -1    0    0    0  501 -0.00000000000E+00 -0.00000000000E+00 -0.28516656708E+02  0.28544922663E+02  0.12700000000E+01 0. -1.
         25    2    1    2    0    0  0.00000000000E+00  0.00000000000E+00  0.10836708171E+03  0.16543455245E+03  0.12500066698E+03 0.  0.
    9000005    1    3    3    0    0 -0.26111186126E+02 -0.17580311039E+02  0.12563164806E+03  0.12951900390E+03  0.10000000000E+01 0.  0.
    9000005    1    3    3    0    0  0.26111186126E+02  0.17580311039E+02 -0.17264566343E+02  0.35915548557E+02  0.10000000000E+01 0.  0.
<mgrwt>
<rscale>  0 0.12500067E+03</rscale>
<asrwt>0</asrwt>
<pdfrwt beam="1">  1        4 0.21061664E-01 0.12500067E+03</pdfrwt>
<pdfrwt beam="2">  1       -4 0.43898055E-02 0.12500067E+03</pdfrwt>
<totfact> 0.96303715E+03</totfact>
</mgrwt>
</event>
<event>
 5    1  0.3340698E-002  0.1250014E+03  0.7818608E-02  0.1235067E+00
          4   -1    0    0  501    0  0.00000000000E+00  0.00000000000E+00  0.66409129763E+03  0.66409251199E+03  0.12700000000E+01 0. -1.
         -4   -1    0    0    0  501 -0.00000000000E+00 -0.00000000000E+00 -0.58124464397E+01  0.59495742381E+01  0.12700000000E+01 0. -1.
         25    2    1    2    0    0  0.00000000000E+00  0.00000000000E+00  0.65827885119E+03  0.67004208623E+03  0.12500140559E+03 0.  0.
    9000005    1    3    3    0    0  0.52980921137E+02 -0.54793338582E+01  0.50434231688E+03  0.50714807867E+03  0.10000000000E+01 0.  0.
    9000005    1    3    3    0    0 -0.52980921137E+02  0.54793338582E+01  0.15393653430E+03  0.16289400756E+03  0.10000000000E+01 0.  0.
<mgrwt>
<rscale>  0 0.12500141E+03</rscale>
<asrwt>0</asrwt>
<pdfrwt beam="1">  1        4 0.10217849E+00 0.12500141E+03</pdfrwt>
<pdfrwt beam="2">  1       -4 0.90486463E-03 0.12500141E+03</pdfrwt>
<totfact> 0.44714634E+03</totfact>
</mgrwt>
</event>
<event>
 5    1  0.3340698E-002  0.1250005E+03  0.7818608E-02  0.1235068E+00
          4   -1    0    0  501    0  0.00000000000E+00  0.00000000000E+00  0.50614966929E+01  0.52183952296E+01  0.12700000000E+01 0. -1.
         -4   -1    0    0    0  501 -0.00000000000E+00 -0.00000000000E+00 -0.75982778103E+03  0.75982884239E+03  0.12700000000E+01 0. -1.
         25    2    1    2    0    0  0.00000000000E+00  0.00000000000E+00 -0.75476628434E+03  0.76504723762E+03  0.12500052726E+03 0.  0.
    9000005    1    3    3    0    0 -0.50060148722E+02 -0.16275309149E+02 -0.17124637886E+03  0.17915698828E+03  0.10000000000E+01 0.  0.
    9000005    1    3    3    0    0  0.50060148722E+02  0.16275309149E+02 -0.58351990548E+03  0.58589024934E+03  0.10000000000E+01 0.  0.
<mgrwt>
<rscale>  0 0.12500053E+03</rscale>
<asrwt>0</asrwt>
<pdfrwt beam="1">  1        4 0.79084316E-03 0.12500053E+03</pdfrwt>
<pdfrwt beam="2">  1       -4 0.11690864E+00 0.12500053E+03</pdfrwt>
<totfact> 0.39864128E+03</totfact>
</mgrwt>
</event>
<event>
 5    1  0.3340698E-002  0.1250010E+03  0.7818608E-02  0.1235068E+00
         -4   -1    0    0    0  501 -0.00000000000E+00  0.00000000000E+00  0.79390600091E+01  0.80399983724E+01  0.12700000000E+01 0. -1.
          4   -1    0    0  501    0  0.00000000000E+00 -0.00000000000E+00 -0.48882748152E+03  0.48882913128E+03  0.12700000000E+01 0. -1.
         25    2    1    2    0    0  0.00000000000E+00  0.00000000000E+00 -0.48088842151E+03  0.49686912965E+03  0.12500103223E+03 0.  0.
    9000005    1    3    3    0    0  0.60217810245E+02  0.76971913437E-01 -0.17403521037E+03  0.18416146461E+03  0.10000000000E+01 0.  0.
    9000005    1    3    3    0    0 -0.60217810245E+02 -0.76971913437E-01 -0.30685321114E+03  0.31270766505E+03  0.10000000000E+01 0.  0.
<mgrwt>
<rscale>  0 0.12500103E+03</rscale>
<asrwt>0</asrwt>
<pdfrwt beam="2">  1        4 0.75212096E-01 0.12500103E+03</pdfrwt>
<pdfrwt beam="1">  1       -4 0.12292856E-02 0.12500103E+03</pdfrwt>
<totfact> 0.56106841E+03</totfact>
</mgrwt>
</event>
<event>
 5    1  0.3340698E-002  0.1250060E+03  0.7818608E-02  0.1235060E+00
         -4   -1    0    0    0  501 -0.00000000000E+00  0.00000000000E+00  0.20427811680E+03  0.20428206456E+03  0.12700000000E+01 0.  1.
          4   -1    0    0  501    0  0.00000000000E+00 -0.00000000000E+00 -0.19098828127E+02  0.19141006657E+02  0.12700000000E+01 0.  1.
         25    2    1    2    0    0  0.00000000000E+00  0.00000000000E+00  0.18517928867E+03  0.22342307122E+03  0.12500599906E+03 0.  0.
    9000005    1    3    3    0    0 -0.42480080622E+02 -0.44050906849E+02  0.11523869819E+03  0.13048370475E+03  0.10000000000E+01 0.  0.
    9000005    1    3    3    0    0  0.42480080622E+02  0.44050906849E+02  0.69940590476E+02  0.92939366471E+02  0.10000000000E+01 0.  0.
<mgrwt>
<rscale>  0 0.12500600E+03</rscale>
<asrwt>0</asrwt>
<pdfrwt beam="2">  1        4 0.29418294E-02 0.12500600E+03</pdfrwt>
<pdfrwt beam="1">  1       -4 0.31430952E-01 0.12500600E+03</pdfrwt>
<totfact> 0.86318010E+03</totfact>
</mgrwt>
</event>
<event>
 5    1  0.3340698E-002  0.1250004E+03  0.7818608E-02  0.1235069E+00
         -4   -1    0    0    0  501 -0.00000000000E+00  0.00000000000E+00  0.36653410021E+01  0.38791267911E+01  0.12700000000E+01 0.  1.
          4   -1    0    0  501    0  0.00000000000E+00 -0.00000000000E+00 -0.10353195032E+04  0.10353202821E+04  0.12700000000E+01 0.  1.
         25    2    1    2    0    0  0.00000000000E+00  0.00000000000E+00 -0.10316541622E+04  0.10391994089E+04  0.12500040455E+03 0.  0.
    9000005    1    3    3    0    0 -0.89828509255E+00 -0.90457726310E+01 -0.18197575406E+01  0.93244000400E+01  0.10000000000E+01 0.  0.
    9000005    1    3    3    0    0  0.89828509255E+00  0.90457726310E+01 -0.10298344047E+04  0.10298750089E+04  0.10000000000E+01 0.  0.
<mgrwt>
<rscale>  0 0.12500040E+03</rscale>
<asrwt>0</asrwt>
<pdfrwt beam="2">  1        4 0.15929620E+00 0.12500040E+03</pdfrwt>
<pdfrwt beam="1">  1       -4 0.58040442E-03 0.12500040E+03</pdfrwt>
<totfact> 0.29334201E+03</totfact>
</mgrwt>
</event>
<event>
 5    1  0.3340698E-002  0.1250112E+03  0.7818608E-02  0.1235052E+00
          4   -1    0    0  501    0  0.00000000000E+00  0.00000000000E+00  0.27144363554E+03  0.27144660649E+03  0.12700000000E+01 0.  1.
         -4   -1    0    0    0  501 -0.00000000000E+00 -0.00000000000E+00 -0.14362154946E+02  0.14418196652E+02  0.12700000000E+01 0.  1.
         25    2    1    2    0    0  0.00000000000E+00  0.00000000000E+00  0.25708148059E+03  0.28586480314E+03  0.12501119154E+03 0.  0.
    9000005    1    3    3    0    0 -0.28587287654E+02 -0.46682473228E+02  0.19750186766E+03  0.20494993059E+03  0.10000000000E+01 0.  0.
    9000005    1    3    3    0    0  0.28587287654E+02  0.46682473228E+02  0.59579612938E+02  0.80914872551E+02  0.10000000000E+01 0.  0.
<mgrwt>
<rscale>  0 0.12501119E+03</rscale>
<asrwt>0</asrwt>
<pdfrwt beam="1">  1        4 0.41765100E-01 0.12501119E+03</pdfrwt>
<pdfrwt beam="2">  1       -4 0.22141016E-02 0.12501119E+03</pdfrwt>
<totfact> 0.77387598E+03</totfact>
</mgrwt>
</event>
<event>
 5    1  0.3340698E-002  0.1249991E+03  0.7818608E-02  0.1235071E+00
          4   -1    0    0  501    0  0.00000000000E+00  0.00000000000E+00  0.43747983878E+03  0.43748168217E+03  0.12700000000E+01 0. -1.
         -4   -1    0    0    0  501 -0.00000000000E+00 -0.00000000000E+00 -0.88818264605E+01  0.89721648043E+01  0.12700000000E+01 0. -1.
         25    2    1    2    0    0  0.00000000000E+00  0.00000000000E+00  0.42859801232E+03  0.44645384698E+03  0.12499912527E+03 0.  0.
    9000005    1    3    3    0    0 -0.56961444649E+02 -0.13305254473E+02  0.29283965616E+03  0.29862635549E+03  0.10000000000E+01 0.  0.
    9000005    1    3    3    0    0  0.56961444649E+02  0.13305254473E+02  0.13575835616E+03  0.14782749149E+03  0.10000000000E+01 0.  0.
<mgrwt>
<rscale>  0 0.12499913E+03</rscale>
<asrwt>0</asrwt>
<pdfrwt beam="1">  1        4 0.67311678E-01 0.12499913E+03</pdfrwt>
<pdfrwt beam="2">  1       -4 0.13735258E-02 0.12499913E+03</pdfrwt>
<totfact> 0.60273395E+03</totfact>
</mgrwt>
</event>
<event>
 5    1  0.3340698E-002  0.1250023E+03  0.7818608E-02  0.1235066E+00
          4   -1    0    0  501    0  0.00000000000E+00  0.00000000000E+00  0.54218985891E+03  0.54219134630E+03  0.12700000000E+01 0. -1.
         -4   -1    0    0    0  501 -0.00000000000E+00 -0.00000000000E+00 -0.71473660789E+01  0.72593210333E+01  0.12700000000E+01 0. -1.
         25    2    1    2    0    0  0.00000000000E+00  0.00000000000E+00  0.53504249283E+03  0.54945066734E+03  0.12500226678E+03 0.  0.
    9000005    1    3    3    0    0 -0.32562596669E+02  0.35939062974E+02  0.44076589858E+03  0.44342701350E+03  0.10000000000E+01 0.  0.
    9000005    1    3    3    0    0  0.32562596669E+02 -0.35939062974E+02  0.94276594248E+02  0.10602365383E+03  0.10000000000E+01 0.  0.
<mgrwt>
<rscale>  0 0.12500227E+03</rscale>
<asrwt>0</asrwt>
<pdfrwt beam="1">  1        4 0.83422549E-01 0.12500227E+03</pdfrwt>
<pdfrwt beam="2">  1       -4 0.11083211E-02 0.12500227E+03</pdfrwt>
<totfact> 0.52219641E+03</totfact>
</mgrwt>
</event>
<event>
 5    1  0.3340698E-002  0.1250002E+03  0.7818608E-02  0.1235069E+00
         -4   -1    0    0    0  501 -0.00000000000E+00  0.00000000000E+00  0.39409800694E+03  0.39410005325E+03  0.12700000000E+01 0. -1.
          4   -1    0    0  501    0  0.00000000000E+00 -0.00000000000E+00 -0.98691415405E+01  0.99505203254E+01  0.12700000000E+01 0. -1.
         25    2    1    2    0    0  0.00000000000E+00  0.00000000000E+00  0.38422886540E+03  0.40405057358E+03  0.12500018001E+03 0.  0.
    9000005    1    3    3    0    0  0.48218450639E+01  0.23068269592E+02  0.37919936304E+03  0.37993229947E+03  0.10000000000E+01 0.  0.
    9000005    1    3    3    0    0 -0.48218450639E+01 -0.23068269592E+02  0.50295023565E+01  0.24118274104E+02  0.10000000000E+01 0.  0.
<mgrwt>
<rscale>  0 0.12500018E+03</rscale>
<asrwt>0</asrwt>
<pdfrwt beam="2">  1        4 0.15247470E-02 0.12500018E+03</pdfrwt>
<pdfrwt beam="1">  1       -4 0.60636872E-01 0.12500018E+03</pdfrwt>
<totfact> 0.64160481E+03</totfact>
</mgrwt>
</event>
<event>
 5    1  0.3340698E-002  0.1249998E+03  0.7818608E-02  0.1235070E+00
          4   -1    0    0  501    0  0.00000000000E+00  0.00000000000E+00  0.82060075069E+02  0.82069902037E+02  0.12700000000E+01 0. -1.
         -4   -1    0    0    0  501 -0.00000000000E+00 -0.00000000000E+00 -0.47581045452E+02  0.47597991410E+02  0.12700000000E+01 0. -1.
         25    2    1    2    0    0  0.00000000000E+00  0.00000000000E+00  0.34479029617E+02  0.12966789345E+03  0.12499983643E+03 0.  0.
    9000005    1    3    3    0    0  0.29126793609E+02 -0.48119305304E+02  0.45485057596E+02  0.72344509905E+02  0.10000000000E+01 0.  0.
    9000005    1    3    3    0    0 -0.29126793609E+02  0.48119305304E+02 -0.11006027979E+02  0.57323383542E+02  0.10000000000E+01 0.  0.
<mgrwt>
<rscale>  0 0.12499984E+03</rscale>
<asrwt>0</asrwt>
<pdfrwt beam="1">  1        4 0.12626686E-01 0.12499984E+03</pdfrwt>
<pdfrwt beam="2">  1       -4 0.73222204E-02 0.12499984E+03</pdfrwt>
<totfact> 0.10351655E+04</totfact>
</mgrwt>
</event>
<event>
 5    1  0.3340698E-002  0.1249985E+03  0.7818608E-02  0.1235072E+00
          4   -1    0    0  501    0  0.00000000000E+00  0.00000000000E+00  0.26223255797E+02  0.26253991022E+02  0.12700000000E+01 0.  1.
         -4   -1    0    0    0  501 -0.00000000000E+00 -0.00000000000E+00 -0.14883691347E+03  0.14884233172E+03  0.12700000000E+01 0.  1.
         25    2    1    2    0    0  0.00000000000E+00  0.00000000000E+00 -0.12261365768E+03  0.17509632274E+03  0.12499845275E+03 0.  0.
    9000005    1    3    3    0    0 -0.79303259662E+01 -0.40484303024E+02 -0.12705863263E+03  0.13359178488E+03  0.10000000000E+01 0.  0.
    9000005    1    3    3    0    0  0.79303259662E+01  0.40484303024E+02  0.44449749509E+01  0.41504537868E+02  0.10000000000E+01 0.  0.
<mgrwt>
<rscale>  0 0.12499845E+03</rscale>
<asrwt>0</asrwt>
<pdfrwt beam="1">  1        4 0.40371282E-02 0.12499845E+03</pdfrwt>
<pdfrwt beam="2">  1       -4 0.22900767E-01 0.12499845E+03</pdfrwt>
<totfact> 0.94510483E+03</totfact>
</mgrwt>
</event>
<event>
 5    1  0.3340698E-002  0.1249985E+03  0.7818608E-02  0.1235072E+00
         -4   -1    0    0    0  501 -0.00000000000E+00  0.00000000000E+00  0.20377193451E+02  0.20416731201E+02  0.12700000000E+01 0.  1.
          4   -1    0    0  501    0  0.00000000000E+00 -0.00000000000E+00 -0.19146504018E+03  0.19146925213E+03  0.12700000000E+01 0.  1.
         25    2    1    2    0    0  0.00000000000E+00  0.00000000000E+00 -0.17108784673E+03  0.21188598333E+03  0.12499847453E+03 0.  0.
    9000005    1    3    3    0    0 -0.53005260652E+02 -0.32823759755E+02 -0.92775065954E+02  0.11178179514E+03  0.10000000000E+01 0.  0.
    9000005    1    3    3    0    0  0.53005260652E+02  0.32823759755E+02 -0.78312780775E+02  0.10010418819E+03  0.10000000000E+01 0.  0.
<mgrwt>
<rscale>  0 0.12499847E+03</rscale>
<asrwt>0</asrwt>
<pdfrwt beam="2">  1        4 0.29459524E-01 0.12499847E+03</pdfrwt>
<pdfrwt beam="1">  1       -4 0.31383183E-02 0.12499847E+03</pdfrwt>
<totfact> 0.88171806E+03</totfact>
</mgrwt>
</event>
<event>
 5    1  0.3340698E-002  0.1249926E+03  0.7818608E-02  0.1235081E+00
         -4   -1    0    0    0  501 -0.00000000000E+00  0.00000000000E+00  0.59271336097E+03  0.59271472158E+03  0.12700000000E+01 0.  1.
          4   -1    0    0  501    0  0.00000000000E+00 -0.00000000000E+00 -0.65270969742E+01  0.66495033582E+01  0.12700000000E+01 0.  1.
         25    2    1    2    0    0  0.00000000000E+00  0.00000000000E+00  0.58618626400E+03  0.59936422493E+03  0.12499255191E+03 0.  0.
    9000005    1    3    3    0    0  0.23840482974E+02  0.80650384625E+01  0.56735888664E+03  0.56791770507E+03  0.10000000000E+01 0.  0.
    9000005    1    3    3    0    0 -0.23840482974E+02 -0.80650384625E+01  0.18827377353E+02  0.31446519868E+02  0.10000000000E+01 0.  0.
<mgrwt>
<rscale>  0 0.12499255E+03</rscale>
<asrwt>0</asrwt>
<pdfrwt beam="2">  1        4 0.10136892E-02 0.12499255E+03</pdfrwt>
<pdfrwt beam="1">  1       -4 0.91196198E-01 0.12499255E+03</pdfrwt>
<totfact> 0.48915752E+03</totfact>
</mgrwt>
</event>
<event>
 5    1  0.3340698E-002  0.1249691E+03  0.7818608E-02  0.1235118E+00
         -4   -1    0    0    0  501 -0.00000000000E+00  0.00000000000E+00  0.25502598697E+02  0.25534201384E+02  0.12700000000E+01 0. -1.
          4   -1    0    0  501    0  0.00000000000E+00 -0.00000000000E+00 -0.15296583493E+03  0.15297110693E+03  0.12700000000E+01 0. -1.
         25    2    1    2    0    0  0.00000000000E+00  0.00000000000E+00 -0.12746323624E+03  0.17850530832E+03  0.12496907020E+03 0.  0.
    9000005    1    3    3    0    0 -0.47813377313E+02 -0.40093498479E+02 -0.59280736421E+02  0.86074464163E+02  0.10000000000E+01 0.  0.
    9000005    1    3    3    0    0  0.47813377313E+02  0.40093498479E+02 -0.68182499815E+02  0.92430844156E+02  0.10000000000E+01 0.  0.
<mgrwt>
<rscale>  0 0.12496907E+03</rscale>
<asrwt>0</asrwt>
<pdfrwt beam="2">  1        4 0.23536041E-01 0.12496907E+03</pdfrwt>
<pdfrwt beam="1">  1       -4 0.39263133E-02 0.12496907E+03</pdfrwt>
<totfact> 0.93951897E+03</totfact>
</mgrwt>
</event>
<event>
 4    1  0.3340698E-002  0.1249321E+03  0.7818608E-02  0.1235175E+00
          4   -1    0    0  501    0  0.00000000000E+00  0.00000000000E+00  0.59965517920E+01  0.61295622514E+01  0.12700000000E+01 0. -1.
         -4   -1    0    0    0  501 -0.00000000000E+00 -0.00000000000E+00 -0.64343715827E+03  0.64343841161E+03  0.12700000000E+01 0. -1.
    9000005    1    1    2    0    0 -0.29999331507E+02 -0.56575583520E+01 -0.60202810806E+03  0.60280246413E+03  0.10000000000E+01 0.  0.
    9000005    1    1    2    0    0  0.29999331507E+02  0.56575583520E+01 -0.35412498413E+02  0.46765509740E+02  0.10000000000E+01 0.  0.
<mgrwt>
<rscale>  0 0.12493209E+03</rscale>
<asrwt>0</asrwt>
<pdfrwt beam="1">  1        4 0.93287492E-03 0.12493209E+03</pdfrwt>
<pdfrwt beam="2">  1       -4 0.99000606E-01 0.12493209E+03</pdfrwt>
<totfact> 0.45949269E+03</totfact>
</mgrwt>
</event>
<event>
 5    1  0.3340698E-002  0.1249670E+03  0.7818608E-02  0.1235121E+00
         -4   -1    0    0    0  501 -0.00000000000E+00  0.00000000000E+00  0.79755798852E+01  0.80760618191E+01  0.12700000000E+01 0. -1.
          4   -1    0    0  501    0  0.00000000000E+00 -0.00000000000E+00 -0.48635173097E+03  0.48635338913E+03  0.12700000000E+01 0. -1.
         25    2    1    2    0    0  0.00000000000E+00  0.00000000000E+00 -0.47837615109E+03  0.49442945095E+03  0.12496695579E+03 0.  0.
    9000005    1    3    3    0    0 -0.51602323412E+02  0.34679631301E+02 -0.26348370746E+03  0.27072151873E+03  0.10000000000E+01 0.  0.
    9000005    1    3    3    0    0  0.51602323412E+02 -0.34679631301E+02 -0.21489244363E+03  0.22370793222E+03  0.10000000000E+01 0.  0.
<mgrwt>
<rscale>  0 0.12496696E+03</rscale>
<asrwt>0</asrwt>
<pdfrwt beam="2">  1        4 0.74831177E-01 0.12496696E+03</pdfrwt>
<pdfrwt beam="1">  1       -4 0.12348696E-02 0.12496696E+03</pdfrwt>
<totfact> 0.56340121E+03</totfact>
</mgrwt>
</event>
<event>
 5    1  0.3340698E-002  0.1250014E+03  0.7818608E-02  0.1235067E+00
         -4   -1    0    0    0  501 -0.00000000000E+00  0.00000000000E+00  0.95352810328E+02  0.95361267491E+02  0.12700000000E+01 0.  1.
          4   -1    0    0  501    0  0.00000000000E+00 -0.00000000000E+00 -0.40947054498E+02  0.40966744709E+02  0.12700000000E+01 0.  1.
         25    2    1    2    0    0  0.00000000000E+00  0.00000000000E+00  0.54405755830E+02  0.13632801220E+03  0.12500136256E+03 0.  0.
    9000005    1    3    3    0    0  0.16797000237E+01 -0.62040365334E+02  0.19225227560E+02  0.64980286993E+02  0.10000000000E+01 0.  0.
    9000005    1    3    3    0    0 -0.16797000237E+01  0.62040365334E+02  0.35180528271E+02  0.71347725208E+02  0.10000000000E+01 0.  0.
<mgrwt>
<rscale>  0 0.12500136E+03</rscale>
<asrwt>0</asrwt>
<pdfrwt beam="2">  1        4 0.63017121E-02 0.12500136E+03</pdfrwt>
<pdfrwt beam="1">  1       -4 0.14671828E-01 0.12500136E+03</pdfrwt>
<totfact> 0.10209841E+04</totfact>
</mgrwt>
</event>
<event>
 5    1  0.3340698E-002  0.1250005E+03  0.7818608E-02  0.1235068E+00
         -4   -1    0    0    0  501 -0.00000000000E+00  0.00000000000E+00  0.30858532121E+03  0.30858793458E+03  0.12700000000E+01 0. -1.
          4   -1    0    0  501    0  0.00000000000E+00 -0.00000000000E+00 -0.12624157448E+02  0.12687878123E+02  0.12700000000E+01 0. -1.
         25    2    1    2    0    0  0.00000000000E+00  0.00000000000E+00  0.29596116377E+03  0.32127581270E+03  0.12500054948E+03 0.  0.
    9000005    1    3    3    0    0 -0.47935173287E+02 -0.30468623138E+02  0.80999178960E+02  0.98934244962E+02  0.10000000000E+01 0.  0.
    9000005    1    3    3    0    0  0.47935173287E+02  0.30468623138E+02  0.21496198481E+03  0.22234156774E+03  0.10000000000E+01 0.  0.
<mgrwt>
<rscale>  0 0.12500055E+03</rscale>
<asrwt>0</asrwt>
<pdfrwt beam="2">  1        4 0.19472807E-02 0.12500055E+03</pdfrwt>
<pdfrwt beam="1">  1       -4 0.47479767E-01 0.12500055E+03</pdfrwt>
<totfact> 0.73003750E+03</totfact>
</mgrwt>
</event>
<event>
 5    1  0.3340698E-002  0.1249979E+03  0.7818608E-02  0.1235073E+00
         -4   -1    0    0    0  501 -0.00000000000E+00  0.00000000000E+00  0.66741922489E+02  0.66754004505E+02  0.12700000000E+01 0.  1.
          4   -1    0    0  501    0  0.00000000000E+00 -0.00000000000E+00 -0.58501436353E+02  0.58515219861E+02  0.12700000000E+01 0.  1.
         25    2    1    2    0    0  0.00000000000E+00  0.00000000000E+00  0.82404861352E+01  0.12526922437E+03  0.12499789183E+03 0.  0.
    9000005    1    3    3    0    0  0.37029596803E+02 -0.48452950265E+02  0.17796800575E+02  0.63534286330E+02  0.10000000000E+01 0.  0.
    9000005    1    3    3    0    0 -0.37029596803E+02  0.48452950265E+02 -0.95563144394E+01  0.61734938037E+02  0.10000000000E+01 0.  0.
<mgrwt>
<rscale>  0 0.12499789E+03</rscale>
<asrwt>0</asrwt>
<pdfrwt beam="2">  1        4 0.90022107E-02 0.12499789E+03</pdfrwt>
<pdfrwt beam="1">  1       -4 0.10269978E-01 0.12499789E+03</pdfrwt>
<totfact> 0.10447516E+04</totfact>
</mgrwt>
</event>
<event>
 5    1  0.3340698E-002  0.1249992E+03  0.7818608E-02  0.1235071E+00
          4   -1    0    0  501    0  0.00000000000E+00  0.00000000000E+00  0.32555302591E+02  0.32580064867E+02  0.12700000000E+01 0. -1.
         -4   -1    0    0    0  501 -0.00000000000E+00 -0.00000000000E+00 -0.11991285728E+03  0.11991958239E+03  0.12700000000E+01 0. -1.
         25    2    1    2    0    0  0.00000000000E+00  0.00000000000E+00 -0.87357554689E+02  0.15249964726E+03  0.12499920021E+03 0.  0.
    9000005    1    3    3    0    0  0.24444311916E+02  0.38457233519E+02  0.84929041649E+01  0.46363915022E+02  0.10000000000E+01 0.  0.
    9000005    1    3    3    0    0 -0.24444311916E+02 -0.38457233519E+02 -0.95850458854E+02  0.10613573224E+03  0.10000000000E+01 0.  0.
<mgrwt>
<rscale>  0 0.12499920E+03</rscale>
<asrwt>0</asrwt>
<pdfrwt beam="1">  1        4 0.50109303E-02 0.12499920E+03</pdfrwt>
<pdfrwt beam="2">  1       -4 0.18450554E-01 0.12499920E+03</pdfrwt>
<totfact> 0.98809523E+03</totfact>
</mgrwt>
</event>
<event>
 5    1  0.3340698E-002  0.1249983E+03  0.7818608E-02  0.1235072E+00
          4   -1    0    0  501    0  0.00000000000E+00  0.00000000000E+00  0.96159552198E+01  0.96994584791E+01  0.12700000000E+01 0. -1.
         -4   -1    0    0    0  501 -0.00000000000E+00 -0.00000000000E+00 -0.40437442337E+03  0.40437641768E+03  0.12700000000E+01 0. -1.
         25    2    1    2    0    0  0.00000000000E+00  0.00000000000E+00 -0.39475846815E+03  0.41407587615E+03  0.12499833215E+03 0.  0.
    9000005    1    3    3    0    0 -0.56620924464E+02  0.24361177251E+02 -0.16331369106E+03  0.17456161587E+03  0.10000000000E+01 0.  0.
    9000005    1    3    3    0    0  0.56620924464E+02 -0.24361177251E+02 -0.23144477708E+03  0.23951426029E+03  0.10000000000E+01 0.  0.
<mgrwt>
<rscale>  0 0.12499833E+03</rscale>
<asrwt>0</asrwt>
<pdfrwt beam="1">  1        4 0.14859548E-02 0.12499833E+03</pdfrwt>
<pdfrwt beam="2">  1       -4 0.62218013E-01 0.12499833E+03</pdfrwt>
<totfact> 0.63208761E+03</totfact>
</mgrwt>
</event>
<event>
 5    1  0.3340698E-002  0.1250017E+03  0.7818608E-02  0.1235067E+00
          4   -1    0    0  501    0  0.00000000000E+00  0.00000000000E+00  0.19097602490E+03  0.19098024763E+03  0.12700000000E+01 0.  1.
         -4   -1    0    0    0  501 -0.00000000000E+00 -0.00000000000E+00 -0.20430521784E+02  0.20469956531E+02  0.12700000000E+01 0.  1.
         25    2    1    2    0    0  0.00000000000E+00  0.00000000000E+00  0.17054550312E+03  0.21145020417E+03  0.12500168082E+03 0.  0.
    9000005    1    3    3    0    0 -0.14761375341E+02  0.54047228258E+02  0.13210089729E+03  0.14349441853E+03  0.10000000000E+01 0.  0.
    9000005    1    3    3    0    0  0.14761375341E+02 -0.54047228258E+02  0.38444605826E+02  0.67955785637E+02  0.10000000000E+01 0.  0.
<mgrwt>
<rscale>  0 0.12500168E+03</rscale>
<asrwt>0</asrwt>
<pdfrwt beam="1">  1        4 0.29384286E-01 0.12500168E+03</pdfrwt>
<pdfrwt beam="2">  1       -4 0.31465154E-02 0.12500168E+03</pdfrwt>
<totfact> 0.88236273E+03</totfact>
</mgrwt>
</event>
<event>
 5    1  0.3340698E-002  0.1250126E+03  0.7818608E-02  0.1235050E+00
          4   -1    0    0  501    0  0.00000000000E+00  0.00000000000E+00  0.14165837702E+03  0.14166406982E+03  0.12700000000E+01 0. -1.
         -4   -1    0    0    0  501 -0.00000000000E+00 -0.00000000000E+00 -0.27559826046E+02  0.27589072324E+02  0.12700000000E+01 0. -1.
         25    2    1    2    0    0  0.00000000000E+00  0.00000000000E+00  0.11409855097E+03  0.16925314215E+03  0.12501258654E+03 0.  0.
    9000005    1    3    3    0    0 -0.45196989294E+02  0.27506834795E+02  0.12010481848E+02  0.54264587679E+02  0.10000000000E+01 0.  0.
    9000005    1    3    3    0    0  0.45196989294E+02 -0.27506834795E+02  0.10208806912E+03  0.11498855447E+03  0.10000000000E+01 0.  0.
<mgrwt>
<rscale>  0 0.12501259E+03</rscale>
<asrwt>0</asrwt>
<pdfrwt beam="1">  1        4 0.21796284E-01 0.12501259E+03</pdfrwt>
<pdfrwt beam="2">  1       -4 0.42426609E-02 0.12501259E+03</pdfrwt>
<totfact> 0.95560912E+03</totfact>
</mgrwt>
</event>
<event>
 5    1  0.3340698E-002  0.1250103E+03  0.7818608E-02  0.1235053E+00
         -4   -1    0    0    0  501 -0.00000000000E+00  0.00000000000E+00  0.14973835424E+03  0.14974373987E+03  0.12700000000E+01 0.  1.
          4   -1    0    0  501    0  0.00000000000E+00 -0.00000000000E+00 -0.26070165824E+02  0.26101081321E+02  0.12700000000E+01 0.  1.
         25    2    1    2    0    0  0.00000000000E+00  0.00000000000E+00  0.12366818841E+03  0.17584482119E+03  0.12501032083E+03 0.  0.
    9000005    1    3    3    0    0 -0.23268120332E+02 -0.51279558919E+02  0.23701460677E+02  0.61104482855E+02  0.10000000000E+01 0.  0.
    9000005    1    3    3    0    0  0.23268120332E+02  0.51279558919E+02  0.99966727737E+02  0.11474033833E+03  0.10000000000E+01 0.  0.
<mgrwt>
<rscale>  0 0.12501032E+03</rscale>
<asrwt>0</asrwt>
<pdfrwt beam="2">  1        4 0.40135871E-02 0.12501032E+03</pdfrwt>
<pdfrwt beam="1">  1       -4 0.23039462E-01 0.12501032E+03</pdfrwt>
<totfact> 0.94348496E+03</totfact>
</mgrwt>
</event>
<event>
 5    1  0.3340698E-002  0.1249968E+03  0.7818608E-02  0.1235074E+00
          4   -1    0    0  501    0  0.00000000000E+00  0.00000000000E+00  0.12724997700E+02  0.12788215922E+02  0.12700000000E+01 0. -1.
         -4   -1    0    0    0  501 -0.00000000000E+00 -0.00000000000E+00 -0.30613363336E+03  0.30613626765E+03  0.12700000000E+01 0. -1.
         25    2    1    2    0    0  0.00000000000E+00  0.00000000000E+00 -0.29340863566E+03  0.31892448358E+03  0.12499679494E+03 0.  0.
    9000005    1    3    3    0    0 -0.16631815589E+02 -0.35191351770E+02 -0.21969401743E+02  0.44706857887E+02  0.10000000000E+01 0.  0.
    9000005    1    3    3    0    0  0.16631815589E+02  0.35191351770E+02 -0.27143923392E+03  0.27421762569E+03  0.10000000000E+01 0.  0.
<mgrwt>
<rscale>  0 0.12499679E+03</rscale>
<asrwt>0</asrwt>
<pdfrwt beam="1">  1        4 0.19627578E-02 0.12499679E+03</pdfrwt>
<pdfrwt beam="2">  1       -4 0.47102542E-01 0.12499679E+03</pdfrwt>
<totfact> 0.73289436E+03</totfact>
</mgrwt>
</event>
<event>
 5    1  0.3340698E-002  0.1250018E+03  0.7818608E-02  0.1235067E+00
          4   -1    0    0  501    0  0.00000000000E+00  0.00000000000E+00  0.18615317029E+02  0.18658588587E+02  0.12700000000E+01 0. -1.
         -4   -1    0    0    0  501 -0.00000000000E+00 -0.00000000000E+00 -0.20955771384E+03  0.20956156215E+03  0.12700000000E+01 0. -1.
         25    2    1    2    0    0  0.00000000000E+00  0.00000000000E+00 -0.19094239681E+03  0.22822015073E+03  0.12500175319E+03 0.  0.
    9000005    1    3    3    0    0  0.16300755795E+02  0.59078413879E+02 -0.73156410704E+02  0.95440211929E+02  0.10000000000E+01 0.  0.
    9000005    1    3    3    0    0 -0.16300755795E+02 -0.59078413879E+02 -0.11778598611E+03  0.13277993881E+03  0.10000000000E+01 0.  0.
<mgrwt>
<rscale>  0 0.12500175E+03</rscale>
<asrwt>0</asrwt>
<pdfrwt beam="1">  1        4 0.28675197E-02 0.12500175E+03</pdfrwt>
<pdfrwt beam="2">  1       -4 0.32243271E-01 0.12500175E+03</pdfrwt>
<totfact> 0.85580298E+03</totfact>
</mgrwt>
</event>
<event>
 5    1  0.3340698E-002  0.1250004E+03  0.7818608E-02  0.1235069E+00
         -4   -1    0    0    0  501 -0.00000000000E+00  0.00000000000E+00  0.25427450361E+03  0.25427767516E+03  0.12700000000E+01 0.  1.
          4   -1    0    0  501    0  0.00000000000E+00 -0.00000000000E+00 -0.15332918107E+02  0.15385424195E+02  0.12700000000E+01 0.  1.
         25    2    1    2    0    0  0.00000000000E+00  0.00000000000E+00  0.23894158550E+03  0.26966309936E+03  0.12500042349E+03 0.  0.
    9000005    1    3    3    0    0 -0.26732046640E+02  0.80090763876E+00 -0.23741770556E+01  0.26867833692E+02  0.10000000000E+01 0.  0.
    9000005    1    3    3    0    0  0.26732046640E+02 -0.80090763876E+00  0.24131576256E+03  0.24279526566E+03  0.10000000000E+01 0.  0.
<mgrwt>
<rscale>  0 0.12500042E+03</rscale>
<asrwt>0</asrwt>
<pdfrwt beam="2">  1        4 0.23631935E-02 0.12500042E+03</pdfrwt>
<pdfrwt beam="1">  1       -4 0.39123435E-01 0.12500042E+03</pdfrwt>
<totfact> 0.79568071E+03</totfact>
</mgrwt>
</event>
<event>
 5    1  0.3340698E-002  0.1249971E+03  0.7818608E-02  0.1235074E+00
         -4   -1    0    0    0  501 -0.00000000000E+00  0.00000000000E+00  0.70671887654E+02  0.70683297918E+02  0.12700000000E+01 0.  1.
          4   -1    0    0  501    0  0.00000000000E+00 -0.00000000000E+00 -0.55247315603E+02  0.55261910764E+02  0.12700000000E+01 0.  1.
         25    2    1    2    0    0  0.00000000000E+00  0.00000000000E+00  0.15424572051E+02  0.12594520868E+03  0.12499711263E+03 0.  0.
    9000005    1    3    3    0    0  0.43190260248E+02  0.10660115273E+02  0.51931754735E+02  0.68388184563E+02  0.10000000000E+01 0.  0.
    9000005    1    3    3    0    0 -0.43190260248E+02 -0.10660115273E+02 -0.36507182684E+02  0.57557024119E+02  0.10000000000E+01 0.  0.
<mgrwt>
<rscale>  0 0.12499711E+03</rscale>
<asrwt>0</asrwt>
<pdfrwt beam="2">  1        4 0.85015875E-02 0.12499711E+03</pdfrwt>
<pdfrwt beam="1">  1       -4 0.10874598E-01 0.12499711E+03</pdfrwt>
<totfact> 0.10432838E+04</totfact>
</mgrwt>
</event>
<event>
 5    1  0.3340698E-002  0.1249999E+03  0.7818608E-02  0.1235069E+00
          4   -1    0    0  501    0  0.00000000000E+00  0.00000000000E+00  0.73938904782E+01  0.75021674471E+01  0.12700000000E+01 0. -1.
         -4   -1    0    0    0  501 -0.00000000000E+00 -0.00000000000E+00 -0.52435740268E+03  0.52435894065E+03  0.12700000000E+01 0. -1.
         25    2    1    2    0    0  0.00000000000E+00  0.00000000000E+00 -0.51696351220E+03  0.53186110810E+03  0.12499986146E+03 0.  0.
    9000005    1    3    3    0    0 -0.41774961565E+02  0.12529909951E+02 -0.68049941125E+02  0.80832793743E+02  0.10000000000E+01 0.  0.
    9000005    1    3    3    0    0  0.41774961565E+02 -0.12529909951E+02 -0.44891357107E+03  0.45102831436E+03  0.10000000000E+01 0.  0.
<mgrwt>
<rscale>  0 0.12499986E+03</rscale>
<asrwt>0</asrwt>
<pdfrwt beam="1">  1        4 0.11459693E-02 0.12499986E+03</pdfrwt>
<pdfrwt beam="2">  1       -4 0.80678788E-01 0.12499986E+03</pdfrwt>
<totfact> 0.53474564E+03</totfact>
</mgrwt>
</event>
<event>
 5    1  0.3340698E-002  0.1250048E+03  0.7818608E-02  0.1235062E+00
         -4   -1    0    0    0  501 -0.00000000000E+00  0.00000000000E+00  0.13510248279E+03  0.13510845183E+03  0.12700000000E+01 0. -1.
          4   -1    0    0  501    0  0.00000000000E+00 -0.00000000000E+00 -0.28894906450E+02  0.28922802747E+02  0.12700000000E+01 0. -1.
         25    2    1    2    0    0  0.00000000000E+00  0.00000000000E+00  0.10620757634E+03  0.16403125458E+03  0.12500481273E+03 0.  0.
    9000005    1    3    3    0    0 -0.42763911326E+01  0.54870562920E+02  0.14255488157E+02  0.56861983248E+02  0.10000000000E+01 0.  0.
    9000005    1    3    3    0    0  0.42763911326E+01 -0.54870562920E+02  0.91952088188E+02  0.10716927133E+03  0.10000000000E+01 0.  0.
<mgrwt>
<rscale>  0 0.12500481E+03</rscale>
<asrwt>0</asrwt>
<pdfrwt beam="2">  1        4 0.44479752E-02 0.12500481E+03</pdfrwt>
<pdfrwt beam="1">  1       -4 0.20787603E-01 0.12500481E+03</pdfrwt>
<totfact> 0.96560730E+03</totfact>
</mgrwt>
</event>
<event>
 5    1  0.3340698E-002  0.1250010E+03  0.7818608E-02  0.1235068E+00
          4   -1    0    0  501    0  0.00000000000E+00  0.00000000000E+00  0.68997198750E+02  0.69008885916E+02  0.12700000000E+01 0.  1.
         -4   -1    0    0    0  501 -0.00000000000E+00 -0.00000000000E+00 -0.56591943490E+02  0.56606191958E+02  0.12700000000E+01 0.  1.
         25    2    1    2    0    0  0.00000000000E+00  0.00000000000E+00  0.12405255260E+02  0.12561507787E+03  0.12500102972E+03 0.  0.
    9000005    1    3    3    0    0  0.58722011809E+02 -0.45777921356E+01 -0.14782567491E+02  0.60735122898E+02  0.10000000000E+01 0.  0.
    9000005    1    3    3    0    0 -0.58722011809E+02  0.45777921356E+01  0.27187822752E+02  0.64879954977E+02  0.10000000000E+01 0.  0.
<mgrwt>
<rscale>  0 0.12500103E+03</rscale>
<asrwt>0</asrwt>
<pdfrwt beam="1">  1        4 0.10616949E-01 0.12500103E+03</pdfrwt>
<pdfrwt beam="2">  1       -4 0.87084479E-02 0.12500103E+03</pdfrwt>
<totfact> 0.10439172E+04</totfact>
</mgrwt>
</event>
<event>
 5    1  0.3340698E-002  0.1249967E+03  0.7818608E-02  0.1235075E+00
          4   -1    0    0  501    0  0.00000000000E+00  0.00000000000E+00  0.58265831812E+02  0.58279671042E+02  0.12700000000E+01 0. -1.
         -4   -1    0    0    0  501 -0.00000000000E+00 -0.00000000000E+00 -0.67010465040E+02  0.67022498646E+02  0.12700000000E+01 0. -1.
         25    2    1    2    0    0  0.00000000000E+00  0.00000000000E+00 -0.87446332272E+01  0.12530216969E+03  0.12499666043E+03 0.  0.
    9000005    1    3    3    0    0 -0.29351499457E+01  0.62283459793E+02 -0.21527726897E+00  0.62360971876E+02  0.10000000000E+01 0.  0.
    9000005    1    3    3    0    0  0.29351499457E+01 -0.62283459793E+02 -0.85293559582E+01  0.62941197813E+02  0.10000000000E+01 0.  0.
<mgrwt>
<rscale>  0 0.12499666E+03</rscale>
<asrwt>0</asrwt>
<pdfrwt beam="1">  1        4 0.89659644E-02 0.12499666E+03</pdfrwt>
<pdfrwt beam="2">  1       -4 0.10311293E-01 0.12499666E+03</pdfrwt>
<totfact> 0.10447091E+04</totfact>
</mgrwt>
</event>
<event>
 5    1  0.3340698E-002  0.1250094E+03  0.7818608E-02  0.1235055E+00
          4   -1    0    0  501    0  0.00000000000E+00  0.00000000000E+00  0.15222281560E+02  0.15275167949E+02  0.12700000000E+01 0. -1.
         -4   -1    0    0    0  501 -0.00000000000E+00 -0.00000000000E+00 -0.25615301244E+03  0.25615616073E+03  0.12700000000E+01 0. -1.
         25    2    1    2    0    0  0.00000000000E+00  0.00000000000E+00 -0.24093073088E+03  0.27143132868E+03  0.12500939608E+03 0.  0.
    9000005    1    3    3    0    0  0.46761454235E+02  0.27505623934E+02 -0.53097894546E+02  0.75918241255E+02  0.10000000000E+01 0.  0.
    9000005    1    3    3    0    0 -0.46761454235E+02 -0.27505623934E+02 -0.18783283633E+03  0.19551308743E+03  0.10000000000E+01 0.  0.
<mgrwt>
<rscale>  0 0.12500940E+03</rscale>
<asrwt>0</asrwt>
<pdfrwt beam="1">  1        4 0.23462000E-02 0.12500940E+03</pdfrwt>
<pdfrwt beam="2">  1       -4 0.39412463E-01 0.12500940E+03</pdfrwt>
<totfact> 0.79311552E+03</totfact>
</mgrwt>
</event>
<event>
 5    1  0.3340698E-002  0.1250049E+03  0.7818608E-02  0.1235062E+00
         -4   -1    0    0    0  501 -0.00000000000E+00  0.00000000000E+00  0.24993837647E+01  0.28035369096E+01  0.12700000000E+01 0.  1.
          4   -1    0    0  501    0  0.00000000000E+00 -0.00000000000E+00 -0.14730556255E+04  0.14730561729E+04  0.12700000000E+01 0.  1.
         25    2    1    2    0    0  0.00000000000E+00  0.00000000000E+00 -0.14705562417E+04  0.14758597099E+04  0.12500489243E+03 0.  0.
    9000005    1    3    3    0    0  0.58610566412E+02 -0.21490937171E+02 -0.76969317845E+03  0.77222124280E+03  0.10000000000E+01 0.  0.
    9000005    1    3    3    0    0 -0.58610566412E+02  0.21490937171E+02 -0.70086306327E+03  0.70363846706E+03  0.10000000000E+01 0.  0.
<mgrwt>
<rscale>  0 0.12500489E+03</rscale>
<asrwt>0</asrwt>
<pdfrwt beam="2">  1        4 0.22664673E+00 0.12500489E+03</pdfrwt>
<pdfrwt beam="1">  1       -4 0.40796026E-03 0.12500489E+03</pdfrwt>
<totfact> 0.18407342E+03</totfact>
</mgrwt>
</event>
<event>
 5    1  0.3340698E-002  0.1249998E+03  0.7818608E-02  0.1235070E+00
          4   -1    0    0  501    0  0.00000000000E+00  0.00000000000E+00  0.34197492339E+03  0.34197728159E+03  0.12700000000E+01 0. -1.
         -4   -1    0    0    0  501 -0.00000000000E+00 -0.00000000000E+00 -0.11384878201E+02  0.11455494387E+02  0.12700000000E+01 0. -1.
         25    2    1    2    0    0  0.00000000000E+00  0.00000000000E+00  0.33059004518E+03  0.35343277598E+03  0.12499979664E+03 0.  0.
    9000005    1    3    3    0    0 -0.37484207743E+02  0.74235159618E+01  0.25483639914E+02  0.45941161528E+02  0.10000000000E+01 0.  0.
    9000005    1    3    3    0    0  0.37484207743E+02 -0.74235159618E+01  0.30510640527E+03  0.30749161445E+03  0.10000000000E+01 0.  0.
<mgrwt>
<rscale>  0 0.12499980E+03</rscale>
<asrwt>0</asrwt>
<pdfrwt beam="1">  1        4 0.52617138E-01 0.12499980E+03</pdfrwt>
<pdfrwt beam="2">  1       -4 0.17571332E-02 0.12499980E+03</pdfrwt>
<totfact> 0.69348864E+03</totfact>
</mgrwt>
</event>
<event>
 5    1  0.3340698E-002  0.1250005E+03  0.7818608E-02  0.1235069E+00
         -4   -1    0    0    0  501 -0.00000000000E+00  0.00000000000E+00  0.12956179479E+02  0.13018275104E+02  0.12700000000E+01 0.  1.
          4   -1    0    0  501    0  0.00000000000E+00 -0.00000000000E+00 -0.30071515818E+03  0.30071783994E+03  0.12700000000E+01 0.  1.
         25    2    1    2    0    0  0.00000000000E+00  0.00000000000E+00 -0.28775897870E+03  0.31373611505E+03  0.12500048024E+03 0.  0.
    9000005    1    3    3    0    0  0.12292015637E+02 -0.60998175460E+02 -0.12937226611E+03  0.14356202248E+03  0.10000000000E+01 0.  0.
    9000005    1    3    3    0    0 -0.12292015637E+02  0.60998175460E+02 -0.15838671259E+03  0.17017409257E+03  0.10000000000E+01 0.  0.
<mgrwt>
<rscale>  0 0.12500048E+03</rscale>
<asrwt>0</asrwt>
<pdfrwt beam="2">  1        4 0.46268848E-01 0.12500048E+03</pdfrwt>
<pdfrwt beam="1">  1       -4 0.19982415E-02 0.12500048E+03</pdfrwt>
<totfact> 0.73906592E+03</totfact>
</mgrwt>
</event>
<event>
 5    1  0.3340698E-002  0.1249973E+03  0.7818608E-02  0.1235073E+00
         -4   -1    0    0    0  501 -0.00000000000E+00  0.00000000000E+00  0.22931908689E+02  0.22967048921E+02  0.12700000000E+01 0. -1.
          4   -1    0    0  501    0  0.00000000000E+00 -0.00000000000E+00 -0.17016609425E+03  0.17017083338E+03  0.12700000000E+01 0. -1.
         25    2    1    2    0    0  0.00000000000E+00  0.00000000000E+00 -0.14723418556E+03  0.19313788230E+03  0.12499734470E+03 0.  0.
    9000005    1    3    3    0    0  0.16626989584E+02  0.20796870925E+02 -0.16097013628E+03  0.16316050808E+03  0.10000000000E+01 0.  0.
    9000005    1    3    3    0    0 -0.16626989584E+02 -0.20796870925E+02  0.13735950719E+02  0.29977374219E+02  0.10000000000E+01 0.  0.
<mgrwt>
<rscale>  0 0.12499734E+03</rscale>
<asrwt>0</asrwt>
<pdfrwt beam="2">  1        4 0.26182466E-01 0.12499734E+03</pdfrwt>
<pdfrwt beam="1">  1       -4 0.35310537E-02 0.12499734E+03</pdfrwt>
<totfact> 0.91309612E+03</totfact>
</mgrwt>
</event>
<event>
 5    1  0.3340698E-002  0.1249975E+03  0.7818608E-02  0.1235073E+00
         -4   -1    0    0    0  501 -0.00000000000E+00  0.00000000000E+00  0.11221214513E+03  0.11221933173E+03  0.12700000000E+01 0. -1.
          4   -1    0    0  501    0  0.00000000000E+00 -0.00000000000E+00 -0.34790004312E+02  0.34813177104E+02  0.12700000000E+01 0. -1.
         25    2    1    2    0    0  0.00000000000E+00  0.00000000000E+00  0.77422140815E+02  0.14703250883E+03  0.12499748304E+03 0.  0.
    9000005    1    3    3    0    0  0.39829732813E+02 -0.27699131501E+02 -0.76208219062E+01  0.49119511687E+02  0.10000000000E+01 0.  0.
    9000005    1    3    3    0    0 -0.39829732813E+02  0.27699131501E+02  0.85042962721E+02  0.97912997146E+02  0.10000000000E+01 0.  0.
<mgrwt>
<rscale>  0 0.12499748E+03</rscale>
<asrwt>0</asrwt>
<pdfrwt beam="2">  1        4 0.53546437E-02 0.12499748E+03</pdfrwt>
<pdfrwt beam="1">  1       -4 0.17265742E-01 0.12499748E+03</pdfrwt>
<totfact> 0.99904207E+03</totfact>
</mgrwt>
</event>
<event>
 5    1  0.3340698E-002  0.1249989E+03  0.7818608E-02  0.1235071E+00
         -4   -1    0    0    0  501 -0.00000000000E+00  0.00000000000E+00  0.10279192611E+03  0.10279977127E+03  0.12700000000E+01 0.  1.
          4   -1    0    0  501    0  0.00000000000E+00 -0.00000000000E+00 -0.37980929288E+02  0.38002156381E+02  0.12700000000E+01 0.  1.
         25    2    1    2    0    0  0.00000000000E+00  0.00000000000E+00  0.64810996825E+02  0.14080192766E+03  0.12499887008E+03 0.  0.
    9000005    1    3    3    0    0  0.31507946379E+02 -0.29156291110E+02 -0.18748852820E+02  0.46854663358E+02  0.10000000000E+01 0.  0.
    9000005    1    3    3    0    0 -0.31507946379E+02  0.29156291110E+02  0.83559849645E+02  0.93947264298E+02  0.10000000000E+01 0.  0.
<mgrwt>
<rscale>  0 0.12499887E+03</rscale>
<asrwt>0</asrwt>
<pdfrwt beam="2">  1        4 0.58454563E-02 0.12499887E+03</pdfrwt>
<pdfrwt beam="1">  1       -4 0.15816378E-01 0.12499887E+03</pdfrwt>
<totfact> 0.10117250E+04</totfact>
</mgrwt>
</event>
<event>
 5    1  0.3340698E-002  0.1250044E+03  0.7818608E-02  0.1235062E+00
          4   -1    0    0  501    0  0.00000000000E+00  0.00000000000E+00  0.23166329902E+03  0.23166678012E+03  0.12700000000E+01 0. -1.
         -4   -1    0    0    0  501 -0.00000000000E+00 -0.00000000000E+00 -0.16835408419E+02  0.16883242480E+02  0.12700000000E+01 0. -1.
         25    2    1    2    0    0  0.00000000000E+00  0.00000000000E+00  0.21482789060E+03  0.24855002260E+03  0.12500436455E+03 0.  0.
    9000005    1    3    3    0    0  0.50944249623E+02 -0.14222867535E+02  0.17359628220E+03  0.18147803097E+03  0.10000000000E+01 0.  0.
    9000005    1    3    3    0    0 -0.50944249623E+02  0.14222867535E+02  0.41231608403E+02  0.67071991636E+02  0.10000000000E+01 0.  0.
<mgrwt>
<rscale>  0 0.12500436E+03</rscale>
<asrwt>0</asrwt>
<pdfrwt beam="1">  1        4 0.35644455E-01 0.12500436E+03</pdfrwt>
<pdfrwt beam="2">  1       -4 0.25940101E-02 0.12500436E+03</pdfrwt>
<totfact> 0.82532220E+03</totfact>
</mgrwt>
</event>
<event>
 5    1  0.3340698E-002  0.1250023E+03  0.7818608E-02  0.1235066E+00
         -4   -1    0    0    0  501 -0.00000000000E+00  0.00000000000E+00  0.82017130099E+03  0.82017228426E+03  0.12700000000E+01 0. -1.
          4   -1    0    0  501    0  0.00000000000E+00 -0.00000000000E+00 -0.46772360607E+01  0.48465902620E+01  0.12700000000E+01 0. -1.
         25    2    1    2    0    0  0.00000000000E+00  0.00000000000E+00  0.81549406493E+03  0.82501887452E+03  0.12500229351E+03 0.  0.
    9000005    1    3    3    0    0  0.58925856138E+02  0.18522522752E+02  0.34511522645E+03  0.35060071292E+03  0.10000000000E+01 0.  0.
    9000005    1    3    3    0    0 -0.58925856138E+02 -0.18522522752E+02  0.47037883848E+03  0.47441816161E+03  0.10000000000E+01 0.  0.
<mgrwt>
<rscale>  0 0.12500229E+03</rscale>
<asrwt>0</asrwt>
<pdfrwt beam="2">  1        4 0.73267795E-03 0.12500229E+03</pdfrwt>
<pdfrwt beam="1">  1       -4 0.12619325E+00 0.12500229E+03</pdfrwt>
<totfact> 0.37170073E+03</totfact>
</mgrwt>
</event>
<event>
 5    1  0.3340698E-002  0.1250005E+03  0.7818608E-02  0.1235069E+00
         -4   -1    0    0    0  501 -0.00000000000E+00  0.00000000000E+00  0.12084752125E+03  0.12085419435E+03  0.12700000000E+01 0.  1.
          4   -1    0    0  501    0  0.00000000000E+00 -0.00000000000E+00 -0.32303993965E+02  0.32328948732E+02  0.12700000000E+01 0.  1.
         25    2    1    2    0    0  0.00000000000E+00  0.00000000000E+00  0.88543527287E+02  0.15318314309E+03  0.12500047640E+03 0.  0.
    9000005    1    3    3    0    0  0.45720309402E+02 -0.22179271912E+02  0.88845738200E+02  0.10235639692E+03  0.10000000000E+01 0.  0.
    9000005    1    3    3    0    0 -0.45720309402E+02  0.22179271912E+02 -0.30221091216E+00  0.50826746166E+02  0.10000000000E+01 0.  0.
<mgrwt>
<rscale>  0 0.12500048E+03</rscale>
<asrwt>0</asrwt>
<pdfrwt beam="2">  1        4 0.49722782E-02 0.12500048E+03</pdfrwt>
<pdfrwt beam="1">  1       -4 0.18594359E-01 0.12500048E+03</pdfrwt>
<totfact> 0.98671871E+03</totfact>
</mgrwt>
</event>
<event>
 5    1  0.3340698E-002  0.1250037E+03  0.7818608E-02  0.1235064E+00
          4   -1    0    0  501    0  0.00000000000E+00  0.00000000000E+00  0.29035894572E+02  0.29063655544E+02  0.12700000000E+01 0.  1.
         -4   -1    0    0    0  501 -0.00000000000E+00 -0.00000000000E+00 -0.13444464767E+03  0.13445064592E+03  0.12700000000E+01 0.  1.
         25    2    1    2    0    0  0.00000000000E+00  0.00000000000E+00 -0.10540875310E+03  0.16351430146E+03  0.12500368615E+03 0.  0.
    9000005    1    3    3    0    0 -0.12258268069E+02  0.36628799143E+02 -0.11696733913E+03  0.12318397821E+03  0.10000000000E+01 0.  0.
    9000005    1    3    3    0    0  0.12258268069E+02 -0.36628799143E+02  0.11558586034E+02  0.40330323255E+02  0.10000000000E+01 0.  0.
<mgrwt>
<rscale>  0 0.12500369E+03</rscale>
<asrwt>0</asrwt>
<pdfrwt beam="1">  1        4 0.44696576E-02 0.12500369E+03</pdfrwt>
<pdfrwt beam="2">  1       -4 0.20686389E-01 0.12500369E+03</pdfrwt>
<totfact> 0.96661496E+03</totfact>
</mgrwt>
</event>
<event>
 5    1  0.3340698E-002  0.1249999E+03  0.7818608E-02  0.1235069E+00
          4   -1    0    0  501    0  0.00000000000E+00  0.00000000000E+00  0.13165212413E+02  0.13226326696E+02  0.12700000000E+01 0.  1.
         -4   -1    0    0    0  501 -0.00000000000E+00 -0.00000000000E+00 -0.29596005419E+03  0.29596277904E+03  0.12700000000E+01 0.  1.
         25    2    1    2    0    0  0.00000000000E+00  0.00000000000E+00 -0.28279484178E+03  0.30918910574E+03  0.12499992228E+03 0.  0.
    9000005    1    3    3    0    0  0.50659314347E+02 -0.30550414648E+02 -0.19120979869E+03  0.20015464292E+03  0.10000000000E+01 0.  0.
    9000005    1    3    3    0    0 -0.50659314347E+02  0.30550414648E+02 -0.91585043091E+02  0.10903446282E+03  0.10000000000E+01 0.  0.
<mgrwt>
<rscale>  0 0.12499992E+03</rscale>
<asrwt>0</asrwt>
<pdfrwt beam="1">  1        4 0.20303282E-02 0.12499992E+03</pdfrwt>
<pdfrwt beam="2">  1       -4 0.45537222E-01 0.12499992E+03</pdfrwt>
<totfact> 0.74460575E+03</totfact>
</mgrwt>
</event>
<event>
 5    1  0.3340698E-002  0.1249973E+03  0.7818608E-02  0.1235073E+00
          4   -1    0    0  501    0  0.00000000000E+00  0.00000000000E+00  0.19407057424E+03  0.19407472964E+03  0.12700000000E+01 0. -1.
         -4   -1    0    0    0  501 -0.00000000000E+00 -0.00000000000E+00 -0.20102713234E+02  0.20142789761E+02  0.12700000000E+01 0. -1.
         25    2    1    2    0    0  0.00000000000E+00  0.00000000000E+00  0.17396786101E+03  0.21421751940E+03  0.12499731580E+03 0.  0.
    9000005    1    3    3    0    0  0.55657439959E+02 -0.27577380332E+02  0.75257423701E+02  0.97585564254E+02  0.10000000000E+01 0.  0.
    9000005    1    3    3    0    0 -0.55657439959E+02  0.27577380332E+02  0.98710437306E+02  0.11663195515E+03  0.10000000000E+01 0.  0.
<mgrwt>
<rscale>  0 0.12499732E+03</rscale>
<asrwt>0</asrwt>
<pdfrwt beam="1">  1        4 0.29860413E-01 0.12499732E+03</pdfrwt>
<pdfrwt beam="2">  1       -4 0.30961277E-02 0.12499732E+03</pdfrwt>
<totfact> 0.87796971E+03</totfact>
</mgrwt>
</event>
<event>
 5    1  0.3340698E-002  0.1249996E+03  0.7818608E-02  0.1235070E+00
          4   -1    0    0  501    0  0.00000000000E+00  0.00000000000E+00  0.36312282673E+02  0.36334484624E+02  0.12700000000E+01 0.  1.
         -4   -1    0    0    0  501 -0.00000000000E+00 -0.00000000000E+00 -0.10751433848E+03  0.10752183908E+03  0.12700000000E+01 0.  1.
         25    2    1    2    0    0  0.00000000000E+00  0.00000000000E+00 -0.71202055805E+02  0.14385632370E+03  0.12499963647E+03 0.  0.
    9000005    1    3    3    0    0 -0.41673718831E+02 -0.29706786539E+02  0.56701294286E+01  0.51500896841E+02  0.10000000000E+01 0.  0.
    9000005    1    3    3    0    0  0.41673718831E+02  0.29706786539E+02 -0.76872185233E+02  0.92355426859E+02  0.10000000000E+01 0.  0.
<mgrwt>
<rscale>  0 0.12499964E+03</rscale>
<asrwt>0</asrwt>
<pdfrwt beam="1">  1        4 0.55887899E-02 0.12499964E+03</pdfrwt>
<pdfrwt beam="2">  1       -4 0.16542952E-01 0.12499964E+03</pdfrwt>
<totfact> 0.10054360E+04</totfact>
</mgrwt>
</event>
<event>
 5    1  0.3340698E-002  0.1250011E+03  0.7818608E-02  0.1235068E+00
         -4   -1    0    0    0  501 -0.00000000000E+00  0.00000000000E+00  0.10760535112E+04  0.10760542607E+04  0.12700000000E+01 0.  1.
          4   -1    0    0  501    0  0.00000000000E+00 -0.00000000000E+00 -0.35183773120E+01  0.37405720030E+01  0.12700000000E+01 0.  1.
         25    2    1    2    0    0  0.00000000000E+00  0.00000000000E+00  0.10725351339E+04  0.10797948327E+04  0.12500106881E+03 0.  0.
    9000005    1    3    3    0    0 -0.16667375872E+02 -0.59044316577E+02  0.63894478785E+03  0.64188431564E+03  0.10000000000E+01 0.  0.
    9000005    1    3    3    0    0  0.16667375872E+02  0.59044316577E+02  0.43359034608E+03  0.43791051706E+03  0.10000000000E+01 0.  0.
<mgrwt>
<rscale>  0 0.12500107E+03</rscale>
<asrwt>0</asrwt>
<pdfrwt beam="2">  1        4 0.55843792E-03 0.12500107E+03</pdfrwt>
<pdfrwt beam="1">  1       -4 0.16556397E+00 0.12500107E+03</pdfrwt>
<totfact> 0.28081709E+03</totfact>
</mgrwt>
</event>
<event>
 5    1  0.3340698E-002  0.1249957E+03  0.7818608E-02  0.1235076E+00
         -4   -1    0    0    0  501 -0.00000000000E+00  0.00000000000E+00  0.70347674334E+02  0.70359137176E+02  0.12700000000E+01 0. -1.
          4   -1    0    0  501    0  0.00000000000E+00 -0.00000000000E+00 -0.55500683799E+02  0.55515212349E+02  0.12700000000E+01 0. -1.
         25    2    1    2    0    0  0.00000000000E+00  0.00000000000E+00  0.14846990535E+02  0.12587434953E+03  0.12499567489E+03 0.  0.
    9000005    1    3    3    0    0  0.27876787562E+01 -0.56570794380E+02  0.34008958673E+02  0.66072953617E+02  0.10000000000E+01 0.  0.
    9000005    1    3    3    0    0 -0.27876787562E+01  0.56570794380E+02 -0.19161968138E+02  0.59801395908E+02  0.10000000000E+01 0.  0.
<mgrwt>
<rscale>  0 0.12499567E+03</rscale>
<asrwt>0</asrwt>
<pdfrwt beam="2">  1        4 0.85405660E-02 0.12499567E+03</pdfrwt>
<pdfrwt beam="1">  1       -4 0.10824719E-01 0.12499567E+03</pdfrwt>
<totfact> 0.10434731E+04</totfact>
</mgrwt>
</event>
<event>
 5    1  0.3340698E-002  0.1249996E+03  0.7818608E-02  0.1235070E+00
          4   -1    0    0  501    0  0.00000000000E+00  0.00000000000E+00  0.69929183473E+01  0.71073065933E+01  0.12700000000E+01 0. -1.
         -4   -1    0    0    0  501 -0.00000000000E+00 -0.00000000000E+00 -0.55395091206E+03  0.55395236787E+03  0.12700000000E+01 0. -1.
         25    2    1    2    0    0  0.00000000000E+00  0.00000000000E+00 -0.54695799371E+03  0.56105967447E+03  0.12499964570E+03 0.  0.
    9000005    1    3    3    0    0  0.14151267573E+02 -0.13731203916E+02 -0.73140487997E+01  0.21054682252E+02  0.10000000000E+01 0.  0.
    9000005    1    3    3    0    0 -0.14151267573E+02  0.13731203916E+02 -0.53964394491E+03  0.54000499221E+03  0.10000000000E+01 0.  0.
<mgrwt>
<rscale>  0 0.12499965E+03</rscale>
<asrwt>0</asrwt>
<pdfrwt beam="1">  1        4 0.10847451E-02 0.12499965E+03</pdfrwt>
<pdfrwt beam="2">  1       -4 0.85232094E-01 0.12499965E+03</pdfrwt>
<totfact> 0.51422073E+03</totfact>
</mgrwt>
</event>
<event>
 5    1  0.3340698E-002  0.1249944E+03  0.7818608E-02  0.1235078E+00
         -4   -1    0    0    0  501 -0.00000000000E+00  0.00000000000E+00  0.51087280262E+03  0.51087438119E+03  0.12700000000E+01 0. -1.
          4   -1    0    0  501    0  0.00000000000E+00 -0.00000000000E+00 -0.75911983211E+01  0.76967000688E+01  0.12700000000E+01 0. -1.
         25    2    1    2    0    0  0.00000000000E+00  0.00000000000E+00  0.50328160430E+03  0.51857108126E+03  0.12499437224E+03 0.  0.
    9000005    1    3    3    0    0 -0.33017146382E+01 -0.56779309882E+02  0.14424436184E+03  0.15505556189E+03  0.10000000000E+01 0.  0.
    9000005    1    3    3    0    0  0.33017146382E+01  0.56779309882E+02  0.35903724246E+03  0.36351551937E+03  0.10000000000E+01 0.  0.
<mgrwt>
<rscale>  0 0.12499437E+03</rscale>
<asrwt>0</asrwt>
<pdfrwt beam="2">  1        4 0.11761135E-02 0.12499437E+03</pdfrwt>
<pdfrwt beam="1">  1       -4 0.78604063E-01 0.12499437E+03</pdfrwt>
<totfact> 0.54458458E+03</totfact>
</mgrwt>
</event>
<event>
 5    1  0.3340698E-002  0.1250017E+03  0.7818608E-02  0.1235067E+00
         -4   -1    0    0    0  501 -0.00000000000E+00  0.00000000000E+00  0.70558484077E+01  0.71692326474E+01  0.12700000000E+01 0. -1.
          4   -1    0    0  501    0  0.00000000000E+00 -0.00000000000E+00 -0.54910670766E+03  0.54910817632E+03  0.12700000000E+01 0. -1.
         25    2    1    2    0    0  0.00000000000E+00  0.00000000000E+00 -0.54205085925E+03  0.55627740896E+03  0.12500168682E+03 0.  0.
    9000005    1    3    3    0    0  0.25394850963E+02 -0.38270918144E+02 -0.82441890017E+02  0.94378105833E+02  0.10000000000E+01 0.  0.
    9000005    1    3    3    0    0 -0.25394850963E+02  0.38270918144E+02 -0.45960896924E+03  0.46189930313E+03  0.10000000000E+01 0.  0.
<mgrwt>
<rscale>  0 0.12500169E+03</rscale>
<asrwt>0</asrwt>
<pdfrwt beam="2">  1        4 0.84486757E-01 0.12500169E+03</pdfrwt>
<pdfrwt beam="1">  1       -4 0.10943504E-02 0.12500169E+03</pdfrwt>
<totfact> 0.51747272E+03</totfact>
</mgrwt>
</event>
<event>
 5    1  0.3340698E-002  0.1249834E+03  0.7818608E-02  0.1235095E+00
         -4   -1    0    0    0  501 -0.00000000000E+00  0.00000000000E+00  0.15895880896E+02  0.15946533462E+02  0.12700000000E+01 0.  1.
          4   -1    0    0  501    0  0.00000000000E+00 -0.00000000000E+00 -0.24523153346E+03  0.24523482197E+03  0.12700000000E+01 0.  1.
         25    2    1    2    0    0  0.00000000000E+00  0.00000000000E+00 -0.22933565257E+03  0.26118135543E+03  0.12498343444E+03 0.  0.
    9000005    1    3    3    0    0 -0.51606835476E+02  0.32209757131E+02 -0.84858549889E+02  0.10441603043E+03  0.10000000000E+01 0.  0.
    9000005    1    3    3    0    0  0.51606835476E+02 -0.32209757131E+02 -0.14447710268E+03  0.15676532500E+03  0.10000000000E+01 0.  0.
<mgrwt>
<rscale>  0 0.12498343E+03</rscale>
<asrwt>0</asrwt>
<pdfrwt beam="2">  1        4 0.37732075E-01 0.12498343E+03</pdfrwt>
<pdfrwt beam="1">  1       -4 0.24496696E-02 0.12498343E+03</pdfrwt>
<totfact> 0.80770338E+03</totfact>
</mgrwt>
</event>
<event>
 5    1  0.3340698E-002  0.1250029E+03  0.7818608E-02  0.1235065E+00
          4   -1    0    0  501    0  0.00000000000E+00  0.00000000000E+00  0.69757071852E+03  0.69757187461E+03  0.12700000000E+01 0. -1.
         -4   -1    0    0    0  501 -0.00000000000E+00 -0.00000000000E+00 -0.55268679194E+01  0.56709054831E+01  0.12700000000E+01 0. -1.
         25    2    1    2    0    0  0.00000000000E+00  0.00000000000E+00  0.69204385060E+03  0.70324278009E+03  0.12500286632E+03 0.  0.
    9000005    1    3    3    0    0  0.19322182776E+02 -0.26999655812E+02  0.48167070813E+02  0.58509784412E+02  0.10000000000E+01 0.  0.
    9000005    1    3    3    0    0 -0.19322182776E+02  0.26999655812E+02  0.64387677979E+03  0.64473299568E+03  0.10000000000E+01 0.  0.
<mgrwt>
<rscale>  0 0.12500287E+03</rscale>
<asrwt>0</asrwt>
<pdfrwt beam="1">  1        4 0.10732968E+00 0.12500287E+03</pdfrwt>
<pdfrwt beam="2">  1       -4 0.86145657E-03 0.12500287E+03</pdfrwt>
<totfact> 0.42913390E+03</totfact>
</mgrwt>
</event>
<event>
 5    1  0.3340698E-002  0.1250308E+03  0.7818608E-02  0.1235021E+00
         -4   -1    0    0    0  501 -0.00000000000E+00  0.00000000000E+00  0.22870277399E+03  0.22870630016E+03  0.12700000000E+01 0.  1.
          4   -1    0    0  501    0  0.00000000000E+00 -0.00000000000E+00 -0.17061176024E+02  0.17108378863E+02  0.12700000000E+01 0.  1.
         25    2    1    2    0    0  0.00000000000E+00  0.00000000000E+00  0.21164159797E+03  0.24581467902E+03  0.12503075794E+03 0.  0.
    9000005    1    3    3    0    0  0.47019196886E+02  0.35681062087E+02  0.14626711177E+03  0.15773081834E+03  0.10000000000E+01 0.  0.
    9000005    1    3    3    0    0 -0.47019196886E+02 -0.35681062087E+02  0.65374486202E+02  0.88083860687E+02  0.10000000000E+01 0.  0.
<mgrwt>
<rscale>  0 0.12503076E+03</rscale>
<asrwt>0</asrwt>
<pdfrwt beam="2">  1        4 0.26286986E-02 0.12503076E+03</pdfrwt>
<pdfrwt beam="1">  1       -4 0.35188944E-01 0.12503076E+03</pdfrwt>
<totfact> 0.82882104E+03</totfact>
</mgrwt>
</event>
<event>
 5    1  0.3340698E-002  0.1250009E+03  0.7818608E-02  0.1235068E+00
          4   -1    0    0  501    0  0.00000000000E+00  0.00000000000E+00  0.77713185592E+02  0.77723562160E+02  0.12700000000E+01 0. -1.
         -4   -1    0    0    0  501 -0.00000000000E+00 -0.00000000000E+00 -0.50243938185E+02  0.50259986314E+02  0.12700000000E+01 0. -1.
         25    2    1    2    0    0  0.00000000000E+00  0.00000000000E+00  0.27469247407E+02  0.12798354847E+03  0.12500091650E+03 0.  0.
    9000005    1    3    3    0    0 -0.32148060292E+02 -0.45408892357E+02  0.42871373000E+02  0.70245426247E+02  0.10000000000E+01 0.  0.
    9000005    1    3    3    0    0  0.32148060292E+02  0.45408892357E+02 -0.15402125593E+02  0.57738122228E+02  0.10000000000E+01 0.  0.
<mgrwt>
<rscale>  0 0.12500092E+03</rscale>
<asrwt>0</asrwt>
<pdfrwt beam="1">  1        4 0.11957907E-01 0.12500092E+03</pdfrwt>
<pdfrwt beam="2">  1       -4 0.77318693E-02 0.12500092E+03</pdfrwt>
<totfact> 0.10387628E+04</totfact>
</mgrwt>
</event>
<event>
 5    1  0.3340698E-002  0.1250021E+03  0.7818608E-02  0.1235066E+00
         -4   -1    0    0    0  501 -0.00000000000E+00  0.00000000000E+00  0.15440926656E+02  0.15493066708E+02  0.12700000000E+01 0.  1.
          4   -1    0    0  501    0  0.00000000000E+00 -0.00000000000E+00 -0.25250880512E+03  0.25251199885E+03  0.12700000000E+01 0.  1.
         25    2    1    2    0    0  0.00000000000E+00  0.00000000000E+00 -0.23706787846E+03  0.26800506555E+03  0.12500214464E+03 0.  0.
    9000005    1    3    3    0    0  0.23152395855E+02 -0.15522175603E+02  0.13849388326E+01  0.27926500405E+02  0.10000000000E+01 0.  0.
    9000005    1    3    3    0    0 -0.23152395855E+02  0.15522175603E+02 -0.23845281729E+03  0.24007856515E+03  0.10000000000E+01 0.  0.
<mgrwt>
<rscale>  0 0.12500214E+03</rscale>
<asrwt>0</asrwt>
<pdfrwt beam="2">  1        4 0.38851762E-01 0.12500214E+03</pdfrwt>
<pdfrwt beam="1">  1       -4 0.23797838E-02 0.12500214E+03</pdfrwt>
<totfact> 0.79791819E+03</totfact>
</mgrwt>
</event>
<event>
 5    1  0.3340698E-002  0.1249963E+03  0.7818608E-02  0.1235075E+00
          4   -1    0    0  501    0  0.00000000000E+00  0.00000000000E+00  0.16622650778E+03  0.16623135922E+03  0.12700000000E+01 0.  1.
         -4   -1    0    0    0  501 -0.00000000000E+00 -0.00000000000E+00 -0.23475810943E+02  0.23510138227E+02  0.12700000000E+01 0.  1.
         25    2    1    2    0    0  0.00000000000E+00  0.00000000000E+00  0.14275069684E+03  0.18974149745E+03  0.12499629757E+03 0.  0.
    9000005    1    3    3    0    0 -0.56780150686E+02 -0.16562284066E+02  0.10198898957E+03  0.11790270887E+03  0.10000000000E+01 0.  0.
    9000005    1    3    3    0    0  0.56780150686E+02  0.16562284066E+02  0.40761707272E+02  0.71838788583E+02  0.10000000000E+01 0.  0.
<mgrwt>
<rscale>  0 0.12499630E+03</rscale>
<asrwt>0</asrwt>
<pdfrwt beam="1">  1        4 0.25576322E-01 0.12499630E+03</pdfrwt>
<pdfrwt beam="2">  1       -4 0.36146771E-02 0.12499630E+03</pdfrwt>
<totfact> 0.91899934E+03</totfact>
</mgrwt>
</event>
<event>
 5    1  0.3340698E-002  0.1249983E+03  0.7818608E-02  0.1235072E+00
         -4   -1    0    0    0  501 -0.00000000000E+00  0.00000000000E+00  0.15962305165E+04  0.15962310217E+04  0.12700000000E+01 0.  1.
          4   -1    0    0  501    0  0.00000000000E+00 -0.00000000000E+00 -0.22817876068E+01  0.26114085629E+01  0.12700000000E+01 0.  1.
         25    2    1    2    0    0  0.00000000000E+00  0.00000000000E+00  0.15939487289E+04  0.15988424303E+04  0.12499826614E+03 0.  0.
    9000005    1    3    3    0    0  0.48572551574E+02 -0.33937334343E+02  0.54304769705E+03  0.54627176085E+03  0.10000000000E+01 0.  0.
    9000005    1    3    3    0    0 -0.48572551574E+02  0.33937334343E+02  0.10509010319E+04  0.10525706695E+04  0.10000000000E+01 0.  0.
<mgrwt>
<rscale>  0 0.12499827E+03</rscale>
<asrwt>0</asrwt>
<pdfrwt beam="2">  1        4 0.37643887E-03 0.12499827E+03</pdfrwt>
<pdfrwt beam="1">  1       -4 0.24559912E+00 0.12499827E+03</pdfrwt>
<totfact> 0.16067673E+03</totfact>
</mgrwt>
</event>
<event>
 5    1  0.3340698E-002  0.1249982E+03  0.7818608E-02  0.1235072E+00
         -4   -1    0    0    0  501 -0.00000000000E+00  0.00000000000E+00  0.55114940055E+03  0.55115086377E+03  0.12700000000E+01 0. -1.
          4   -1    0    0  501    0  0.00000000000E+00 -0.00000000000E+00 -0.70288733747E+01  0.71426858336E+01  0.12700000000E+01 0. -1.
         25    2    1    2    0    0  0.00000000000E+00  0.00000000000E+00  0.54412052718E+03  0.55829354960E+03  0.12499815770E+03 0.  0.
    9000005    1    3    3    0    0 -0.45312541080E+02  0.36180334782E+02  0.16799263457E+03  0.17772104060E+03  0.10000000000E+01 0.  0.
    9000005    1    3    3    0    0  0.45312541080E+02 -0.36180334782E+02  0.37612789261E+03  0.38057250900E+03  0.10000000000E+01 0.  0.
<mgrwt>
<rscale>  0 0.12499816E+03</rscale>
<asrwt>0</asrwt>
<pdfrwt beam="2">  1        4 0.10902327E-02 0.12499816E+03</pdfrwt>
<pdfrwt beam="1">  1       -4 0.84801068E-01 0.12499816E+03</pdfrwt>
<totfact> 0.51612805E+03</totfact>
</mgrwt>
</event>
<event>
 5    1  0.3340698E-002  0.1250010E+03  0.7818608E-02  0.1235068E+00
          4   -1    0    0  501    0  0.00000000000E+00  0.00000000000E+00  0.77184174121E+02  0.77194621799E+02  0.12700000000E+01 0. -1.
         -4   -1    0    0    0  501 -0.00000000000E+00 -0.00000000000E+00 -0.50588468316E+02  0.50604407185E+02  0.12700000000E+01 0. -1.
         25    2    1    2    0    0  0.00000000000E+00  0.00000000000E+00  0.26595705805E+02  0.12779902898E+03  0.12500104096E+03 0.  0.
    9000005    1    3    3    0    0 -0.59921598590E+02 -0.15774726277E+02  0.21595874249E+02  0.65626379995E+02  0.10000000000E+01 0.  0.
    9000005    1    3    3    0    0  0.59921598590E+02  0.15774726277E+02  0.49998315560E+01  0.62172648989E+02  0.10000000000E+01 0.  0.
<mgrwt>
<rscale>  0 0.12500104E+03</rscale>
<asrwt>0</asrwt>
<pdfrwt beam="1">  1        4 0.11876518E-01 0.12500104E+03</pdfrwt>
<pdfrwt beam="2">  1       -4 0.77848711E-02 0.12500104E+03</pdfrwt>
<totfact> 0.10391586E+04</totfact>
</mgrwt>
</event>
<event>
 5    1  0.3340698E-002  0.1250029E+03  0.7818608E-02  0.1235065E+00
         -4   -1    0    0    0  501 -0.00000000000E+00  0.00000000000E+00  0.33013306195E+02  0.33037725193E+02  0.12700000000E+01 0. -1.
          4   -1    0    0  501    0  0.00000000000E+00 -0.00000000000E+00 -0.11825741416E+03  0.11826423340E+03  0.12700000000E+01 0. -1.
         25    2    1    2    0    0  0.00000000000E+00  0.00000000000E+00 -0.85244107960E+02  0.15130195860E+03  0.12500289890E+03 0.  0.
    9000005    1    3    3    0    0  0.19831010475E+02  0.49577584294E+02 -0.81921930994E+02  0.97792681825E+02  0.10000000000E+01 0.  0.
    9000005    1    3    3    0    0 -0.19831010475E+02 -0.49577584294E+02 -0.33221769666E+01  0.53509276772E+02  0.10000000000E+01 0.  0.
<mgrwt>
<rscale>  0 0.12500290E+03</rscale>
<asrwt>0</asrwt>
<pdfrwt beam="2">  1        4 0.18195851E-01 0.12500290E+03</pdfrwt>
<pdfrwt beam="1">  1       -4 0.50813732E-02 0.12500290E+03</pdfrwt>
<totfact> 0.99038342E+03</totfact>
</mgrwt>
</event>
<event>
 5    1  0.3340698E-002  0.1250006E+03  0.7818608E-02  0.1235068E+00
         -4   -1    0    0    0  501 -0.00000000000E+00  0.00000000000E+00  0.20070945987E+02  0.20111085819E+02  0.12700000000E+01 0.  1.
          4   -1    0    0  501    0  0.00000000000E+00 -0.00000000000E+00 -0.19438738255E+03  0.19439153118E+03  0.12700000000E+01 0.  1.
         25    2    1    2    0    0  0.00000000000E+00  0.00000000000E+00 -0.17431643657E+03  0.21450261700E+03  0.12500061057E+03 0.  0.
    9000005    1    3    3    0    0  0.58883246139E+02  0.12090334933E+02 -0.57841245577E+02  0.83426749695E+02  0.10000000000E+01 0.  0.
    9000005    1    3    3    0    0 -0.58883246139E+02 -0.12090334933E+02 -0.11647519099E+03  0.13107586731E+03  0.10000000000E+01 0.  0.
<mgrwt>
<rscale>  0 0.12500061E+03</rscale>
<asrwt>0</asrwt>
<pdfrwt beam="2">  1        4 0.29909157E-01 0.12500061E+03</pdfrwt>
<pdfrwt beam="1">  1       -4 0.30912448E-02 0.12500061E+03</pdfrwt>
<totfact> 0.87744587E+03</totfact>
</mgrwt>
</event>
<event>
 5    1  0.3340698E-002  0.1250015E+03  0.7818608E-02  0.1235067E+00
          4   -1    0    0  501    0  0.00000000000E+00  0.00000000000E+00  0.53870592123E+02  0.53885560178E+02  0.12700000000E+01 0. -1.
         -4   -1    0    0    0  501 -0.00000000000E+00 -0.00000000000E+00 -0.72482867887E+02  0.72493993111E+02  0.12700000000E+01 0. -1.
         25    2    1    2    0    0  0.00000000000E+00  0.00000000000E+00 -0.18612275765E+02  0.12637955329E+03  0.12500149871E+03 0.  0.
    9000005    1    3    3    0    0  0.75755303937E+01  0.57749473418E+02  0.13592018779E+02  0.59817500076E+02  0.10000000000E+01 0.  0.
    9000005    1    3    3    0    0 -0.75755303937E+01 -0.57749473418E+02 -0.32204294544E+02  0.66562053213E+02  0.10000000000E+01 0.  0.
<mgrwt>
<rscale>  0 0.12500150E+03</rscale>
<asrwt>0</asrwt>
<pdfrwt beam="1">  1        4 0.82897906E-02 0.12500150E+03</pdfrwt>
<pdfrwt beam="2">  1       -4 0.11153218E-01 0.12500150E+03</pdfrwt>
<totfact> 0.10422303E+04</totfact>
</mgrwt>
</event>
<event>
 5    1  0.3340698E-002  0.1250007E+03  0.7818608E-02  0.1235068E+00
         -4   -1    0    0    0  501 -0.00000000000E+00  0.00000000000E+00  0.52802330629E+02  0.52817601421E+02  0.12700000000E+01 0.  1.
          4   -1    0    0  501    0  0.00000000000E+00 -0.00000000000E+00 -0.73948187225E+02  0.73959092030E+02  0.12700000000E+01 0.  1.
         25    2    1    2    0    0  0.00000000000E+00  0.00000000000E+00 -0.21145856596E+02  0.12677669345E+03  0.12500073100E+03 0.  0.
    9000005    1    3    3    0    0  0.13828084720E+02 -0.36694283607E+02 -0.59922329496E+02  0.71619633821E+02  0.10000000000E+01 0.  0.
    9000005    1    3    3    0    0 -0.13828084720E+02  0.36694283607E+02  0.38776472900E+02  0.55157059630E+02  0.10000000000E+01 0.  0.
<mgrwt>
<rscale>  0 0.12500073E+03</rscale>
<asrwt>0</asrwt>
<pdfrwt beam="2">  1        4 0.11378658E-01 0.12500073E+03</pdfrwt>
<pdfrwt beam="1">  1       -4 0.81254489E-02 0.12500073E+03</pdfrwt>
<totfact> 0.10413829E+04</totfact>
</mgrwt>
</event>
<event>
 5    1  0.3340698E-002  0.1250506E+03  0.7818608E-02  0.1234990E+00
          4   -1    0    0  501    0  0.00000000000E+00  0.00000000000E+00  0.35146878583E+03  0.35147108033E+03  0.12700000000E+01 0.  1.
         -4   -1    0    0    0  501 -0.00000000000E+00 -0.00000000000E+00 -0.11084477944E+02  0.11156995621E+02  0.12700000000E+01 0.  1.
         25    2    1    2    0    0  0.00000000000E+00  0.00000000000E+00  0.34038430788E+03  0.36262807595E+03  0.12505056744E+03 0.  0.
    9000005    1    3    3    0    0 -0.16465570311E+02 -0.32872278536E+01 -0.44379107583E+01  0.17395859408E+02  0.10000000000E+01 0.  0.
    9000005    1    3    3    0    0  0.16465570311E+02  0.32872278536E+01  0.34482221864E+03  0.34523221655E+03  0.10000000000E+01 0.  0.
<mgrwt>
<rscale>  0 0.12505057E+03</rscale>
<asrwt>0</asrwt>
<pdfrwt beam="1">  1        4 0.54077873E-01 0.12505057E+03</pdfrwt>
<pdfrwt beam="2">  1       -4 0.17110592E-02 0.12505057E+03</pdfrwt>
<totfact> 0.68280904E+03</totfact>
</mgrwt>
</event>
<event>
 5    1  0.3340698E-002  0.1249994E+03  0.7818608E-02  0.1235070E+00
         -4   -1    0    0    0  501 -0.00000000000E+00  0.00000000000E+00  0.12168087141E+03  0.12168749881E+03  0.12700000000E+01 0.  1.
          4   -1    0    0  501    0  0.00000000000E+00 -0.00000000000E+00 -0.32082028724E+02  0.32107156010E+02  0.12700000000E+01 0.  1.
         25    2    1    2    0    0  0.00000000000E+00  0.00000000000E+00  0.89598842684E+02  0.15379465482E+03  0.12499937296E+03 0.  0.
    9000005    1    3    3    0    0 -0.50792168456E+02  0.27765474005E+02  0.73770362144E+02  0.93775435237E+02  0.10000000000E+01 0.  0.
    9000005    1    3    3    0    0  0.50792168456E+02 -0.27765474005E+02  0.15828480541E+02  0.60019219583E+02  0.10000000000E+01 0.  0.
<mgrwt>
<rscale>  0 0.12499937E+03</rscale>
<asrwt>0</asrwt>
<pdfrwt beam="2">  1        4 0.49381395E-02 0.12499937E+03</pdfrwt>
<pdfrwt beam="1">  1       -4 0.18722576E-01 0.12499937E+03</pdfrwt>
<totfact> 0.98553988E+03</totfact>
</mgrwt>
</event>
<event>
 5    1  0.3340698E-002  0.1250005E+03  0.7818608E-02  0.1235069E+00
          4   -1    0    0  501    0  0.00000000000E+00  0.00000000000E+00  0.13116427951E+03  0.13117042776E+03  0.12700000000E+01 0.  1.
         -4   -1    0    0    0  501 -0.00000000000E+00 -0.00000000000E+00 -0.29761188101E+02  0.29788273149E+02  0.12700000000E+01 0.  1.
         25    2    1    2    0    0  0.00000000000E+00  0.00000000000E+00  0.10140309140E+03  0.16095870091E+03  0.12500046580E+03 0.  0.
    9000005    1    3    3    0    0  0.24740985296E+02 -0.53495879564E+02  0.77445126427E+02  0.97327658407E+02  0.10000000000E+01 0.  0.
    9000005    1    3    3    0    0 -0.24740985296E+02  0.53495879564E+02  0.23957964977E+02  0.63631042500E+02  0.10000000000E+01 0.  0.
<mgrwt>
<rscale>  0 0.12500047E+03</rscale>
<asrwt>0</asrwt>
<pdfrwt beam="1">  1        4 0.20181676E-01 0.12500047E+03</pdfrwt>
<pdfrwt beam="2">  1       -4 0.45812007E-02 0.12500047E+03</pdfrwt>
<totfact> 0.97157256E+03</totfact>
</mgrwt>
</event>
<event>
 5    1  0.3340698E-002  0.1249934E+03  0.7818608E-02  0.1235080E+00
         -4   -1    0    0    0  501 -0.00000000000E+00  0.00000000000E+00  0.17258579326E+02  0.17305243725E+02  0.12700000000E+01 0.  1.
          4   -1    0    0  501    0  0.00000000000E+00 -0.00000000000E+00 -0.22595889750E+03  0.22596246648E+03  0.12700000000E+01 0.  1.
         25    2    1    2    0    0  0.00000000000E+00  0.00000000000E+00 -0.20870031817E+03  0.24326771021E+03  0.12499342392E+03 0.  0.
    9000005    1    3    3    0    0 -0.28775759928E+02 -0.14023181302E+02  0.98887805718E-01  0.32026610062E+02  0.10000000000E+01 0.  0.
    9000005    1    3    3    0    0  0.28775759928E+02  0.14023181302E+02 -0.20879920598E+03  0.21124110014E+03  0.10000000000E+01 0.  0.
<mgrwt>
<rscale>  0 0.12499342E+03</rscale>
<asrwt>0</asrwt>
<pdfrwt beam="2">  1        4 0.34766769E-01 0.12499342E+03</pdfrwt>
<pdfrwt beam="1">  1       -4 0.26590303E-02 0.12499342E+03</pdfrwt>
<totfact> 0.83325307E+03</totfact>
</mgrwt>
</event>
<event>
 5    1  0.3340698E-002  0.1250071E+03  0.7818608E-02  0.1235058E+00
         -4   -1    0    0    0  501 -0.00000000000E+00  0.00000000000E+00  0.12923019506E+02  0.12985273703E+02  0.12700000000E+01 0.  1.
          4   -1    0    0  501    0  0.00000000000E+00 -0.00000000000E+00 -0.30151479477E+03  0.30151746942E+03  0.12700000000E+01 0.  1.
         25    2    1    2    0    0  0.00000000000E+00  0.00000000000E+00 -0.28859177527E+03  0.31450274313E+03  0.12500705053E+03 0.  0.
    9000005    1    3    3    0    0  0.98946840177E+01 -0.42660469392E+02 -0.32124021120E+02  0.54321019444E+02  0.10000000000E+01 0.  0.
    9000005    1    3    3    0    0 -0.98946840177E+01  0.42660469392E+02 -0.25646775415E+03  0.26018172368E+03  0.10000000000E+01 0.  0.
<mgrwt>
<rscale>  0 0.12500705E+03</rscale>
<asrwt>0</asrwt>
<pdfrwt beam="2">  1        4 0.46391881E-01 0.12500705E+03</pdfrwt>
<pdfrwt beam="1">  1       -4 0.19931516E-02 0.12500705E+03</pdfrwt>
<totfact> 0.73803220E+03</totfact>
</mgrwt>
</event>
<event>
 5    1  0.3340698E-002  0.1250029E+03  0.7818608E-02  0.1235065E+00
         -4   -1    0    0    0  501 -0.00000000000E+00  0.00000000000E+00  0.13013867386E+03  0.13014487056E+03  0.12700000000E+01 0. -1.
          4   -1    0    0  501    0  0.00000000000E+00 -0.00000000000E+00 -0.29997123666E+02  0.30023995874E+02  0.12700000000E+01 0. -1.
         25    2    1    2    0    0  0.00000000000E+00  0.00000000000E+00  0.10014155019E+03  0.16016886643E+03  0.12500294277E+03 0.  0.
    9000005    1    3    3    0    0  0.42981636236E+02  0.24828364465E+02  0.98719897252E+02  0.11050107171E+03  0.10000000000E+01 0.  0.
    9000005    1    3    3    0    0 -0.42981636236E+02 -0.24828364465E+02  0.14216529371E+01  0.49667794723E+02  0.10000000000E+01 0.  0.
<mgrwt>
<rscale>  0 0.12500294E+03</rscale>
<asrwt>0</asrwt>
<pdfrwt beam="2">  1        4 0.46174858E-02 0.12500294E+03</pdfrwt>
<pdfrwt beam="1">  1       -4 0.20023878E-01 0.12500294E+03</pdfrwt>
<totfact> 0.97303802E+03</totfact>
</mgrwt>
</event>
<event>
 5    1  0.3340698E-002  0.1249984E+03  0.7818608E-02  0.1235072E+00
         -4   -1    0    0    0  501 -0.00000000000E+00  0.00000000000E+00  0.90991040526E+02  0.90999903055E+02  0.12700000000E+01 0.  1.
          4   -1    0    0  501    0  0.00000000000E+00 -0.00000000000E+00 -0.42908569119E+02  0.42927359619E+02  0.12700000000E+01 0.  1.
         25    2    1    2    0    0  0.00000000000E+00  0.00000000000E+00  0.48082471407E+02  0.13392726267E+03  0.12499835051E+03 0.  0.
    9000005    1    3    3    0    0  0.16932284433E+02  0.95278192982E+01 -0.39595573784E+02  0.44116788868E+02  0.10000000000E+01 0.  0.
    9000005    1    3    3    0    0 -0.16932284433E+02 -0.95278192982E+01  0.87678045191E+02  0.89810473806E+02  0.10000000000E+01 0.  0.
<mgrwt>
<rscale>  0 0.12499835E+03</rscale>
<asrwt>0</asrwt>
<pdfrwt beam="2">  1        4 0.66034455E-02 0.12499835E+03</pdfrwt>
<pdfrwt beam="1">  1       -4 0.14000749E-01 0.12499835E+03</pdfrwt>
<totfact> 0.10261113E+04</totfact>
</mgrwt>
</event>
<event>
 5    1  0.3340698E-002  0.1250013E+03  0.7818608E-02  0.1235067E+00
         -4   -1    0    0    0  501 -0.00000000000E+00  0.00000000000E+00  0.17569685201E+02  0.17615525484E+02  0.12700000000E+01 0.  1.
          4   -1    0    0  501    0  0.00000000000E+00 -0.00000000000E+00 -0.22199623188E+03  0.22199986457E+03  0.12700000000E+01 0.  1.
         25    2    1    2    0    0  0.00000000000E+00  0.00000000000E+00 -0.20442654667E+03  0.23961539005E+03  0.12500128865E+03 0.  0.
    9000005    1    3    3    0    0  0.12096088125E+02  0.27351021700E+02 -0.20739760179E+03  0.20954512393E+03  0.10000000000E+01 0.  0.
    9000005    1    3    3    0    0 -0.12096088125E+02 -0.27351021700E+02  0.29710551129E+01  0.30070266118E+02  0.10000000000E+01 0.  0.
<mgrwt>
<rscale>  0 0.12500129E+03</rscale>
<asrwt>0</asrwt>
<pdfrwt beam="2">  1        4 0.34157070E-01 0.12500129E+03</pdfrwt>
<pdfrwt beam="1">  1       -4 0.27068343E-02 0.12500129E+03</pdfrwt>
<totfact> 0.83852273E+03</totfact>
</mgrwt>
</event>
<event>
 5    1  0.3340698E-002  0.1250085E+03  0.7818608E-02  0.1235056E+00
         -4   -1    0    0    0  501 -0.00000000000E+00  0.00000000000E+00  0.51110167369E+03  0.51110325156E+03  0.12700000000E+01 0. -1.
          4   -1    0    0  501    0  0.00000000000E+00 -0.00000000000E+00 -0.75894862532E+01  0.76950114742E+01  0.12700000000E+01 0. -1.
         25    2    1    2    0    0  0.00000000000E+00  0.00000000000E+00  0.50351218744E+03  0.51879826303E+03  0.12500845901E+03 0.  0.
    9000005    1    3    3    0    0 -0.39595274008E+02  0.84648472101E+01  0.54185829400E+02  0.67650154987E+02  0.10000000000E+01 0.  0.
    9000005    1    3    3    0    0  0.39595274008E+02 -0.84648472101E+01  0.44932635804E+03  0.45114810804E+03  0.10000000000E+01 0.  0.
<mgrwt>
<rscale>  0 0.12500846E+03</rscale>
<asrwt>0</asrwt>
<pdfrwt beam="2">  1        4 0.11758517E-02 0.12500846E+03</pdfrwt>
<pdfrwt beam="1">  1       -4 0.78639280E-01 0.12500846E+03</pdfrwt>
<totfact> 0.54424666E+03</totfact>
</mgrwt>
</event>
<event>
 5    1  0.3340698E-002  0.1249963E+03  0.7818608E-02  0.1235075E+00
         -4   -1    0    0    0  501 -0.00000000000E+00  0.00000000000E+00  0.65198695213E+03  0.65198818904E+03  0.12700000000E+01 0. -1.
          4   -1    0    0  501    0  0.00000000000E+00 -0.00000000000E+00 -0.59223858662E+01  0.60570252062E+01  0.12700000000E+01 0. -1.
         25    2    1    2    0    0  0.00000000000E+00  0.00000000000E+00  0.64606456627E+03  0.65804521425E+03  0.12499632079E+03 0.  0.
    9000005    1    3    3    0    0 -0.24924118870E+01  0.32148870922E+02  0.41232681693E+02  0.52353567770E+02  0.10000000000E+01 0.  0.
    9000005    1    3    3    0    0  0.24924118870E+01 -0.32148870922E+02  0.60483188457E+03  0.60569164648E+03  0.10000000000E+01 0.  0.
<mgrwt>
<rscale>  0 0.12499632E+03</rscale>
<asrwt>0</asrwt>
<pdfrwt beam="2">  1        4 0.92158786E-03 0.12499632E+03</pdfrwt>
<pdfrwt beam="1">  1       -4 0.10031619E+00 0.12499632E+03</pdfrwt>
<totfact> 0.45399307E+03</totfact>
</mgrwt>
</event>
<event>
 5    1  0.3340698E-002  0.1249984E+03  0.7818608E-02  0.1235072E+00
         -4   -1    0    0    0  501 -0.00000000000E+00  0.00000000000E+00  0.65219311781E+03  0.65219435433E+03  0.12700000000E+01 0. -1.
          4   -1    0    0  501    0  0.00000000000E+00 -0.00000000000E+00 -0.59206761524E+01  0.60553535076E+01  0.12700000000E+01 0. -1.
         25    2    1    2    0    0  0.00000000000E+00  0.00000000000E+00  0.64627244166E+03  0.65824970784E+03  0.12499843607E+03 0.  0.
    9000005    1    3    3    0    0  0.60204186087E+02 -0.13452783199E+02  0.37569956994E+03  0.38073177994E+03  0.10000000000E+01 0.  0.
    9000005    1    3    3    0    0 -0.60204186087E+02  0.13452783199E+02  0.27057287171E+03  0.27751792790E+03  0.10000000000E+01 0.  0.
<mgrwt>
<rscale>  0 0.12499844E+03</rscale>
<asrwt>0</asrwt>
<pdfrwt beam="2">  1        4 0.92132882E-03 0.12499844E+03</pdfrwt>
<pdfrwt beam="1">  1       -4 0.10034779E+00 0.12499844E+03</pdfrwt>
<totfact> 0.45385532E+03</totfact>
</mgrwt>
</event>
<event>
 5    1  0.3340698E-002  0.1249939E+03  0.7818608E-02  0.1235079E+00
         -4   -1    0    0    0  501 -0.00000000000E+00  0.00000000000E+00  0.42025311156E+02  0.42044496403E+02  0.12700000000E+01 0. -1.
          4   -1    0    0  501    0  0.00000000000E+00 -0.00000000000E+00 -0.92896075428E+02  0.92904756228E+02  0.12700000000E+01 0. -1.
         25    2    1    2    0    0  0.00000000000E+00  0.00000000000E+00 -0.50870764271E+02  0.13494925263E+03  0.12499386436E+03 0.  0.
    9000005    1    3    3    0    0 -0.48723820204E+02  0.38992986658E+02 -0.28917619239E+02  0.68787298001E+02  0.10000000000E+01 0.  0.
    9000005    1    3    3    0    0  0.48723820204E+02 -0.38992986658E+02 -0.21953145032E+02  0.66161954631E+02  0.10000000000E+01 0.  0.
<mgrwt>
<rscale>  0 0.12499386E+03</rscale>
<asrwt>0</asrwt>
<pdfrwt beam="2">  1        4 0.14293847E-01 0.12499386E+03</pdfrwt>
<pdfrwt beam="1">  1       -4 0.64675761E-02 0.12499386E+03</pdfrwt>
<totfact> 0.10240558E+04</totfact>
</mgrwt>
</event>
<event>
 5    1  0.3340698E-002  0.1250038E+03  0.7818608E-02  0.1235063E+00
          4   -1    0    0  501    0  0.00000000000E+00  0.00000000000E+00  0.80764768902E+01  0.81757188649E+01  0.12700000000E+01 0.  1.
         -4   -1    0    0    0  501 -0.00000000000E+00 -0.00000000000E+00 -0.48063341737E+03  0.48063509526E+03  0.12700000000E+01 0.  1.
         25    2    1    2    0    0  0.00000000000E+00  0.00000000000E+00 -0.47255694048E+03  0.48881081412E+03  0.12500379997E+03 0.  0.
    9000005    1    3    3    0    0 -0.91345683755E+01 -0.49445634537E+02 -0.38139349293E+03  0.38469508388E+03  0.10000000000E+01 0.  0.
    9000005    1    3    3    0    0  0.91345683755E+01  0.49445634537E+02 -0.91163447550E+02  0.10411573024E+03  0.10000000000E+01 0.  0.
<mgrwt>
<rscale>  0 0.12500380E+03</rscale>
<asrwt>0</asrwt>
<pdfrwt beam="1">  1        4 0.12502984E-02 0.12500380E+03</pdfrwt>
<pdfrwt beam="2">  1       -4 0.73951343E-01 0.12500380E+03</pdfrwt>
<totfact> 0.56738349E+03</totfact>
</mgrwt>
</event>
<event>
 5    1  0.3340698E-002  0.1249970E+03  0.7818608E-02  0.1235074E+00
         -4   -1    0    0    0  501 -0.00000000000E+00  0.00000000000E+00  0.15116400675E+02  0.15169656205E+02  0.12700000000E+01 0.  1.
          4   -1    0    0  501    0  0.00000000000E+00 -0.00000000000E+00 -0.25788996991E+03  0.25789309700E+03  0.12700000000E+01 0.  1.
         25    2    1    2    0    0  0.00000000000E+00  0.00000000000E+00 -0.24277356923E+03  0.27306275320E+03  0.12499704504E+03 0.  0.
    9000005    1    3    3    0    0 -0.37341642466E+01 -0.62322884218E+02 -0.11561549430E+03  0.13140026028E+03  0.10000000000E+01 0.  0.
    9000005    1    3    3    0    0  0.37341642466E+01  0.62322884218E+02 -0.12715807493E+03  0.14166249292E+03  0.10000000000E+01 0.  0.
<mgrwt>
<rscale>  0 0.12499705E+03</rscale>
<asrwt>0</asrwt>
<pdfrwt beam="2">  1        4 0.39679714E-01 0.12499705E+03</pdfrwt>
<pdfrwt beam="1">  1       -4 0.23299374E-02 0.12499705E+03</pdfrwt>
<totfact> 0.79112218E+03</totfact>
</mgrwt>
</event>
<event>
 5    1  0.3340698E-002  0.1249965E+03  0.7818608E-02  0.1235075E+00
         -4   -1    0    0    0  501 -0.00000000000E+00  0.00000000000E+00  0.39789624956E+02  0.39809887642E+02  0.12700000000E+01 0.  1.
          4   -1    0    0  501    0  0.00000000000E+00 -0.00000000000E+00 -0.98117689858E+02  0.98125908725E+02  0.12700000000E+01 0.  1.
         25    2    1    2    0    0  0.00000000000E+00  0.00000000000E+00 -0.58328064903E+02  0.13793579637E+03  0.12499648301E+03 0.  0.
    9000005    1    3    3    0    0 -0.28570589906E+02  0.13827678075E+02  0.30237059747E+02  0.43849322352E+02  0.10000000000E+01 0.  0.
    9000005    1    3    3    0    0  0.28570589906E+02 -0.13827678075E+02 -0.88565124650E+02  0.94086474016E+02  0.10000000000E+01 0.  0.
<mgrwt>
<rscale>  0 0.12499648E+03</rscale>
<asrwt>0</asrwt>
<pdfrwt beam="2">  1        4 0.15097220E-01 0.12499648E+03</pdfrwt>
<pdfrwt beam="1">  1       -4 0.61236717E-02 0.12499648E+03</pdfrwt>
<totfact> 0.10177354E+04</totfact>
</mgrwt>
</event>
<event>
 5    1  0.3340698E-002  0.1249977E+03  0.7818608E-02  0.1235073E+00
         -4   -1    0    0    0  501 -0.00000000000E+00  0.00000000000E+00  0.12974384594E+03  0.12975006150E+03  0.12700000000E+01 0.  1.
          4   -1    0    0  501    0  0.00000000000E+00 -0.00000000000E+00 -0.30085977580E+02  0.30112770496E+02  0.12700000000E+01 0.  1.
         25    2    1    2    0    0  0.00000000000E+00  0.00000000000E+00  0.99657868358E+02  0.15986283199E+03  0.12499773729E+03 0.  0.
    9000005    1    3    3    0    0  0.57165160048E+02  0.16640364443E+02  0.25551185274E+02  0.64796761655E+02  0.10000000000E+01 0.  0.
    9000005    1    3    3    0    0 -0.57165160048E+02 -0.16640364443E+02  0.74106683084E+02  0.95066070339E+02  0.10000000000E+01 0.  0.
<mgrwt>
<rscale>  0 0.12499774E+03</rscale>
<asrwt>0</asrwt>
<pdfrwt beam="2">  1        4 0.46311511E-02 0.12499774E+03</pdfrwt>
<pdfrwt beam="1">  1       -4 0.19963131E-01 0.12499774E+03</pdfrwt>
<totfact> 0.97374189E+03</totfact>
</mgrwt>
</event>
<event>
 4    1  0.3340698E-002  0.1251560E+03  0.7818608E-02  0.1234826E+00
         -4   -1    0    0    0  501 -0.00000000000E+00  0.00000000000E+00  0.46256143802E+02  0.46273574959E+02  0.12700000000E+01 0. -1.
          4   -1    0    0  501    0  0.00000000000E+00 -0.00000000000E+00 -0.84620972224E+02  0.84630501830E+02  0.12700000000E+01 0. -1.
    9000005    1    1    2    0    0 -0.47959850364E+01 -0.11728417372E+02 -0.83270099868E+02  0.84234593717E+02  0.10000000000E+01 0.  0.
    9000005    1    1    2    0    0  0.47959850364E+01  0.11728417372E+02  0.44905271447E+02  0.46669483073E+02  0.10000000000E+01 0.  0.
<mgrwt>
<rscale>  0 0.12515597E+03</rscale>
<asrwt>0</asrwt>
<pdfrwt beam="2">  1        4 0.13020685E-01 0.12515597E+03</pdfrwt>
<pdfrwt beam="1">  1       -4 0.71184037E-02 0.12515597E+03</pdfrwt>
<totfact> 0.10288898E+04</totfact>
</mgrwt>
</event>
<event>
 5    1  0.3340698E-002  0.1249989E+03  0.7818608E-02  0.1235071E+00
          4   -1    0    0  501    0  0.00000000000E+00  0.00000000000E+00  0.85115343762E+02  0.85124818024E+02  0.12700000000E+01 0. -1.
         -4   -1    0    0    0  501 -0.00000000000E+00 -0.00000000000E+00 -0.45871998777E+02  0.45889575851E+02  0.12700000000E+01 0. -1.
         25    2    1    2    0    0  0.00000000000E+00  0.00000000000E+00  0.39243344984E+02  0.13101439388E+03  0.12499892510E+03 0.  0.
    9000005    1    3    3    0    0  0.39098114866E+02 -0.26975073843E+02 -0.22938694631E+02  0.52758894097E+02  0.10000000000E+01 0.  0.
    9000005    1    3    3    0    0 -0.39098114866E+02  0.26975073843E+02  0.62182039616E+02  0.78255499779E+02  0.10000000000E+01 0.  0.
<mgrwt>
<rscale>  0 0.12499893E+03</rscale>
<asrwt>0</asrwt>
<pdfrwt beam="1">  1        4 0.13096749E-01 0.12499893E+03</pdfrwt>
<pdfrwt beam="2">  1       -4 0.70593115E-02 0.12499893E+03</pdfrwt>
<totfact> 0.10323031E+04</totfact>
</mgrwt>
</event>
<event>
 5    1  0.3340698E-002  0.1249810E+03  0.7818608E-02  0.1235099E+00
          4   -1    0    0  501    0  0.00000000000E+00  0.00000000000E+00  0.54273293564E+03  0.54273442155E+03  0.12700000000E+01 0. -1.
         -4   -1    0    0    0  501 -0.00000000000E+00 -0.00000000000E+00 -0.71376322907E+01  0.72497375620E+01  0.12700000000E+01 0. -1.
         25    2    1    2    0    0  0.00000000000E+00  0.00000000000E+00  0.53559530335E+03  0.54998415911E+03  0.12498098374E+03 0.  0.
    9000005    1    3    3    0    0 -0.82010888577E+01 -0.37583218743E+02  0.48446821141E+03  0.48599403706E+03  0.10000000000E+01 0.  0.
    9000005    1    3    3    0    0  0.82010888577E+01  0.37583218743E+02  0.51127091941E+02  0.63990122049E+02  0.10000000000E+01 0.  0.
<mgrwt>
<rscale>  0 0.12498098E+03</rscale>
<asrwt>0</asrwt>
<pdfrwt beam="1">  1        4 0.83506110E-01 0.12498098E+03</pdfrwt>
<pdfrwt beam="2">  1       -4 0.11068351E-02 0.12498098E+03</pdfrwt>
<totfact> 0.52206828E+03</totfact>
</mgrwt>
</event>
<event>
 5    1  0.3340698E-002  0.1250005E+03  0.7818608E-02  0.1235068E+00
         -4   -1    0    0    0  501 -0.00000000000E+00  0.00000000000E+00  0.47971841716E+02  0.47988649675E+02  0.12700000000E+01 0. -1.
          4   -1    0    0  501    0  0.00000000000E+00 -0.00000000000E+00 -0.81392646411E+02  0.81402553951E+02  0.12700000000E+01 0. -1.
         25    2    1    2    0    0  0.00000000000E+00  0.00000000000E+00 -0.33420804695E+02  0.12939120363E+03  0.12500053356E+03 0.  0.
    9000005    1    3    3    0    0  0.61045747594E+02  0.13004767422E+02 -0.13507183626E+02  0.63868233767E+02  0.10000000000E+01 0.  0.
    9000005    1    3    3    0    0 -0.61045747594E+02 -0.13004767422E+02 -0.19913621069E+02  0.65522969859E+02  0.10000000000E+01 0.  0.
<mgrwt>
<rscale>  0 0.12500053E+03</rscale>
<asrwt>0</asrwt>
<pdfrwt beam="2">  1        4 0.12524001E-01 0.12500053E+03</pdfrwt>
<pdfrwt beam="1">  1       -4 0.73823384E-02 0.12500053E+03</pdfrwt>
<totfact> 0.10357423E+04</totfact>
</mgrwt>
</event>
<event>
 5    1  0.3340698E-002  0.1249991E+03  0.7818608E-02  0.1235071E+00
          4   -1    0    0  501    0  0.00000000000E+00  0.00000000000E+00  0.48606043220E+02  0.48622631948E+02  0.12700000000E+01 0. -1.
         -4   -1    0    0    0  501 -0.00000000000E+00 -0.00000000000E+00 -0.80329078051E+02  0.80339116752E+02  0.12700000000E+01 0. -1.
         25    2    1    2    0    0  0.00000000000E+00  0.00000000000E+00 -0.31723034831E+02  0.12896174870E+03  0.12499912675E+03 0.  0.
    9000005    1    3    3    0    0 -0.46596416709E+02 -0.40924517613E+02 -0.79265861845E+01  0.62528976967E+02  0.10000000000E+01 0.  0.
    9000005    1    3    3    0    0  0.46596416709E+02  0.40924517613E+02 -0.23796448647E+02  0.66432771733E+02  0.10000000000E+01 0.  0.
<mgrwt>
<rscale>  0 0.12499913E+03</rscale>
<asrwt>0</asrwt>
<pdfrwt beam="1">  1        4 0.74799011E-02 0.12499913E+03</pdfrwt>
<pdfrwt beam="2">  1       -4 0.12360368E-01 0.12499913E+03</pdfrwt>
<totfact> 0.10366973E+04</totfact>
</mgrwt>
</event>
<event>
 5    1  0.3340698E-002  0.1249994E+03  0.7818608E-02  0.1235070E+00
         -4   -1    0    0    0  501 -0.00000000000E+00  0.00000000000E+00  0.14567638294E+03  0.14568191874E+03  0.12700000000E+01 0. -1.
          4   -1    0    0  501    0  0.00000000000E+00 -0.00000000000E+00 -0.26793234771E+02  0.26823316899E+02  0.12700000000E+01 0. -1.
         25    2    1    2    0    0  0.00000000000E+00  0.00000000000E+00  0.11888314817E+03  0.17250523564E+03  0.12499941361E+03 0.  0.
    9000005    1    3    3    0    0  0.14021922411E+02 -0.87410768456E+01 -0.23730731540E+02  0.28933861684E+02  0.10000000000E+01 0.  0.
    9000005    1    3    3    0    0 -0.14021922411E+02  0.87410768456E+01  0.14261387971E+03  0.14357137395E+03  0.10000000000E+01 0.  0.
<mgrwt>
<rscale>  0 0.12499941E+03</rscale>
<asrwt>0</asrwt>
<pdfrwt beam="2">  1        4 0.41247760E-02 0.12499941E+03</pdfrwt>
<pdfrwt beam="1">  1       -4 0.22414491E-01 0.12499941E+03</pdfrwt>
<totfact> 0.94984997E+03</totfact>
</mgrwt>
</event>
<event>
 5    1  0.3340698E-002  0.1249756E+03  0.7818608E-02  0.1235107E+00
          4   -1    0    0  501    0  0.00000000000E+00  0.00000000000E+00  0.17761903009E+02  0.17807248482E+02  0.12700000000E+01 0. -1.
         -4   -1    0    0    0  501 -0.00000000000E+00 -0.00000000000E+00 -0.21950967834E+03  0.21951335218E+03  0.12700000000E+01 0. -1.
         25    2    1    2    0    0  0.00000000000E+00  0.00000000000E+00 -0.20174777534E+03  0.23732060067E+03  0.12497560821E+03 0.  0.
    9000005    1    3    3    0    0 -0.56936962037E+02 -0.18358325961E+01 -0.14960434785E+03  0.16008637925E+03  0.10000000000E+01 0.  0.
    9000005    1    3    3    0    0  0.56936962037E+02  0.18358325961E+01 -0.52143427490E+02  0.77234221416E+02  0.10000000000E+01 0.  0.
<mgrwt>
<rscale>  0 0.12497561E+03</rscale>
<asrwt>0</asrwt>
<pdfrwt beam="1">  1        4 0.27363713E-02 0.12497561E+03</pdfrwt>
<pdfrwt beam="2">  1       -4 0.33774489E-01 0.12497561E+03</pdfrwt>
<totfact> 0.84243854E+03</totfact>
</mgrwt>
</event>
<event>
 5    1  0.3340698E-002  0.1249952E+03  0.7818608E-02  0.1235077E+00
         -4   -1    0    0    0  501 -0.00000000000E+00  0.00000000000E+00  0.43045735756E+02  0.43064466405E+02  0.12700000000E+01 0. -1.
          4   -1    0    0  501    0  0.00000000000E+00 -0.00000000000E+00 -0.90696688938E+02  0.90705580227E+02  0.12700000000E+01 0. -1.
         25    2    1    2    0    0  0.00000000000E+00  0.00000000000E+00 -0.47650953182E+02  0.13377004663E+03  0.12499524806E+03 0.  0.
    9000005    1    3    3    0    0  0.17475292287E+02  0.10219391821E+02 -0.87095372088E+02  0.89422735637E+02  0.10000000000E+01 0.  0.
    9000005    1    3    3    0    0 -0.17475292287E+02 -0.10219391821E+02  0.39444418906E+02  0.44347310995E+02  0.10000000000E+01 0.  0.
<mgrwt>
<rscale>  0 0.12499525E+03</rscale>
<asrwt>0</asrwt>
<pdfrwt beam="2">  1        4 0.13955461E-01 0.12499525E+03</pdfrwt>
<pdfrwt beam="1">  1       -4 0.66245457E-02 0.12499525E+03</pdfrwt>
<totfact> 0.10265161E+04</totfact>
</mgrwt>
</event>
<event>
 5    1  0.3340698E-002  0.1249932E+03  0.7818608E-02  0.1235080E+00
         -4   -1    0    0    0  501 -0.00000000000E+00  0.00000000000E+00  0.25965728861E+02  0.25996768554E+02  0.12700000000E+01 0.  1.
          4   -1    0    0  501    0  0.00000000000E+00 -0.00000000000E+00 -0.15029876380E+03  0.15030412935E+03  0.12700000000E+01 0.  1.
         25    2    1    2    0    0  0.00000000000E+00  0.00000000000E+00 -0.12433303494E+03  0.17630089791E+03  0.12499321192E+03 0.  0.
    9000005    1    3    3    0    0  0.33965836147E+02  0.43667887584E+02 -0.10314983001E+03  0.11705319244E+03  0.10000000000E+01 0.  0.
    9000005    1    3    3    0    0 -0.33965836147E+02 -0.43667887584E+02 -0.21183204936E+02  0.59247705462E+02  0.10000000000E+01 0.  0.
<mgrwt>
<rscale>  0 0.12499321E+03</rscale>
<asrwt>0</asrwt>
<pdfrwt beam="2">  1        4 0.23125687E-01 0.12499321E+03</pdfrwt>
<pdfrwt beam="1">  1       -4 0.39975280E-02 0.12499321E+03</pdfrwt>
<totfact> 0.94301481E+03</totfact>
</mgrwt>
</event>
<event>
 5    1  0.3340698E-002  0.1249597E+03  0.7818608E-02  0.1235132E+00
         -4   -1    0    0    0  501 -0.00000000000E+00  0.00000000000E+00  0.17780010240E+03  0.17780463805E+03  0.12700000000E+01 0.  1.
          4   -1    0    0  501    0  0.00000000000E+00 -0.00000000000E+00 -0.21932564117E+02  0.21969302874E+02  0.12700000000E+01 0.  1.
         25    2    1    2    0    0  0.00000000000E+00  0.00000000000E+00  0.15586753828E+03  0.19977394093E+03  0.12495974545E+03 0.  0.
    9000005    1    3    3    0    0  0.56229706781E+02 -0.18478626414E+02  0.10988770396E+03  0.12481805575E+03  0.10000000000E+01 0.  0.
    9000005    1    3    3    0    0 -0.56229706781E+02  0.18478626414E+02  0.45979834322E+02  0.74955885180E+02  0.10000000000E+01 0.  0.
<mgrwt>
<rscale>  0 0.12495975E+03</rscale>
<asrwt>0</asrwt>
<pdfrwt beam="2">  1        4 0.33774156E-02 0.12495975E+03</pdfrwt>
<pdfrwt beam="1">  1       -4 0.27357037E-01 0.12495975E+03</pdfrwt>
<totfact> 0.90254923E+03</totfact>
</mgrwt>
</event>
<event>
 5    1  0.3340698E-002  0.1249980E+03  0.7818608E-02  0.1235072E+00
          4   -1    0    0  501    0  0.00000000000E+00  0.00000000000E+00  0.41491118424E+03  0.41491312791E+03  0.12700000000E+01 0. -1.
         -4   -1    0    0    0  501 -0.00000000000E+00 -0.00000000000E+00 -0.93695594446E+01  0.94552389809E+01  0.12700000000E+01 0. -1.
         25    2    1    2    0    0  0.00000000000E+00  0.00000000000E+00  0.40554162480E+03  0.42436836689E+03  0.12499800547E+03 0.  0.
    9000005    1    3    3    0    0 -0.30115859848E+02 -0.54209977000E+01  0.17789258132E+02  0.35409178688E+02  0.10000000000E+01 0.  0.
    9000005    1    3    3    0    0  0.30115859848E+02  0.54209977000E+01  0.38775236666E+03  0.38895918820E+03  0.10000000000E+01 0.  0.
<mgrwt>
<rscale>  0 0.12499801E+03</rscale>
<asrwt>0</asrwt>
<pdfrwt beam="1">  1        4 0.63839232E-01 0.12499801E+03</pdfrwt>
<pdfrwt beam="2">  1       -4 0.14482109E-02 0.12499801E+03</pdfrwt>
<totfact> 0.62252538E+03</totfact>
</mgrwt>
</event>
<event>
 5    1  0.3340698E-002  0.1249913E+03  0.7818608E-02  0.1235083E+00
          4   -1    0    0  501    0  0.00000000000E+00  0.00000000000E+00  0.28554002974E+02  0.28582231996E+02  0.12700000000E+01 0.  1.
         -4   -1    0    0    0  501 -0.00000000000E+00 -0.00000000000E+00 -0.13668444469E+03  0.13669034464E+03  0.12700000000E+01 0.  1.
         25    2    1    2    0    0  0.00000000000E+00  0.00000000000E+00 -0.10813044171E+03  0.16527257664E+03  0.12499132836E+03 0.  0.
    9000005    1    3    3    0    0  0.78808033637E+01 -0.60426562966E+02 -0.35779983872E+02  0.70673077047E+02  0.10000000000E+01 0.  0.
    9000005    1    3    3    0    0 -0.78808033637E+01  0.60426562966E+02 -0.72350457839E+02  0.94599499592E+02  0.10000000000E+01 0.  0.
<mgrwt>
<rscale>  0 0.12499133E+03</rscale>
<asrwt>0</asrwt>
<pdfrwt beam="1">  1        4 0.43955489E-02 0.12499133E+03</pdfrwt>
<pdfrwt beam="2">  1       -4 0.21031001E-01 0.12499133E+03</pdfrwt>
<totfact> 0.96354564E+03</totfact>
</mgrwt>
</event>
<event>
 5    1  0.3340698E-002  0.1250008E+03  0.7818608E-02  0.1235068E+00
          4   -1    0    0  501    0  0.00000000000E+00  0.00000000000E+00  0.28055190452E+02  0.28083920868E+02  0.12700000000E+01 0. -1.
         -4   -1    0    0    0  501 -0.00000000000E+00 -0.00000000000E+00 -0.13913327965E+03  0.13913907577E+03  0.12700000000E+01 0. -1.
         25    2    1    2    0    0  0.00000000000E+00  0.00000000000E+00 -0.11107808920E+03  0.16722299664E+03  0.12500075482E+03 0.  0.
    9000005    1    3    3    0    0 -0.40757837173E+02 -0.47050438001E+02 -0.48168862240E+02  0.78715845270E+02  0.10000000000E+01 0.  0.
    9000005    1    3    3    0    0  0.40757837173E+02  0.47050438001E+02 -0.62909226960E+02  0.88507151371E+02  0.10000000000E+01 0.  0.
<mgrwt>
<rscale>  0 0.12500075E+03</rscale>
<asrwt>0</asrwt>
<pdfrwt beam="1">  1        4 0.43188391E-02 0.12500075E+03</pdfrwt>
<pdfrwt beam="2">  1       -4 0.21407775E-01 0.12500075E+03</pdfrwt>
<totfact> 0.95966414E+03</totfact>
</mgrwt>
</event>
<event>
 5    1  0.3340698E-002  0.1249997E+03  0.7818608E-02  0.1235070E+00
          4   -1    0    0  501    0  0.00000000000E+00  0.00000000000E+00  0.12114606179E+03  0.12115271844E+03  0.12700000000E+01 0. -1.
         -4   -1    0    0    0  501 -0.00000000000E+00 -0.00000000000E+00 -0.32223924012E+02  0.32248940738E+02  0.12700000000E+01 0. -1.
         25    2    1    2    0    0  0.00000000000E+00  0.00000000000E+00  0.88922137774E+02  0.15340165918E+03  0.12499968981E+03 0.  0.
    9000005    1    3    3    0    0  0.59244279126E+02  0.82072901928E+01  0.22235697115E+02  0.63817477603E+02  0.10000000000E+01 0.  0.
    9000005    1    3    3    0    0 -0.59244279126E+02 -0.82072901928E+01  0.66686440659E+02  0.89584181579E+02  0.10000000000E+01 0.  0.
<mgrwt>
<rscale>  0 0.12499969E+03</rscale>
<asrwt>0</asrwt>
<pdfrwt beam="1">  1        4 0.18640292E-01 0.12499969E+03</pdfrwt>
<pdfrwt beam="2">  1       -4 0.49599631E-02 0.12499969E+03</pdfrwt>
<totfact> 0.98630587E+03</totfact>
</mgrwt>
</event>
<event>
 5    1  0.3340698E-002  0.1249979E+03  0.7818608E-02  0.1235073E+00
          4   -1    0    0  501    0  0.00000000000E+00  0.00000000000E+00  0.67733254162E+02  0.67745159380E+02  0.12700000000E+01 0. -1.
         -4   -1    0    0    0  501 -0.00000000000E+00 -0.00000000000E+00 -0.57645183657E+02  0.57659171854E+02  0.12700000000E+01 0. -1.
         25    2    1    2    0    0  0.00000000000E+00  0.00000000000E+00  0.10088070505E+02  0.12540433123E+03  0.12499790848E+03 0.  0.
    9000005    1    3    3    0    0 -0.19277314728E+02  0.17906570308E+01  0.64653534210E+02  0.67497413295E+02  0.10000000000E+01 0.  0.
    9000005    1    3    3    0    0  0.19277314728E+02 -0.17906570308E+01 -0.54565463705E+02  0.57906917938E+02  0.10000000000E+01 0.  0.
<mgrwt>
<rscale>  0 0.12499791E+03</rscale>
<asrwt>0</asrwt>
<pdfrwt beam="1">  1        4 0.10422492E-01 0.12499791E+03</pdfrwt>
<pdfrwt beam="2">  1       -4 0.88704816E-02 0.12499791E+03</pdfrwt>
<totfact> 0.10444563E+04</totfact>
</mgrwt>
</event>
<event>
 5    1  0.3340698E-002  0.1250007E+03  0.7818608E-02  0.1235068E+00
          4   -1    0    0  501    0  0.00000000000E+00  0.00000000000E+00  0.19747168783E+03  0.19747577166E+03  0.12700000000E+01 0. -1.
         -4   -1    0    0    0  501 -0.00000000000E+00 -0.00000000000E+00 -0.19756855483E+02  0.19797632146E+02  0.12700000000E+01 0. -1.
         25    2    1    2    0    0  0.00000000000E+00  0.00000000000E+00  0.17771483234E+03  0.21727340381E+03  0.12500068147E+03 0.  0.
    9000005    1    3    3    0    0  0.51480906167E+02 -0.35448076988E+01  0.15012524135E+03  0.15874960615E+03  0.10000000000E+01 0.  0.
    9000005    1    3    3    0    0 -0.51480906167E+02  0.35448076988E+01  0.27589590992E+02  0.58523797660E+02  0.10000000000E+01 0.  0.
<mgrwt>
<rscale>  0 0.12500068E+03</rscale>
<asrwt>0</asrwt>
<pdfrwt beam="1">  1        4 0.30383712E-01 0.12500068E+03</pdfrwt>
<pdfrwt beam="2">  1       -4 0.30429669E-02 0.12500068E+03</pdfrwt>
<totfact> 0.87300313E+03</totfact>
</mgrwt>
</event>
<event>
 5    1  0.3340698E-002  0.1250003E+03  0.7818608E-02  0.1235069E+00
         -4   -1    0    0    0  501 -0.00000000000E+00  0.00000000000E+00  0.33194377667E+02  0.33218663560E+02  0.12700000000E+01 0. -1.
          4   -1    0    0  501    0  0.00000000000E+00 -0.00000000000E+00 -0.11760791190E+03  0.11761476881E+03  0.12700000000E+01 0. -1.
         25    2    1    2    0    0  0.00000000000E+00  0.00000000000E+00 -0.84413534233E+02  0.15083343237E+03  0.12500031823E+03 0.  0.
    9000005    1    3    3    0    0 -0.10868309318E+02  0.58132207964E+02 -0.17839431204E+02  0.61779600645E+02  0.10000000000E+01 0.  0.
    9000005    1    3    3    0    0  0.10868309318E+02 -0.58132207964E+02 -0.66574103028E+02  0.89053831721E+02  0.10000000000E+01 0.  0.
<mgrwt>
<rscale>  0 0.12500032E+03</rscale>
<asrwt>0</asrwt>
<pdfrwt beam="2">  1        4 0.18095920E-01 0.12500032E+03</pdfrwt>
<pdfrwt beam="1">  1       -4 0.51092230E-02 0.12500032E+03</pdfrwt>
<totfact> 0.99137115E+03</totfact>
</mgrwt>
</event>
<event>
 5    1  0.3340698E-002  0.1249996E+03  0.7818608E-02  0.1235070E+00
         -4   -1    0    0    0  501 -0.00000000000E+00  0.00000000000E+00  0.13438446198E+02  0.13498323459E+02  0.12700000000E+01 0. -1.
          4   -1    0    0  501    0  0.00000000000E+00 -0.00000000000E+00 -0.28996777057E+03  0.28997055173E+03  0.12700000000E+01 0. -1.
         25    2    1    2    0    0  0.00000000000E+00  0.00000000000E+00 -0.27652932438E+03  0.30346887519E+03  0.12499956388E+03 0.  0.
    9000005    1    3    3    0    0  0.39266201487E+02 -0.24433619589E+02 -0.36229816274E+02  0.58757432999E+02  0.10000000000E+01 0.  0.
    9000005    1    3    3    0    0 -0.39266201487E+02  0.24433619589E+02 -0.24029950810E+03  0.24471144219E+03  0.10000000000E+01 0.  0.
<mgrwt>
<rscale>  0 0.12499956E+03</rscale>
<asrwt>0</asrwt>
<pdfrwt beam="2">  1        4 0.44615242E-01 0.12499956E+03</pdfrwt>
<pdfrwt beam="1">  1       -4 0.20722733E-02 0.12499956E+03</pdfrwt>
<totfact> 0.75166489E+03</totfact>
</mgrwt>
</event>
<event>
 5    1  0.3340698E-002  0.1250042E+03  0.7818608E-02  0.1235063E+00
         -4   -1    0    0    0  501 -0.00000000000E+00  0.00000000000E+00  0.61937213940E+01  0.63225852866E+01  0.12700000000E+01 0.  1.
          4   -1    0    0  501    0  0.00000000000E+00 -0.00000000000E+00 -0.62409774017E+03  0.62409903235E+03  0.12700000000E+01 0.  1.
         25    2    1    2    0    0  0.00000000000E+00  0.00000000000E+00 -0.61790401878E+03  0.63042161764E+03  0.12500415821E+03 0.  0.
    9000005    1    3    3    0    0 -0.15976569323E+02 -0.59611087668E+02 -0.35856478273E+03  0.36383847509E+03  0.10000000000E+01 0.  0.
    9000005    1    3    3    0    0  0.15976569323E+02  0.59611087668E+02 -0.25933923605E+03  0.26658314255E+03  0.10000000000E+01 0.  0.
<mgrwt>
<rscale>  0 0.12500416E+03</rscale>
<asrwt>0</asrwt>
<pdfrwt beam="2">  1        4 0.96025000E-01 0.12500416E+03</pdfrwt>
<pdfrwt beam="1">  1       -4 0.96289271E-03 0.12500416E+03</pdfrwt>
<totfact> 0.46997680E+03</totfact>
</mgrwt>
</event>
<event>
 5    1  0.3340698E-002  0.1249959E+03  0.7818608E-02  0.1235076E+00
          4   -1    0    0  501    0  0.00000000000E+00  0.00000000000E+00  0.17313148271E+02  0.17359665984E+02  0.12700000000E+01 0.  1.
         -4   -1    0    0    0  501 -0.00000000000E+00 -0.00000000000E+00 -0.22525764661E+03  0.22526122671E+03  0.12700000000E+01 0.  1.
         25    2    1    2    0    0  0.00000000000E+00  0.00000000000E+00 -0.20794449834E+03  0.24262089269E+03  0.12499593265E+03 0.  0.
    9000005    1    3    3    0    0 -0.59307762549E+02  0.18968901063E+02 -0.93744310752E+02  0.11254432773E+03  0.10000000000E+01 0.  0.
    9000005    1    3    3    0    0  0.59307762549E+02 -0.18968901063E+02 -0.11420018759E+03  0.13007656496E+03  0.10000000000E+01 0.  0.
<mgrwt>
<rscale>  0 0.12499593E+03</rscale>
<asrwt>0</asrwt>
<pdfrwt beam="1">  1        4 0.26674151E-02 0.12499593E+03</pdfrwt>
<pdfrwt beam="2">  1       -4 0.34658874E-01 0.12499593E+03</pdfrwt>
<totfact> 0.83416137E+03</totfact>
</mgrwt>
</event>
<event>
 5    1  0.3340698E-002  0.1250065E+03  0.7818608E-02  0.1235059E+00
         -4   -1    0    0    0  501 -0.00000000000E+00  0.00000000000E+00  0.24525164386E+02  0.24558024924E+02  0.12700000000E+01 0. -1.
          4   -1    0    0  501    0  0.00000000000E+00 -0.00000000000E+00 -0.15914958702E+03  0.15915465418E+03  0.12700000000E+01 0. -1.
         25    2    1    2    0    0  0.00000000000E+00  0.00000000000E+00 -0.13462442263E+03  0.18371267910E+03  0.12500645301E+03 0.  0.
    9000005    1    3    3    0    0  0.16710819048E+02  0.18590321647E+02 -0.15148984145E+03  0.15354160216E+03  0.10000000000E+01 0.  0.
    9000005    1    3    3    0    0 -0.16710819048E+02 -0.18590321647E+02  0.16865418816E+02  0.30171076945E+02  0.10000000000E+01 0.  0.
<mgrwt>
<rscale>  0 0.12500645E+03</rscale>
<asrwt>0</asrwt>
<pdfrwt beam="2">  1        4 0.24487469E-01 0.12500645E+03</pdfrwt>
<pdfrwt beam="1">  1       -4 0.37760198E-02 0.12500645E+03</pdfrwt>
<totfact> 0.92939503E+03</totfact>
</mgrwt>
</event>
<event>
 5    1  0.3340698E-002  0.1249952E+03  0.7818608E-02  0.1235077E+00
          4   -1    0    0  501    0  0.00000000000E+00  0.00000000000E+00  0.12501335244E+04  0.12501341695E+04  0.12700000000E+01 0. -1.
         -4   -1    0    0    0  501 -0.00000000000E+00 -0.00000000000E+00 -0.29946966108E+01  0.32528614773E+01  0.12700000000E+01 0. -1.
         25    2    1    2    0    0  0.00000000000E+00  0.00000000000E+00  0.12471388278E+04  0.12533870309E+04  0.12499517439E+03 0.  0.
    9000005    1    3    3    0    0 -0.59910813367E+02 -0.17528092461E+02  0.59449175004E+03  0.59776080538E+03  0.10000000000E+01 0.  0.
    9000005    1    3    3    0    0  0.59910813367E+02  0.17528092461E+02  0.65264707772E+03  0.65562622556E+03  0.10000000000E+01 0.  0.
<mgrwt>
<rscale>  0 0.12499517E+03</rscale>
<asrwt>0</asrwt>
<pdfrwt beam="1">  1        4 0.19234842E+00 0.12499517E+03</pdfrwt>
<pdfrwt beam="2">  1       -4 0.48063033E-03 0.12499517E+03</pdfrwt>
<totfact> 0.23358492E+03</totfact>
</mgrwt>
</event>
<event>
 5    1  0.3340698E-002  0.1249950E+03  0.7818608E-02  0.1235077E+00
          4   -1    0    0  501    0  0.00000000000E+00  0.00000000000E+00  0.90397375589E+02  0.90406296315E+02  0.12700000000E+01 0. -1.
         -4   -1    0    0    0  501 -0.00000000000E+00 -0.00000000000E+00 -0.43188122333E+02  0.43206791256E+02  0.12700000000E+01 0. -1.
         25    2    1    2    0    0  0.00000000000E+00  0.00000000000E+00  0.47209253256E+02  0.13361308757E+03  0.12499497421E+03 0.  0.
    9000005    1    3    3    0    0 -0.48865621971E+02 -0.28257143993E+02 -0.50507624272E+01  0.56681790712E+02  0.10000000000E+01 0.  0.
    9000005    1    3    3    0    0  0.48865621971E+02  0.28257143993E+02  0.52260015683E+02  0.76931296859E+02  0.10000000000E+01 0.  0.
<mgrwt>
<rscale>  0 0.12499497E+03</rscale>
<asrwt>0</asrwt>
<pdfrwt beam="1">  1        4 0.13909411E-01 0.12499497E+03</pdfrwt>
<pdfrwt beam="2">  1       -4 0.66464489E-02 0.12499497E+03</pdfrwt>
<totfact> 0.10268551E+04</totfact>
</mgrwt>
</event>
<event>
 5    1  0.3340698E-002  0.1250002E+03  0.7818608E-02  0.1235069E+00
         -4   -1    0    0    0  501 -0.00000000000E+00  0.00000000000E+00  0.13977351086E+03  0.13977928043E+03  0.12700000000E+01 0. -1.
          4   -1    0    0  501    0  0.00000000000E+00 -0.00000000000E+00 -0.27926323469E+02  0.27955186326E+02  0.12700000000E+01 0. -1.
         25    2    1    2    0    0  0.00000000000E+00  0.00000000000E+00  0.11184718739E+03  0.16773446676E+03  0.12500023204E+03 0.  0.
    9000005    1    3    3    0    0  0.38482969089E+02 -0.42964597049E+02  0.23652476966E+02  0.62348497785E+02  0.10000000000E+01 0.  0.
    9000005    1    3    3    0    0 -0.38482969089E+02  0.42964597049E+02  0.88194710422E+02  0.10538596897E+03  0.10000000000E+01 0.  0.
<mgrwt>
<rscale>  0 0.12500023E+03</rscale>
<asrwt>0</asrwt>
<pdfrwt beam="2">  1        4 0.42990214E-02 0.12500023E+03</pdfrwt>
<pdfrwt beam="1">  1       -4 0.21506281E-01 0.12500023E+03</pdfrwt>
<totfact> 0.95871519E+03</totfact>
</mgrwt>
</event>
<event>
 5    1  0.3340698E-002  0.1249989E+03  0.7818608E-02  0.1235071E+00
         -4   -1    0    0    0  501 -0.00000000000E+00  0.00000000000E+00  0.14227672042E+02  0.14284241378E+02  0.12700000000E+01 0. -1.
          4   -1    0    0  501    0  0.00000000000E+00 -0.00000000000E+00 -0.27394554575E+03  0.27394848957E+03  0.12700000000E+01 0. -1.
         25    2    1    2    0    0  0.00000000000E+00  0.00000000000E+00 -0.25971787371E+03  0.28823273095E+03  0.12499893306E+03 0.  0.
    9000005    1    3    3    0    0  0.42420821362E+02 -0.45016736038E+02 -0.10934427364E+03  0.12563121740E+03  0.10000000000E+01 0.  0.
    9000005    1    3    3    0    0 -0.42420821362E+02  0.45016736038E+02 -0.15037360007E+03  0.16260151355E+03  0.10000000000E+01 0.  0.
<mgrwt>
<rscale>  0 0.12499893E+03</rscale>
<asrwt>0</asrwt>
<pdfrwt beam="2">  1        4 0.42150042E-01 0.12499893E+03</pdfrwt>
<pdfrwt beam="1">  1       -4 0.21934508E-02 0.12499893E+03</pdfrwt>
<totfact> 0.77100846E+03</totfact>
</mgrwt>
</event>
<event>
 4    1  0.3340698E-002  0.1250926E+03  0.7818608E-02  0.1234925E+00
         -4   -1    0    0    0  501 -0.00000000000E+00  0.00000000000E+00  0.86622566001E+01  0.87548609016E+01  0.12700000000E+01 0.  1.
          4   -1    0    0  501    0  0.00000000000E+00 -0.00000000000E+00 -0.44912409958E+03  0.44912589518E+03  0.12700000000E+01 0.  1.
    9000005    1    1    2    0    0 -0.23487491594E+01  0.45235131535E+02 -0.62398547270E+02  0.77112336555E+02  0.10000000000E+01 0.  0.
    9000005    1    1    2    0    0  0.23487491594E+01 -0.45235131535E+02 -0.37806329571E+03  0.38076841953E+03  0.10000000000E+01 0.  0.
<mgrwt>
<rscale>  0 0.12509257E+03</rscale>
<asrwt>0</asrwt>
<pdfrwt beam="2">  1        4 0.69103259E-01 0.12509257E+03</pdfrwt>
<pdfrwt beam="1">  1       -4 0.13399167E-02 0.12509257E+03</pdfrwt>
<totfact> 0.59166428E+03</totfact>
</mgrwt>
</event>
<event>
 5    1  0.3340698E-002  0.1250025E+03  0.7818608E-02  0.1235065E+00
          4   -1    0    0  501    0  0.00000000000E+00  0.00000000000E+00  0.69967289731E+02  0.69978814882E+02  0.12700000000E+01 0.  1.
         -4   -1    0    0    0  501 -0.00000000000E+00 -0.00000000000E+00 -0.55808585320E+02  0.55823033735E+02  0.12700000000E+01 0.  1.
         25    2    1    2    0    0  0.00000000000E+00  0.00000000000E+00  0.14158704411E+02  0.12580184862E+03  0.12500254479E+03 0.  0.
    9000005    1    3    3    0    0 -0.43620357108E+02 -0.43568697029E+02 -0.32056891301E+01  0.61743366914E+02  0.10000000000E+01 0.  0.
    9000005    1    3    3    0    0  0.43620357108E+02  0.43568697029E+02  0.17364393541E+02  0.64058481703E+02  0.10000000000E+01 0.  0.
<mgrwt>
<rscale>  0 0.12500254E+03</rscale>
<asrwt>0</asrwt>
<pdfrwt beam="1">  1        4 0.10766196E-01 0.12500254E+03</pdfrwt>
<pdfrwt beam="2">  1       -4 0.85879342E-02 0.12500254E+03</pdfrwt>
<totfact> 0.10434706E+04</totfact>
</mgrwt>
</event>
<event>
 5    1  0.3340698E-002  0.1249984E+03  0.7818608E-02  0.1235072E+00
         -4   -1    0    0    0  501 -0.00000000000E+00  0.00000000000E+00  0.35907598795E+02  0.35930050811E+02  0.12700000000E+01 0.  1.
          4   -1    0    0  501    0  0.00000000000E+00 -0.00000000000E+00 -0.10872326303E+03  0.10873068023E+03  0.12700000000E+01 0.  1.
         25    2    1    2    0    0  0.00000000000E+00  0.00000000000E+00 -0.72815664230E+02  0.14466073104E+03  0.12499842458E+03 0.  0.
    9000005    1    3    3    0    0 -0.33932459292E+02  0.37088985200E+02 -0.79370760495E+02  0.93955959036E+02  0.10000000000E+01 0.  0.
    9000005    1    3    3    0    0  0.33932459292E+02 -0.37088985200E+02  0.65550962656E+01  0.50704772003E+02  0.10000000000E+01 0.  0.
<mgrwt>
<rscale>  0 0.12499842E+03</rscale>
<asrwt>0</asrwt>
<pdfrwt beam="2">  1        4 0.16728953E-01 0.12499842E+03</pdfrwt>
<pdfrwt beam="1">  1       -4 0.55265436E-02 0.12499842E+03</pdfrwt>
<totfact> 0.10038242E+04</totfact>
</mgrwt>
</event>
<event>
 5    1  0.3340698E-002  0.1250011E+03  0.7818608E-02  0.1235068E+00
         -4   -1    0    0    0  501 -0.00000000000E+00  0.00000000000E+00  0.15141511997E+02  0.15194679514E+02  0.12700000000E+01 0. -1.
          4   -1    0    0  501    0  0.00000000000E+00 -0.00000000000E+00 -0.25748040982E+03  0.25748354189E+03  0.12700000000E+01 0. -1.
         25    2    1    2    0    0  0.00000000000E+00  0.00000000000E+00 -0.24233889783E+03  0.27267822140E+03  0.12500108410E+03 0.  0.
    9000005    1    3    3    0    0  0.44746115774E+02  0.39989967426E+02 -0.15919765781E+03  0.17013614144E+03  0.10000000000E+01 0.  0.
    9000005    1    3    3    0    0 -0.44746115774E+02 -0.39989967426E+02 -0.83141240014E+02  0.10254207996E+03  0.10000000000E+01 0.  0.
<mgrwt>
<rscale>  0 0.12500108E+03</rscale>
<asrwt>0</asrwt>
<pdfrwt beam="2">  1        4 0.39616698E-01 0.12500108E+03</pdfrwt>
<pdfrwt beam="1">  1       -4 0.23337943E-02 0.12500108E+03</pdfrwt>
<totfact> 0.79157137E+03</totfact>
</mgrwt>
</event>
<event>
 5    1  0.3340698E-002  0.1250023E+03  0.7818608E-02  0.1235066E+00
          4   -1    0    0  501    0  0.00000000000E+00  0.00000000000E+00  0.59502035882E+01  0.60842273742E+01  0.12700000000E+01 0.  1.
         -4   -1    0    0    0  501 -0.00000000000E+00 -0.00000000000E+00 -0.64906781930E+03  0.64906906178E+03  0.12700000000E+01 0.  1.
         25    2    1    2    0    0  0.00000000000E+00  0.00000000000E+00 -0.64311761572E+03  0.65515328915E+03  0.12500225855E+03 0.  0.
    9000005    1    3    3    0    0  0.56696621931E+02 -0.30342966601E+01 -0.45839925070E+03  0.46190322248E+03  0.10000000000E+01 0.  0.
    9000005    1    3    3    0    0 -0.56696621931E+02  0.30342966601E+01 -0.18471836502E+03  0.19325006668E+03  0.10000000000E+01 0.  0.
<mgrwt>
<rscale>  0 0.12500226E+03</rscale>
<asrwt>0</asrwt>
<pdfrwt beam="1">  1        4 0.92582155E-03 0.12500226E+03</pdfrwt>
<pdfrwt beam="2">  1       -4 0.99866937E-01 0.12500226E+03</pdfrwt>
<totfact> 0.45559039E+03</totfact>
</mgrwt>
</event>
<event>
 5    1  0.3340698E-002  0.1250025E+03  0.7818608E-02  0.1235065E+00
         -4   -1    0    0    0  501 -0.00000000000E+00  0.00000000000E+00  0.32179024352E+03  0.32179274964E+03  0.12700000000E+01 0. -1.
          4   -1    0    0  501    0  0.00000000000E+00 -0.00000000000E+00 -0.12103819835E+02  0.12170265181E+02  0.12700000000E+01 0. -1.
         25    2    1    2    0    0  0.00000000000E+00  0.00000000000E+00  0.30968642368E+03  0.33396301482E+03  0.12500245700E+03 0.  0.
    9000005    1    3    3    0    0  0.19580301238E+02  0.52172626274E+02  0.23041046236E+03  0.23705558904E+03  0.10000000000E+01 0.  0.
    9000005    1    3    3    0    0 -0.19580301238E+02 -0.52172626274E+02  0.79275961318E+02  0.96907425782E+02  0.10000000000E+01 0.  0.
<mgrwt>
<rscale>  0 0.12500246E+03</rscale>
<asrwt>0</asrwt>
<pdfrwt beam="2">  1        4 0.18674297E-02 0.12500246E+03</pdfrwt>
<pdfrwt beam="1">  1       -4 0.49511505E-01 0.12500246E+03</pdfrwt>
<totfact> 0.71521716E+03</totfact>
</mgrwt>
</event>
<event>
 5    1  0.3340698E-002  0.1250001E+03  0.7818608E-02  0.1235069E+00
         -4   -1    0    0    0  501 -0.00000000000E+00  0.00000000000E+00  0.26840665486E+02  0.26870694515E+02  0.12700000000E+01 0.  1.
          4   -1    0    0  501    0  0.00000000000E+00 -0.00000000000E+00 -0.14542087157E+03  0.14542641709E+03  0.12700000000E+01 0.  1.
         25    2    1    2    0    0  0.00000000000E+00  0.00000000000E+00 -0.11858020608E+03  0.17229711160E+03  0.12500011757E+03 0.  0.
    9000005    1    3    3    0    0 -0.14584255368E+02  0.67474868255E+01 -0.14253107452E+03  0.14343756930E+03  0.10000000000E+01 0.  0.
    9000005    1    3    3    0    0  0.14584255368E+02 -0.67474868255E+01  0.23950868437E+02  0.28859542304E+02  0.10000000000E+01 0.  0.
<mgrwt>
<rscale>  0 0.12500012E+03</rscale>
<asrwt>0</asrwt>
<pdfrwt beam="2">  1        4 0.22375178E-01 0.12500012E+03</pdfrwt>
<pdfrwt beam="1">  1       -4 0.41320698E-02 0.12500012E+03</pdfrwt>
<totfact> 0.95021962E+03</totfact>
</mgrwt>
</event>
<event>
 5    1  0.3340698E-002  0.1249981E+03  0.7818608E-02  0.1235072E+00
         -4   -1    0    0    0  501 -0.00000000000E+00  0.00000000000E+00  0.71175731393E+02  0.71187060898E+02  0.12700000000E+01 0. -1.
          4   -1    0    0  501    0  0.00000000000E+00 -0.00000000000E+00 -0.54857073072E+02  0.54871772033E+02  0.12700000000E+01 0. -1.
         25    2    1    2    0    0  0.00000000000E+00  0.00000000000E+00  0.16318658321E+02  0.12605883293E+03  0.12499812299E+03 0.  0.
    9000005    1    3    3    0    0 -0.26987795462E+02 -0.39189982202E+01 -0.48544421236E+02  0.55688961959E+02  0.10000000000E+01 0.  0.
    9000005    1    3    3    0    0  0.26987795462E+02  0.39189982202E+01  0.64863079557E+02  0.70369870972E+02  0.10000000000E+01 0.  0.
<mgrwt>
<rscale>  0 0.12499812E+03</rscale>
<asrwt>0</asrwt>
<pdfrwt beam="2">  1        4 0.84415519E-02 0.12499812E+03</pdfrwt>
<pdfrwt beam="1">  1       -4 0.10952115E-01 0.12499812E+03</pdfrwt>
<totfact> 0.10430110E+04</totfact>
</mgrwt>
</event>
<event>
 5    1  0.3340698E-002  0.1250012E+03  0.7818608E-02  0.1235067E+00
          4   -1    0    0  501    0  0.00000000000E+00  0.00000000000E+00  0.25883952835E+03  0.25884264396E+03  0.12700000000E+01 0.  1.
         -4   -1    0    0    0  501 -0.00000000000E+00 -0.00000000000E+00 -0.15061753482E+02  0.15115201552E+02  0.12700000000E+01 0.  1.
         25    2    1    2    0    0  0.00000000000E+00  0.00000000000E+00  0.24377777486E+03  0.27395784552E+03  0.12500119040E+03 0.  0.
    9000005    1    3    3    0    0  0.41968971076E+02 -0.28737467863E+02  0.20145749622E+03  0.20778199965E+03  0.10000000000E+01 0.  0.
    9000005    1    3    3    0    0 -0.41968971076E+02  0.28737467863E+02  0.42320278640E+02  0.66175845869E+02  0.10000000000E+01 0.  0.
<mgrwt>
<rscale>  0 0.12500119E+03</rscale>
<asrwt>0</asrwt>
<pdfrwt beam="1">  1        4 0.39825815E-01 0.12500119E+03</pdfrwt>
<pdfrwt beam="2">  1       -4 0.23215440E-02 0.12500119E+03</pdfrwt>
<totfact> 0.78984042E+03</totfact>
</mgrwt>
</event>
<event>
 5    1  0.3340698E-002  0.1249982E+03  0.7818608E-02  0.1235072E+00
          4   -1    0    0  501    0  0.00000000000E+00  0.00000000000E+00  0.13901674105E+04  0.13901679907E+04  0.12700000000E+01 0. -1.
         -4   -1    0    0    0  501 -0.00000000000E+00 -0.00000000000E+00 -0.26657162060E+01  0.29527856154E+01  0.12700000000E+01 0. -1.
         25    2    1    2    0    0  0.00000000000E+00  0.00000000000E+00  0.13875016943E+04  0.13931207763E+04  0.12499818192E+03 0.  0.
    9000005    1    3    3    0    0 -0.28642406130E+02 -0.47423964558E+02  0.10159427103E+04  0.10174527068E+04  0.10000000000E+01 0.  0.
    9000005    1    3    3    0    0  0.28642406130E+02  0.47423964558E+02  0.37155898400E+03  0.37566806949E+03  0.10000000000E+01 0.  0.
<mgrwt>
<rscale>  0 0.12499818E+03</rscale>
<asrwt>0</asrwt>
<pdfrwt beam="1">  1        4 0.21389379E+00 0.12499818E+03</pdfrwt>
<pdfrwt beam="2">  1       -4 0.43223757E-03 0.12499818E+03</pdfrwt>
<totfact> 0.20129866E+03</totfact>
</mgrwt>
</event>
<event>
 5    1  0.3340698E-002  0.1250041E+03  0.7818608E-02  0.1235063E+00
         -4   -1    0    0    0  501 -0.00000000000E+00  0.00000000000E+00  0.25338652501E+02  0.25370459408E+02  0.12700000000E+01 0. -1.
          4   -1    0    0  501    0  0.00000000000E+00 -0.00000000000E+00 -0.15404070476E+03  0.15404593998E+03  0.12700000000E+01 0. -1.
         25    2    1    2    0    0  0.00000000000E+00  0.00000000000E+00 -0.12870205226E+03  0.17941639938E+03  0.12500410438E+03 0.  0.
    9000005    1    3    3    0    0 -0.45119285907E+02 -0.43135340655E+02 -0.68680484767E+02  0.92813881300E+02  0.10000000000E+01 0.  0.
    9000005    1    3    3    0    0  0.45119285907E+02  0.43135340655E+02 -0.60021567492E+02  0.86602518083E+02  0.10000000000E+01 0.  0.
<mgrwt>
<rscale>  0 0.12500410E+03</rscale>
<asrwt>0</asrwt>
<pdfrwt beam="2">  1        4 0.23701419E-01 0.12500410E+03</pdfrwt>
<pdfrwt beam="1">  1       -4 0.39011037E-02 0.12500410E+03</pdfrwt>
<totfact> 0.93713534E+03</totfact>
</mgrwt>
</event>
<event>
 5    1  0.3340698E-002  0.1249886E+03  0.7818608E-02  0.1235087E+00
          4   -1    0    0  501    0  0.00000000000E+00  0.00000000000E+00  0.12407608491E+03  0.12408258438E+03  0.12700000000E+01 0.  1.
         -4   -1    0    0    0  501 -0.00000000000E+00 -0.00000000000E+00 -0.31456795639E+02  0.31482421951E+02  0.12700000000E+01 0.  1.
         25    2    1    2    0    0  0.00000000000E+00  0.00000000000E+00  0.92619289268E+02  0.15556500633E+03  0.12498855327E+03 0.  0.
    9000005    1    3    3    0    0 -0.38004671318E+02 -0.39443316577E+02  0.83739917278E+02  0.10006749727E+03  0.10000000000E+01 0.  0.
    9000005    1    3    3    0    0  0.38004671318E+02  0.39443316577E+02  0.88793719901E+01  0.55497509057E+02  0.10000000000E+01 0.  0.
<mgrwt>
<rscale>  0 0.12498855E+03</rscale>
<asrwt>0</asrwt>
<pdfrwt beam="1">  1        4 0.19091100E-01 0.12498855E+03</pdfrwt>
<pdfrwt beam="2">  1       -4 0.48419783E-02 0.12498855E+03</pdfrwt>
<totfact> 0.98229979E+03</totfact>
</mgrwt>
</event>
<event>
 5    1  0.3340698E-002  0.1250006E+03  0.7818608E-02  0.1235068E+00
          4   -1    0    0  501    0  0.00000000000E+00  0.00000000000E+00  0.27199406839E+02  0.27229040240E+02  0.12700000000E+01 0.  1.
         -4   -1    0    0    0  501 -0.00000000000E+00 -0.00000000000E+00 -0.14350600180E+03  0.14351162132E+03  0.12700000000E+01 0.  1.
         25    2    1    2    0    0  0.00000000000E+00  0.00000000000E+00 -0.11630659496E+03  0.17074066156E+03  0.12500059791E+03 0.  0.
    9000005    1    3    3    0    0  0.32014239594E+01  0.32851830207E+02  0.14327910911E+02  0.35996956738E+02  0.10000000000E+01 0.  0.
    9000005    1    3    3    0    0 -0.32014239594E+01 -0.32851830207E+02 -0.13063450588E+03  0.13474370482E+03  0.10000000000E+01 0.  0.
<mgrwt>
<rscale>  0 0.12500060E+03</rscale>
<asrwt>0</asrwt>
<pdfrwt beam="1">  1        4 0.41872359E-02 0.12500060E+03</pdfrwt>
<pdfrwt beam="2">  1       -4 0.22080558E-01 0.12500060E+03</pdfrwt>
<totfact> 0.95309488E+03</totfact>
</mgrwt>
</event>
<event>
 5    1  0.3340698E-002  0.1250036E+03  0.7818608E-02  0.1235064E+00
          4   -1    0    0  501    0  0.00000000000E+00  0.00000000000E+00  0.25571058179E+03  0.25571373553E+03  0.12700000000E+01 0. -1.
         -4   -1    0    0    0  501 -0.00000000000E+00 -0.00000000000E+00 -0.15247298657E+02  0.15300098573E+02  0.12700000000E+01 0. -1.
         25    2    1    2    0    0  0.00000000000E+00  0.00000000000E+00  0.24046328313E+03  0.27101383410E+03  0.12500363091E+03 0.  0.
    9000005    1    3    3    0    0  0.45898299312E+02  0.29224573649E+02  0.53592917390E+02  0.76380170065E+02  0.10000000000E+01 0.  0.
    9000005    1    3    3    0    0 -0.45898299312E+02 -0.29224573649E+02  0.18687036574E+03  0.19463366404E+03  0.10000000000E+01 0.  0.
<mgrwt>
<rscale>  0 0.12500363E+03</rscale>
<asrwt>0</asrwt>
<pdfrwt beam="1">  1        4 0.39344393E-01 0.12500363E+03</pdfrwt>
<pdfrwt beam="2">  1       -4 0.23500424E-02 0.12500363E+03</pdfrwt>
<totfact> 0.79378436E+03</totfact>
</mgrwt>
</event>
<event>
 5    1  0.3340698E-002  0.1250000E+03  0.7818608E-02  0.1235069E+00
         -4   -1    0    0    0  501 -0.00000000000E+00  0.00000000000E+00  0.16480027555E+04  0.16480032448E+04  0.12700000000E+01 0. -1.
          4   -1    0    0  501    0  0.00000000000E+00 -0.00000000000E+00 -0.21996536519E+01  0.25399559422E+01  0.12700000000E+01 0. -1.
         25    2    1    2    0    0  0.00000000000E+00  0.00000000000E+00  0.16458031018E+04  0.16505432008E+04  0.12500003051E+03 0.  0.
    9000005    1    3    3    0    0  0.49010694494E+02  0.25497591235E+02  0.12085670459E+04  0.12098295251E+04  0.10000000000E+01 0.  0.
    9000005    1    3    3    0    0 -0.49010694494E+02 -0.25497591235E+02  0.43723605594E+03  0.44071367570E+03  0.10000000000E+01 0.  0.
<mgrwt>
<rscale>  0 0.12500003E+03</rscale>
<asrwt>0</asrwt>
<pdfrwt beam="2">  1        4 0.36462384E-03 0.12500003E+03</pdfrwt>
<pdfrwt beam="1">  1       -4 0.25356451E+00 0.12500003E+03</pdfrwt>
<totfact> 0.15150024E+03</totfact>
</mgrwt>
</event>
<event>
 5    1  0.3340698E-002  0.1249989E+03  0.7818608E-02  0.1235071E+00
          4   -1    0    0  501    0  0.00000000000E+00  0.00000000000E+00  0.51120969109E+01  0.52674884742E+01  0.12700000000E+01 0. -1.
         -4   -1    0    0    0  501 -0.00000000000E+00 -0.00000000000E+00 -0.75250980048E+03  0.75251087216E+03  0.12700000000E+01 0. -1.
         25    2    1    2    0    0  0.00000000000E+00  0.00000000000E+00 -0.74739770357E+03  0.75777836064E+03  0.12499886617E+03 0.  0.
    9000005    1    3    3    0    0 -0.17246472980E+02 -0.26901592332E+02 -0.48134410952E+02  0.57784582874E+02  0.10000000000E+01 0.  0.
    9000005    1    3    3    0    0  0.17246472980E+02  0.26901592332E+02 -0.69926329262E+03  0.69999377776E+03  0.10000000000E+01 0.  0.
<mgrwt>
<rscale>  0 0.12499887E+03</rscale>
<asrwt>0</asrwt>
<pdfrwt beam="1">  1        4 0.79851268E-03 0.12499887E+03</pdfrwt>
<pdfrwt beam="2">  1       -4 0.11578269E+00 0.12499887E+03</pdfrwt>
<totfact> 0.40205856E+03</totfact>
</mgrwt>
</event>
<event>
 5    1  0.3340698E-002  0.1249997E+03  0.7818608E-02  0.1235070E+00
         -4   -1    0    0    0  501 -0.00000000000E+00  0.00000000000E+00  0.36599790686E+02  0.36621818336E+02  0.12700000000E+01 0. -1.
          4   -1    0    0  501    0  0.00000000000E+00 -0.00000000000E+00 -0.10667025222E+03  0.10667781216E+03  0.12700000000E+01 0. -1.
         25    2    1    2    0    0  0.00000000000E+00  0.00000000000E+00 -0.70070461531E+02  0.14329963050E+03  0.12499965809E+03 0.  0.
    9000005    1    3    3    0    0  0.46218561022E+02 -0.28558049586E+02  0.36443087786E+00  0.54340136078E+02  0.10000000000E+01 0.  0.
    9000005    1    3    3    0    0 -0.46218561022E+02  0.28558049586E+02 -0.70434892409E+02  0.88959494421E+02  0.10000000000E+01 0.  0.
<mgrwt>
<rscale>  0 0.12499966E+03</rscale>
<asrwt>0</asrwt>
<pdfrwt beam="2">  1        4 0.16413084E-01 0.12499966E+03</pdfrwt>
<pdfrwt beam="1">  1       -4 0.56330130E-02 0.12499966E+03</pdfrwt>
<totfact> 0.10065729E+04</totfact>
</mgrwt>
</event>
<event>
 5    1  0.3340698E-002  0.1250018E+03  0.7818608E-02  0.1235066E+00
          4   -1    0    0  501    0  0.00000000000E+00  0.00000000000E+00  0.12121875765E+02  0.12188222678E+02  0.12700000000E+01 0. -1.
         -4   -1    0    0    0  501 -0.00000000000E+00 -0.00000000000E+00 -0.32131029051E+03  0.32131280038E+03  0.12700000000E+01 0. -1.
         25    2    1    2    0    0  0.00000000000E+00  0.00000000000E+00 -0.30918841474E+03  0.33350102306E+03  0.12500182626E+03 0.  0.
    9000005    1    3    3    0    0 -0.33504201137E+02  0.90903297682E+01 -0.15957363614E+02  0.38220453198E+02  0.10000000000E+01 0.  0.
    9000005    1    3    3    0    0  0.33504201137E+02 -0.90903297682E+01 -0.29323105113E+03  0.29528056986E+03  0.10000000000E+01 0.  0.
<mgrwt>
<rscale>  0 0.12500183E+03</rscale>
<asrwt>0</asrwt>
<pdfrwt beam="1">  1        4 0.18702009E-02 0.12500183E+03</pdfrwt>
<pdfrwt beam="2">  1       -4 0.49437643E-01 0.12500183E+03</pdfrwt>
<totfact> 0.71575724E+03</totfact>
</mgrwt>
</event>
<event>
 5    1  0.3340698E-002  0.1250041E+03  0.7818608E-02  0.1235063E+00
          4   -1    0    0  501    0  0.00000000000E+00  0.00000000000E+00  0.29535950744E+02  0.29563242149E+02  0.12700000000E+01 0. -1.
         -4   -1    0    0    0  501 -0.00000000000E+00 -0.00000000000E+00 -0.13217125203E+03  0.13217735344E+03  0.12700000000E+01 0. -1.
         25    2    1    2    0    0  0.00000000000E+00  0.00000000000E+00 -0.10263530128E+03  0.16174059559E+03  0.12500406070E+03 0.  0.
    9000005    1    3    3    0    0  0.37277104428E+02 -0.50143880162E+02 -0.52908950659E+02  0.81880084832E+02  0.10000000000E+01 0.  0.
    9000005    1    3    3    0    0 -0.37277104428E+02  0.50143880162E+02 -0.49726350625E+02  0.79860510759E+02  0.10000000000E+01 0.  0.
<mgrwt>
<rscale>  0 0.12500406E+03</rscale>
<asrwt>0</asrwt>
<pdfrwt beam="1">  1        4 0.45465612E-02 0.12500406E+03</pdfrwt>
<pdfrwt beam="2">  1       -4 0.20336607E-01 0.12500406E+03</pdfrwt>
<totfact> 0.96999406E+03</totfact>
</mgrwt>
</event>
<event>
 5    1  0.3340698E-002  0.1249936E+03  0.7818608E-02  0.1235079E+00
          4   -1    0    0  501    0  0.00000000000E+00  0.00000000000E+00  0.32668255845E+03  0.32668502705E+03  0.12700000000E+01 0.  1.
         -4   -1    0    0    0  501 -0.00000000000E+00 -0.00000000000E+00 -0.11919864805E+02  0.11987329852E+02  0.12700000000E+01 0.  1.
         25    2    1    2    0    0  0.00000000000E+00  0.00000000000E+00  0.31476269365E+03  0.33867235690E+03  0.12499364790E+03 0.  0.
    9000005    1    3    3    0    0  0.25360245449E+02  0.57103032460E+02  0.15473399726E+03  0.16687572704E+03  0.10000000000E+01 0.  0.
    9000005    1    3    3    0    0 -0.25360245449E+02 -0.57103032460E+02  0.16002869638E+03  0.17179662986E+03  0.10000000000E+01 0.  0.
<mgrwt>
<rscale>  0 0.12499365E+03</rscale>
<asrwt>0</asrwt>
<pdfrwt beam="1">  1        4 0.50264235E-01 0.12499365E+03</pdfrwt>
<pdfrwt beam="2">  1       -4 0.18392049E-02 0.12499365E+03</pdfrwt>
<totfact> 0.70998964E+03</totfact>
</mgrwt>
</event>
<event>
 5    1  0.3340698E-002  0.1250015E+03  0.7818608E-02  0.1235067E+00
         -4   -1    0    0    0  501 -0.00000000000E+00  0.00000000000E+00  0.94100653507E+02  0.94109223196E+02  0.12700000000E+01 0.  1.
          4   -1    0    0  501    0  0.00000000000E+00 -0.00000000000E+00 -0.41492196082E+02  0.41511627717E+02  0.12700000000E+01 0.  1.
         25    2    1    2    0    0  0.00000000000E+00  0.00000000000E+00  0.52608457425E+02  0.13562085091E+03  0.12500146163E+03 0.  0.
    9000005    1    3    3    0    0 -0.42956497179E+02  0.15219714958E+02 -0.20088706096E+02  0.49814219716E+02  0.10000000000E+01 0.  0.
    9000005    1    3    3    0    0  0.42956497179E+02 -0.15219714958E+02  0.72697163521E+02  0.85806631197E+02  0.10000000000E+01 0.  0.
<mgrwt>
<rscale>  0 0.12500146E+03</rscale>
<asrwt>0</asrwt>
<pdfrwt beam="2">  1        4 0.63855687E-02 0.12500146E+03</pdfrwt>
<pdfrwt beam="1">  1       -4 0.14479178E-01 0.12500146E+03</pdfrwt>
<totfact> 0.10224664E+04</totfact>
</mgrwt>
</event>
<event>
 5    1  0.3340698E-002  0.1250043E+03  0.7818608E-02  0.1235063E+00
          4   -1    0    0  501    0  0.00000000000E+00  0.00000000000E+00  0.22127795973E+03  0.22128160421E+03  0.12700000000E+01 0. -1.
         -4   -1    0    0    0  501 -0.00000000000E+00 -0.00000000000E+00 -0.17627716993E+02  0.17673406756E+02  0.12700000000E+01 0. -1.
         25    2    1    2    0    0  0.00000000000E+00  0.00000000000E+00  0.20365024274E+03  0.23895501097E+03  0.12500430352E+03 0.  0.
    9000005    1    3    3    0    0  0.38036918934E+01 -0.59465409259E+02  0.13783767926E+03  0.15016933373E+03  0.10000000000E+01 0.  0.
    9000005    1    3    3    0    0 -0.38036918934E+01  0.59465409259E+02  0.65812563478E+02  0.88785677234E+02  0.10000000000E+01 0.  0.
<mgrwt>
<rscale>  0 0.12500430E+03</rscale>
<asrwt>0</asrwt>
<pdfrwt beam="1">  1        4 0.34046558E-01 0.12500430E+03</pdfrwt>
<pdfrwt beam="2">  1       -4 0.27157514E-02 0.12500430E+03</pdfrwt>
<totfact> 0.83945191E+03</totfact>
</mgrwt>
</event>
<event>
 5    1  0.3340698E-002  0.1250186E+03  0.7818608E-02  0.1235040E+00
          4   -1    0    0  501    0  0.00000000000E+00  0.00000000000E+00  0.29613381625E+03  0.29613653950E+03  0.12700000000E+01 0.  1.
         -4   -1    0    0    0  501 -0.00000000000E+00 -0.00000000000E+00 -0.13161405019E+02  0.13222536900E+02  0.12700000000E+01 0.  1.
         25    2    1    2    0    0  0.00000000000E+00  0.00000000000E+00  0.28297241123E+03  0.30935907640E+03  0.12501860915E+03 0.  0.
    9000005    1    3    3    0    0  0.35749734805E+02  0.49473727781E+02  0.17475148406E+03  0.18510746733E+03  0.10000000000E+01 0.  0.
    9000005    1    3    3    0    0 -0.35749734805E+02 -0.49473727781E+02  0.10822092717E+03  0.12425160907E+03  0.10000000000E+01 0.  0.
<mgrwt>
<rscale>  0 0.12501861E+03</rscale>
<asrwt>0</asrwt>
<pdfrwt beam="1">  1        4 0.45563960E-01 0.12501861E+03</pdfrwt>
<pdfrwt beam="2">  1       -4 0.20297435E-02 0.12501861E+03</pdfrwt>
<totfact> 0.74408926E+03</totfact>
</mgrwt>
</event>
<event>
 5    1  0.3340698E-002  0.1249979E+03  0.7818608E-02  0.1235073E+00
         -4   -1    0    0    0  501 -0.00000000000E+00  0.00000000000E+00  0.17217545237E+03  0.17218013619E+03  0.12700000000E+01 0. -1.
          4   -1    0    0  501    0  0.00000000000E+00 -0.00000000000E+00 -0.22664067328E+02  0.22699622196E+02  0.12700000000E+01 0. -1.
         25    2    1    2    0    0  0.00000000000E+00  0.00000000000E+00  0.14951138504E+03  0.19487975839E+03  0.12499786387E+03 0.  0.
    9000005    1    3    3    0    0  0.29096966720E+02  0.40428051908E+02  0.13358959012E+03  0.14257713506E+03  0.10000000000E+01 0.  0.
    9000005    1    3    3    0    0 -0.29096966720E+02 -0.40428051908E+02  0.15921794922E+02  0.52302623327E+02  0.10000000000E+01 0.  0.
<mgrwt>
<rscale>  0 0.12499786E+03</rscale>
<asrwt>0</asrwt>
<pdfrwt beam="2">  1        4 0.34898750E-02 0.12499786E+03</pdfrwt>
<pdfrwt beam="1">  1       -4 0.26491626E-01 0.12499786E+03</pdfrwt>
<totfact> 0.91009470E+03</totfact>
</mgrwt>
</event>
<event>
 5    1  0.3340698E-002  0.1249953E+03  0.7818608E-02  0.1235077E+00
         -4   -1    0    0    0  501 -0.00000000000E+00  0.00000000000E+00  0.12157726547E+03  0.12158389852E+03  0.12700000000E+01 0. -1.
          4   -1    0    0  501    0  0.00000000000E+00 -0.00000000000E+00 -0.32107272647E+02  0.32132380193E+02  0.12700000000E+01 0. -1.
         25    2    1    2    0    0  0.00000000000E+00  0.00000000000E+00  0.89469992823E+02  0.15371627871E+03  0.12499525881E+03 0.  0.
    9000005    1    3    3    0    0 -0.54977479527E+02  0.27836672215E+02  0.57488565641E+02  0.84281307266E+02  0.10000000000E+01 0.  0.
    9000005    1    3    3    0    0  0.54977479527E+02 -0.27836672215E+02  0.31981427182E+02  0.69434971446E+02  0.10000000000E+01 0.  0.
<mgrwt>
<rscale>  0 0.12499526E+03</rscale>
<asrwt>0</asrwt>
<pdfrwt beam="2">  1        4 0.49420221E-02 0.12499526E+03</pdfrwt>
<pdfrwt beam="1">  1       -4 0.18706636E-01 0.12499526E+03</pdfrwt>
<totfact> 0.98578519E+03</totfact>
</mgrwt>
</event>
<event>
 5    1  0.3340698E-002  0.1249985E+03  0.7818608E-02  0.1235072E+00
         -4   -1    0    0    0  501 -0.00000000000E+00  0.00000000000E+00  0.75583385856E+03  0.75583492552E+03  0.12700000000E+01 0.  1.
          4   -1    0    0  501    0  0.00000000000E+00 -0.00000000000E+00 -0.50889024243E+01  0.52449812091E+01  0.12700000000E+01 0.  1.
         25    2    1    2    0    0  0.00000000000E+00  0.00000000000E+00  0.75074495613E+03  0.76107990673E+03  0.12499854109E+03 0.  0.
    9000005    1    3    3    0    0  0.35574891513E+02  0.29988478257E+02  0.12137201240E+03  0.12998864231E+03  0.10000000000E+01 0.  0.
    9000005    1    3    3    0    0 -0.35574891513E+02 -0.29988478257E+02  0.62937294373E+03  0.63109126442E+03  0.10000000000E+01 0.  0.
<mgrwt>
<rscale>  0 0.12499854E+03</rscale>
<asrwt>0</asrwt>
<pdfrwt beam="2">  1        4 0.79499582E-03 0.12499854E+03</pdfrwt>
<pdfrwt beam="1">  1       -4 0.11629428E+00 0.12499854E+03</pdfrwt>
<totfact> 0.40050971E+03</totfact>
</mgrwt>
</event>
<event>
 5    1  0.3340698E-002  0.1249996E+03  0.7818608E-02  0.1235070E+00
         -4   -1    0    0    0  501 -0.00000000000E+00  0.00000000000E+00  0.24271157443E+01  0.27393048090E+01  0.12700000000E+01 0. -1.
          4   -1    0    0  501    0  0.00000000000E+00 -0.00000000000E+00 -0.15118460489E+04  0.15118465823E+04  0.12700000000E+01 0. -1.
         25    2    1    2    0    0  0.00000000000E+00  0.00000000000E+00 -0.15094189331E+04  0.15145858871E+04  0.12499957489E+03 0.  0.
    9000005    1    3    3    0    0  0.90122505016E+01  0.43593574892E+02 -0.12861358265E+04  0.12869063620E+04  0.10000000000E+01 0.  0.
    9000005    1    3    3    0    0 -0.90122505016E+01 -0.43593574892E+02 -0.22328310665E+03  0.22767952509E+03  0.10000000000E+01 0.  0.
<mgrwt>
<rscale>  0 0.12499957E+03</rscale>
<asrwt>0</asrwt>
<pdfrwt beam="2">  1        4 0.23261505E+00 0.12499957E+03</pdfrwt>
<pdfrwt beam="1">  1       -4 0.39745921E-03 0.12499957E+03</pdfrwt>
<totfact> 0.17645710E+03</totfact>
</mgrwt>
</event>
<event>
 5    1  0.3340698E-002  0.1250000E+03  0.7818608E-02  0.1235069E+00
         -4   -1    0    0    0  501 -0.00000000000E+00  0.00000000000E+00  0.45469217780E+03  0.45469395141E+03  0.12700000000E+01 0. -1.
          4   -1    0    0  501    0  0.00000000000E+00 -0.00000000000E+00 -0.85422447533E+01  0.86361360240E+01  0.12700000000E+01 0. -1.
         25    2    1    2    0    0  0.00000000000E+00  0.00000000000E+00  0.44614993305E+03  0.46333008744E+03  0.12500002867E+03 0.  0.
    9000005    1    3    3    0    0 -0.11140684568E+02 -0.26999642252E+02  0.18296742400E+02  0.34479940789E+02  0.10000000000E+01 0.  0.
    9000005    1    3    3    0    0  0.11140684568E+02  0.26999642252E+02  0.42785319065E+03  0.42885014665E+03  0.10000000000E+01 0.  0.
<mgrwt>
<rscale>  0 0.12500003E+03</rscale>
<asrwt>0</asrwt>
<pdfrwt beam="2">  1        4 0.13215499E-02 0.12500003E+03</pdfrwt>
<pdfrwt beam="1">  1       -4 0.69960024E-01 0.12500003E+03</pdfrwt>
<totfact> 0.58826107E+03</totfact>
</mgrwt>
</event>
<event>
 5    1  0.3340698E-002  0.1250079E+03  0.7818608E-02  0.1235057E+00
          4   -1    0    0  501    0  0.00000000000E+00  0.00000000000E+00  0.54298048717E+02  0.54312898969E+02  0.12700000000E+01 0. -1.
         -4   -1    0    0    0  501 -0.00000000000E+00 -0.00000000000E+00 -0.71919719708E+02  0.71930932031E+02  0.12700000000E+01 0. -1.
         25    2    1    2    0    0  0.00000000000E+00  0.00000000000E+00 -0.17621670991E+02  0.12624383100E+03  0.12500792606E+03 0.  0.
    9000005    1    3    3    0    0  0.40247496667E+02 -0.29347946530E+01 -0.57003396945E+02  0.69848845881E+02  0.10000000000E+01 0.  0.
    9000005    1    3    3    0    0 -0.40247496667E+02  0.29347946530E+01  0.39381725953E+02  0.56394985120E+02  0.10000000000E+01 0.  0.
<mgrwt>
<rscale>  0 0.12500793E+03</rscale>
<asrwt>0</asrwt>
<pdfrwt beam="1">  1        4 0.83555508E-02 0.12500793E+03</pdfrwt>
<pdfrwt beam="2">  1       -4 0.11066577E-01 0.12500793E+03</pdfrwt>
<totfact> 0.10423756E+04</totfact>
</mgrwt>
</event>
<event>
 5    1  0.3340698E-002  0.1250016E+03  0.7818608E-02  0.1235067E+00
         -4   -1    0    0    0  501 -0.00000000000E+00  0.00000000000E+00  0.25407873208E+02  0.25439593569E+02  0.12700000000E+01 0.  1.
          4   -1    0    0  501    0  0.00000000000E+00 -0.00000000000E+00 -0.15361541266E+03  0.15362066236E+03  0.12700000000E+01 0.  1.
         25    2    1    2    0    0  0.00000000000E+00  0.00000000000E+00 -0.12820753945E+03  0.17906025593E+03  0.12500160833E+03 0.  0.
    9000005    1    3    3    0    0  0.36853823807E+02 -0.13830931444E+02 -0.13363142093E+03  0.13931208007E+03  0.10000000000E+01 0.  0.
    9000005    1    3    3    0    0 -0.36853823807E+02  0.13830931444E+02  0.54238814864E+01  0.39748175860E+02  0.10000000000E+01 0.  0.
<mgrwt>
<rscale>  0 0.12500161E+03</rscale>
<asrwt>0</asrwt>
<pdfrwt beam="2">  1        4 0.23635984E-01 0.12500161E+03</pdfrwt>
<pdfrwt beam="1">  1       -4 0.39117475E-02 0.12500161E+03</pdfrwt>
<totfact> 0.93783052E+03</totfact>
</mgrwt>
</event>
<event>
 5    1  0.3340698E-002  0.1249974E+03  0.7818608E-02  0.1235073E+00
         -4   -1    0    0    0  501 -0.00000000000E+00  0.00000000000E+00  0.92741705203E+03  0.92741792160E+03  0.12700000000E+01 0.  1.
          4   -1    0    0  501    0  0.00000000000E+00 -0.00000000000E+00 -0.41151632667E+01  0.43066772240E+01  0.12700000000E+01 0.  1.
         25    2    1    2    0    0  0.00000000000E+00  0.00000000000E+00  0.92330188877E+03  0.93172459882E+03  0.12499740098E+03 0.  0.
    9000005    1    3    3    0    0  0.16926518920E+02  0.22889059863E+02  0.46989311638E+02  0.54949172081E+02  0.10000000000E+01 0.  0.
    9000005    1    3    3    0    0 -0.16926518920E+02 -0.22889059863E+02  0.87631257713E+03  0.87677542674E+03  0.10000000000E+01 0.  0.
<mgrwt>
<rscale>  0 0.12499740E+03</rscale>
<asrwt>0</asrwt>
<pdfrwt beam="2">  1        4 0.64789954E-03 0.12499740E+03</pdfrwt>
<pdfrwt beam="1">  1       -4 0.14269462E+00 0.12499740E+03</pdfrwt>
<totfact> 0.32975642E+03</totfact>
</mgrwt>
</event>
<event>
 5    1  0.3340698E-002  0.1249999E+03  0.7818608E-02  0.1235069E+00
         -4   -1    0    0    0  501 -0.00000000000E+00  0.00000000000E+00  0.90436585746E+02  0.90445502604E+02  0.12700000000E+01 0. -1.
          4   -1    0    0  501    0  0.00000000000E+00 -0.00000000000E+00 -0.43172773668E+02  0.43191449225E+02  0.12700000000E+01 0. -1.
         25    2    1    2    0    0  0.00000000000E+00  0.00000000000E+00  0.47263812078E+02  0.13363695183E+03  0.12499986785E+03 0.  0.
    9000005    1    3    3    0    0 -0.61034736137E+02 -0.11764723144E+02  0.30526876773E+02  0.69257042468E+02  0.10000000000E+01 0.  0.
    9000005    1    3    3    0    0  0.61034736137E+02  0.11764723144E+02  0.16736935305E+02  0.64379909361E+02  0.10000000000E+01 0.  0.
<mgrwt>
<rscale>  0 0.12499987E+03</rscale>
<asrwt>0</asrwt>
<pdfrwt beam="2">  1        4 0.66440877E-02 0.12499987E+03</pdfrwt>
<pdfrwt beam="1">  1       -4 0.13915443E-01 0.12499987E+03</pdfrwt>
<totfact> 0.10266912E+04</totfact>
</mgrwt>
</event>
<event>
 5    1  0.3340698E-002  0.1250370E+03  0.7818608E-02  0.1235011E+00
         -4   -1    0    0    0  501 -0.00000000000E+00  0.00000000000E+00  0.62169861226E+01  0.63453775655E+01  0.12700000000E+01 0.  1.
          4   -1    0    0  501    0  0.00000000000E+00 -0.00000000000E+00 -0.62213667280E+03  0.62213796905E+03  0.12700000000E+01 0.  1.
         25    2    1    2    0    0  0.00000000000E+00  0.00000000000E+00 -0.61591968667E+03  0.62848334662E+03  0.12503702070E+03 0.  0.
    9000005    1    3    3    0    0 -0.63062466777E+01  0.49582279977E+02 -0.49665953791E+03  0.49916917756E+03  0.10000000000E+01 0.  0.
    9000005    1    3    3    0    0  0.63062466777E+01 -0.49582279977E+02 -0.11926014877E+03  0.12931416906E+03  0.10000000000E+01 0.  0.
<mgrwt>
<rscale>  0 0.12503702E+03</rscale>
<asrwt>0</asrwt>
<pdfrwt beam="2">  1        4 0.95723262E-01 0.12503702E+03</pdfrwt>
<pdfrwt beam="1">  1       -4 0.96643587E-03 0.12503702E+03</pdfrwt>
<totfact> 0.47079460E+03</totfact>
</mgrwt>
</event>
<event>
 5    1  0.3340698E-002  0.1249928E+03  0.7818608E-02  0.1235081E+00
          4   -1    0    0  501    0  0.00000000000E+00  0.00000000000E+00  0.13762562720E+03  0.13763148681E+03  0.12700000000E+01 0. -1.
         -4   -1    0    0    0  501 -0.00000000000E+00 -0.00000000000E+00 -0.28359201871E+02  0.28387624606E+02  0.12700000000E+01 0. -1.
         25    2    1    2    0    0  0.00000000000E+00  0.00000000000E+00  0.10926642533E+03  0.16601911142E+03  0.12499277440E+03 0.  0.
    9000005    1    3    3    0    0  0.50450615964E+02 -0.21823147183E+02  0.15158101556E+02  0.57028786126E+02  0.10000000000E+01 0.  0.
    9000005    1    3    3    0    0 -0.50450615964E+02  0.21823147183E+02  0.94108323772E+02  0.10899032529E+03  0.10000000000E+01 0.  0.
<mgrwt>
<rscale>  0 0.12499277E+03</rscale>
<asrwt>0</asrwt>
<pdfrwt beam="1">  1        4 0.21175811E-01 0.12499277E+03</pdfrwt>
<pdfrwt beam="2">  1       -4 0.43655911E-02 0.12499277E+03</pdfrwt>
<totfact> 0.96210350E+03</totfact>
</mgrwt>
</event>
<event>
 5    1  0.3340698E-002  0.1250007E+03  0.7818608E-02  0.1235068E+00
         -4   -1    0    0    0  501 -0.00000000000E+00  0.00000000000E+00  0.66621096706E+02  0.66633200631E+02  0.12700000000E+01 0.  1.
          4   -1    0    0  501    0  0.00000000000E+00 -0.00000000000E+00 -0.58610191981E+02  0.58623949918E+02  0.12700000000E+01 0.  1.
         25    2    1    2    0    0  0.00000000000E+00  0.00000000000E+00  0.80109047257E+01  0.12525715055E+03  0.12500071667E+03 0.  0.
    9000005    1    3    3    0    0 -0.45758313958E+02 -0.20456607838E+02 -0.33394011727E+02  0.60236667569E+02  0.10000000000E+01 0.  0.
    9000005    1    3    3    0    0  0.45758313958E+02  0.20456607838E+02  0.41404916453E+02  0.65020482980E+02  0.10000000000E+01 0.  0.
<mgrwt>
<rscale>  0 0.12500072E+03</rscale>
<asrwt>0</asrwt>
<pdfrwt beam="2">  1        4 0.90189421E-02 0.12500072E+03</pdfrwt>
<pdfrwt beam="1">  1       -4 0.10251389E-01 0.12500072E+03</pdfrwt>
<totfact> 0.10447111E+04</totfact>
</mgrwt>
</event>
<event>
 5    1  0.3340698E-002  0.1249970E+03  0.7818608E-02  0.1235074E+00
         -4   -1    0    0    0  501 -0.00000000000E+00  0.00000000000E+00  0.15065307019E+03  0.15065842312E+03  0.12700000000E+01 0.  1.
          4   -1    0    0  501    0  0.00000000000E+00 -0.00000000000E+00 -0.25906179435E+02  0.25937290392E+02  0.12700000000E+01 0.  1.
         25    2    1    2    0    0  0.00000000000E+00  0.00000000000E+00  0.12474689075E+03  0.17659571351E+03  0.12499703708E+03 0.  0.
    9000005    1    3    3    0    0  0.43440386139E+02  0.36057072382E+02  0.10022711086E+03  0.11503761719E+03  0.10000000000E+01 0.  0.
    9000005    1    3    3    0    0 -0.43440386139E+02 -0.36057072382E+02  0.24519779886E+02  0.61558096319E+02  0.10000000000E+01 0.  0.
<mgrwt>
<rscale>  0 0.12499704E+03</rscale>
<asrwt>0</asrwt>
<pdfrwt beam="2">  1        4 0.39883710E-02 0.12499704E+03</pdfrwt>
<pdfrwt beam="1">  1       -4 0.23180200E-01 0.12499704E+03</pdfrwt>
<totfact> 0.94239662E+03</totfact>
</mgrwt>
</event>
<event>
 5    1  0.3340698E-002  0.1250029E+03  0.7818608E-02  0.1235065E+00
          4   -1    0    0  501    0  0.00000000000E+00  0.00000000000E+00  0.29705565801E+03  0.29705837281E+03  0.12700000000E+01 0.  1.
         -4   -1    0    0    0  501 -0.00000000000E+00 -0.00000000000E+00 -0.13117052260E+02  0.13178389887E+02  0.12700000000E+01 0.  1.
         25    2    1    2    0    0  0.00000000000E+00  0.00000000000E+00  0.28393860575E+03  0.31023676270E+03  0.12500286834E+03 0.  0.
    9000005    1    3    3    0    0 -0.41051461762E+02 -0.41287800024E+02  0.85618791124E+02  0.10354459106E+03  0.10000000000E+01 0.  0.
    9000005    1    3    3    0    0  0.41051461762E+02  0.41287800024E+02  0.19831981463E+03  0.20669217164E+03  0.10000000000E+01 0.  0.
<mgrwt>
<rscale>  0 0.12500287E+03</rscale>
<asrwt>0</asrwt>
<pdfrwt beam="1">  1        4 0.45705797E-01 0.12500287E+03</pdfrwt>
<pdfrwt beam="2">  1       -4 0.20229352E-02 0.12500287E+03</pdfrwt>
<totfact> 0.74327710E+03</totfact>
</mgrwt>
</event>
<event>
 5    1  0.3340698E-002  0.1250011E+03  0.7818608E-02  0.1235068E+00
          4   -1    0    0  501    0  0.00000000000E+00  0.00000000000E+00  0.46671973410E+03  0.46672146200E+03  0.12700000000E+01 0.  1.
         -4   -1    0    0    0  501 -0.00000000000E+00 -0.00000000000E+00 -0.83198036271E+01  0.84161768276E+01  0.12700000000E+01 0.  1.
         25    2    1    2    0    0  0.00000000000E+00  0.00000000000E+00  0.45839993047E+03  0.47513763883E+03  0.12500111831E+03 0.  0.
    9000005    1    3    3    0    0  0.19957347622E+01 -0.62376652727E+02  0.21688888902E+03  0.22569142638E+03  0.10000000000E+01 0.  0.
    9000005    1    3    3    0    0 -0.19957347622E+01  0.62376652727E+02  0.24151104145E+03  0.24944621245E+03  0.10000000000E+01 0.  0.
<mgrwt>
<rscale>  0 0.12500112E+03</rscale>
<asrwt>0</asrwt>
<pdfrwt beam="1">  1        4 0.71810604E-01 0.12500112E+03</pdfrwt>
<pdfrwt beam="2">  1       -4 0.12875156E-02 0.12500112E+03</pdfrwt>
<totfact> 0.57844897E+03</totfact>
</mgrwt>
</event>
<event>
 5    1  0.3340698E-002  0.1249999E+03  0.7818608E-02  0.1235070E+00
         -4   -1    0    0    0  501 -0.00000000000E+00  0.00000000000E+00  0.19266926206E+02  0.19308737541E+02  0.12700000000E+01 0. -1.
          4   -1    0    0  501    0  0.00000000000E+00 -0.00000000000E+00 -0.20247978453E+03  0.20248376736E+03  0.12700000000E+01 0. -1.
         25    2    1    2    0    0  0.00000000000E+00  0.00000000000E+00 -0.18321285833E+03  0.22179250490E+03  0.12499985510E+03 0.  0.
    9000005    1    3    3    0    0  0.11808917389E+01  0.57757221740E+02 -0.49320846206E+02  0.75966025557E+02  0.10000000000E+01 0.  0.
    9000005    1    3    3    0    0 -0.11808917389E+01 -0.57757221740E+02 -0.13389201212E+03  0.14582647934E+03  0.10000000000E+01 0.  0.
<mgrwt>
<rscale>  0 0.12499986E+03</rscale>
<asrwt>0</asrwt>
<pdfrwt beam="2">  1        4 0.31154257E-01 0.12499986E+03</pdfrwt>
<pdfrwt beam="1">  1       -4 0.29676653E-02 0.12499986E+03</pdfrwt>
<totfact> 0.86585782E+03</totfact>
</mgrwt>
</event>
<event>
 5    1  0.3340698E-002  0.1249999E+03  0.7818608E-02  0.1235069E+00
          4   -1    0    0  501    0  0.00000000000E+00  0.00000000000E+00  0.35224652866E+02  0.35247539907E+02  0.12700000000E+01 0. -1.
         -4   -1    0    0    0  501 -0.00000000000E+00 -0.00000000000E+00 -0.11083271305E+03  0.11083998909E+03  0.12700000000E+01 0. -1.
         25    2    1    2    0    0  0.00000000000E+00  0.00000000000E+00 -0.75608060187E+02  0.14608752900E+03  0.12499994946E+03 0.  0.
    9000005    1    3    3    0    0  0.30384835976E+02 -0.44701338581E+02 -0.74460992576E+02  0.92015690747E+02  0.10000000000E+01 0.  0.
    9000005    1    3    3    0    0 -0.30384835976E+02  0.44701338581E+02 -0.11470676108E+01  0.54071838255E+02  0.10000000000E+01 0.  0.
<mgrwt>
<rscale>  0 0.12499995E+03</rscale>
<asrwt>0</asrwt>
<pdfrwt beam="1">  1        4 0.54214976E-02 0.12499995E+03</pdfrwt>
<pdfrwt beam="2">  1       -4 0.17053507E-01 0.12499995E+03</pdfrwt>
<totfact> 0.10008950E+04</totfact>
</mgrwt>
</event>
<event>
 5    1  0.3340698E-002  0.1249964E+03  0.7818608E-02  0.1235075E+00
          4   -1    0    0  501    0  0.00000000000E+00  0.00000000000E+00  0.72687421755E+02  0.72698515675E+02  0.12700000000E+01 0.  1.
         -4   -1    0    0    0  501 -0.00000000000E+00 -0.00000000000E+00 -0.53714550437E+02  0.53729561962E+02  0.12700000000E+01 0.  1.
         25    2    1    2    0    0  0.00000000000E+00  0.00000000000E+00  0.18972871318E+02  0.12642807764E+03  0.12499635582E+03 0.  0.
    9000005    1    3    3    0    0 -0.32605495534E+02 -0.19028781390E+02  0.59854508242E+02  0.70772699660E+02  0.10000000000E+01 0.  0.
    9000005    1    3    3    0    0  0.32605495534E+02  0.19028781390E+02 -0.40881636925E+02  0.55655377978E+02  0.10000000000E+01 0.  0.
<mgrwt>
<rscale>  0 0.12499636E+03</rscale>
<asrwt>0</asrwt>
<pdfrwt beam="1">  1        4 0.11184688E-01 0.12499636E+03</pdfrwt>
<pdfrwt beam="2">  1       -4 0.82657851E-02 0.12499636E+03</pdfrwt>
<totfact> 0.10422454E+04</totfact>
</mgrwt>
</event>
<event>
 5    1  0.3340698E-002  0.1250039E+03  0.7818608E-02  0.1235063E+00
         -4   -1    0    0    0  501 -0.00000000000E+00  0.00000000000E+00  0.90045641233E+00  0.15568306750E+01  0.12700000000E+01 0.  1.
          4   -1    0    0  501    0  0.00000000000E+00 -0.00000000000E+00 -0.31788601607E+04  0.31788604144E+04  0.12700000000E+01 0.  1.
         25    2    1    2    0    0  0.00000000000E+00  0.00000000000E+00 -0.31779597043E+04  0.31804172451E+04  0.12500388250E+03 0.  0.
    9000005    1    3    3    0    0  0.85558312236E+01 -0.31968376867E+02 -0.24020963830E+03  0.24248061717E+03  0.10000000000E+01 0.  0.
    9000005    1    3    3    0    0 -0.85558312236E+01  0.31968376867E+02 -0.29377500660E+04  0.29379366279E+04  0.10000000000E+01 0.  0.
<mgrwt>
<rscale>  0 0.12500388E+03</rscale>
<asrwt>0</asrwt>
<pdfrwt beam="2">  1        4 0.48909933E+00 0.12500388E+03</pdfrwt>
<pdfrwt beam="1">  1       -4 0.18904414E-03 0.12500388E+03</pdfrwt>
<totfact> 0.12293895E+02</totfact>
</mgrwt>
</event>
<event>
 5    1  0.3340698E-002  0.1250023E+03  0.7818608E-02  0.1235066E+00
          4   -1    0    0  501    0  0.00000000000E+00  0.00000000000E+00  0.25370559525E+01  0.28371734008E+01  0.12700000000E+01 0.  1.
         -4   -1    0    0    0  501 -0.00000000000E+00 -0.00000000000E+00 -0.14534494237E+04  0.14534499785E+04  0.12700000000E+01 0.  1.
         25    2    1    2    0    0  0.00000000000E+00  0.00000000000E+00 -0.14509123677E+04  0.14562871519E+04  0.12500228022E+03 0.  0.
    9000005    1    3    3    0    0 -0.51060459374E+02  0.28120016834E+02 -0.46300931438E+03  0.46666533089E+03  0.10000000000E+01 0.  0.
    9000005    1    3    3    0    0  0.51060459374E+02 -0.28120016834E+02 -0.98790305334E+03  0.98962182103E+03  0.10000000000E+01 0.  0.
<mgrwt>
<rscale>  0 0.12500228E+03</rscale>
<asrwt>0</asrwt>
<pdfrwt beam="1">  1        4 0.41344610E-03 0.12500228E+03</pdfrwt>
<pdfrwt beam="2">  1       -4 0.22363010E+00 0.12500228E+03</pdfrwt>
<totfact> 0.18803473E+03</totfact>
</mgrwt>
</event>
<event>
 5    1  0.3340698E-002  0.1250033E+03  0.7818608E-02  0.1235064E+00
         -4   -1    0    0    0  501 -0.00000000000E+00  0.00000000000E+00  0.54896765200E+03  0.54896912103E+03  0.12700000000E+01 0. -1.
          4   -1    0    0  501    0  0.00000000000E+00 -0.00000000000E+00 -0.70578458339E+01  0.71711984922E+01  0.12700000000E+01 0. -1.
         25    2    1    2    0    0  0.00000000000E+00  0.00000000000E+00  0.54190980617E+03  0.55614031952E+03  0.12500326787E+03 0.  0.
    9000005    1    3    3    0    0 -0.18743734575E+02 -0.29993195269E+02  0.41732408317E+02  0.54713008071E+02  0.10000000000E+01 0.  0.
    9000005    1    3    3    0    0  0.18743734575E+02  0.29993195269E+02  0.50017739785E+03  0.50142731145E+03  0.10000000000E+01 0.  0.
<mgrwt>
<rscale>  0 0.12500327E+03</rscale>
<asrwt>0</asrwt>
<pdfrwt beam="2">  1        4 0.10946548E-02 0.12500327E+03</pdfrwt>
<pdfrwt beam="1">  1       -4 0.84465403E-01 0.12500327E+03</pdfrwt>
<totfact> 0.51754892E+03</totfact>
</mgrwt>
</event>
<event>
 5    1  0.3340698E-002  0.1250032E+03  0.7818608E-02  0.1235064E+00
          4   -1    0    0  501    0  0.00000000000E+00  0.00000000000E+00  0.51197712643E+01  0.52749367578E+01  0.12700000000E+01 0. -1.
         -4   -1    0    0    0  501 -0.00000000000E+00 -0.00000000000E+00 -0.75146691783E+03  0.75146799099E+03  0.12700000000E+01 0. -1.
         25    2    1    2    0    0  0.00000000000E+00  0.00000000000E+00 -0.74634714656E+03  0.75674292775E+03  0.12500318204E+03 0.  0.
    9000005    1    3    3    0    0 -0.58433548206E+02 -0.47975819877E+01 -0.50413041806E+03  0.50752928464E+03  0.10000000000E+01 0.  0.
    9000005    1    3    3    0    0  0.58433548206E+02  0.47975819877E+01 -0.24221672850E+03  0.24921364311E+03  0.10000000000E+01 0.  0.
<mgrwt>
<rscale>  0 0.12500318E+03</rscale>
<asrwt>0</asrwt>
<pdfrwt beam="1">  1        4 0.79967607E-03 0.12500318E+03</pdfrwt>
<pdfrwt beam="2">  1       -4 0.11562223E+00 0.12500318E+03</pdfrwt>
<totfact> 0.40250907E+03</totfact>
</mgrwt>
</event>
<event>
 5    1  0.3340698E-002  0.1250000E+03  0.7818608E-02  0.1235069E+00
         -4   -1    0    0    0  501 -0.00000000000E+00  0.00000000000E+00  0.17732418423E+03  0.17732873206E+03  0.12700000000E+01 0.  1.
          4   -1    0    0  501    0  0.00000000000E+00 -0.00000000000E+00 -0.22005726507E+02  0.22042343322E+02  0.12700000000E+01 0.  1.
         25    2    1    2    0    0  0.00000000000E+00  0.00000000000E+00  0.15531845773E+03  0.19937107538E+03  0.12500000955E+03 0.  0.
    9000005    1    3    3    0    0  0.27759017605E+02  0.13459070744E+00 -0.11640055618E+02  0.30117637156E+02  0.10000000000E+01 0.  0.
    9000005    1    3    3    0    0 -0.27759017605E+02 -0.13459070744E+00  0.16695851334E+03  0.16925343823E+03  0.10000000000E+01 0.  0.
<mgrwt>
<rscale>  0 0.12500001E+03</rscale>
<asrwt>0</asrwt>
<pdfrwt beam="2">  1        4 0.33886629E-02 0.12500001E+03</pdfrwt>
<pdfrwt beam="1">  1       -4 0.27283810E-01 0.12500001E+03</pdfrwt>
<totfact> 0.90241668E+03</totfact>
</mgrwt>
</event>
<event>
 5    1  0.3340698E-002  0.1249988E+03  0.7818608E-02  0.1235071E+00
          4   -1    0    0  501    0  0.00000000000E+00  0.00000000000E+00  0.33006652288E+02  0.33031076205E+02  0.12700000000E+01 0.  1.
         -4   -1    0    0    0  501 -0.00000000000E+00 -0.00000000000E+00 -0.11827356194E+03  0.11828038026E+03  0.12700000000E+01 0.  1.
         25    2    1    2    0    0  0.00000000000E+00  0.00000000000E+00 -0.85266909655E+02  0.15131145647E+03  0.12499884390E+03 0.  0.
    9000005    1    3    3    0    0  0.97479803677E+01 -0.54157650135E+01  0.31798436110E+02  0.33711929209E+02  0.10000000000E+01 0.  0.
    9000005    1    3    3    0    0 -0.97479803677E+01  0.54157650135E+01 -0.11706534577E+03  0.11759952726E+03  0.10000000000E+01 0.  0.
<mgrwt>
<rscale>  0 0.12499884E+03</rscale>
<asrwt>0</asrwt>
<pdfrwt beam="1">  1        4 0.50803498E-02 0.12499884E+03</pdfrwt>
<pdfrwt beam="2">  1       -4 0.18198336E-01 0.12499884E+03</pdfrwt>
<totfact> 0.99045496E+03</totfact>
</mgrwt>
</event>
<event>
 5    1  0.3340698E-002  0.1249963E+03  0.7818608E-02  0.1235075E+00
         -4   -1    0    0    0  501 -0.00000000000E+00  0.00000000000E+00  0.10498173217E+02  0.10574712331E+02  0.12700000000E+01 0.  1.
          4   -1    0    0  501    0  0.00000000000E+00 -0.00000000000E+00 -0.37063774880E+03  0.37063992464E+03  0.12700000000E+01 0.  1.
         25    2    1    2    0    0  0.00000000000E+00  0.00000000000E+00 -0.36013957559E+03  0.38121463697E+03  0.12499634210E+03 0.  0.
    9000005    1    3    3    0    0  0.28144580827E+01 -0.21448531679E+02 -0.12704671750E+01  0.21692735473E+02  0.10000000000E+01 0.  0.
    9000005    1    3    3    0    0 -0.28144580827E+01  0.21448531679E+02 -0.35886910841E+03  0.35952190150E+03  0.10000000000E+01 0.  0.
<mgrwt>
<rscale>  0 0.12499634E+03</rscale>
<asrwt>0</asrwt>
<pdfrwt beam="2">  1        4 0.57027237E-01 0.12499634E+03</pdfrwt>
<pdfrwt beam="1">  1       -4 0.16211589E-02 0.12499634E+03</pdfrwt>
<totfact> 0.66427143E+03</totfact>
</mgrwt>
</event>
<event>
 5    1  0.3340698E-002  0.1250000E+03  0.7818608E-02  0.1235069E+00
          4   -1    0    0  501    0  0.00000000000E+00  0.00000000000E+00  0.45027450517E+02  0.45045357143E+02  0.12700000000E+01 0. -1.
         -4   -1    0    0    0  501 -0.00000000000E+00 -0.00000000000E+00 -0.86712816870E+02  0.86722116611E+02  0.12700000000E+01 0. -1.
         25    2    1    2    0    0  0.00000000000E+00  0.00000000000E+00 -0.41685366352E+02  0.13176747375E+03  0.12499998949E+03 0.  0.
    9000005    1    3    3    0    0  0.54307879158E+02  0.28147902399E+02 -0.73596120949E+01  0.61618293049E+02  0.10000000000E+01 0.  0.
    9000005    1    3    3    0    0 -0.54307879158E+02 -0.28147902399E+02 -0.34325754257E+02  0.70149180704E+02  0.10000000000E+01 0.  0.
<mgrwt>
<rscale>  0 0.12499999E+03</rscale>
<asrwt>0</asrwt>
<pdfrwt beam="1">  1        4 0.69293928E-02 0.12499999E+03</pdfrwt>
<pdfrwt beam="2">  1       -4 0.13342526E-01 0.12499999E+03</pdfrwt>
<totfact> 0.10306666E+04</totfact>
</mgrwt>
</event>
<event>
 5    1  0.3340698E-002  0.1250011E+03  0.7818608E-02  0.1235068E+00
         -4   -1    0    0    0  501 -0.00000000000E+00  0.00000000000E+00  0.17631360145E+02  0.17677040493E+02  0.12700000000E+01 0. -1.
          4   -1    0    0  501    0  0.00000000000E+00 -0.00000000000E+00 -0.22122096999E+03  0.22122461541E+03  0.12700000000E+01 0. -1.
         25    2    1    2    0    0  0.00000000000E+00  0.00000000000E+00 -0.20358960985E+03  0.23890165591E+03  0.12500108782E+03 0.  0.
    9000005    1    3    3    0    0 -0.54383452528E+02  0.29686144943E+02 -0.11737907277E+03  0.13273158567E+03  0.10000000000E+01 0.  0.
    9000005    1    3    3    0    0  0.54383452528E+02 -0.29686144943E+02 -0.86210537077E+02  0.10617007023E+03  0.10000000000E+01 0.  0.
<mgrwt>
<rscale>  0 0.12500109E+03</rscale>
<asrwt>0</asrwt>
<pdfrwt beam="2">  1        4 0.34037788E-01 0.12500109E+03</pdfrwt>
<pdfrwt beam="1">  1       -4 0.27163114E-02 0.12500109E+03</pdfrwt>
<totfact> 0.83959183E+03</totfact>
</mgrwt>
</event>
<event>
 5    1  0.3340698E-002  0.1250011E+03  0.7818608E-02  0.1235068E+00
          4   -1    0    0  501    0  0.00000000000E+00  0.00000000000E+00  0.88082370633E+02  0.88091525792E+02  0.12700000000E+01 0.  1.
         -4   -1    0    0    0  501 -0.00000000000E+00 -0.00000000000E+00 -0.44327940687E+02  0.44346129770E+02  0.12700000000E+01 0.  1.
         25    2    1    2    0    0  0.00000000000E+00  0.00000000000E+00  0.43754429946E+02  0.13243765556E+03  0.12500112988E+03 0.  0.
    9000005    1    3    3    0    0  0.18426618352E+02  0.34494645024E+02 -0.29765802243E+02  0.49157133587E+02  0.10000000000E+01 0.  0.
    9000005    1    3    3    0    0 -0.18426618352E+02 -0.34494645024E+02  0.73520232190E+02  0.83280521975E+02  0.10000000000E+01 0.  0.
<mgrwt>
<rscale>  0 0.12500113E+03</rscale>
<asrwt>0</asrwt>
<pdfrwt beam="1">  1        4 0.13553237E-01 0.12500113E+03</pdfrwt>
<pdfrwt beam="2">  1       -4 0.68217866E-02 0.12500113E+03</pdfrwt>
<totfact> 0.10292103E+04</totfact>
</mgrwt>
</event>
<event>
 5    1  0.3340698E-002  0.1250002E+03  0.7818608E-02  0.1235069E+00
         -4   -1    0    0    0  501 -0.00000000000E+00  0.00000000000E+00  0.47398227589E+02  0.47415238885E+02  0.12700000000E+01 0.  1.
          4   -1    0    0  501    0  0.00000000000E+00 -0.00000000000E+00 -0.82377042394E+02  0.82386831554E+02  0.12700000000E+01 0.  1.
         25    2    1    2    0    0  0.00000000000E+00  0.00000000000E+00 -0.34978814805E+02  0.12980207044E+03  0.12500024002E+03 0.  0.
    9000005    1    3    3    0    0  0.55144193529E+02 -0.24098968160E+02 -0.34977451187E+02  0.69613679962E+02  0.10000000000E+01 0.  0.
    9000005    1    3    3    0    0 -0.55144193529E+02  0.24098968160E+02 -0.13636178106E-02  0.60188390477E+02  0.10000000000E+01 0.  0.
<mgrwt>
<rscale>  0 0.12500024E+03</rscale>
<asrwt>0</asrwt>
<pdfrwt beam="2">  1        4 0.12675453E-01 0.12500024E+03</pdfrwt>
<pdfrwt beam="1">  1       -4 0.72940966E-02 0.12500024E+03</pdfrwt>
<totfact> 0.10348687E+04</totfact>
</mgrwt>
</event>
<event>
 5    1  0.3340698E-002  0.1249974E+03  0.7818608E-02  0.1235073E+00
         -4   -1    0    0    0  501 -0.00000000000E+00  0.00000000000E+00  0.37119093753E+02  0.37140813414E+02  0.12700000000E+01 0. -1.
          4   -1    0    0  501    0  0.00000000000E+00 -0.00000000000E+00 -0.10517481871E+03  0.10518248614E+03  0.12700000000E+01 0. -1.
         25    2    1    2    0    0  0.00000000000E+00  0.00000000000E+00 -0.68055724954E+02  0.14232329955E+03  0.12499735956E+03 0.  0.
    9000005    1    3    3    0    0 -0.21730082956E+02 -0.15700738609E+02 -0.98300130637E+02  0.10189516859E+03  0.10000000000E+01 0.  0.
    9000005    1    3    3    0    0  0.21730082956E+02  0.15700738609E+02  0.30244405683E+02  0.40428130964E+02  0.10000000000E+01 0.  0.
<mgrwt>
<rscale>  0 0.12499736E+03</rscale>
<asrwt>0</asrwt>
<pdfrwt beam="2">  1        4 0.16183002E-01 0.12499736E+03</pdfrwt>
<pdfrwt beam="1">  1       -4 0.57128904E-02 0.12499736E+03</pdfrwt>
<totfact> 0.10086259E+04</totfact>
</mgrwt>
</event>
<event>
 5    1  0.3340698E-002  0.1249993E+03  0.7818608E-02  0.1235070E+00
         -4   -1    0    0    0  501 -0.00000000000E+00  0.00000000000E+00  0.52021134420E+02  0.52036634464E+02  0.12700000000E+01 0.  1.
          4   -1    0    0  501    0  0.00000000000E+00 -0.00000000000E+00 -0.75056743367E+02  0.75067487135E+02  0.12700000000E+01 0.  1.
         25    2    1    2    0    0  0.00000000000E+00  0.00000000000E+00 -0.23035608947E+02  0.12710412160E+03  0.12499927379E+03 0.  0.
    9000005    1    3    3    0    0 -0.41845428458E+02  0.25489025525E+02 -0.50958496950E+02  0.70700061644E+02  0.10000000000E+01 0.  0.
    9000005    1    3    3    0    0  0.41845428458E+02 -0.25489025525E+02  0.27922888003E+02  0.56404059956E+02  0.10000000000E+01 0.  0.
<mgrwt>
<rscale>  0 0.12499927E+03</rscale>
<asrwt>0</asrwt>
<pdfrwt beam="2">  1        4 0.11549210E-01 0.12499927E+03</pdfrwt>
<pdfrwt beam="1">  1       -4 0.80052701E-02 0.12499927E+03</pdfrwt>
<totfact> 0.10407055E+04</totfact>
</mgrwt>
</event>
<event>
 5    1  0.3340698E-002  0.1249993E+03  0.7818608E-02  0.1235070E+00
         -4   -1    0    0    0  501 -0.00000000000E+00  0.00000000000E+00  0.95348894346E+02  0.95357351856E+02  0.12700000000E+01 0.  1.
          4   -1    0    0  501    0  0.00000000000E+00 -0.00000000000E+00 -0.40947353596E+02  0.40967043663E+02  0.12700000000E+01 0.  1.
         25    2    1    2    0    0  0.00000000000E+00  0.00000000000E+00  0.54401540750E+02  0.13632439552E+03  0.12499925271E+03 0.  0.
    9000005    1    3    3    0    0  0.38246207215E+02  0.19533407635E+02 -0.22309145816E+02  0.48404796944E+02  0.10000000000E+01 0.  0.
    9000005    1    3    3    0    0 -0.38246207215E+02 -0.19533407635E+02  0.76710686566E+02  0.87919598575E+02  0.10000000000E+01 0.  0.
<mgrwt>
<rscale>  0 0.12499925E+03</rscale>
<asrwt>0</asrwt>
<pdfrwt beam="2">  1        4 0.63017581E-02 0.12499925E+03</pdfrwt>
<pdfrwt beam="1">  1       -4 0.14671226E-01 0.12499925E+03</pdfrwt>
<totfact> 0.10210403E+04</totfact>
</mgrwt>
</event>
<event>
 5    1  0.3340698E-002  0.1250090E+03  0.7818608E-02  0.1235055E+00
         -4   -1    0    0    0  501 -0.00000000000E+00  0.00000000000E+00  0.12329360489E+02  0.12394596809E+02  0.12700000000E+01 0.  1.
          4   -1    0    0  501    0  0.00000000000E+00 -0.00000000000E+00 -0.31596815847E+03  0.31597071078E+03  0.12700000000E+01 0.  1.
         25    2    1    2    0    0  0.00000000000E+00  0.00000000000E+00 -0.30363879798E+03  0.32836530759E+03  0.12500902201E+03 0.  0.
    9000005    1    3    3    0    0  0.36072735093E+02 -0.50896265963E+02 -0.16169737810E+03  0.17331680296E+03  0.10000000000E+01 0.  0.
    9000005    1    3    3    0    0 -0.36072735093E+02  0.50896265963E+02 -0.14194141989E+03  0.15504850462E+03  0.10000000000E+01 0.  0.
<mgrwt>
<rscale>  0 0.12500902E+03</rscale>
<asrwt>0</asrwt>
<pdfrwt beam="2">  1        4 0.48615694E-01 0.12500902E+03</pdfrwt>
<pdfrwt beam="1">  1       -4 0.19020394E-02 0.12500902E+03</pdfrwt>
<totfact> 0.72157684E+03</totfact>
</mgrwt>
</event>
<event>
 5    1  0.3340698E-002  0.1250010E+03  0.7818608E-02  0.1235068E+00
          4   -1    0    0  501    0  0.00000000000E+00  0.00000000000E+00  0.16724749147E+03  0.16725231329E+03  0.12700000000E+01 0. -1.
         -4   -1    0    0    0  501 -0.00000000000E+00 -0.00000000000E+00 -0.23334041434E+02  0.23368576971E+02  0.12700000000E+01 0. -1.
         25    2    1    2    0    0  0.00000000000E+00  0.00000000000E+00  0.14391345003E+03  0.19062089026E+03  0.12500097082E+03 0.  0.
    9000005    1    3    3    0    0 -0.22747107117E+02 -0.36967799437E+02  0.33971100190E+01  0.43549849987E+02  0.10000000000E+01 0.  0.
    9000005    1    3    3    0    0  0.22747107117E+02  0.36967799437E+02  0.14051634001E+03  0.14707104028E+03  0.10000000000E+01 0.  0.
<mgrwt>
<rscale>  0 0.12500097E+03</rscale>
<asrwt>0</asrwt>
<pdfrwt beam="1">  1        4 0.25733411E-01 0.12500097E+03</pdfrwt>
<pdfrwt beam="2">  1       -4 0.35928800E-02 0.12500097E+03</pdfrwt>
<totfact> 0.91737399E+03</totfact>
</mgrwt>
</event>
<event>
 5    1  0.3340698E-002  0.1250008E+03  0.7818608E-02  0.1235068E+00
         -4   -1    0    0    0  501 -0.00000000000E+00  0.00000000000E+00  0.19334531495E+03  0.19334948594E+03  0.12700000000E+01 0.  1.
          4   -1    0    0  501    0  0.00000000000E+00 -0.00000000000E+00 -0.20179405258E+02  0.20219329775E+02  0.12700000000E+01 0.  1.
         25    2    1    2    0    0  0.00000000000E+00  0.00000000000E+00  0.17316590969E+03  0.21356881571E+03  0.12500082706E+03 0.  0.
    9000005    1    3    3    0    0  0.38395461489E+02 -0.48331346421E+02  0.10325073194E+03  0.12029897820E+03  0.10000000000E+01 0.  0.
    9000005    1    3    3    0    0 -0.38395461489E+02  0.48331346421E+02  0.69915177754E+02  0.93269837516E+02  0.10000000000E+01 0.  0.
<mgrwt>
<rscale>  0 0.12500083E+03</rscale>
<asrwt>0</asrwt>
<pdfrwt beam="2">  1        4 0.31079158E-02 0.12500083E+03</pdfrwt>
<pdfrwt beam="1">  1       -4 0.29748826E-01 0.12500083E+03</pdfrwt>
<totfact> 0.87894717E+03</totfact>
</mgrwt>
</event>
<event>
 5    1  0.3340698E-002  0.1250120E+03  0.7818608E-02  0.1235051E+00
          4   -1    0    0  501    0  0.00000000000E+00  0.00000000000E+00  0.66747597143E+01  0.67945064018E+01  0.12700000000E+01 0. -1.
         -4   -1    0    0    0  501 -0.00000000000E+00 -0.00000000000E+00 -0.58001491115E+03  0.58001630155E+03  0.12700000000E+01 0. -1.
         25    2    1    2    0    0  0.00000000000E+00  0.00000000000E+00 -0.57334015144E+03  0.58681080795E+03  0.12501197972E+03 0.  0.
    9000005    1    3    3    0    0  0.39931187440E+02  0.47439138276E+02 -0.32333984561E+03  0.32923339340E+03  0.10000000000E+01 0.  0.
    9000005    1    3    3    0    0 -0.39931187440E+02 -0.47439138276E+02 -0.25000030583E+03  0.25757741454E+03  0.10000000000E+01 0.  0.
<mgrwt>
<rscale>  0 0.12501198E+03</rscale>
<asrwt>0</asrwt>
<pdfrwt beam="1">  1        4 0.10362048E-02 0.12501198E+03</pdfrwt>
<pdfrwt beam="2">  1       -4 0.89242342E-01 0.12501198E+03</pdfrwt>
<totfact> 0.49697832E+03</totfact>
</mgrwt>
</event>
<event>
 5    1  0.3340698E-002  0.1250021E+03  0.7818608E-02  0.1235066E+00
         -4   -1    0    0    0  501 -0.00000000000E+00  0.00000000000E+00  0.55619912419E+02  0.55634409833E+02  0.12700000000E+01 0.  1.
          4   -1    0    0  501    0  0.00000000000E+00 -0.00000000000E+00 -0.70204079382E+02  0.70215565667E+02  0.12700000000E+01 0.  1.
         25    2    1    2    0    0  0.00000000000E+00  0.00000000000E+00 -0.14584166963E+02  0.12584997550E+03  0.12500207361E+03 0.  0.
    9000005    1    3    3    0    0  0.11817457419E+02  0.46309842041E+02 -0.47828399873E+02  0.67622552481E+02  0.10000000000E+01 0.  0.
    9000005    1    3    3    0    0 -0.11817457419E+02 -0.46309842041E+02  0.33244232910E+02  0.58227423019E+02  0.10000000000E+01 0.  0.
<mgrwt>
<rscale>  0 0.12500207E+03</rscale>
<asrwt>0</asrwt>
<pdfrwt beam="2">  1        4 0.10802626E-01 0.12500207E+03</pdfrwt>
<pdfrwt beam="1">  1       -4 0.85589083E-02 0.12500207E+03</pdfrwt>
<totfact> 0.10433759E+04</totfact>
</mgrwt>
</event>
<event>
 5    1  0.3340698E-002  0.1249975E+03  0.7818608E-02  0.1235073E+00
         -4   -1    0    0    0  501 -0.00000000000E+00  0.00000000000E+00  0.54738424025E+02  0.54753154838E+02  0.12700000000E+01 0.  1.
          4   -1    0    0  501    0  0.00000000000E+00 -0.00000000000E+00 -0.71329264447E+02  0.71340569570E+02  0.12700000000E+01 0.  1.
         25    2    1    2    0    0  0.00000000000E+00  0.00000000000E+00 -0.16590840422E+02  0.12609372441E+03  0.12499748537E+03 0.  0.
    9000005    1    3    3    0    0  0.15916834948E+02  0.44835280862E+02 -0.49166730907E+02  0.68424523914E+02  0.10000000000E+01 0.  0.
    9000005    1    3    3    0    0 -0.15916834948E+02 -0.44835280862E+02  0.32575890485E+02  0.57669200494E+02  0.10000000000E+01 0.  0.
<mgrwt>
<rscale>  0 0.12499749E+03</rscale>
<asrwt>0</asrwt>
<pdfrwt beam="2">  1        4 0.10975736E-01 0.12499749E+03</pdfrwt>
<pdfrwt beam="1">  1       -4 0.84232988E-02 0.12499749E+03</pdfrwt>
<totfact> 0.10429496E+04</totfact>
</mgrwt>
</event>
<event>
 5    1  0.3340698E-002  0.1250009E+03  0.7818608E-02  0.1235068E+00
         -4   -1    0    0    0  501 -0.00000000000E+00  0.00000000000E+00  0.40885424477E+02  0.40905144354E+02  0.12700000000E+01 0. -1.
          4   -1    0    0  501    0  0.00000000000E+00 -0.00000000000E+00 -0.95495710958E+02  0.95504155467E+02  0.12700000000E+01 0. -1.
         25    2    1    2    0    0  0.00000000000E+00  0.00000000000E+00 -0.54610286482E+02  0.13640929982E+03  0.12500085475E+03 0.  0.
    9000005    1    3    3    0    0 -0.41941303315E+02 -0.10437852537E+02 -0.76560848585E+02  0.87923746653E+02  0.10000000000E+01 0.  0.
    9000005    1    3    3    0    0  0.41941303315E+02  0.10437852537E+02  0.21950562104E+02  0.48485553168E+02  0.10000000000E+01 0.  0.
<mgrwt>
<rscale>  0 0.12500085E+03</rscale>
<asrwt>0</asrwt>
<pdfrwt beam="2">  1        4 0.14693814E-01 0.12500085E+03</pdfrwt>
<pdfrwt beam="1">  1       -4 0.62922319E-02 0.12500085E+03</pdfrwt>
<totfact> 0.10208254E+04</totfact>
</mgrwt>
</event>
<event>
 5    1  0.3340698E-002  0.1249980E+03  0.7818608E-02  0.1235072E+00
         -4   -1    0    0    0  501 -0.00000000000E+00  0.00000000000E+00  0.26049612955E+02  0.26080552815E+02  0.12700000000E+01 0.  1.
          4   -1    0    0  501    0  0.00000000000E+00 -0.00000000000E+00 -0.14982671532E+03  0.14983209778E+03  0.12700000000E+01 0.  1.
         25    2    1    2    0    0  0.00000000000E+00  0.00000000000E+00 -0.12377710237E+03  0.17591265059E+03  0.12499795826E+03 0.  0.
    9000005    1    3    3    0    0 -0.42953818847E+02  0.38923574111E+02 -0.94744288410E+02  0.11107454867E+03  0.10000000000E+01 0.  0.
    9000005    1    3    3    0    0  0.42953818847E+02 -0.38923574111E+02 -0.29032813959E+02  0.64838101927E+02  0.10000000000E+01 0.  0.
<mgrwt>
<rscale>  0 0.12499796E+03</rscale>
<asrwt>0</asrwt>
<pdfrwt beam="2">  1        4 0.23053058E-01 0.12499796E+03</pdfrwt>
<pdfrwt beam="1">  1       -4 0.40104268E-02 0.12499796E+03</pdfrwt>
<totfact> 0.94362278E+03</totfact>
</mgrwt>
</event>
<event>
 5    1  0.3340698E-002  0.1250084E+03  0.7818608E-02  0.1235056E+00
          4   -1    0    0  501    0  0.00000000000E+00  0.00000000000E+00  0.13507703069E+02  0.13567274678E+02  0.12700000000E+01 0.  1.
         -4   -1    0    0    0  501 -0.00000000000E+00 -0.00000000000E+00 -0.28852858287E+03  0.28853137790E+03  0.12700000000E+01 0.  1.
         25    2    1    2    0    0  0.00000000000E+00  0.00000000000E+00 -0.27502087980E+03  0.30209865258E+03  0.12500844597E+03 0.  0.
    9000005    1    3    3    0    0 -0.57535133916E+02 -0.18948707448E+02 -0.10035150634E+03  0.11722103042E+03  0.10000000000E+01 0.  0.
    9000005    1    3    3    0    0  0.57535133916E+02  0.18948707448E+02 -0.17466937346E+03  0.18487762216E+03  0.10000000000E+01 0.  0.
<mgrwt>
<rscale>  0 0.12500845E+03</rscale>
<asrwt>0</asrwt>
<pdfrwt beam="1">  1        4 0.20829058E-02 0.12500845E+03</pdfrwt>
<pdfrwt beam="2">  1       -4 0.44393806E-01 0.12500845E+03</pdfrwt>
<totfact> 0.75322220E+03</totfact>
</mgrwt>
</event>
<event>
 5    1  0.3340698E-002  0.1250044E+03  0.7818608E-02  0.1235062E+00
          4   -1    0    0  501    0  0.00000000000E+00  0.00000000000E+00  0.76887766533E+02  0.76898254482E+02  0.12700000000E+01 0.  1.
         -4   -1    0    0    0  501 -0.00000000000E+00 -0.00000000000E+00 -0.50786277570E+02  0.50802154378E+02  0.12700000000E+01 0.  1.
         25    2    1    2    0    0  0.00000000000E+00  0.00000000000E+00  0.26101488963E+02  0.12770040886E+03  0.12500442671E+03 0.  0.
    9000005    1    3    3    0    0 -0.40303837430E+02 -0.43682581043E+02  0.32779410375E+02  0.67882670416E+02  0.10000000000E+01 0.  0.
    9000005    1    3    3    0    0  0.40303837430E+02  0.43682581043E+02 -0.66779214125E+01  0.59817738444E+02  0.10000000000E+01 0.  0.
<mgrwt>
<rscale>  0 0.12500443E+03</rscale>
<asrwt>0</asrwt>
<pdfrwt beam="1">  1        4 0.11830915E-01 0.12500443E+03</pdfrwt>
<pdfrwt beam="2">  1       -4 0.78153015E-02 0.12500443E+03</pdfrwt>
<totfact> 0.10392924E+04</totfact>
</mgrwt>
</event>
<event>
 5    1  0.3340698E-002  0.1250012E+03  0.7818608E-02  0.1235067E+00
         -4   -1    0    0    0  501 -0.00000000000E+00  0.00000000000E+00  0.14684739962E+02  0.14739555209E+02  0.12700000000E+01 0. -1.
          4   -1    0    0  501    0  0.00000000000E+00 -0.00000000000E+00 -0.26546073212E+03  0.26546377003E+03  0.12700000000E+01 0. -1.
         25    2    1    2    0    0  0.00000000000E+00  0.00000000000E+00 -0.25077599216E+03  0.28020332524E+03  0.12500122092E+03 0.  0.
    9000005    1    3    3    0    0  0.12493621557E+02 -0.21346933587E+01  0.11784271095E+02  0.17335412904E+02  0.10000000000E+01 0.  0.
    9000005    1    3    3    0    0 -0.12493621557E+02  0.21346933587E+01 -0.26256026325E+03  0.26286791233E+03  0.10000000000E+01 0.  0.
<mgrwt>
<rscale>  0 0.12500122E+03</rscale>
<asrwt>0</asrwt>
<pdfrwt beam="2">  1        4 0.40844559E-01 0.12500122E+03</pdfrwt>
<pdfrwt beam="1">  1       -4 0.22636412E-02 0.12500122E+03</pdfrwt>
<totfact> 0.78149034E+03</totfact>
</mgrwt>
</event>
<event>
 5    1  0.3340698E-002  0.1250015E+03  0.7818608E-02  0.1235067E+00
          4   -1    0    0  501    0  0.00000000000E+00  0.00000000000E+00  0.11621114635E+03  0.11621808567E+03  0.12700000000E+01 0. -1.
         -4   -1    0    0    0  501 -0.00000000000E+00 -0.00000000000E+00 -0.33594230197E+02  0.33618227236E+02  0.12700000000E+01 0. -1.
         25    2    1    2    0    0  0.00000000000E+00  0.00000000000E+00  0.82616916155E+02  0.14983631290E+03  0.12500146331E+03 0.  0.
    9000005    1    3    3    0    0  0.17787539328E+02  0.36232376967E+02  0.98496253026E+02  0.10645042769E+03  0.10000000000E+01 0.  0.
    9000005    1    3    3    0    0 -0.17787539328E+02 -0.36232376967E+02 -0.15879336871E+02  0.43385885211E+02  0.10000000000E+01 0.  0.
<mgrwt>
<rscale>  0 0.12500146E+03</rscale>
<asrwt>0</asrwt>
<pdfrwt beam="1">  1        4 0.17881018E-01 0.12500146E+03</pdfrwt>
<pdfrwt beam="2">  1       -4 0.51707228E-02 0.12500146E+03</pdfrwt>
<totfact> 0.99333065E+03</totfact>
</mgrwt>
</event>
<event>
 5    1  0.3340698E-002  0.1250080E+03  0.7818608E-02  0.1235057E+00
          4   -1    0    0  501    0  0.00000000000E+00  0.00000000000E+00  0.83541971516E+02  0.83551624190E+02  0.12700000000E+01 0.  1.
         -4   -1    0    0    0  501 -0.00000000000E+00 -0.00000000000E+00 -0.46742928182E+02  0.46760177877E+02  0.12700000000E+01 0.  1.
         25    2    1    2    0    0  0.00000000000E+00  0.00000000000E+00  0.36799043333E+02  0.13031180207E+03  0.12500798442E+03 0.  0.
    9000005    1    3    3    0    0  0.73165937714E+01  0.61249118353E+02  0.79356023065E+01  0.62200971273E+02  0.10000000000E+01 0.  0.
    9000005    1    3    3    0    0 -0.73165937714E+01 -0.61249118353E+02  0.28863441027E+02  0.68110830793E+02  0.10000000000E+01 0.  0.
<mgrwt>
<rscale>  0 0.12500798E+03</rscale>
<asrwt>0</asrwt>
<pdfrwt beam="1">  1        4 0.12854680E-01 0.12500798E+03</pdfrwt>
<pdfrwt beam="2">  1       -4 0.71932891E-02 0.12500798E+03</pdfrwt>
<totfact> 0.10335979E+04</totfact>
</mgrwt>
</event>
<event>
 5    1  0.3340698E-002  0.1250000E+03  0.7818608E-02  0.1235069E+00
         -4   -1    0    0    0  501 -0.00000000000E+00  0.00000000000E+00  0.26706213652E+03  0.26706515621E+03  0.12700000000E+01 0.  1.
          4   -1    0    0  501    0  0.00000000000E+00 -0.00000000000E+00 -0.14596064620E+02  0.14651211636E+02  0.12700000000E+01 0.  1.
         25    2    1    2    0    0  0.00000000000E+00  0.00000000000E+00  0.25246607190E+03  0.28171636785E+03  0.12499997781E+03 0.  0.
    9000005    1    3    3    0    0  0.38764978666E+02  0.48982410125E+02  0.13029509560E+03  0.14449848446E+03  0.10000000000E+01 0.  0.
    9000005    1    3    3    0    0 -0.38764978666E+02 -0.48982410125E+02  0.12217097630E+03  0.13721788339E+03  0.10000000000E+01 0.  0.
<mgrwt>
<rscale>  0 0.12499998E+03</rscale>
<asrwt>0</asrwt>
<pdfrwt beam="2">  1        4 0.22500227E-02 0.12499998E+03</pdfrwt>
<pdfrwt beam="1">  1       -4 0.41090957E-01 0.12499998E+03</pdfrwt>
<totfact> 0.77951113E+03</totfact>
</mgrwt>
</event>
<event>
 5    1  0.3340698E-002  0.1250030E+03  0.7818608E-02  0.1235065E+00
          4   -1    0    0  501    0  0.00000000000E+00  0.00000000000E+00  0.13637728198E+03  0.13638319522E+03  0.12700000000E+01 0.  1.
         -4   -1    0    0    0  501 -0.00000000000E+00 -0.00000000000E+00 -0.28623731620E+02  0.28651891942E+02  0.12700000000E+01 0.  1.
         25    2    1    2    0    0  0.00000000000E+00  0.00000000000E+00  0.10775355036E+03  0.16503508717E+03  0.12500300949E+03 0.  0.
    9000005    1    3    3    0    0  0.51882754173E+02  0.13909697427E+02  0.11708549252E+02  0.54985361585E+02  0.10000000000E+01 0.  0.
    9000005    1    3    3    0    0 -0.51882754173E+02 -0.13909697427E+02  0.96045001106E+02  0.11004972558E+03  0.10000000000E+01 0.  0.
<mgrwt>
<rscale>  0 0.12500301E+03</rscale>
<asrwt>0</asrwt>
<pdfrwt beam="1">  1        4 0.20983741E-01 0.12500301E+03</pdfrwt>
<pdfrwt beam="2">  1       -4 0.44062721E-02 0.12500301E+03</pdfrwt>
<totfact> 0.96374232E+03</totfact>
</mgrwt>
</event>
<event>
 5    1  0.3340698E-002  0.1250005E+03  0.7818608E-02  0.1235069E+00
         -4   -1    0    0    0  501 -0.00000000000E+00  0.00000000000E+00  0.10515174273E+03  0.10515941184E+03  0.12700000000E+01 0. -1.
          4   -1    0    0  501    0  0.00000000000E+00 -0.00000000000E+00 -0.37129107732E+02  0.37150821539E+02  0.12700000000E+01 0. -1.
         25    2    1    2    0    0  0.00000000000E+00  0.00000000000E+00  0.68022634995E+02  0.14231023338E+03  0.12500049461E+03 0.  0.
    9000005    1    3    3    0    0  0.38368259937E+02 -0.47309619088E+02  0.18115079529E+02  0.63556899981E+02  0.10000000000E+01 0.  0.
    9000005    1    3    3    0    0 -0.38368259937E+02  0.47309619088E+02  0.49907555466E+02  0.78753333399E+02  0.10000000000E+01 0.  0.
<mgrwt>
<rscale>  0 0.12500049E+03</rscale>
<asrwt>0</asrwt>
<pdfrwt beam="2">  1        4 0.57144306E-02 0.12500049E+03</pdfrwt>
<pdfrwt beam="1">  1       -4 0.16179451E-01 0.12500049E+03</pdfrwt>
<totfact> 0.10085815E+04</totfact>
</mgrwt>
</event>
<event>
 5    1  0.3340698E-002  0.1249962E+03  0.7818608E-02  0.1235075E+00
         -4   -1    0    0    0  501 -0.00000000000E+00  0.00000000000E+00  0.59051350997E+03  0.59051487564E+03  0.12700000000E+01 0.  1.
          4   -1    0    0  501    0  0.00000000000E+00 -0.00000000000E+00 -0.65522593836E+01  0.66742042994E+01  0.12700000000E+01 0.  1.
         25    2    1    2    0    0  0.00000000000E+00  0.00000000000E+00  0.58396125058E+03  0.59718907994E+03  0.12499622001E+03 0.  0.
    9000005    1    3    3    0    0 -0.25104800769E+02  0.49937295434E+02  0.15845991643E+03  0.16803133520E+03  0.10000000000E+01 0.  0.
    9000005    1    3    3    0    0  0.25104800769E+02 -0.49937295434E+02  0.42550133416E+03  0.42915774474E+03  0.10000000000E+01 0.  0.
<mgrwt>
<rscale>  0 0.12499622E+03</rscale>
<asrwt>0</asrwt>
<pdfrwt beam="2">  1        4 0.10175256E-02 0.12499622E+03</pdfrwt>
<pdfrwt beam="1">  1       -4 0.90857695E-01 0.12499622E+03</pdfrwt>
<totfact> 0.49049600E+03</totfact>
</mgrwt>
</event>
<event>
 5    1  0.3340698E-002  0.1249984E+03  0.7818608E-02  0.1235072E+00
          4   -1    0    0  501    0  0.00000000000E+00  0.00000000000E+00  0.32354055327E+03  0.32354304583E+03  0.12700000000E+01 0.  1.
         -4   -1    0    0    0  501 -0.00000000000E+00 -0.00000000000E+00 -0.12037200929E+02  0.12104011988E+02  0.12700000000E+01 0.  1.
         25    2    1    2    0    0  0.00000000000E+00  0.00000000000E+00  0.31150335234E+03  0.33564705782E+03  0.12499843562E+03 0.  0.
    9000005    1    3    3    0    0 -0.60331056413E+01 -0.49449249290E+02  0.54439671480E+02  0.73799081633E+02  0.10000000000E+01 0.  0.
    9000005    1    3    3    0    0  0.60331056413E+01  0.49449249290E+02  0.25706368086E+03  0.26184797619E+03  0.10000000000E+01 0.  0.
<mgrwt>
<rscale>  0 0.12499844E+03</rscale>
<asrwt>0</asrwt>
<pdfrwt beam="1">  1        4 0.49780794E-01 0.12499844E+03</pdfrwt>
<pdfrwt beam="2">  1       -4 0.18572084E-02 0.12499844E+03</pdfrwt>
<totfact> 0.71335438E+03</totfact>
</mgrwt>
</event>
<event>
 5    1  0.3340698E-002  0.1249991E+03  0.7818608E-02  0.1235071E+00
         -4   -1    0    0    0  501 -0.00000000000E+00  0.00000000000E+00  0.25484669172E+02  0.25516294065E+02  0.12700000000E+01 0. -1.
          4   -1    0    0  501    0  0.00000000000E+00 -0.00000000000E+00 -0.15314685650E+03  0.15315212227E+03  0.12700000000E+01 0. -1.
         25    2    1    2    0    0  0.00000000000E+00  0.00000000000E+00 -0.12766218733E+03  0.17866841634E+03  0.12499907569E+03 0.  0.
    9000005    1    3    3    0    0  0.11173176568E+02  0.60683371938E+02 -0.77972401549E+02  0.99438457891E+02  0.10000000000E+01 0.  0.
    9000005    1    3    3    0    0 -0.11173176568E+02 -0.60683371938E+02 -0.49689785783E+02  0.79229958447E+02  0.10000000000E+01 0.  0.
<mgrwt>
<rscale>  0 0.12499908E+03</rscale>
<asrwt>0</asrwt>
<pdfrwt beam="2">  1        4 0.23563892E-01 0.12499908E+03</pdfrwt>
<pdfrwt beam="1">  1       -4 0.39235562E-02 0.12499908E+03</pdfrwt>
<totfact> 0.93859189E+03</totfact>
</mgrwt>
</event>
<event>
 5    1  0.3340698E-002  0.1249863E+03  0.7818608E-02  0.1235091E+00
          4   -1    0    0  501    0  0.00000000000E+00  0.00000000000E+00  0.71985466957E+02  0.71996669042E+02  0.12700000000E+01 0. -1.
         -4   -1    0    0    0  501 -0.00000000000E+00 -0.00000000000E+00 -0.54229649855E+02  0.54244518833E+02  0.12700000000E+01 0. -1.
         25    2    1    2    0    0  0.00000000000E+00  0.00000000000E+00  0.17755817102E+02  0.12624118787E+03  0.12498627315E+03 0.  0.
    9000005    1    3    3    0    0 -0.25756447837E+02  0.50449639892E+02  0.35521376300E+02  0.66867996416E+02  0.10000000000E+01 0.  0.
    9000005    1    3    3    0    0  0.25756447837E+02 -0.50449639892E+02 -0.17765559198E+02  0.59373191459E+02  0.10000000000E+01 0.  0.
<mgrwt>
<rscale>  0 0.12498627E+03</rscale>
<asrwt>0</asrwt>
<pdfrwt beam="1">  1        4 0.11076693E-01 0.12498627E+03</pdfrwt>
<pdfrwt beam="2">  1       -4 0.83450285E-02 0.12498627E+03</pdfrwt>
<totfact> 0.10428909E+04</totfact>
</mgrwt>
</event>
<event>
 5    1  0.3340698E-002  0.1249954E+03  0.7818608E-02  0.1235076E+00
         -4   -1    0    0    0  501 -0.00000000000E+00  0.00000000000E+00  0.90711472989E+02  0.90720362829E+02  0.12700000000E+01 0.  1.
          4   -1    0    0  501    0  0.00000000000E+00 -0.00000000000E+00 -0.43038836612E+02  0.43057570262E+02  0.12700000000E+01 0.  1.
         25    2    1    2    0    0  0.00000000000E+00  0.00000000000E+00  0.47672636378E+02  0.13377793309E+03  0.12499542041E+03 0.  0.
    9000005    1    3    3    0    0 -0.54119724373E+02  0.26143779920E+02  0.55313222516E+01  0.60365862211E+02  0.10000000000E+01 0.  0.
    9000005    1    3    3    0    0  0.54119724373E+02 -0.26143779920E+02  0.42141314126E+02  0.73412070880E+02  0.10000000000E+01 0.  0.
<mgrwt>
<rscale>  0 0.12499542E+03</rscale>
<asrwt>0</asrwt>
<pdfrwt beam="2">  1        4 0.66234844E-02 0.12499542E+03</pdfrwt>
<pdfrwt beam="1">  1       -4 0.13957736E-01 0.12499542E+03</pdfrwt>
<totfact> 0.10264954E+04</totfact>
</mgrwt>
</event>
<event>
 5    1  0.3340698E-002  0.1250006E+03  0.7818608E-02  0.1235068E+00
          4   -1    0    0  501    0  0.00000000000E+00  0.00000000000E+00  0.92853185158E+02  0.92861869969E+02  0.12700000000E+01 0.  1.
         -4   -1    0    0    0  501 -0.00000000000E+00 -0.00000000000E+00 -0.42049291469E+02  0.42068465779E+02  0.12700000000E+01 0.  1.
         25    2    1    2    0    0  0.00000000000E+00  0.00000000000E+00  0.50803893690E+02  0.13493033575E+03  0.12500063956E+03 0.  0.
    9000005    1    3    3    0    0  0.11366007322E+02 -0.24369934441E+02 -0.35490271218E+02  0.44538064374E+02  0.10000000000E+01 0.  0.
    9000005    1    3    3    0    0 -0.11366007322E+02  0.24369934441E+02  0.86294164907E+02  0.90392271374E+02  0.10000000000E+01 0.  0.
<mgrwt>
<rscale>  0 0.12500064E+03</rscale>
<asrwt>0</asrwt>
<pdfrwt beam="1">  1        4 0.14287248E-01 0.12500064E+03</pdfrwt>
<pdfrwt beam="2">  1       -4 0.64712648E-02 0.12500064E+03</pdfrwt>
<totfact> 0.10239392E+04</totfact>
</mgrwt>
</event>
<event>
 5    1  0.3340698E-002  0.1249971E+03  0.7818608E-02  0.1235074E+00
          4   -1    0    0  501    0  0.00000000000E+00  0.00000000000E+00  0.12926111444E+02  0.12988350821E+02  0.12700000000E+01 0.  1.
         -4   -1    0    0    0  501 -0.00000000000E+00 -0.00000000000E+00 -0.30139508273E+03  0.30139775845E+03  0.12700000000E+01 0.  1.
         25    2    1    2    0    0  0.00000000000E+00  0.00000000000E+00 -0.28846897129E+03  0.31438610927E+03  0.12499711318E+03 0.  0.
    9000005    1    3    3    0    0 -0.39891150573E+02 -0.44788413030E+02 -0.10011076854E+03  0.11670677706E+03  0.10000000000E+01 0.  0.
    9000005    1    3    3    0    0  0.39891150573E+02  0.44788413030E+02 -0.18835820275E+03  0.19767933220E+03  0.10000000000E+01 0.  0.
<mgrwt>
<rscale>  0 0.12499711E+03</rscale>
<asrwt>0</asrwt>
<pdfrwt beam="1">  1        4 0.19936262E-02 0.12499711E+03</pdfrwt>
<pdfrwt beam="2">  1       -4 0.46373462E-01 0.12499711E+03</pdfrwt>
<totfact> 0.73833564E+03</totfact>
</mgrwt>
</event>
