<event>
 5    1  0.3241863E-002  0.1250000E+03  0.7818608E-02  0.1235069E+00
         -4   -1    0    0    0  501 -0.00000000000E+00  0.00000000000E+00  0.28223791881E+02  0.28252350843E+02  0.12700000000E+01 0. -1.
          4   -1    0    0  501    0  0.00000000000E+00 -0.00000000000E+00 -0.13830122402E+03  0.13830705501E+03  0.12700000000E+01 0. -1.
         25    2    1    2    0    0  0.00000000000E+00  0.00000000000E+00 -0.11007743214E+03  0.16655940586E+03  0.12499997845E+03 0.  0.
    9000005    1    3    3    0    0  0.54674299339E+02  0.97303493921E+01 -0.16852425065E+02  0.58042768181E+02  0.10000000000E+01 0.  0.
    9000005    1    3    3    0    0 -0.54674299339E+02 -0.97303493921E+01 -0.93225007078E+02  0.10851663767E+03  0.10000000000E+01 0.  0.
<mgrwt>
<rscale>  0 0.12499998E+03</rscale>
<asrwt>0</asrwt>
<pdfrwt beam="2">  1        4 0.21279756E-01 0.12499998E+03</pdfrwt>
<pdfrwt beam="1">  1       -4 0.43447673E-02 0.12499998E+03</pdfrwt>
<totfact> 0.96092925E+03</totfact>
</mgrwt>
</event>
<event>
 5    1  0.3241863E-002  0.1250052E+03  0.7818608E-02  0.1235061E+00
          4   -1    0    0  501    0  0.00000000000E+00  0.00000000000E+00  0.24841552919E+02  0.24873995486E+02  0.12700000000E+01 0. -1.
         -4   -1    0    0    0  501 -0.00000000000E+00 -0.00000000000E+00 -0.15712214912E+03  0.15712728167E+03  0.12700000000E+01 0. -1.
         25    2    1    2    0    0  0.00000000000E+00  0.00000000000E+00 -0.13228059620E+03  0.18200127715E+03  0.12500523491E+03 0.  0.
    9000005    1    3    3    0    0  0.49165882870E+02  0.37522275771E+02 -0.53087652549E+02  0.81513827481E+02  0.10000000000E+01 0.  0.
    9000005    1    3    3    0    0 -0.49165882870E+02 -0.37522275771E+02 -0.79192943654E+02  0.10048744967E+03  0.10000000000E+01 0.  0.
<mgrwt>
<rscale>  0 0.12500523E+03</rscale>
<asrwt>0</asrwt>
<pdfrwt beam="1">  1        4 0.38246678E-02 0.12500523E+03</pdfrwt>
<pdfrwt beam="2">  1       -4 0.24175528E-01 0.12500523E+03</pdfrwt>
<totfact> 0.93247059E+03</totfact>
</mgrwt>
</event>
<event>
 5    1  0.3241863E-002  0.1250006E+03  0.7818608E-02  0.1235068E+00
          4   -1    0    0  501    0  0.00000000000E+00  0.00000000000E+00  0.10127205943E+03  0.10128002232E+03  0.12700000000E+01 0.  1.
         -4   -1    0    0    0  501 -0.00000000000E+00 -0.00000000000E+00 -0.38552290601E+02  0.38573203271E+02  0.12700000000E+01 0.  1.
         25    2    1    2    0    0  0.00000000000E+00  0.00000000000E+00  0.62719768825E+02  0.13985322559E+03  0.12500062122E+03 0.  0.
    9000005    1    3    3    0    0  0.40202557437E+00 -0.42272376760E+02  0.82852039358E+02  0.93019223214E+02  0.10000000000E+01 0.  0.
    9000005    1    3    3    0    0 -0.40202557437E+00  0.42272376760E+02 -0.20132270533E+02  0.46834002374E+02  0.10000000000E+01 0.  0.
<mgrwt>
<rscale>  0 0.12500062E+03</rscale>
<asrwt>0</asrwt>
<pdfrwt beam="1">  1        4 0.15582538E-01 0.12500062E+03</pdfrwt>
<pdfrwt beam="2">  1       -4 0.59333429E-02 0.12500062E+03</pdfrwt>
<totfact> 0.10136487E+04</totfact>
</mgrwt>
</event>
<event>
 5    1  0.3241863E-002  0.1250025E+03  0.7818608E-02  0.1235065E+00
          4   -1    0    0  501    0  0.00000000000E+00  0.00000000000E+00  0.12922134123E+03  0.12922758193E+03  0.12700000000E+01 0.  1.
         -4   -1    0    0    0  501 -0.00000000000E+00 -0.00000000000E+00 -0.30210038579E+02  0.30236721564E+02  0.12700000000E+01 0.  1.
         25    2    1    2    0    0  0.00000000000E+00  0.00000000000E+00  0.99011302655E+02  0.15946430349E+03  0.12500250411E+03 0.  0.
    9000005    1    3    3    0    0 -0.40165377377E+02  0.36386549512E+02  0.98120845375E+01  0.55086436880E+02  0.10000000000E+01 0.  0.
    9000005    1    3    3    0    0  0.40165377377E+02 -0.36386549512E+02  0.89199218118E+02  0.10437786661E+03  0.10000000000E+01 0.  0.
<mgrwt>
<rscale>  0 0.12500250E+03</rscale>
<asrwt>0</asrwt>
<pdfrwt beam="1">  1        4 0.19882739E-01 0.12500250E+03</pdfrwt>
<pdfrwt beam="2">  1       -4 0.46502308E-02 0.12500250E+03</pdfrwt>
<totfact> 0.97440677E+03</totfact>
</mgrwt>
</event>
<event>
 5    1  0.3241863E-002  0.1250000E+03  0.7818608E-02  0.1235069E+00
          4   -1    0    0  501    0  0.00000000000E+00  0.00000000000E+00  0.35192268359E+02  0.35215176448E+02  0.12700000000E+01 0.  1.
         -4   -1    0    0    0  501 -0.00000000000E+00 -0.00000000000E+00 -0.11093474795E+03  0.11094201730E+03  0.12700000000E+01 0.  1.
         25    2    1    2    0    0  0.00000000000E+00  0.00000000000E+00 -0.75742479594E+02  0.14615719375E+03  0.12500000828E+03 0.  0.
    9000005    1    3    3    0    0  0.19911719508E+02  0.57725767252E+01 -0.10680242691E+03  0.10880054049E+03  0.10000000000E+01 0.  0.
    9000005    1    3    3    0    0 -0.19911719508E+02 -0.57725767252E+01  0.31059947318E+02  0.37356653266E+02  0.10000000000E+01 0.  0.
<mgrwt>
<rscale>  0 0.12500001E+03</rscale>
<asrwt>0</asrwt>
<pdfrwt beam="1">  1        4 0.54165165E-02 0.12500001E+03</pdfrwt>
<pdfrwt beam="2">  1       -4 0.17069206E-01 0.12500001E+03</pdfrwt>
<totfact> 0.10007528E+04</totfact>
</mgrwt>
</event>
<event>
 5    1  0.3241863E-002  0.1250012E+03  0.7818608E-02  0.1235067E+00
         -4   -1    0    0    0  501 -0.00000000000E+00  0.00000000000E+00  0.20722220084E+02  0.20761100770E+02  0.12700000000E+01 0.  1.
          4   -1    0    0  501    0  0.00000000000E+00 -0.00000000000E+00 -0.18829138283E+03  0.18829566577E+03  0.12700000000E+01 0.  1.
         25    2    1    2    0    0  0.00000000000E+00  0.00000000000E+00 -0.16756916274E+03  0.20905676654E+03  0.12500122933E+03 0.  0.
    9000005    1    3    3    0    0 -0.94411724689E+01  0.23434386750E+02 -0.17937753533E+03  0.18115078361E+03  0.10000000000E+01 0.  0.
    9000005    1    3    3    0    0  0.94411724689E+01 -0.23434386750E+02  0.11808372591E+02  0.27905982928E+02  0.10000000000E+01 0.  0.
<mgrwt>
<rscale>  0 0.12500123E+03</rscale>
<asrwt>0</asrwt>
<pdfrwt beam="2">  1        4 0.28971224E-01 0.12500123E+03</pdfrwt>
<pdfrwt beam="1">  1       -4 0.31913543E-02 0.12500123E+03</pdfrwt>
<totfact> 0.88627720E+03</totfact>
</mgrwt>
</event>
<event>
 5    1  0.3241863E-002  0.1249980E+03  0.7818608E-02  0.1235072E+00
          4   -1    0    0  501    0  0.00000000000E+00  0.00000000000E+00  0.28885935912E+03  0.28886215095E+03  0.12700000000E+01 0. -1.
         -4   -1    0    0    0  501 -0.00000000000E+00 -0.00000000000E+00 -0.13489912360E+02  0.13549562187E+02  0.12700000000E+01 0. -1.
         25    2    1    2    0    0  0.00000000000E+00  0.00000000000E+00  0.27536944676E+03  0.30241171314E+03  0.12499804812E+03 0.  0.
    9000005    1    3    3    0    0 -0.33101240482E+02 -0.12094301093E+02  0.26253638132E+03  0.26489302701E+03  0.10000000000E+01 0.  0.
    9000005    1    3    3    0    0  0.33101240482E+02  0.12094301093E+02  0.12833065442E+02  0.37518686131E+02  0.10000000000E+01 0.  0.
<mgrwt>
<rscale>  0 0.12499805E+03</rscale>
<asrwt>0</asrwt>
<pdfrwt beam="1">  1        4 0.44444704E-01 0.12499805E+03</pdfrwt>
<pdfrwt beam="2">  1       -4 0.20801744E-02 0.12499805E+03</pdfrwt>
<totfact> 0.75300572E+03</totfact>
</mgrwt>
</event>
<event>
 5    1  0.3241863E-002  0.1249998E+03  0.7818608E-02  0.1235070E+00
          4   -1    0    0  501    0  0.00000000000E+00  0.00000000000E+00  0.40364574115E+03  0.40364773906E+03  0.12700000000E+01 0. -1.
         -4   -1    0    0    0  501 -0.00000000000E+00 -0.00000000000E+00 -0.96336943871E+01  0.97170452064E+01  0.12700000000E+01 0. -1.
         25    2    1    2    0    0  0.00000000000E+00  0.00000000000E+00  0.39401204677E+03  0.41336478427E+03  0.12499980751E+03 0.  0.
    9000005    1    3    3    0    0  0.32480381315E+02  0.52884360983E+02  0.17281634517E+03  0.18362521604E+03  0.10000000000E+01 0.  0.
    9000005    1    3    3    0    0 -0.32480381315E+02 -0.52884360983E+02  0.22119570159E+03  0.22973956823E+03  0.10000000000E+01 0.  0.
<mgrwt>
<rscale>  0 0.12499981E+03</rscale>
<asrwt>0</asrwt>
<pdfrwt beam="1">  1        4 0.62105906E-01 0.12499981E+03</pdfrwt>
<pdfrwt beam="2">  1       -4 0.14886722E-02 0.12499981E+03</pdfrwt>
<totfact> 0.63273645E+03</totfact>
</mgrwt>
</event>
<event>
 5    1  0.3241863E-002  0.1250111E+03  0.7818608E-02  0.1235052E+00
         -4   -1    0    0    0  501 -0.00000000000E+00  0.00000000000E+00  0.87083165036E+01  0.88004361441E+01  0.12700000000E+01 0.  1.
          4   -1    0    0  501    0  0.00000000000E+00 -0.00000000000E+00 -0.44619132214E+03  0.44619312954E+03  0.12700000000E+01 0.  1.
         25    2    1    2    0    0  0.00000000000E+00  0.00000000000E+00 -0.43748300563E+03  0.45499356569E+03  0.12501105790E+03 0.  0.
    9000005    1    3    3    0    0 -0.45560108720E+02  0.17546810221E+01 -0.37431749785E+03  0.37708539034E+03  0.10000000000E+01 0.  0.
    9000005    1    3    3    0    0  0.45560108720E+02 -0.17546810221E+01 -0.63165507785E+02  0.77908175347E+02  0.10000000000E+01 0.  0.
<mgrwt>
<rscale>  0 0.12501106E+03</rscale>
<asrwt>0</asrwt>
<pdfrwt beam="2">  1        4 0.68652026E-01 0.12501106E+03</pdfrwt>
<pdfrwt beam="1">  1       -4 0.13469665E-02 0.12501106E+03</pdfrwt>
<totfact> 0.59519143E+03</totfact>
</mgrwt>
</event>
<event>
 5    1  0.3241863E-002  0.1249984E+03  0.7818608E-02  0.1235072E+00
          4   -1    0    0  501    0  0.00000000000E+00  0.00000000000E+00  0.12391936359E+03  0.12392587128E+03  0.12700000000E+01 0. -1.
         -4   -1    0    0    0  501 -0.00000000000E+00 -0.00000000000E+00 -0.31501582019E+02  0.31527171927E+02  0.12700000000E+01 0. -1.
         25    2    1    2    0    0  0.00000000000E+00  0.00000000000E+00  0.92417781568E+02  0.15545304320E+03  0.12499840916E+03 0.  0.
    9000005    1    3    3    0    0  0.18375514232E+02 -0.58446966708E+02  0.61513404473E+02  0.86825148261E+02  0.10000000000E+01 0.  0.
    9000005    1    3    3    0    0 -0.18375514232E+02  0.58446966708E+02  0.30904377095E+02  0.68627894943E+02  0.10000000000E+01 0.  0.
<mgrwt>
<rscale>  0 0.12499841E+03</rscale>
<asrwt>0</asrwt>
<pdfrwt beam="1">  1        4 0.19066987E-01 0.12499841E+03</pdfrwt>
<pdfrwt beam="2">  1       -4 0.48488662E-02 0.12499841E+03</pdfrwt>
<totfact> 0.98230148E+03</totfact>
</mgrwt>
</event>
<event>
 5    1  0.3241863E-002  0.1249992E+03  0.7818608E-02  0.1235071E+00
         -4   -1    0    0    0  501 -0.00000000000E+00  0.00000000000E+00  0.57473592833E+01  0.58860036300E+01  0.12700000000E+01 0. -1.
          4   -1    0    0  501    0  0.00000000000E+00 -0.00000000000E+00 -0.67141201322E+03  0.67141321434E+03  0.12700000000E+01 0. -1.
         25    2    1    2    0    0  0.00000000000E+00  0.00000000000E+00 -0.66566465394E+03  0.67729921797E+03  0.12499919667E+03 0.  0.
    9000005    1    3    3    0    0  0.51120695978E+02 -0.24819219293E+00 -0.52758037628E+03  0.53005229987E+03  0.10000000000E+01 0.  0.
    9000005    1    3    3    0    0 -0.51120695978E+02  0.24819219293E+00 -0.13808427765E+03  0.14724691811E+03  0.10000000000E+01 0.  0.
<mgrwt>
<rscale>  0 0.12499920E+03</rscale>
<asrwt>0</asrwt>
<pdfrwt beam="2">  1        4 0.10330485E+00 0.12499920E+03</pdfrwt>
<pdfrwt beam="1">  1       -4 0.89496700E-03 0.12499920E+03</pdfrwt>
<totfact> 0.44313239E+03</totfact>
</mgrwt>
</event>
<event>
 5    1  0.3241863E-002  0.1249999E+03  0.7818608E-02  0.1235069E+00
         -4   -1    0    0    0  501 -0.00000000000E+00  0.00000000000E+00  0.91267387919E+02  0.91276223616E+02  0.12700000000E+01 0. -1.
          4   -1    0    0  501    0  0.00000000000E+00 -0.00000000000E+00 -0.42779641766E+02  0.42798488871E+02  0.12700000000E+01 0. -1.
         25    2    1    2    0    0  0.00000000000E+00  0.00000000000E+00  0.48487746153E+02  0.13407471249E+03  0.12499986801E+03 0.  0.
    9000005    1    3    3    0    0  0.60684038063E+02  0.14624346732E+02  0.27428924098E+02  0.68189221070E+02  0.10000000000E+01 0.  0.
    9000005    1    3    3    0    0 -0.60684038063E+02 -0.14624346732E+02  0.21058822055E+02  0.65885491417E+02  0.10000000000E+01 0.  0.
<mgrwt>
<rscale>  0 0.12499987E+03</rscale>
<asrwt>0</asrwt>
<pdfrwt beam="2">  1        4 0.65836128E-02 0.12499987E+03</pdfrwt>
<pdfrwt beam="1">  1       -4 0.14043266E-01 0.12499987E+03</pdfrwt>
<totfact> 0.10257641E+04</totfact>
</mgrwt>
</event>
<event>
 5    1  0.3241863E-002  0.1250002E+03  0.7818608E-02  0.1235069E+00
         -4   -1    0    0    0  501 -0.00000000000E+00  0.00000000000E+00  0.10515899049E+04  0.10515906718E+04  0.12700000000E+01 0.  1.
          4   -1    0    0  501    0  0.00000000000E+00 -0.00000000000E+00 -0.36052859133E+01  0.38224320160E+01  0.12700000000E+01 0.  1.
         25    2    1    2    0    0  0.00000000000E+00  0.00000000000E+00  0.10479846190E+04  0.10554131038E+04  0.12500023218E+03 0.  0.
    9000005    1    3    3    0    0 -0.30749057541E+02 -0.45820218627E+02  0.27634795634E+03  0.28180523407E+03  0.10000000000E+01 0.  0.
    9000005    1    3    3    0    0  0.30749057541E+02  0.45820218627E+02  0.77163666269E+03  0.77360786977E+03  0.10000000000E+01 0.  0.
<mgrwt>
<rscale>  0 0.12500023E+03</rscale>
<asrwt>0</asrwt>
<pdfrwt beam="2">  1        4 0.57142261E-03 0.12500023E+03</pdfrwt>
<pdfrwt beam="1">  1       -4 0.16179963E+00 0.12500023E+03</pdfrwt>
<totfact> 0.28826243E+03</totfact>
</mgrwt>
</event>
<event>
 5    1  0.3241863E-002  0.1250017E+03  0.7818608E-02  0.1235067E+00
         -4   -1    0    0    0  501 -0.00000000000E+00  0.00000000000E+00  0.10579434378E+03  0.10580196632E+03  0.12700000000E+01 0.  1.
          4   -1    0    0  501    0  0.00000000000E+00 -0.00000000000E+00 -0.36904175460E+02  0.36926021535E+02  0.12700000000E+01 0.  1.
         25    2    1    2    0    0  0.00000000000E+00  0.00000000000E+00  0.68890168324E+02  0.14272798785E+03  0.12500169289E+03 0.  0.
    9000005    1    3    3    0    0 -0.55082478475E+02  0.11312034998E+02  0.33150588603E+01  0.56338540858E+02  0.10000000000E+01 0.  0.
    9000005    1    3    3    0    0  0.55082478475E+02 -0.11312034998E+02  0.65575109463E+02  0.86389446994E+02  0.10000000000E+01 0.  0.
<mgrwt>
<rscale>  0 0.12500169E+03</rscale>
<asrwt>0</asrwt>
<pdfrwt beam="2">  1        4 0.56798324E-02 0.12500169E+03</pdfrwt>
<pdfrwt beam="1">  1       -4 0.16278319E-01 0.12500169E+03</pdfrwt>
<totfact> 0.10076972E+04</totfact>
</mgrwt>
</event>
<event>
 5    1  0.3241863E-002  0.1249892E+03  0.7818608E-02  0.1235086E+00
          4   -1    0    0  501    0  0.00000000000E+00  0.00000000000E+00  0.12731421278E+03  0.12732054695E+03  0.12700000000E+01 0.  1.
         -4   -1    0    0    0  501 -0.00000000000E+00 -0.00000000000E+00 -0.30656431921E+02  0.30682726706E+02  0.12700000000E+01 0.  1.
         25    2    1    2    0    0  0.00000000000E+00  0.00000000000E+00  0.96657780857E+02  0.15800327365E+03  0.12498923108E+03 0.  0.
    9000005    1    3    3    0    0  0.37064888049E+02 -0.21301886902E+02 -0.92829575532E+01  0.43757852011E+02  0.10000000000E+01 0.  0.
    9000005    1    3    3    0    0 -0.37064888049E+02  0.21301886902E+02  0.10594073841E+03  0.11424542164E+03  0.10000000000E+01 0.  0.
<mgrwt>
<rscale>  0 0.12498923E+03</rscale>
<asrwt>0</asrwt>
<pdfrwt beam="1">  1        4 0.19589311E-01 0.12498923E+03</pdfrwt>
<pdfrwt beam="2">  1       -4 0.47188842E-02 0.12498923E+03</pdfrwt>
<totfact> 0.97752790E+03</totfact>
</mgrwt>
</event>
<event>
 5    1  0.3241863E-002  0.1249998E+03  0.7818608E-02  0.1235070E+00
         -4   -1    0    0    0  501 -0.00000000000E+00  0.00000000000E+00  0.16551180880E+02  0.16599833990E+02  0.12700000000E+01 0.  1.
          4   -1    0    0  501    0  0.00000000000E+00 -0.00000000000E+00 -0.23561278486E+03  0.23561620761E+03  0.12700000000E+01 0.  1.
         25    2    1    2    0    0  0.00000000000E+00  0.00000000000E+00 -0.21906160398E+03  0.25221604160E+03  0.12499978121E+03 0.  0.
    9000005    1    3    3    0    0 -0.21621474214E+02 -0.22873773305E+02 -0.60058626045E+00  0.31496957888E+02  0.10000000000E+01 0.  0.
    9000005    1    3    3    0    0  0.21621474214E+02  0.22873773305E+02 -0.21846101772E+03  0.22071908371E+03  0.10000000000E+01 0.  0.
<mgrwt>
<rscale>  0 0.12499978E+03</rscale>
<asrwt>0</asrwt>
<pdfrwt beam="2">  1        4 0.36252124E-01 0.12499978E+03</pdfrwt>
<pdfrwt beam="1">  1       -4 0.25503415E-02 0.12499978E+03</pdfrwt>
<totfact> 0.82011393E+03</totfact>
</mgrwt>
</event>
<event>
 5    1  0.3241863E-002  0.1249527E+03  0.7818608E-02  0.1235143E+00
         -4   -1    0    0    0  501 -0.00000000000E+00  0.00000000000E+00  0.79727451128E+02  0.79737565573E+02  0.12700000000E+01 0.  1.
          4   -1    0    0  501    0  0.00000000000E+00 -0.00000000000E+00 -0.48936504874E+02  0.48952981618E+02  0.12700000000E+01 0.  1.
         25    2    1    2    0    0  0.00000000000E+00  0.00000000000E+00  0.30790946254E+02  0.12869054719E+03  0.12495268931E+03 0.  0.
    9000005    1    3    3    0    0 -0.56529180266E+01 -0.42328375422E+02 -0.31560558838E+02  0.53110410677E+02  0.10000000000E+01 0.  0.
    9000005    1    3    3    0    0  0.56529180266E+01  0.42328375422E+02  0.62351505092E+02  0.75580136514E+02  0.10000000000E+01 0.  0.
<mgrwt>
<rscale>  0 0.12495269E+03</rscale>
<asrwt>0</asrwt>
<pdfrwt beam="2">  1        4 0.75307386E-02 0.12495269E+03</pdfrwt>
<pdfrwt beam="1">  1       -4 0.12267807E-01 0.12495269E+03</pdfrwt>
<totfact> 0.10383687E+04</totfact>
</mgrwt>
</event>
<event>
 5    1  0.3241863E-002  0.1249993E+03  0.7818608E-02  0.1235070E+00
         -4   -1    0    0    0  501 -0.00000000000E+00  0.00000000000E+00  0.13262225479E+04  0.13262231560E+04  0.12700000000E+01 0. -1.
          4   -1    0    0  501    0  0.00000000000E+00 -0.00000000000E+00 -0.28078218131E+01  0.30816819002E+01  0.12700000000E+01 0. -1.
         25    2    1    2    0    0  0.00000000000E+00  0.00000000000E+00  0.13234147261E+04  0.13293048379E+04  0.12499925915E+03 0.  0.
    9000005    1    3    3    0    0 -0.38166627132E+02 -0.41133233840E+02  0.95421790082E+03  0.95586685087E+03  0.10000000000E+01 0.  0.
    9000005    1    3    3    0    0  0.38166627132E+02  0.41133233840E+02  0.36919682524E+03  0.37343798698E+03  0.10000000000E+01 0.  0.
<mgrwt>
<rscale>  0 0.12499926E+03</rscale>
<asrwt>0</asrwt>
<pdfrwt beam="2">  1        4 0.45308639E-03 0.12499926E+03</pdfrwt>
<pdfrwt beam="1">  1       -4 0.20405496E+00 0.12499926E+03</pdfrwt>
<totfact> 0.21547672E+03</totfact>
</mgrwt>
</event>
<event>
 5    1  0.3241863E-002  0.1250012E+03  0.7818608E-02  0.1235067E+00
         -4   -1    0    0    0  501 -0.00000000000E+00  0.00000000000E+00  0.12556978911E+02  0.12621038760E+02  0.12700000000E+01 0.  1.
          4   -1    0    0  501    0  0.00000000000E+00 -0.00000000000E+00 -0.31023112295E+03  0.31023372245E+03  0.12700000000E+01 0.  1.
         25    2    1    2    0    0  0.00000000000E+00  0.00000000000E+00 -0.29767414404E+03  0.32285476121E+03  0.12500120323E+03 0.  0.
    9000005    1    3    3    0    0  0.38223701706E+02  0.45098853843E+02 -0.20115846873E+03  0.20966804128E+03  0.10000000000E+01 0.  0.
    9000005    1    3    3    0    0 -0.38223701706E+02 -0.45098853843E+02 -0.96515675306E+02  0.11318671994E+03  0.10000000000E+01 0.  0.
<mgrwt>
<rscale>  0 0.12500120E+03</rscale>
<asrwt>0</asrwt>
<pdfrwt beam="2">  1        4 0.47732987E-01 0.12500120E+03</pdfrwt>
<pdfrwt beam="1">  1       -4 0.19369708E-02 0.12500120E+03</pdfrwt>
<totfact> 0.72815931E+03</totfact>
</mgrwt>
</event>
<event>
 5    1  0.3241863E-002  0.1250023E+03  0.7818608E-02  0.1235066E+00
         -4   -1    0    0    0  501 -0.00000000000E+00  0.00000000000E+00  0.20924883164E+03  0.20925268563E+03  0.12700000000E+01 0. -1.
          4   -1    0    0  501    0  0.00000000000E+00 -0.00000000000E+00 -0.18643021265E+02  0.18686228669E+02  0.12700000000E+01 0. -1.
         25    2    1    2    0    0  0.00000000000E+00  0.00000000000E+00  0.19060581037E+03  0.22793891430E+03  0.12500229479E+03 0.  0.
    9000005    1    3    3    0    0 -0.26750542499E+02  0.41837973856E+02  0.16448426645E+03  0.17181991006E+03  0.10000000000E+01 0.  0.
    9000005    1    3    3    0    0  0.26750542499E+02 -0.41837973856E+02  0.26121543920E+02  0.56119004242E+02  0.10000000000E+01 0.  0.
<mgrwt>
<rscale>  0 0.12500229E+03</rscale>
<asrwt>0</asrwt>
<pdfrwt beam="2">  1        4 0.28717773E-02 0.12500229E+03</pdfrwt>
<pdfrwt beam="1">  1       -4 0.32195747E-01 0.12500229E+03</pdfrwt>
<totfact> 0.85622702E+03</totfact>
</mgrwt>
</event>
<event>
 5    1  0.3241863E-002  0.1249978E+03  0.7818608E-02  0.1235073E+00
          4   -1    0    0  501    0  0.00000000000E+00  0.00000000000E+00  0.89618755805E+01  0.90514150231E+01  0.12700000000E+01 0.  1.
         -4   -1    0    0    0  501 -0.00000000000E+00 -0.00000000000E+00 -0.43360181766E+03  0.43360367755E+03  0.12700000000E+01 0.  1.
         25    2    1    2    0    0  0.00000000000E+00  0.00000000000E+00 -0.42463994208E+03  0.44265509257E+03  0.12499780224E+03 0.  0.
    9000005    1    3    3    0    0 -0.55629432384E+02  0.24384475854E+01 -0.31276651143E+03  0.31768611938E+03  0.10000000000E+01 0.  0.
    9000005    1    3    3    0    0  0.55629432384E+02 -0.24384475854E+01 -0.11187343065E+03  0.12496897319E+03  0.10000000000E+01 0.  0.
<mgrwt>
<rscale>  0 0.12499780E+03</rscale>
<asrwt>0</asrwt>
<pdfrwt beam="1">  1        4 0.13857811E-02 0.12499780E+03</pdfrwt>
<pdfrwt beam="2">  1       -4 0.66714986E-01 0.12499780E+03</pdfrwt>
<totfact> 0.60608341E+03</totfact>
</mgrwt>
</event>
<event>
 5    1  0.3241863E-002  0.1249980E+03  0.7818608E-02  0.1235072E+00
          4   -1    0    0  501    0  0.00000000000E+00  0.00000000000E+00  0.17820468166E+02  0.17865664993E+02  0.12700000000E+01 0. -1.
         -4   -1    0    0    0  501 -0.00000000000E+00 -0.00000000000E+00 -0.21886850818E+03  0.21887219278E+03  0.12700000000E+01 0. -1.
         25    2    1    2    0    0  0.00000000000E+00  0.00000000000E+00 -0.20104804001E+03  0.23673785777E+03  0.12499799562E+03 0.  0.
    9000005    1    3    3    0    0 -0.52569701217E+02 -0.12476942511E+02 -0.15999102472E+03  0.16887088432E+03  0.10000000000E+01 0.  0.
    9000005    1    3    3    0    0  0.52569701217E+02  0.12476942511E+02 -0.41057015289E+02  0.67866973448E+02  0.10000000000E+01 0.  0.
<mgrwt>
<rscale>  0 0.12499800E+03</rscale>
<asrwt>0</asrwt>
<pdfrwt beam="1">  1        4 0.27453707E-02 0.12499800E+03</pdfrwt>
<pdfrwt beam="2">  1       -4 0.33675837E-01 0.12499800E+03</pdfrwt>
<totfact> 0.84289385E+03</totfact>
</mgrwt>
</event>
<event>
 5    1  0.3241863E-002  0.1250276E+03  0.7818608E-02  0.1235026E+00
          4   -1    0    0  501    0  0.00000000000E+00  0.00000000000E+00  0.99828712615E+01  0.10063330394E+02  0.12700000000E+01 0.  1.
         -4   -1    0    0    0  501 -0.00000000000E+00 -0.00000000000E+00 -0.38981525600E+03  0.38981732480E+03  0.12700000000E+01 0.  1.
         25    2    1    2    0    0  0.00000000000E+00  0.00000000000E+00 -0.37983238474E+03  0.39988065519E+03  0.12502758855E+03 0.  0.
    9000005    1    3    3    0    0 -0.45301924877E+02 -0.38749855039E+02 -0.12981133603E+03  0.14284886637E+03  0.10000000000E+01 0.  0.
    9000005    1    3    3    0    0  0.45301924877E+02  0.38749855039E+02 -0.25002104871E+03  0.25703178882E+03  0.10000000000E+01 0.  0.
<mgrwt>
<rscale>  0 0.12502759E+03</rscale>
<asrwt>0</asrwt>
<pdfrwt beam="1">  1        4 0.15421750E-02 0.12502759E+03</pdfrwt>
<pdfrwt beam="2">  1       -4 0.59977914E-01 0.12502759E+03</pdfrwt>
<totfact> 0.64525095E+03</totfact>
</mgrwt>
</event>
<event>
 5    1  0.3241863E-002  0.1249967E+03  0.7818608E-02  0.1235075E+00
         -4   -1    0    0    0  501 -0.00000000000E+00  0.00000000000E+00  0.32583920706E+01  0.34971443902E+01  0.12700000000E+01 0.  1.
          4   -1    0    0  501    0  0.00000000000E+00 -0.00000000000E+00 -0.11561578123E+04  0.11561585098E+04  0.12700000000E+01 0.  1.
         25    2    1    2    0    0  0.00000000000E+00  0.00000000000E+00 -0.11528994202E+04  0.11596556542E+04  0.12499665271E+03 0.  0.
    9000005    1    3    3    0    0  0.20248410332E+02 -0.12826922245E+02 -0.41040033021E+02  0.47537483795E+02  0.10000000000E+01 0.  0.
    9000005    1    3    3    0    0 -0.20248410332E+02  0.12826922245E+02 -0.11118593872E+04  0.11121181704E+04  0.10000000000E+01 0.  0.
<mgrwt>
<rscale>  0 0.12499665E+03</rscale>
<asrwt>0</asrwt>
<pdfrwt beam="2">  1        4 0.17788854E+00 0.12499665E+03</pdfrwt>
<pdfrwt beam="1">  1       -4 0.51971123E-03 0.12499665E+03</pdfrwt>
<totfact> 0.25795778E+03</totfact>
</mgrwt>
</event>
<event>
 5    1  0.3241863E-002  0.1249976E+03  0.7818608E-02  0.1235073E+00
          4   -1    0    0  501    0  0.00000000000E+00  0.00000000000E+00  0.43539633636E+02  0.43558151903E+02  0.12700000000E+01 0.  1.
         -4   -1    0    0    0  501 -0.00000000000E+00 -0.00000000000E+00 -0.89671539362E+02  0.89680532289E+02  0.12700000000E+01 0.  1.
         25    2    1    2    0    0  0.00000000000E+00  0.00000000000E+00 -0.46131905726E+02  0.13323868419E+03  0.12499757693E+03 0.  0.
    9000005    1    3    3    0    0  0.57014680235E+02  0.21534552262E+02 -0.83465477227E+01  0.61522967763E+02  0.10000000000E+01 0.  0.
    9000005    1    3    3    0    0 -0.57014680235E+02 -0.21534552262E+02 -0.37785358003E+02  0.71715716429E+02  0.10000000000E+01 0.  0.
<mgrwt>
<rscale>  0 0.12499758E+03</rscale>
<asrwt>0</asrwt>
<pdfrwt beam="1">  1        4 0.67005214E-02 0.12499758E+03</pdfrwt>
<pdfrwt beam="2">  1       -4 0.13797738E-01 0.12499758E+03</pdfrwt>
<totfact> 0.10275891E+04</totfact>
</mgrwt>
</event>
<event>
 5    1  0.3241863E-002  0.1249967E+03  0.7818608E-02  0.1235074E+00
          4   -1    0    0  501    0  0.00000000000E+00  0.00000000000E+00  0.41430726591E+02  0.41450187042E+02  0.12700000000E+01 0. -1.
         -4   -1    0    0    0  501 -0.00000000000E+00 -0.00000000000E+00 -0.94233005092E+02  0.94241562746E+02  0.12700000000E+01 0. -1.
         25    2    1    2    0    0  0.00000000000E+00  0.00000000000E+00 -0.52802278501E+02  0.13569174979E+03  0.12499668134E+03 0.  0.
    9000005    1    3    3    0    0 -0.33550655690E+02 -0.39185624259E+02 -0.64687555445E+02  0.82744422624E+02  0.10000000000E+01 0.  0.
    9000005    1    3    3    0    0  0.33550655690E+02  0.39185624259E+02  0.11885276944E+02  0.52947327165E+02  0.10000000000E+01 0.  0.
<mgrwt>
<rscale>  0 0.12499668E+03</rscale>
<asrwt>0</asrwt>
<pdfrwt beam="1">  1        4 0.63761132E-02 0.12499668E+03</pdfrwt>
<pdfrwt beam="2">  1       -4 0.14499541E-01 0.12499668E+03</pdfrwt>
<totfact> 0.10224276E+04</totfact>
</mgrwt>
</event>
<event>
 5    1  0.3241863E-002  0.1249965E+03  0.7818608E-02  0.1235075E+00
         -4   -1    0    0    0  501 -0.00000000000E+00  0.00000000000E+00  0.10084589076E+03  0.10085388730E+03  0.12700000000E+01 0. -1.
          4   -1    0    0  501    0  0.00000000000E+00 -0.00000000000E+00 -0.38712700198E+02  0.38733526261E+02  0.12700000000E+01 0. -1.
         25    2    1    2    0    0  0.00000000000E+00  0.00000000000E+00  0.62133190559E+02  0.13958741356E+03  0.12499645057E+03 0.  0.
    9000005    1    3    3    0    0  0.13864282949E+02  0.11501281628E+02  0.97889024335E+02  0.99537726044E+02  0.10000000000E+01 0.  0.
    9000005    1    3    3    0    0 -0.13864282949E+02 -0.11501281628E+02 -0.35755833776E+02  0.40049687512E+02  0.10000000000E+01 0.  0.
<mgrwt>
<rscale>  0 0.12499645E+03</rscale>
<asrwt>0</asrwt>
<pdfrwt beam="2">  1        4 0.59580172E-02 0.12499645E+03</pdfrwt>
<pdfrwt beam="1">  1       -4 0.15516969E-01 0.12499645E+03</pdfrwt>
<totfact> 0.10142955E+04</totfact>
</mgrwt>
</event>
<event>
 5    1  0.3241863E-002  0.1249952E+03  0.7818608E-02  0.1235077E+00
          4   -1    0    0  501    0  0.00000000000E+00  0.00000000000E+00  0.11548574386E+03  0.11549272676E+03  0.12700000000E+01 0. -1.
         -4   -1    0    0    0  501 -0.00000000000E+00 -0.00000000000E+00 -0.33801976930E+02  0.33825826588E+02  0.12700000000E+01 0. -1.
         25    2    1    2    0    0  0.00000000000E+00  0.00000000000E+00  0.81683766932E+02  0.14931855335E+03  0.12499517029E+03 0.  0.
    9000005    1    3    3    0    0 -0.55778724157E+02  0.41109314135E+01  0.75475589603E+01  0.56445827764E+02  0.10000000000E+01 0.  0.
    9000005    1    3    3    0    0  0.55778724157E+02 -0.41109314135E+01  0.74136207971E+02  0.92872725587E+02  0.10000000000E+01 0.  0.
<mgrwt>
<rscale>  0 0.12499517E+03</rscale>
<asrwt>0</asrwt>
<pdfrwt beam="1">  1        4 0.17769409E-01 0.12499517E+03</pdfrwt>
<pdfrwt beam="2">  1       -4 0.52026760E-02 0.12499517E+03</pdfrwt>
<totfact> 0.99450518E+03</totfact>
</mgrwt>
</event>
<event>
 5    1  0.3241863E-002  0.1250008E+03  0.7818608E-02  0.1235068E+00
         -4   -1    0    0    0  501 -0.00000000000E+00  0.00000000000E+00  0.47537505273E+01  0.49204719362E+01  0.12700000000E+01 0.  1.
          4   -1    0    0  501    0  0.00000000000E+00 -0.00000000000E+00 -0.80740129162E+03  0.80740229044E+03  0.12700000000E+01 0.  1.
         25    2    1    2    0    0  0.00000000000E+00  0.00000000000E+00 -0.80264754109E+03  0.81232276238E+03  0.12500078021E+03 0.  0.
    9000005    1    3    3    0    0  0.56525730370E+02 -0.25264728052E+02 -0.34624538715E+03  0.35173901234E+03  0.10000000000E+01 0.  0.
    9000005    1    3    3    0    0 -0.56525730370E+02  0.25264728052E+02 -0.45640215395E+03  0.46058375004E+03  0.10000000000E+01 0.  0.
<mgrwt>
<rscale>  0 0.12500078E+03</rscale>
<asrwt>0</asrwt>
<pdfrwt beam="2">  1        4 0.12422838E+00 0.12500078E+03</pdfrwt>
<pdfrwt beam="1">  1       -4 0.74424843E-03 0.12500078E+03</pdfrwt>
<totfact> 0.37719879E+03</totfact>
</mgrwt>
</event>
<event>
 5    1  0.3241863E-002  0.1250008E+03  0.7818608E-02  0.1235068E+00
         -4   -1    0    0    0  501 -0.00000000000E+00  0.00000000000E+00  0.25021065544E+02  0.25053275653E+02  0.12700000000E+01 0.  1.
          4   -1    0    0  501    0  0.00000000000E+00 -0.00000000000E+00 -0.15598519365E+03  0.15599036360E+03  0.12700000000E+01 0.  1.
         25    2    1    2    0    0  0.00000000000E+00  0.00000000000E+00 -0.13096412810E+03  0.18104363926E+03  0.12500078586E+03 0.  0.
    9000005    1    3    3    0    0 -0.45743824450E+02 -0.40418918838E+02 -0.46098499433E+02  0.76500053107E+02  0.10000000000E+01 0.  0.
    9000005    1    3    3    0    0  0.45743824450E+02  0.40418918838E+02 -0.84865628669E+02  0.10454358615E+03  0.10000000000E+01 0.  0.
<mgrwt>
<rscale>  0 0.12500079E+03</rscale>
<asrwt>0</asrwt>
<pdfrwt beam="2">  1        4 0.24000597E-01 0.12500079E+03</pdfrwt>
<pdfrwt beam="1">  1       -4 0.38522702E-02 0.12500079E+03</pdfrwt>
<totfact> 0.93427836E+03</totfact>
</mgrwt>
</event>
<event>
 5    1  0.3241863E-002  0.1249782E+03  0.7818608E-02  0.1235103E+00
         -4   -1    0    0    0  501 -0.00000000000E+00  0.00000000000E+00  0.57027244609E+01  0.58424281148E+01  0.12700000000E+01 0.  1.
          4   -1    0    0  501    0  0.00000000000E+00 -0.00000000000E+00 -0.67631495564E+03  0.67631614806E+03  0.12700000000E+01 0.  1.
         25    2    1    2    0    0  0.00000000000E+00  0.00000000000E+00 -0.67061223118E+03  0.68215857617E+03  0.12497823185E+03 0.  0.
    9000005    1    3    3    0    0  0.61721880925E+02 -0.34771068986E+01 -0.38479526563E+03  0.38973077541E+03  0.10000000000E+01 0.  0.
    9000005    1    3    3    0    0 -0.61721880925E+02  0.34771068986E+01 -0.28581696555E+03  0.29242780076E+03  0.10000000000E+01 0.  0.
<mgrwt>
<rscale>  0 0.12497823E+03</rscale>
<asrwt>0</asrwt>
<pdfrwt beam="2">  1        4 0.10405923E+00 0.12497823E+03</pdfrwt>
<pdfrwt beam="1">  1       -4 0.88818092E-03 0.12497823E+03</pdfrwt>
<totfact> 0.44066416E+03</totfact>
</mgrwt>
</event>
<event>
 5    1  0.3241863E-002  0.1249996E+03  0.7818608E-02  0.1235070E+00
         -4   -1    0    0    0  501 -0.00000000000E+00  0.00000000000E+00  0.53074310927E+03  0.53074462874E+03  0.12700000000E+01 0. -1.
          4   -1    0    0  501    0  0.00000000000E+00 -0.00000000000E+00 -0.73035855073E+01  0.74131815884E+01  0.12700000000E+01 0. -1.
         25    2    1    2    0    0  0.00000000000E+00  0.00000000000E+00  0.52343952376E+03  0.53815781033E+03  0.12499957513E+03 0.  0.
    9000005    1    3    3    0    0 -0.57297786002E+02 -0.78049323381E+01  0.36371669218E+03  0.36828628188E+03  0.10000000000E+01 0.  0.
    9000005    1    3    3    0    0  0.57297786002E+02  0.78049323381E+01  0.15972283158E+03  0.16987152845E+03  0.10000000000E+01 0.  0.
<mgrwt>
<rscale>  0 0.12499958E+03</rscale>
<asrwt>0</asrwt>
<pdfrwt beam="2">  1        4 0.11321760E-02 0.12499958E+03</pdfrwt>
<pdfrwt beam="1">  1       -4 0.81661327E-01 0.12499958E+03</pdfrwt>
<totfact> 0.53021244E+03</totfact>
</mgrwt>
</event>
<event>
 5    1  0.3241863E-002  0.1250086E+03  0.7818608E-02  0.1235056E+00
          4   -1    0    0  501    0  0.00000000000E+00  0.00000000000E+00  0.57883457954E+02  0.57897388583E+02  0.12700000000E+01 0. -1.
         -4   -1    0    0    0  501 -0.00000000000E+00 -0.00000000000E+00 -0.67466013809E+02  0.67477966176E+02  0.12700000000E+01 0. -1.
         25    2    1    2    0    0  0.00000000000E+00  0.00000000000E+00 -0.95825558546E+01  0.12537535476E+03  0.12500861652E+03 0.  0.
    9000005    1    3    3    0    0 -0.48555257945E+02 -0.32662267938E+02 -0.26795372083E+02  0.64369470916E+02  0.10000000000E+01 0.  0.
    9000005    1    3    3    0    0  0.48555257945E+02  0.32662267938E+02  0.17212816228E+02  0.61005883843E+02  0.10000000000E+01 0.  0.
<mgrwt>
<rscale>  0 0.12500862E+03</rscale>
<asrwt>0</asrwt>
<pdfrwt beam="1">  1        4 0.89071384E-02 0.12500862E+03</pdfrwt>
<pdfrwt beam="2">  1       -4 0.10381378E-01 0.12500862E+03</pdfrwt>
<totfact> 0.10442682E+04</totfact>
</mgrwt>
</event>
<event>
 4    1  0.3241863E-002  0.1249198E+03  0.7818608E-02  0.1235195E+00
          4   -1    0    0  501    0  0.00000000000E+00  0.00000000000E+00  0.12090258177E+01  0.17534661183E+01  0.12700000000E+01 0. -1.
         -4   -1    0    0    0  501 -0.00000000000E+00 -0.00000000000E+00 -0.26332106831E+04  0.26332109894E+04  0.12700000000E+01 0. -1.
    9000005    1    1    2    0    0  0.10465541824E+02  0.29104518160E+01 -0.26132340727E+04  0.26132568410E+04  0.10000000000E+01 0.  0.
    9000005    1    1    2    0    0 -0.10465541824E+02 -0.29104518160E+01 -0.18767584576E+02  0.21707614476E+02  0.10000000000E+01 0.  0.
<mgrwt>
<rscale>  0 0.12491981E+03</rscale>
<asrwt>0</asrwt>
<pdfrwt beam="1">  1        4 0.22790966E-03 0.12491981E+03</pdfrwt>
<pdfrwt beam="2">  1       -4 0.40514749E+00 0.12491981E+03</pdfrwt>
<totfact> 0.37004455E+02</totfact>
</mgrwt>
</event>
<event>
 5    1  0.3241863E-002  0.1250012E+03  0.7818608E-02  0.1235067E+00
          4   -1    0    0  501    0  0.00000000000E+00  0.00000000000E+00  0.92092015914E+01  0.92963591772E+01  0.12700000000E+01 0.  1.
         -4   -1    0    0    0  501 -0.00000000000E+00 -0.00000000000E+00 -0.42209061584E+03  0.42209252644E+03  0.12700000000E+01 0.  1.
         25    2    1    2    0    0  0.00000000000E+00  0.00000000000E+00 -0.41288141424E+03  0.43138888562E+03  0.12500123362E+03 0.  0.
    9000005    1    3    3    0    0 -0.13844866597E+02 -0.37091467828E+02 -0.37330553764E+03  0.37540042854E+03  0.10000000000E+01 0.  0.
    9000005    1    3    3    0    0  0.13844866597E+02  0.37091467828E+02 -0.39575876606E+02  0.55988457077E+02  0.10000000000E+01 0.  0.
<mgrwt>
<rscale>  0 0.12500123E+03</rscale>
<asrwt>0</asrwt>
<pdfrwt beam="1">  1        4 0.14236520E-02 0.12500123E+03</pdfrwt>
<pdfrwt beam="2">  1       -4 0.64943854E-01 0.12500123E+03</pdfrwt>
<totfact> 0.61608630E+03</totfact>
</mgrwt>
</event>
<event>
 5    1  0.3241863E-002  0.1250052E+03  0.7818608E-02  0.1235061E+00
          4   -1    0    0  501    0  0.00000000000E+00  0.00000000000E+00  0.14976360187E+03  0.14976898660E+03  0.12700000000E+01 0. -1.
         -4   -1    0    0    0  501 -0.00000000000E+00 -0.00000000000E+00 -0.26063610698E+02  0.26094533961E+02  0.12700000000E+01 0. -1.
         25    2    1    2    0    0  0.00000000000E+00  0.00000000000E+00  0.12369999117E+03  0.17586352056E+03  0.12500516008E+03 0.  0.
    9000005    1    3    3    0    0  0.27665668251E+02  0.16998660019E+02  0.13697142830E+03  0.14077114695E+03  0.10000000000E+01 0.  0.
    9000005    1    3    3    0    0 -0.27665668251E+02 -0.16998660019E+02 -0.13271437125E+02  0.35092373610E+02  0.10000000000E+01 0.  0.
<mgrwt>
<rscale>  0 0.12500516E+03</rscale>
<asrwt>0</asrwt>
<pdfrwt beam="1">  1        4 0.23043347E-01 0.12500516E+03</pdfrwt>
<pdfrwt beam="2">  1       -4 0.40125792E-02 0.12500516E+03</pdfrwt>
<totfact> 0.94356004E+03</totfact>
</mgrwt>
</event>
<event>
 5    1  0.3241863E-002  0.1249983E+03  0.7818608E-02  0.1235072E+00
         -4   -1    0    0    0  501 -0.00000000000E+00  0.00000000000E+00  0.91082592909E+03  0.91082681450E+03  0.12700000000E+01 0. -1.
          4   -1    0    0  501    0  0.00000000000E+00 -0.00000000000E+00 -0.41936400864E+01  0.43817253650E+01  0.12700000000E+01 0. -1.
         25    2    1    2    0    0  0.00000000000E+00  0.00000000000E+00  0.90663228900E+03  0.91520853986E+03  0.12499825586E+03 0.  0.
    9000005    1    3    3    0    0  0.41032096795E+02 -0.46851572073E+02  0.49096330352E+03  0.49489864435E+03  0.10000000000E+01 0.  0.
    9000005    1    3    3    0    0 -0.41032096795E+02  0.46851572073E+02  0.41566898548E+03  0.42030989551E+03  0.10000000000E+01 0.  0.
<mgrwt>
<rscale>  0 0.12499826E+03</rscale>
<asrwt>0</asrwt>
<pdfrwt beam="2">  1        4 0.65971114E-03 0.12499826E+03</pdfrwt>
<pdfrwt beam="1">  1       -4 0.14014170E+00 0.12499826E+03</pdfrwt>
<totfact> 0.33585480E+03</totfact>
</mgrwt>
</event>
<event>
 5    1  0.3241863E-002  0.1250092E+03  0.7818608E-02  0.1235055E+00
         -4   -1    0    0    0  501 -0.00000000000E+00  0.00000000000E+00  0.15581559970E+02  0.15633230987E+02  0.12700000000E+01 0.  1.
          4   -1    0    0  501    0  0.00000000000E+00 -0.00000000000E+00 -0.25026570641E+03  0.25026892876E+03  0.12700000000E+01 0.  1.
         25    2    1    2    0    0  0.00000000000E+00  0.00000000000E+00 -0.23468414644E+03  0.26590215975E+03  0.12500923954E+03 0.  0.
    9000005    1    3    3    0    0 -0.54946653629E+02 -0.29221822307E+02 -0.12951990508E+03  0.14369918391E+03  0.10000000000E+01 0.  0.
    9000005    1    3    3    0    0  0.54946653629E+02  0.29221822307E+02 -0.10516424135E+03  0.12220297584E+03  0.10000000000E+01 0.  0.
<mgrwt>
<rscale>  0 0.12500924E+03</rscale>
<asrwt>0</asrwt>
<pdfrwt beam="2">  1        4 0.38506636E-01 0.12500924E+03</pdfrwt>
<pdfrwt beam="1">  1       -4 0.24013858E-02 0.12500924E+03</pdfrwt>
<totfact> 0.80068385E+03</totfact>
</mgrwt>
</event>
<event>
 5    1  0.3241863E-002  0.1250011E+03  0.7818608E-02  0.1235067E+00
         -4   -1    0    0    0  501 -0.00000000000E+00  0.00000000000E+00  0.10476065158E+03  0.10476834932E+03  0.12700000000E+01 0.  1.
          4   -1    0    0  501    0  0.00000000000E+00 -0.00000000000E+00 -0.37268176593E+02  0.37289809420E+02  0.12700000000E+01 0.  1.
         25    2    1    2    0    0  0.00000000000E+00  0.00000000000E+00  0.67492474987E+02  0.14205815874E+03  0.12500114513E+03 0.  0.
    9000005    1    3    3    0    0  0.20811706558E+02  0.21475137518E+02 -0.28614105978E+02  0.41401397587E+02  0.10000000000E+01 0.  0.
    9000005    1    3    3    0    0 -0.20811706558E+02 -0.21475137518E+02  0.96106580965E+02  0.10065676115E+03  0.10000000000E+01 0.  0.
<mgrwt>
<rscale>  0 0.12500115E+03</rscale>
<asrwt>0</asrwt>
<pdfrwt beam="2">  1        4 0.57358219E-02 0.12500115E+03</pdfrwt>
<pdfrwt beam="1">  1       -4 0.16119279E-01 0.12500115E+03</pdfrwt>
<totfact> 0.10090846E+04</totfact>
</mgrwt>
</event>
<event>
 5    1  0.3241863E-002  0.1249954E+03  0.7818608E-02  0.1235076E+00
          4   -1    0    0  501    0  0.00000000000E+00  0.00000000000E+00  0.19637483487E+02  0.19678507507E+02  0.12700000000E+01 0. -1.
         -4   -1    0    0    0  501 -0.00000000000E+00 -0.00000000000E+00 -0.19865291388E+03  0.19865697343E+03  0.12700000000E+01 0. -1.
         25    2    1    2    0    0  0.00000000000E+00  0.00000000000E+00 -0.17901543040E+03  0.21833548094E+03  0.12499543159E+03 0.  0.
    9000005    1    3    3    0    0  0.42984335237E+02  0.32383426101E+02 -0.34033001916E+02  0.63683471806E+02  0.10000000000E+01 0.  0.
    9000005    1    3    3    0    0 -0.42984335237E+02 -0.32383426101E+02 -0.14498242848E+03  0.15465200914E+03  0.10000000000E+01 0.  0.
<mgrwt>
<rscale>  0 0.12499543E+03</rscale>
<asrwt>0</asrwt>
<pdfrwt beam="1">  1        4 0.30246194E-02 0.12499543E+03</pdfrwt>
<pdfrwt beam="2">  1       -4 0.30565453E-01 0.12499543E+03</pdfrwt>
<totfact> 0.87141319E+03</totfact>
</mgrwt>
</event>
<event>
 5    1  0.3241863E-002  0.1250003E+03  0.7818608E-02  0.1235069E+00
         -4   -1    0    0    0  501 -0.00000000000E+00  0.00000000000E+00  0.48194283626E+01  0.49839532243E+01  0.12700000000E+01 0.  1.
          4   -1    0    0  501    0  0.00000000000E+00 -0.00000000000E+00 -0.79675758372E+03  0.79675859589E+03  0.12700000000E+01 0.  1.
         25    2    1    2    0    0  0.00000000000E+00  0.00000000000E+00 -0.79193815536E+03  0.80174254911E+03  0.12500029256E+03 0.  0.
    9000005    1    3    3    0    0  0.46582809640E+02  0.13221944754E+02 -0.14259951552E+03  0.15060013215E+03  0.10000000000E+01 0.  0.
    9000005    1    3    3    0    0 -0.46582809640E+02 -0.13221944754E+02 -0.64933863984E+03  0.65114241696E+03  0.10000000000E+01 0.  0.
<mgrwt>
<rscale>  0 0.12500029E+03</rscale>
<asrwt>0</asrwt>
<pdfrwt beam="2">  1        4 0.12259072E+00 0.12500029E+03</pdfrwt>
<pdfrwt beam="1">  1       -4 0.75418477E-03 0.12500029E+03</pdfrwt>
<totfact> 0.38186835E+03</totfact>
</mgrwt>
</event>
<event>
 5    1  0.3241863E-002  0.1249896E+03  0.7818608E-02  0.1235086E+00
          4   -1    0    0  501    0  0.00000000000E+00  0.00000000000E+00  0.99639943273E+03  0.99640024209E+03  0.12700000000E+01 0. -1.
         -4   -1    0    0    0  501 -0.00000000000E+00 -0.00000000000E+00 -0.38160074927E+01  0.40217922851E+01  0.12700000000E+01 0. -1.
         25    2    1    2    0    0  0.00000000000E+00  0.00000000000E+00  0.99258342524E+03  0.10004220344E+04  0.12498956282E+03 0.  0.
    9000005    1    3    3    0    0 -0.73126424955E+01  0.40451251794E+02  0.11960644194E+03  0.12647718951E+03  0.10000000000E+01 0.  0.
    9000005    1    3    3    0    0  0.73126424955E+01 -0.40451251794E+02  0.87297698329E+03  0.87394484487E+03  0.10000000000E+01 0.  0.
<mgrwt>
<rscale>  0 0.12498956E+03</rscale>
<asrwt>0</asrwt>
<pdfrwt beam="1">  1        4 0.15330814E+00 0.12498956E+03</pdfrwt>
<pdfrwt beam="2">  1       -4 0.60296984E-03 0.12498956E+03</pdfrwt>
<totfact> 0.30597512E+03</totfact>
</mgrwt>
</event>
<event>
 5    1  0.3241863E-002  0.1249979E+03  0.7818608E-02  0.1235073E+00
          4   -1    0    0  501    0  0.00000000000E+00  0.00000000000E+00  0.28617946452E+03  0.28618228249E+03  0.12700000000E+01 0.  1.
         -4   -1    0    0    0  501 -0.00000000000E+00 -0.00000000000E+00 -0.13616764889E+02  0.13675861437E+02  0.12700000000E+01 0.  1.
         25    2    1    2    0    0  0.00000000000E+00  0.00000000000E+00  0.27256269963E+03  0.29985814393E+03  0.12499792499E+03 0.  0.
    9000005    1    3    3    0    0  0.28169333862E+02  0.41816502364E+01  0.26972005339E+03  0.27122113629E+03  0.10000000000E+01 0.  0.
    9000005    1    3    3    0    0 -0.28169333862E+02 -0.41816502364E+01  0.28426462394E+01  0.28637007640E+02  0.10000000000E+01 0.  0.
<mgrwt>
<rscale>  0 0.12499792E+03</rscale>
<asrwt>0</asrwt>
<pdfrwt beam="1">  1        4 0.44032371E-01 0.12499792E+03</pdfrwt>
<pdfrwt beam="2">  1       -4 0.20996497E-02 0.12499792E+03</pdfrwt>
<totfact> 0.75620120E+03</totfact>
</mgrwt>
</event>
<event>
 5    1  0.3241863E-002  0.1250418E+03  0.7818608E-02  0.1235004E+00
          4   -1    0    0  501    0  0.00000000000E+00  0.00000000000E+00  0.21598598811E+02  0.21635904663E+02  0.12700000000E+01 0. -1.
         -4   -1    0    0    0  501 -0.00000000000E+00 -0.00000000000E+00 -0.18078184119E+03  0.18078630204E+03  0.12700000000E+01 0. -1.
         25    2    1    2    0    0  0.00000000000E+00  0.00000000000E+00 -0.15918324238E+03  0.20242220670E+03  0.12504177346E+03 0.  0.
    9000005    1    3    3    0    0 -0.61304166336E+02  0.11854255654E+02 -0.74698263138E+02  0.97363004796E+02  0.10000000000E+01 0.  0.
    9000005    1    3    3    0    0  0.61304166336E+02 -0.11854255654E+02 -0.84484979246E+02  0.10505920191E+03  0.10000000000E+01 0.  0.
<mgrwt>
<rscale>  0 0.12504177E+03</rscale>
<asrwt>0</asrwt>
<pdfrwt beam="1">  1        4 0.33260743E-02 0.12504177E+03</pdfrwt>
<pdfrwt beam="2">  1       -4 0.27815803E-01 0.12504177E+03</pdfrwt>
<totfact> 0.89644779E+03</totfact>
</mgrwt>
</event>
<event>
 5    1  0.3241863E-002  0.1250092E+03  0.7818608E-02  0.1235055E+00
         -4   -1    0    0    0  501 -0.00000000000E+00  0.00000000000E+00  0.34780350416E+03  0.34780582284E+03  0.12700000000E+01 0. -1.
          4   -1    0    0  501    0  0.00000000000E+00 -0.00000000000E+00 -0.11194596011E+02  0.11266404922E+02  0.12700000000E+01 0. -1.
         25    2    1    2    0    0  0.00000000000E+00  0.00000000000E+00  0.33660890814E+03  0.35907222776E+03  0.12500923050E+03 0.  0.
    9000005    1    3    3    0    0 -0.43692712810E+02 -0.31617271756E+02  0.25900582723E+03  0.26456326949E+03  0.10000000000E+01 0.  0.
    9000005    1    3    3    0    0  0.43692712810E+02  0.31617271756E+02  0.77603080913E+02  0.94508958269E+02  0.10000000000E+01 0.  0.
<mgrwt>
<rscale>  0 0.12500923E+03</rscale>
<asrwt>0</asrwt>
<pdfrwt beam="2">  1        4 0.17279476E-02 0.12500923E+03</pdfrwt>
<pdfrwt beam="1">  1       -4 0.53513935E-01 0.12500923E+03</pdfrwt>
<totfact> 0.68723862E+03</totfact>
</mgrwt>
</event>
<event>
 5    1  0.3241863E-002  0.1249994E+03  0.7818608E-02  0.1235070E+00
          4   -1    0    0  501    0  0.00000000000E+00  0.00000000000E+00  0.17713726018E+03  0.17714181280E+03  0.12700000000E+01 0. -1.
         -4   -1    0    0    0  501 -0.00000000000E+00 -0.00000000000E+00 -0.22028781903E+02  0.22065360458E+02  0.12700000000E+01 0. -1.
         25    2    1    2    0    0  0.00000000000E+00  0.00000000000E+00  0.15510847827E+03  0.19920717326E+03  0.12499943138E+03 0.  0.
    9000005    1    3    3    0    0 -0.21525764748E+02 -0.38003210853E+02  0.14878252473E+03  0.15506399404E+03  0.10000000000E+01 0.  0.
    9000005    1    3    3    0    0  0.21525764748E+02  0.38003210853E+02  0.63259535419E+01  0.44143179217E+02  0.10000000000E+01 0.  0.
<mgrwt>
<rscale>  0 0.12499943E+03</rscale>
<asrwt>0</asrwt>
<pdfrwt beam="1">  1        4 0.27255051E-01 0.12499943E+03</pdfrwt>
<pdfrwt beam="2">  1       -4 0.33922072E-02 0.12499943E+03</pdfrwt>
<totfact> 0.90270543E+03</totfact>
</mgrwt>
</event>
<event>
 5    1  0.3241863E-002  0.1250006E+03  0.7818608E-02  0.1235068E+00
         -4   -1    0    0    0  501 -0.00000000000E+00  0.00000000000E+00  0.39578036986E+01  0.41565743247E+01  0.12700000000E+01 0.  1.
          4   -1    0    0  501    0  0.00000000000E+00 -0.00000000000E+00 -0.96260673503E+03  0.96260757281E+03  0.12700000000E+01 0.  1.
         25    2    1    2    0    0  0.00000000000E+00  0.00000000000E+00 -0.95864893133E+03  0.96676414713E+03  0.12500057054E+03 0.  0.
    9000005    1    3    3    0    0  0.50173893696E+02 -0.37249529353E+02 -0.47482396749E+03  0.47891935349E+03  0.10000000000E+01 0.  0.
    9000005    1    3    3    0    0 -0.50173893696E+02  0.37249529353E+02 -0.48382496384E+03  0.48784479364E+03  0.10000000000E+01 0.  0.
<mgrwt>
<rscale>  0 0.12500057E+03</rscale>
<asrwt>0</asrwt>
<pdfrwt beam="2">  1        4 0.14810852E+00 0.12500057E+03</pdfrwt>
<pdfrwt beam="1">  1       -4 0.62424814E-03 0.12500057E+03</pdfrwt>
<totfact> 0.31727801E+03</totfact>
</mgrwt>
</event>
<event>
 5    1  0.3241863E-002  0.1249945E+03  0.7818608E-02  0.1235078E+00
         -4   -1    0    0    0  501 -0.00000000000E+00  0.00000000000E+00  0.13301448605E+04  0.13301454668E+04  0.12700000000E+01 0.  1.
          4   -1    0    0  501    0  0.00000000000E+00 -0.00000000000E+00 -0.27984999478E+01  0.30731908431E+01  0.12700000000E+01 0.  1.
         25    2    1    2    0    0  0.00000000000E+00  0.00000000000E+00  0.13273463605E+04  0.13332186576E+04  0.12499451261E+03 0.  0.
    9000005    1    3    3    0    0  0.40059660108E+02 -0.18406410450E+01  0.11748446535E+04  0.11755292954E+04  0.10000000000E+01 0.  0.
    9000005    1    3    3    0    0 -0.40059660108E+02  0.18406410450E+01  0.15250170700E+03  0.15768936224E+03  0.10000000000E+01 0.  0.
<mgrwt>
<rscale>  0 0.12499451E+03</rscale>
<asrwt>0</asrwt>
<pdfrwt beam="2">  1        4 0.45171379E-03 0.12499451E+03</pdfrwt>
<pdfrwt beam="1">  1       -4 0.20465947E+00 0.12499451E+03</pdfrwt>
<totfact> 0.21460294E+03</totfact>
</mgrwt>
</event>
<event>
 5    1  0.3241863E-002  0.1249906E+03  0.7818608E-02  0.1235084E+00
         -4   -1    0    0    0  501 -0.00000000000E+00  0.00000000000E+00  0.25178507017E+02  0.25210515972E+02  0.12700000000E+01 0.  1.
          4   -1    0    0  501    0  0.00000000000E+00 -0.00000000000E+00 -0.15498567326E+03  0.15499087656E+03  0.12700000000E+01 0.  1.
         25    2    1    2    0    0  0.00000000000E+00  0.00000000000E+00 -0.12980716624E+03  0.18020139253E+03  0.12499056549E+03 0.  0.
    9000005    1    3    3    0    0 -0.52258592189E+02  0.16246808656E+02 -0.10838861787E+03  0.12142492221E+03  0.10000000000E+01 0.  0.
    9000005    1    3    3    0    0  0.52258592189E+02 -0.16246808656E+02 -0.21418548371E+02  0.58776470321E+02  0.10000000000E+01 0.  0.
<mgrwt>
<rscale>  0 0.12499057E+03</rscale>
<asrwt>0</asrwt>
<pdfrwt beam="2">  1        4 0.23846812E-01 0.12499057E+03</pdfrwt>
<pdfrwt beam="1">  1       -4 0.38764790E-02 0.12499057E+03</pdfrwt>
<totfact> 0.93600563E+03</totfact>
</mgrwt>
</event>
<event>
 5    1  0.3241863E-002  0.1249981E+03  0.7818608E-02  0.1235072E+00
         -4   -1    0    0    0  501 -0.00000000000E+00  0.00000000000E+00  0.38166659846E+03  0.38166871142E+03  0.12700000000E+01 0.  1.
          4   -1    0    0  501    0  0.00000000000E+00 -0.00000000000E+00 -0.10192857552E+02  0.10271671971E+02  0.12700000000E+01 0.  1.
         25    2    1    2    0    0  0.00000000000E+00  0.00000000000E+00  0.37147374091E+03  0.39194038339E+03  0.12499809579E+03 0.  0.
    9000005    1    3    3    0    0 -0.34527911890E+02 -0.15295070165E+02  0.34185602963E+03  0.34393700130E+03  0.10000000000E+01 0.  0.
    9000005    1    3    3    0    0  0.34527911890E+02  0.15295070165E+02  0.29617711276E+02  0.48003382090E+02  0.10000000000E+01 0.  0.
<mgrwt>
<rscale>  0 0.12499810E+03</rscale>
<asrwt>0</asrwt>
<pdfrwt beam="2">  1        4 0.15743573E-02 0.12499810E+03</pdfrwt>
<pdfrwt beam="1">  1       -4 0.58724158E-01 0.12499810E+03</pdfrwt>
<totfact> 0.65347029E+03</totfact>
</mgrwt>
</event>
<event>
 5    1  0.3241863E-002  0.1250004E+03  0.7818608E-02  0.1235069E+00
         -4   -1    0    0    0  501 -0.00000000000E+00  0.00000000000E+00  0.33926334079E+01  0.36225490252E+01  0.12700000000E+01 0.  1.
          4   -1    0    0  501    0  0.00000000000E+00 -0.00000000000E+00 -0.11134324453E+04  0.11134331696E+04  0.12700000000E+01 0.  1.
         25    2    1    2    0    0  0.00000000000E+00  0.00000000000E+00 -0.11100398119E+04  0.11170557186E+04  0.12500037804E+03 0.  0.
    9000005    1    3    3    0    0  0.54637585984E+02 -0.67837106599E+01 -0.29082981969E+03  0.29599707524E+03  0.10000000000E+01 0.  0.
    9000005    1    3    3    0    0 -0.54637585984E+02  0.67837106599E+01 -0.81920999223E+03  0.82105864340E+03  0.10000000000E+01 0.  0.
<mgrwt>
<rscale>  0 0.12500038E+03</rscale>
<asrwt>0</asrwt>
<pdfrwt beam="2">  1        4 0.17131476E+00 0.12500038E+03</pdfrwt>
<pdfrwt beam="1">  1       -4 0.53968602E-03 0.12500038E+03</pdfrwt>
<totfact> 0.26989341E+03</totfact>
</mgrwt>
</event>
<event>
 5    1  0.3241863E-002  0.1249990E+03  0.7818608E-02  0.1235071E+00
         -4   -1    0    0    0  501 -0.00000000000E+00  0.00000000000E+00  0.18331727150E+02  0.18375666526E+02  0.12700000000E+01 0.  1.
          4   -1    0    0  501    0  0.00000000000E+00 -0.00000000000E+00 -0.21278253117E+03  0.21278632116E+03  0.12700000000E+01 0.  1.
         25    2    1    2    0    0  0.00000000000E+00  0.00000000000E+00 -0.19445080402E+03  0.23116198768E+03  0.12499899746E+03 0.  0.
    9000005    1    3    3    0    0 -0.54326173526E+02  0.29891812171E+01 -0.15407235388E+03  0.16339999561E+03  0.10000000000E+01 0.  0.
    9000005    1    3    3    0    0  0.54326173526E+02 -0.29891812171E+01 -0.40378450140E+02  0.67761992075E+02  0.10000000000E+01 0.  0.
<mgrwt>
<rscale>  0 0.12499900E+03</rscale>
<asrwt>0</asrwt>
<pdfrwt beam="2">  1        4 0.32739444E-01 0.12499900E+03</pdfrwt>
<pdfrwt beam="1">  1       -4 0.28239374E-02 0.12499900E+03</pdfrwt>
<totfact> 0.85133396E+03</totfact>
</mgrwt>
</event>
<event>
 5    1  0.3241863E-002  0.1249992E+03  0.7818608E-02  0.1235071E+00
         -4   -1    0    0    0  501 -0.00000000000E+00  0.00000000000E+00  0.22543128157E+04  0.22543131735E+04  0.12700000000E+01 0.  1.
          4   -1    0    0  501    0  0.00000000000E+00 -0.00000000000E+00 -0.14996542973E+01  0.19651623372E+01  0.12700000000E+01 0.  1.
         25    2    1    2    0    0  0.00000000000E+00  0.00000000000E+00  0.22528131614E+04  0.22562783358E+04  0.12499915317E+03 0.  0.
    9000005    1    3    3    0    0 -0.88421206483E+01 -0.35500093415E+02  0.20408945770E+04  0.20412227007E+04  0.10000000000E+01 0.  0.
    9000005    1    3    3    0    0  0.88421206483E+01  0.35500093415E+02  0.21191858447E+03  0.21505563507E+03  0.10000000000E+01 0.  0.
<mgrwt>
<rscale>  0 0.12499915E+03</rscale>
<asrwt>0</asrwt>
<pdfrwt beam="2">  1        4 0.26655156E-03 0.12499915E+03</pdfrwt>
<pdfrwt beam="1">  1       -4 0.34685360E+00 0.12499915E+03</pdfrwt>
<totfact> 0.68761885E+02</totfact>
</mgrwt>
</event>
<event>
 5    1  0.3241863E-002  0.1250024E+03  0.7818608E-02  0.1235066E+00
         -4   -1    0    0    0  501 -0.00000000000E+00  0.00000000000E+00  0.98935717855E+02  0.98943868771E+02  0.12700000000E+01 0. -1.
          4   -1    0    0  501    0  0.00000000000E+00 -0.00000000000E+00 -0.39464233685E+02  0.39484663356E+02  0.12700000000E+01 0. -1.
         25    2    1    2    0    0  0.00000000000E+00  0.00000000000E+00  0.59471484170E+02  0.13842853213E+03  0.12500240429E+03 0.  0.
    9000005    1    3    3    0    0  0.17841757818E+02  0.59793893299E+02  0.33533723603E+02  0.70845949895E+02  0.10000000000E+01 0.  0.
    9000005    1    3    3    0    0 -0.17841757818E+02 -0.59793893299E+02  0.25937760567E+02  0.67582582232E+02  0.10000000000E+01 0.  0.
<mgrwt>
<rscale>  0 0.12500240E+03</rscale>
<asrwt>0</asrwt>
<pdfrwt beam="2">  1        4 0.60736191E-02 0.12500240E+03</pdfrwt>
<pdfrwt beam="1">  1       -4 0.15223078E-01 0.12500240E+03</pdfrwt>
<totfact> 0.10165709E+04</totfact>
</mgrwt>
</event>
<event>
 5    1  0.3241863E-002  0.1250370E+03  0.7818608E-02  0.1235011E+00
         -4   -1    0    0    0  501 -0.00000000000E+00  0.00000000000E+00  0.48629946905E+01  0.50260936481E+01  0.12700000000E+01 0. -1.
          4   -1    0    0  501    0  0.00000000000E+00 -0.00000000000E+00 -0.79031663352E+03  0.79031765393E+03  0.12700000000E+01 0. -1.
         25    2    1    2    0    0  0.00000000000E+00  0.00000000000E+00 -0.78545363883E+03  0.79534374758E+03  0.12503702678E+03 0.  0.
    9000005    1    3    3    0    0 -0.27731932502E+02 -0.47302525965E+02 -0.20179745911E+03  0.20911672230E+03  0.10000000000E+01 0.  0.
    9000005    1    3    3    0    0  0.27731932502E+02  0.47302525965E+02 -0.58365617972E+03  0.58622702528E+03  0.10000000000E+01 0.  0.
<mgrwt>
<rscale>  0 0.12503703E+03</rscale>
<asrwt>0</asrwt>
<pdfrwt beam="2">  1        4 0.12159970E+00 0.12503703E+03</pdfrwt>
<pdfrwt beam="1">  1       -4 0.76077823E-03 0.12503703E+03</pdfrwt>
<totfact> 0.38442361E+03</totfact>
</mgrwt>
</event>
<event>
 5    1  0.3241863E-002  0.1250003E+03  0.7818608E-02  0.1235069E+00
          4   -1    0    0  501    0  0.00000000000E+00  0.00000000000E+00  0.62423020384E+02  0.62435938159E+02  0.12700000000E+01 0.  1.
         -4   -1    0    0    0  501 -0.00000000000E+00 -0.00000000000E+00 -0.62551543773E+02  0.62564435012E+02  0.12700000000E+01 0.  1.
         25    2    1    2    0    0  0.00000000000E+00  0.00000000000E+00 -0.12852338896E+00  0.12500037317E+03  0.12500030710E+03 0.  0.
    9000005    1    3    3    0    0 -0.41292760240E+01 -0.59994199503E+02  0.16933226491E+02  0.62482710039E+02  0.10000000000E+01 0.  0.
    9000005    1    3    3    0    0  0.41292760240E+01  0.59994199503E+02 -0.17061749880E+02  0.62517663132E+02  0.10000000000E+01 0.  0.
<mgrwt>
<rscale>  0 0.12500031E+03</rscale>
<asrwt>0</asrwt>
<pdfrwt beam="1">  1        4 0.96055269E-02 0.12500031E+03</pdfrwt>
<pdfrwt beam="2">  1       -4 0.96252997E-02 0.12500031E+03</pdfrwt>
<totfact> 0.10452782E+04</totfact>
</mgrwt>
</event>
<event>
 5    1  0.3241863E-002  0.1250001E+03  0.7818608E-02  0.1235069E+00
         -4   -1    0    0    0  501 -0.00000000000E+00  0.00000000000E+00  0.48161373620E+03  0.48161541067E+03  0.12700000000E+01 0.  1.
          4   -1    0    0  501    0  0.00000000000E+00 -0.00000000000E+00 -0.80593576699E+01  0.81588078817E+01  0.12700000000E+01 0.  1.
         25    2    1    2    0    0  0.00000000000E+00  0.00000000000E+00  0.47355437853E+03  0.48977421855E+03  0.12500014294E+03 0.  0.
    9000005    1    3    3    0    0 -0.86406919720E+01 -0.60826418880E+02  0.28157909942E+03  0.28820531574E+03  0.10000000000E+01 0.  0.
    9000005    1    3    3    0    0  0.86406919720E+01  0.60826418880E+02  0.19197527911E+03  0.20156890282E+03  0.10000000000E+01 0.  0.
<mgrwt>
<rscale>  0 0.12500014E+03</rscale>
<asrwt>0</asrwt>
<pdfrwt beam="2">  1        4 0.12476796E-02 0.12500014E+03</pdfrwt>
<pdfrwt beam="1">  1       -4 0.74102221E-01 0.12500014E+03</pdfrwt>
<totfact> 0.56666392E+03</totfact>
</mgrwt>
</event>
<event>
 4    1  0.3241863E-002  0.1249252E+03  0.7818608E-02  0.1235186E+00
          4   -1    0    0  501    0  0.00000000000E+00  0.00000000000E+00  0.40069362215E+03  0.40069563478E+03  0.12700000000E+01 0. -1.
         -4   -1    0    0    0  501 -0.00000000000E+00 -0.00000000000E+00 -0.96936003709E+01  0.97764404642E+01  0.12700000000E+01 0. -1.
    9000005    1    1    2    0    0  0.33802012218E+02 -0.23854275541E+02  0.41771692324E+02  0.58800312679E+02  0.10000000000E+01 0.  0.
    9000005    1    1    2    0    0 -0.33802012218E+02  0.23854275541E+02  0.34922832946E+03  0.35167176257E+03  0.10000000000E+01 0.  0.
<mgrwt>
<rscale>  0 0.12492521E+03</rscale>
<asrwt>0</asrwt>
<pdfrwt beam="1">  1        4 0.61651716E-01 0.12492521E+03</pdfrwt>
<pdfrwt beam="2">  1       -4 0.14978499E-02 0.12492521E+03</pdfrwt>
<totfact> 0.63651855E+03</totfact>
</mgrwt>
</event>
<event>
 5    1  0.3241863E-002  0.1249996E+03  0.7818608E-02  0.1235070E+00
         -4   -1    0    0    0  501 -0.00000000000E+00  0.00000000000E+00  0.45990050031E+02  0.46007582004E+02  0.12700000000E+01 0.  1.
          4   -1    0    0  501    0  0.00000000000E+00 -0.00000000000E+00 -0.84897821577E+02  0.84907320111E+02  0.12700000000E+01 0.  1.
         25    2    1    2    0    0  0.00000000000E+00  0.00000000000E+00 -0.38907771546E+02  0.13091490212E+03  0.12499958764E+03 0.  0.
    9000005    1    3    3    0    0 -0.46729471192E+02 -0.38793418150E+02 -0.34869517003E+02  0.70038960484E+02  0.10000000000E+01 0.  0.
    9000005    1    3    3    0    0  0.46729471192E+02  0.38793418150E+02 -0.40382545434E+01  0.60875941631E+02  0.10000000000E+01 0.  0.
<mgrwt>
<rscale>  0 0.12499959E+03</rscale>
<asrwt>0</asrwt>
<pdfrwt beam="2">  1        4 0.13063283E-01 0.12499959E+03</pdfrwt>
<pdfrwt beam="1">  1       -4 0.70774716E-02 0.12499959E+03</pdfrwt>
<totfact> 0.10325010E+04</totfact>
</mgrwt>
</event>
<event>
 5    1  0.3241863E-002  0.1249993E+03  0.7818608E-02  0.1235070E+00
          4   -1    0    0  501    0  0.00000000000E+00  0.00000000000E+00  0.44387379244E+02  0.44405543980E+02  0.12700000000E+01 0. -1.
         -4   -1    0    0    0  501 -0.00000000000E+00 -0.00000000000E+00 -0.87961838462E+02  0.87971006165E+02  0.12700000000E+01 0. -1.
         25    2    1    2    0    0  0.00000000000E+00  0.00000000000E+00 -0.43574459218E+02  0.13237655014E+03  0.12499927013E+03 0.  0.
    9000005    1    3    3    0    0  0.55298772681E+02  0.27235846706E+02 -0.10911836923E+02  0.62608416294E+02  0.10000000000E+01 0.  0.
    9000005    1    3    3    0    0 -0.55298772681E+02 -0.27235846706E+02 -0.32662622295E+02  0.69768133851E+02  0.10000000000E+01 0.  0.
<mgrwt>
<rscale>  0 0.12499927E+03</rscale>
<asrwt>0</asrwt>
<pdfrwt beam="1">  1        4 0.68309301E-02 0.12499927E+03</pdfrwt>
<pdfrwt beam="2">  1       -4 0.13534693E-01 0.12499927E+03</pdfrwt>
<totfact> 0.10293837E+04</totfact>
</mgrwt>
</event>
<event>
 5    1  0.3241863E-002  0.1250024E+03  0.7818608E-02  0.1235065E+00
          4   -1    0    0  501    0  0.00000000000E+00  0.00000000000E+00  0.10329098279E+03  0.10329879005E+03  0.12700000000E+01 0.  1.
         -4   -1    0    0    0  501 -0.00000000000E+00 -0.00000000000E+00 -0.37799482597E+02  0.37820811527E+02  0.12700000000E+01 0.  1.
         25    2    1    2    0    0  0.00000000000E+00  0.00000000000E+00  0.65491500190E+02  0.14111960157E+03  0.12500242138E+03 0.  0.
    9000005    1    3    3    0    0  0.53918089834E+02  0.28485897273E+02  0.17316278445E+02  0.63399213354E+02  0.10000000000E+01 0.  0.
    9000005    1    3    3    0    0 -0.53918089834E+02 -0.28485897273E+02  0.48175221746E+02  0.77720388220E+02  0.10000000000E+01 0.  0.
<mgrwt>
<rscale>  0 0.12500242E+03</rscale>
<asrwt>0</asrwt>
<pdfrwt beam="1">  1        4 0.15893161E-01 0.12500242E+03</pdfrwt>
<pdfrwt beam="2">  1       -4 0.58175464E-02 0.12500242E+03</pdfrwt>
<totfact> 0.10109883E+04</totfact>
</mgrwt>
</event>
<event>
 5    1  0.3241863E-002  0.1249996E+03  0.7818608E-02  0.1235070E+00
          4   -1    0    0  501    0  0.00000000000E+00  0.00000000000E+00  0.11112999464E+03  0.11113725122E+03  0.12700000000E+01 0. -1.
         -4   -1    0    0    0  501 -0.00000000000E+00 -0.00000000000E+00 -0.35130180419E+02  0.35153128968E+02  0.12700000000E+01 0. -1.
         25    2    1    2    0    0  0.00000000000E+00  0.00000000000E+00  0.75999814221E+02  0.14629038019E+03  0.12499961429E+03 0.  0.
    9000005    1    3    3    0    0 -0.35518101955E+02 -0.32609722061E+02 -0.85240197947E+01  0.48975386194E+02  0.10000000000E+01 0.  0.
    9000005    1    3    3    0    0  0.35518101955E+02  0.32609722061E+02  0.84523834016E+02  0.97314993994E+02  0.10000000000E+01 0.  0.
<mgrwt>
<rscale>  0 0.12499961E+03</rscale>
<asrwt>0</asrwt>
<pdfrwt beam="1">  1        4 0.17099246E-01 0.12499961E+03</pdfrwt>
<pdfrwt beam="2">  1       -4 0.54069666E-02 0.12499961E+03</pdfrwt>
<totfact> 0.10004923E+04</totfact>
</mgrwt>
</event>
<event>
 5    1  0.3241863E-002  0.1250015E+03  0.7818608E-02  0.1235067E+00
         -4   -1    0    0    0  501 -0.00000000000E+00  0.00000000000E+00  0.52598845049E+02  0.52614174901E+02  0.12700000000E+01 0.  1.
          4   -1    0    0  501    0  0.00000000000E+00 -0.00000000000E+00 -0.74235150078E+02  0.74246012735E+02  0.12700000000E+01 0.  1.
         25    2    1    2    0    0  0.00000000000E+00  0.00000000000E+00 -0.21636305029E+02  0.12686018764E+03  0.12500151004E+03 0.  0.
    9000005    1    3    3    0    0  0.45323374164E+02  0.81741155415E+01 -0.53687458997E+02  0.70741555425E+02  0.10000000000E+01 0.  0.
    9000005    1    3    3    0    0 -0.45323374164E+02 -0.81741155415E+01  0.32051153968E+02  0.56118632211E+02  0.10000000000E+01 0.  0.
<mgrwt>
<rscale>  0 0.12500151E+03</rscale>
<asrwt>0</asrwt>
<pdfrwt beam="2">  1        4 0.11422807E-01 0.12500151E+03</pdfrwt>
<pdfrwt beam="1">  1       -4 0.80941448E-02 0.12500151E+03</pdfrwt>
<totfact> 0.10411830E+04</totfact>
</mgrwt>
</event>
<event>
 5    1  0.3241863E-002  0.1249667E+03  0.7818608E-02  0.1235121E+00
          4   -1    0    0  501    0  0.00000000000E+00  0.00000000000E+00  0.85518432594E+03  0.85518526896E+03  0.12700000000E+01 0.  1.
         -4   -1    0    0    0  501 -0.00000000000E+00 -0.00000000000E+00 -0.44760098127E+01  0.46526942563E+01  0.12700000000E+01 0.  1.
         25    2    1    2    0    0  0.00000000000E+00  0.00000000000E+00  0.85070831613E+03  0.85983796321E+03  0.12496673096E+03 0.  0.
    9000005    1    3    3    0    0 -0.57848761217E+02 -0.16886063751E+02  0.53873749131E+03  0.54209842544E+03  0.10000000000E+01 0.  0.
    9000005    1    3    3    0    0  0.57848761217E+02  0.16886063751E+02  0.31197082483E+03  0.31773953778E+03  0.10000000000E+01 0.  0.
<mgrwt>
<rscale>  0 0.12496673E+03</rscale>
<asrwt>0</asrwt>
<pdfrwt beam="1">  1        4 0.13158059E+00 0.12496673E+03</pdfrwt>
<pdfrwt beam="2">  1       -4 0.70227996E-03 0.12496673E+03</pdfrwt>
<totfact> 0.35754029E+03</totfact>
</mgrwt>
</event>
<event>
 4    1  0.3241863E-002  0.1251309E+03  0.7818608E-02  0.1234865E+00
          4   -1    0    0  501    0  0.00000000000E+00  0.00000000000E+00  0.59883406076E+03  0.59883540745E+03  0.12700000000E+01 0. -1.
         -4   -1    0    0    0  501 -0.00000000000E+00 -0.00000000000E+00 -0.64737082174E+01  0.65971052807E+01  0.12700000000E+01 0. -1.
    9000005    1    1    2    0    0  0.41114183334E+02 -0.73060299915E+01  0.70808605414E+02  0.82210782420E+02  0.10000000000E+01 0.  0.
    9000005    1    1    2    0    0 -0.41114183334E+02  0.73060299915E+01  0.52155174712E+03  0.52322173031E+03  0.10000000000E+01 0.  0.
<mgrwt>
<rscale>  0 0.12513089E+03</rscale>
<asrwt>0</asrwt>
<pdfrwt beam="1">  1        4 0.92137955E-01 0.12513089E+03</pdfrwt>
<pdfrwt beam="2">  1       -4 0.10055503E-02 0.12513089E+03</pdfrwt>
<totfact> 0.48387469E+03</totfact>
</mgrwt>
</event>
<event>
 5    1  0.3241863E-002  0.1249972E+03  0.7818608E-02  0.1235074E+00
          4   -1    0    0  501    0  0.00000000000E+00  0.00000000000E+00  0.84774220434E+02  0.84783732816E+02  0.12700000000E+01 0. -1.
         -4   -1    0    0    0  501 -0.00000000000E+00 -0.00000000000E+00 -0.46055335020E+02  0.46072842150E+02  0.12700000000E+01 0. -1.
         25    2    1    2    0    0  0.00000000000E+00  0.00000000000E+00  0.38718885414E+02  0.13085657497E+03  0.12499716446E+03 0.  0.
    9000005    1    3    3    0    0 -0.37386780015E+02 -0.20633544671E+02  0.67122231511E+02  0.79560721771E+02  0.10000000000E+01 0.  0.
    9000005    1    3    3    0    0  0.37386780015E+02  0.20633544671E+02 -0.28403346097E+02  0.51295853196E+02  0.10000000000E+01 0.  0.
<mgrwt>
<rscale>  0 0.12499716E+03</rscale>
<asrwt>0</asrwt>
<pdfrwt beam="1">  1        4 0.13044266E-01 0.12499716E+03</pdfrwt>
<pdfrwt beam="2">  1       -4 0.70875147E-02 0.12499716E+03</pdfrwt>
<totfact> 0.10326826E+04</totfact>
</mgrwt>
</event>
<event>
 5    1  0.3241863E-002  0.1249988E+03  0.7818608E-02  0.1235071E+00
         -4   -1    0    0    0  501 -0.00000000000E+00  0.00000000000E+00  0.32746513520E+03  0.32746759789E+03  0.12700000000E+01 0. -1.
          4   -1    0    0  501    0  0.00000000000E+00 -0.00000000000E+00 -0.11892194859E+02  0.11959815992E+02  0.12700000000E+01 0. -1.
         25    2    1    2    0    0  0.00000000000E+00  0.00000000000E+00  0.31557294034E+03  0.33942741389E+03  0.12499875449E+03 0.  0.
    9000005    1    3    3    0    0  0.34786080501E+02 -0.16724756282E+02  0.24331651967E+02  0.45637902633E+02  0.10000000000E+01 0.  0.
    9000005    1    3    3    0    0 -0.34786080501E+02  0.16724756282E+02  0.29124128837E+03  0.29378951125E+03  0.10000000000E+01 0.  0.
<mgrwt>
<rscale>  0 0.12499875E+03</rscale>
<asrwt>0</asrwt>
<pdfrwt beam="2">  1        4 0.18349593E-02 0.12499875E+03</pdfrwt>
<pdfrwt beam="1">  1       -4 0.50384648E-01 0.12499875E+03</pdfrwt>
<totfact> 0.70905497E+03</totfact>
</mgrwt>
</event>
<event>
 5    1  0.3241863E-002  0.1250001E+03  0.7818608E-02  0.1235069E+00
         -4   -1    0    0    0  501 -0.00000000000E+00  0.00000000000E+00  0.10881674486E+03  0.10882415569E+03  0.12700000000E+01 0. -1.
          4   -1    0    0  501    0  0.00000000000E+00 -0.00000000000E+00 -0.35877700872E+02  0.35900171585E+02  0.12700000000E+01 0. -1.
         25    2    1    2    0    0  0.00000000000E+00  0.00000000000E+00  0.72939043986E+02  0.14472432728E+03  0.12500010707E+03 0.  0.
    9000005    1    3    3    0    0  0.35740537933E+02  0.34631190454E+02  0.80229699303E+02  0.94416683135E+02  0.10000000000E+01 0.  0.
    9000005    1    3    3    0    0 -0.35740537933E+02 -0.34631190454E+02 -0.72906553164E+01  0.50307644140E+02  0.10000000000E+01 0.  0.
<mgrwt>
<rscale>  0 0.12500011E+03</rscale>
<asrwt>0</asrwt>
<pdfrwt beam="2">  1        4 0.55219449E-02 0.12500011E+03</pdfrwt>
<pdfrwt beam="1">  1       -4 0.16743336E-01 0.12500011E+03</pdfrwt>
<totfact> 0.10036568E+04</totfact>
</mgrwt>
</event>
<event>
 5    1  0.3241863E-002  0.1250006E+03  0.7818608E-02  0.1235068E+00
         -4   -1    0    0    0  501 -0.00000000000E+00  0.00000000000E+00  0.47574654012E+02  0.47591602247E+02  0.12700000000E+01 0.  1.
          4   -1    0    0  501    0  0.00000000000E+00 -0.00000000000E+00 -0.82072160145E+02  0.82081985666E+02  0.12700000000E+01 0.  1.
         25    2    1    2    0    0  0.00000000000E+00  0.00000000000E+00 -0.34497506133E+02  0.12967358791E+03  0.12500064589E+03 0.  0.
    9000005    1    3    3    0    0 -0.42273217307E+02 -0.42896141710E+02 -0.34551190610E+02  0.69439820331E+02  0.10000000000E+01 0.  0.
    9000005    1    3    3    0    0  0.42273217307E+02  0.42896141710E+02  0.53684476737E-01  0.60233767582E+02  0.10000000000E+01 0.  0.
<mgrwt>
<rscale>  0 0.12500065E+03</rscale>
<asrwt>0</asrwt>
<pdfrwt beam="2">  1        4 0.12628546E-01 0.12500065E+03</pdfrwt>
<pdfrwt beam="1">  1       -4 0.73212371E-02 0.12500065E+03</pdfrwt>
<totfact> 0.10351344E+04</totfact>
</mgrwt>
</event>
<event>
 5    1  0.3241863E-002  0.1250195E+03  0.7818608E-02  0.1235039E+00
          4   -1    0    0  501    0  0.00000000000E+00  0.00000000000E+00  0.30080768033E+03  0.30081036127E+03  0.12700000000E+01 0. -1.
         -4   -1    0    0    0  501 -0.00000000000E+00 -0.00000000000E+00 -0.12956127334E+02  0.13018223208E+02  0.12700000000E+01 0. -1.
         25    2    1    2    0    0  0.00000000000E+00  0.00000000000E+00  0.28785155300E+03  0.31382858448E+03  0.12501945397E+03 0.  0.
    9000005    1    3    3    0    0 -0.18820093820E+02  0.34789983062E+02  0.26540488263E+03  0.26833801553E+03  0.10000000000E+01 0.  0.
    9000005    1    3    3    0    0  0.18820093820E+02 -0.34789983062E+02  0.22446670370E+02  0.45490568952E+02  0.10000000000E+01 0.  0.
<mgrwt>
<rscale>  0 0.12501945E+03</rscale>
<asrwt>0</asrwt>
<pdfrwt beam="1">  1        4 0.46283087E-01 0.12501945E+03</pdfrwt>
<pdfrwt beam="2">  1       -4 0.19982332E-02 0.12501945E+03</pdfrwt>
<totfact> 0.73864325E+03</totfact>
</mgrwt>
</event>
<event>
 5    1  0.3241863E-002  0.1250005E+03  0.7818608E-02  0.1235069E+00
         -4   -1    0    0    0  501 -0.00000000000E+00  0.00000000000E+00  0.11411707634E+02  0.11482158818E+02  0.12700000000E+01 0. -1.
          4   -1    0    0  501    0  0.00000000000E+00 -0.00000000000E+00 -0.34117960150E+03  0.34118196520E+03  0.12700000000E+01 0. -1.
         25    2    1    2    0    0  0.00000000000E+00  0.00000000000E+00 -0.32976789387E+03  0.35266412402E+03  0.12500048218E+03 0.  0.
    9000005    1    3    3    0    0  0.60385162018E+02  0.15252247796E+02 -0.15042046472E+03  0.16280760136E+03  0.10000000000E+01 0.  0.
    9000005    1    3    3    0    0 -0.60385162018E+02 -0.15252247796E+02 -0.17934742914E+03  0.18985652266E+03  0.10000000000E+01 0.  0.
<mgrwt>
<rscale>  0 0.12500048E+03</rscale>
<asrwt>0</asrwt>
<pdfrwt beam="2">  1        4 0.52494763E-01 0.12500048E+03</pdfrwt>
<pdfrwt beam="1">  1       -4 0.17612487E-02 0.12500048E+03</pdfrwt>
<totfact> 0.69431723E+03</totfact>
</mgrwt>
</event>
<event>
 4    1  0.3241863E-002  0.1249137E+03  0.7818608E-02  0.1235204E+00
         -4   -1    0    0    0  501 -0.00000000000E+00  0.00000000000E+00  0.18549067659E+03  0.18549502420E+03  0.12700000000E+01 0.  1.
          4   -1    0    0  501    0  0.00000000000E+00 -0.00000000000E+00 -0.21006182324E+02  0.21044538385E+02  0.12700000000E+01 0.  1.
    9000005    1    1    2    0    0  0.36105818909E+02  0.41609385572E+02  0.13086878290E+03  0.14199510366E+03  0.10000000000E+01 0.  0.
    9000005    1    1    2    0    0 -0.36105818909E+02 -0.41609385572E+02  0.33615711373E+02  0.64544458925E+02  0.10000000000E+01 0.  0.
<mgrwt>
<rscale>  0 0.12491374E+03</rscale>
<asrwt>0</asrwt>
<pdfrwt beam="2">  1        4 0.32350054E-02 0.12491374E+03</pdfrwt>
<pdfrwt beam="1">  1       -4 0.28540311E-01 0.12491374E+03</pdfrwt>
<totfact> 0.89216149E+03</totfact>
</mgrwt>
</event>
<event>
 5    1  0.3241863E-002  0.1249988E+03  0.7818608E-02  0.1235071E+00
         -4   -1    0    0    0  501 -0.00000000000E+00  0.00000000000E+00  0.16014661407E+03  0.16015164969E+03  0.12700000000E+01 0.  1.
          4   -1    0    0  501    0  0.00000000000E+00 -0.00000000000E+00 -0.24369305924E+02  0.24402376344E+02  0.12700000000E+01 0.  1.
         25    2    1    2    0    0  0.00000000000E+00  0.00000000000E+00  0.13577730815E+03  0.18455402603E+03  0.12499884447E+03 0.  0.
    9000005    1    3    3    0    0 -0.33879162772E+02 -0.50221005688E+02  0.45244060871E+02  0.75617273996E+02  0.10000000000E+01 0.  0.
    9000005    1    3    3    0    0  0.33879162772E+02  0.50221005688E+02  0.90533247275E+02  0.10893675204E+03  0.10000000000E+01 0.  0.
<mgrwt>
<rscale>  0 0.12499884E+03</rscale>
<asrwt>0</asrwt>
<pdfrwt beam="2">  1        4 0.37520554E-02 0.12499884E+03</pdfrwt>
<pdfrwt beam="1">  1       -4 0.24640871E-01 0.12499884E+03</pdfrwt>
<totfact> 0.92806031E+03</totfact>
</mgrwt>
</event>
<event>
 5    1  0.3241863E-002  0.1250000E+03  0.7818608E-02  0.1235069E+00
         -4   -1    0    0    0  501 -0.00000000000E+00  0.00000000000E+00  0.21963838919E+03  0.21964206088E+03  0.12700000000E+01 0.  1.
          4   -1    0    0  501    0  0.00000000000E+00 -0.00000000000E+00 -0.17758409540E+02  0.17803763911E+02  0.12700000000E+01 0.  1.
         25    2    1    2    0    0  0.00000000000E+00  0.00000000000E+00  0.20187997965E+03  0.23744582479E+03  0.12499997410E+03 0.  0.
    9000005    1    3    3    0    0  0.56198527214E+02 -0.25243788080E+02  0.12083790500E+03  0.13564041647E+03  0.10000000000E+01 0.  0.
    9000005    1    3    3    0    0 -0.56198527214E+02  0.25243788080E+02  0.81042074657E+02  0.10180540832E+03  0.10000000000E+01 0.  0.
<mgrwt>
<rscale>  0 0.12499997E+03</rscale>
<asrwt>0</asrwt>
<pdfrwt beam="2">  1        4 0.27358343E-02 0.12499997E+03</pdfrwt>
<pdfrwt beam="1">  1       -4 0.33794292E-01 0.12499997E+03</pdfrwt>
<totfact> 0.84179292E+03</totfact>
</mgrwt>
</event>
<event>
 5    1  0.3241863E-002  0.1250005E+03  0.7818608E-02  0.1235069E+00
          4   -1    0    0  501    0  0.00000000000E+00  0.00000000000E+00  0.35734223637E+03  0.35734449316E+03  0.12700000000E+01 0.  1.
         -4   -1    0    0    0  501 -0.00000000000E+00 -0.00000000000E+00 -0.10892290959E+02  0.10966079625E+02  0.12700000000E+01 0.  1.
         25    2    1    2    0    0  0.00000000000E+00  0.00000000000E+00  0.34644994541E+03  0.36831057278E+03  0.12500045341E+03 0.  0.
    9000005    1    3    3    0    0  0.61241393629E+01 -0.13622055805E+02 -0.55707159482E+01  0.15971799005E+02  0.10000000000E+01 0.  0.
    9000005    1    3    3    0    0 -0.61241393629E+01  0.13622055805E+02  0.35202066135E+03  0.35233877378E+03  0.10000000000E+01 0.  0.
<mgrwt>
<rscale>  0 0.12500045E+03</rscale>
<asrwt>0</asrwt>
<pdfrwt beam="1">  1        4 0.54981575E-01 0.12500045E+03</pdfrwt>
<pdfrwt beam="2">  1       -4 0.16815868E-02 0.12500045E+03</pdfrwt>
<totfact> 0.67755375E+03</totfact>
</mgrwt>
</event>
<event>
 5    1  0.3241863E-002  0.1249978E+03  0.7818608E-02  0.1235073E+00
          4   -1    0    0  501    0  0.00000000000E+00  0.00000000000E+00  0.76353301917E+01  0.77402304317E+01  0.12700000000E+01 0.  1.
         -4   -1    0    0    0  501 -0.00000000000E+00 -0.00000000000E+00 -0.50798789960E+03  0.50798948714E+03  0.12700000000E+01 0.  1.
         25    2    1    2    0    0  0.00000000000E+00  0.00000000000E+00 -0.50035256941E+03  0.51572971757E+03  0.12499779145E+03 0.  0.
    9000005    1    3    3    0    0  0.18537480817E+02  0.55279274385E+02 -0.15739597565E+03  0.16785091457E+03  0.10000000000E+01 0.  0.
    9000005    1    3    3    0    0 -0.18537480817E+02 -0.55279274385E+02 -0.34295659376E+03  0.34787880300E+03  0.10000000000E+01 0.  0.
<mgrwt>
<rscale>  0 0.12499779E+03</rscale>
<asrwt>0</asrwt>
<pdfrwt beam="1">  1        4 0.11828579E-02 0.12499779E+03</pdfrwt>
<pdfrwt beam="2">  1       -4 0.78160150E-01 0.12499779E+03</pdfrwt>
<totfact> 0.54666924E+03</totfact>
</mgrwt>
</event>
<event>
 5    1  0.3241863E-002  0.1249999E+03  0.7818608E-02  0.1235069E+00
          4   -1    0    0  501    0  0.00000000000E+00  0.00000000000E+00  0.28206702593E+02  0.28235278840E+02  0.12700000000E+01 0. -1.
         -4   -1    0    0    0  501 -0.00000000000E+00 -0.00000000000E+00 -0.13838484190E+03  0.13839066937E+03  0.12700000000E+01 0. -1.
         25    2    1    2    0    0  0.00000000000E+00  0.00000000000E+00 -0.11017813931E+03  0.16662594821E+03  0.12499993694E+03 0.  0.
    9000005    1    3    3    0    0  0.37596000722E+02 -0.58756152529E+01  0.10989212360E+02  0.39620006477E+02  0.10000000000E+01 0.  0.
    9000005    1    3    3    0    0 -0.37596000722E+02  0.58756152529E+01 -0.12116735167E+03  0.12700594173E+03  0.10000000000E+01 0.  0.
<mgrwt>
<rscale>  0 0.12499994E+03</rscale>
<asrwt>0</asrwt>
<pdfrwt beam="1">  1        4 0.43421392E-02 0.12499994E+03</pdfrwt>
<pdfrwt beam="2">  1       -4 0.21292622E-01 0.12499994E+03</pdfrwt>
<totfact> 0.96080483E+03</totfact>
</mgrwt>
</event>
<event>
 5    1  0.3241863E-002  0.1249992E+03  0.7818608E-02  0.1235071E+00
         -4   -1    0    0    0  501 -0.00000000000E+00  0.00000000000E+00  0.18208880088E+02  0.18253115187E+02  0.12700000000E+01 0. -1.
          4   -1    0    0  501    0  0.00000000000E+00 -0.00000000000E+00 -0.21421537711E+03  0.21421914175E+03  0.12700000000E+01 0. -1.
         25    2    1    2    0    0  0.00000000000E+00  0.00000000000E+00 -0.19600649703E+03  0.23247225694E+03  0.12499921347E+03 0.  0.
    9000005    1    3    3    0    0 -0.49659887917E+02 -0.29280929120E+02 -0.14285941756E+03  0.15405612764E+03  0.10000000000E+01 0.  0.
    9000005    1    3    3    0    0  0.49659887917E+02  0.29280929120E+02 -0.53147079464E+02  0.78416129295E+02  0.10000000000E+01 0.  0.
<mgrwt>
<rscale>  0 0.12499921E+03</rscale>
<asrwt>0</asrwt>
<pdfrwt beam="2">  1        4 0.32959903E-01 0.12499921E+03</pdfrwt>
<pdfrwt beam="1">  1       -4 0.28050586E-02 0.12499921E+03</pdfrwt>
<totfact> 0.84932911E+03</totfact>
</mgrwt>
</event>
<event>
 5    1  0.3241863E-002  0.1249923E+03  0.7818608E-02  0.1235081E+00
         -4   -1    0    0    0  501 -0.00000000000E+00  0.00000000000E+00  0.34495236252E+02  0.34518606925E+02  0.12700000000E+01 0.  1.
          4   -1    0    0  501    0  0.00000000000E+00 -0.00000000000E+00 -0.11316096765E+03  0.11316809400E+03  0.12700000000E+01 0.  1.
         25    2    1    2    0    0  0.00000000000E+00  0.00000000000E+00 -0.78665731399E+02  0.14768670093E+03  0.12499225710E+03 0.  0.
    9000005    1    3    3    0    0 -0.43693784557E+01 -0.61162090772E+02 -0.53554594960E+02  0.81418594050E+02  0.10000000000E+01 0.  0.
    9000005    1    3    3    0    0  0.43693784557E+01  0.61162090772E+02 -0.25111136440E+02  0.66268106877E+02  0.10000000000E+01 0.  0.
<mgrwt>
<rscale>  0 0.12499226E+03</rscale>
<asrwt>0</asrwt>
<pdfrwt beam="2">  1        4 0.17411725E-01 0.12499226E+03</pdfrwt>
<pdfrwt beam="1">  1       -4 0.53093054E-02 0.12499226E+03</pdfrwt>
<totfact> 0.99784226E+03</totfact>
</mgrwt>
</event>
<event>
 5    1  0.3241863E-002  0.1250009E+03  0.7818608E-02  0.1235068E+00
         -4   -1    0    0    0  501 -0.00000000000E+00  0.00000000000E+00  0.18131583999E+02  0.18176007216E+02  0.12700000000E+01 0. -1.
          4   -1    0    0  501    0  0.00000000000E+00 -0.00000000000E+00 -0.21513224125E+03  0.21513598984E+03  0.12700000000E+01 0. -1.
         25    2    1    2    0    0  0.00000000000E+00  0.00000000000E+00 -0.19700065725E+03  0.23331199706E+03  0.12500091605E+03 0.  0.
    9000005    1    3    3    0    0  0.28403092216E+02 -0.62750523400E+00 -0.20239111828E+03  0.20437782210E+03  0.10000000000E+01 0.  0.
    9000005    1    3    3    0    0 -0.28403092216E+02  0.62750523400E+00  0.53904610246E+01  0.28934174955E+02  0.10000000000E+01 0.  0.
<mgrwt>
<rscale>  0 0.12500092E+03</rscale>
<asrwt>0</asrwt>
<pdfrwt beam="2">  1        4 0.33100972E-01 0.12500092E+03</pdfrwt>
<pdfrwt beam="1">  1       -4 0.27931801E-02 0.12500092E+03</pdfrwt>
<totfact> 0.84801886E+03</totfact>
</mgrwt>
</event>
<event>
 5    1  0.3241863E-002  0.1249993E+03  0.7818608E-02  0.1235070E+00
         -4   -1    0    0    0  501 -0.00000000000E+00  0.00000000000E+00  0.80519273886E+03  0.80519374042E+03  0.12700000000E+01 0. -1.
          4   -1    0    0  501    0  0.00000000000E+00 -0.00000000000E+00 -0.47671322116E+01  0.49334014151E+01  0.12700000000E+01 0. -1.
         25    2    1    2    0    0  0.00000000000E+00  0.00000000000E+00  0.80042560665E+03  0.81012714184E+03  0.12499933664E+03 0.  0.
    9000005    1    3    3    0    0  0.77864896251E+01  0.61874873637E+02  0.42620103765E+03  0.43074058771E+03  0.10000000000E+01 0.  0.
    9000005    1    3    3    0    0 -0.77864896251E+01 -0.61874873637E+02  0.37422456900E+03  0.37938655413E+03  0.10000000000E+01 0.  0.
<mgrwt>
<rscale>  0 0.12499934E+03</rscale>
<asrwt>0</asrwt>
<pdfrwt beam="2">  1        4 0.74627247E-03 0.12499934E+03</pdfrwt>
<pdfrwt beam="1">  1       -4 0.12388858E+00 0.12499934E+03</pdfrwt>
<totfact> 0.37817176E+03</totfact>
</mgrwt>
</event>
<event>
 5    1  0.3241863E-002  0.1250150E+03  0.7818608E-02  0.1235046E+00
         -4   -1    0    0    0  501 -0.00000000000E+00  0.00000000000E+00  0.19147437183E+02  0.19189508870E+02  0.12700000000E+01 0.  1.
          4   -1    0    0  501    0  0.00000000000E+00 -0.00000000000E+00 -0.20379000078E+03  0.20379395800E+03  0.12700000000E+01 0.  1.
         25    2    1    2    0    0  0.00000000000E+00  0.00000000000E+00 -0.18464256359E+03  0.22298346687E+03  0.12501499992E+03 0.  0.
    9000005    1    3    3    0    0  0.42197687884E+01 -0.56749093993E+02 -0.46224221691E+02  0.73320834615E+02  0.10000000000E+01 0.  0.
    9000005    1    3    3    0    0 -0.42197687884E+01  0.56749093993E+02 -0.13841834190E+03  0.14966263225E+03  0.10000000000E+01 0.  0.
<mgrwt>
<rscale>  0 0.12501500E+03</rscale>
<asrwt>0</asrwt>
<pdfrwt beam="2">  1        4 0.31355847E-01 0.12501500E+03</pdfrwt>
<pdfrwt beam="1">  1       -4 0.29493004E-02 0.12501500E+03</pdfrwt>
<totfact> 0.86369513E+03</totfact>
</mgrwt>
</event>
<event>
 5    1  0.3241863E-002  0.1249993E+03  0.7818608E-02  0.1235070E+00
         -4   -1    0    0    0  501 -0.00000000000E+00  0.00000000000E+00  0.15218105408E+02  0.15271006260E+02  0.12700000000E+01 0.  1.
          4   -1    0    0  501    0  0.00000000000E+00 -0.00000000000E+00 -0.25618147481E+03  0.25618462275E+03  0.12700000000E+01 0.  1.
         25    2    1    2    0    0  0.00000000000E+00  0.00000000000E+00 -0.24096336940E+03  0.27145562901E+03  0.12499925252E+03 0.  0.
    9000005    1    3    3    0    0 -0.10761511761E+02 -0.56533041460E+02 -0.17338321922E+03  0.18268698809E+03  0.10000000000E+01 0.  0.
    9000005    1    3    3    0    0  0.10761511761E+02  0.56533041460E+02 -0.67580150186E+02  0.88768640923E+02  0.10000000000E+01 0.  0.
<mgrwt>
<rscale>  0 0.12499925E+03</rscale>
<asrwt>0</asrwt>
<pdfrwt beam="2">  1        4 0.39416843E-01 0.12499925E+03</pdfrwt>
<pdfrwt beam="1">  1       -4 0.23455586E-02 0.12499925E+03</pdfrwt>
<totfact> 0.79326148E+03</totfact>
</mgrwt>
</event>
<event>
 5    1  0.3241863E-002  0.1249999E+03  0.7818608E-02  0.1235069E+00
         -4   -1    0    0    0  501 -0.00000000000E+00  0.00000000000E+00  0.11143226156E+04  0.11143233394E+04  0.12700000000E+01 0. -1.
          4   -1    0    0  501    0  0.00000000000E+00 -0.00000000000E+00 -0.33897108496E+01  0.36198121006E+01  0.12700000000E+01 0. -1.
         25    2    1    2    0    0  0.00000000000E+00  0.00000000000E+00  0.11109329048E+04  0.11179431515E+04  0.12499988374E+03 0.  0.
    9000005    1    3    3    0    0 -0.37508060846E+02  0.52660292926E+01  0.10000120796E+04  0.10007296064E+04  0.10000000000E+01 0.  0.
    9000005    1    3    3    0    0  0.37508060846E+02 -0.52660292926E+01  0.11092082516E+03  0.11721354507E+03  0.10000000000E+01 0.  0.
<mgrwt>
<rscale>  0 0.12499988E+03</rscale>
<asrwt>0</asrwt>
<pdfrwt beam="2">  1        4 0.53924808E-03 0.12499988E+03</pdfrwt>
<pdfrwt beam="1">  1       -4 0.17145253E+00 0.12499988E+03</pdfrwt>
<totfact> 0.26964069E+03</totfact>
</mgrwt>
</event>
<event>
 5    1  0.3241863E-002  0.1250053E+03  0.7818608E-02  0.1235061E+00
          4   -1    0    0  501    0  0.00000000000E+00  0.00000000000E+00  0.14753473070E+03  0.14754019677E+03  0.12700000000E+01 0.  1.
         -4   -1    0    0    0  501 -0.00000000000E+00 -0.00000000000E+00 -0.26457886054E+02  0.26488349032E+02  0.12700000000E+01 0.  1.
         25    2    1    2    0    0  0.00000000000E+00  0.00000000000E+00  0.12107684465E+03  0.17402854580E+03  0.12500532966E+03 0.  0.
    9000005    1    3    3    0    0 -0.10712408241E+02 -0.35969407138E+02 -0.90286568247E+01  0.38614383126E+02  0.10000000000E+01 0.  0.
    9000005    1    3    3    0    0  0.10712408241E+02  0.35969407138E+02  0.13010550147E+03  0.13541416267E+03  0.10000000000E+01 0.  0.
<mgrwt>
<rscale>  0 0.12500533E+03</rscale>
<asrwt>0</asrwt>
<pdfrwt beam="1">  1        4 0.22700415E-01 0.12500533E+03</pdfrwt>
<pdfrwt beam="2">  1       -4 0.40732077E-02 0.12500533E+03</pdfrwt>
<totfact> 0.94691738E+03</totfact>
</mgrwt>
</event>
<event>
 5    1  0.3241863E-002  0.1250001E+03  0.7818608E-02  0.1235069E+00
          4   -1    0    0  501    0  0.00000000000E+00  0.00000000000E+00  0.21384815354E+02  0.21422493499E+02  0.12700000000E+01 0. -1.
         -4   -1    0    0    0  501 -0.00000000000E+00 -0.00000000000E+00 -0.18246423809E+03  0.18246865780E+03  0.12700000000E+01 0. -1.
         25    2    1    2    0    0  0.00000000000E+00  0.00000000000E+00 -0.16107942273E+03  0.20389115130E+03  0.12500008461E+03 0.  0.
    9000005    1    3    3    0    0  0.53816617728E+02  0.15218080097E+02 -0.35059689037E+02  0.66015150540E+02  0.10000000000E+01 0.  0.
    9000005    1    3    3    0    0 -0.53816617728E+02 -0.15218080097E+02 -0.12601973370E+03  0.13787600076E+03  0.10000000000E+01 0.  0.
<mgrwt>
<rscale>  0 0.12500008E+03</rscale>
<asrwt>0</asrwt>
<pdfrwt beam="1">  1        4 0.32932100E-02 0.12500008E+03</pdfrwt>
<pdfrwt beam="2">  1       -4 0.28074658E-01 0.12500008E+03</pdfrwt>
<totfact> 0.89483188E+03</totfact>
</mgrwt>
</event>
<event>
 5    1  0.3241863E-002  0.1249995E+03  0.7818608E-02  0.1235070E+00
         -4   -1    0    0    0  501 -0.00000000000E+00  0.00000000000E+00  0.50200430482E+02  0.50216492515E+02  0.12700000000E+01 0.  1.
          4   -1    0    0  501    0  0.00000000000E+00 -0.00000000000E+00 -0.77778806104E+02  0.77789173919E+02  0.12700000000E+01 0.  1.
         25    2    1    2    0    0  0.00000000000E+00  0.00000000000E+00 -0.27578375622E+02  0.12800566643E+03  0.12499953535E+03 0.  0.
    9000005    1    3    3    0    0  0.25736813688E+01  0.18515845909E+02 -0.74853441195E+02  0.77158914224E+02  0.10000000000E+01 0.  0.
    9000005    1    3    3    0    0 -0.25736813688E+01 -0.18515845909E+02  0.47275065572E+02  0.50846752210E+02  0.10000000000E+01 0.  0.
<mgrwt>
<rscale>  0 0.12499954E+03</rscale>
<asrwt>0</asrwt>
<pdfrwt beam="2">  1        4 0.11968003E-01 0.12499954E+03</pdfrwt>
<pdfrwt beam="1">  1       -4 0.77251763E-02 0.12499954E+03</pdfrwt>
<totfact> 0.10387474E+04</totfact>
</mgrwt>
</event>
<event>
 5    1  0.3241863E-002  0.1249959E+03  0.7818608E-02  0.1235076E+00
         -4   -1    0    0    0  501 -0.00000000000E+00  0.00000000000E+00  0.49551901524E+03  0.49552064272E+03  0.12700000000E+01 0. -1.
          4   -1    0    0  501    0  0.00000000000E+00 -0.00000000000E+00 -0.78298229354E+01  0.79321514862E+01  0.12700000000E+01 0. -1.
         25    2    1    2    0    0  0.00000000000E+00  0.00000000000E+00  0.48768919230E+03  0.50345279420E+03  0.12499587076E+03 0.  0.
    9000005    1    3    3    0    0  0.26906834272E+02  0.50233006075E+02  0.14055333713E+03  0.15166928894E+03  0.10000000000E+01 0.  0.
    9000005    1    3    3    0    0 -0.26906834272E+02 -0.50233006075E+02  0.34713585517E+03  0.35178350527E+03  0.10000000000E+01 0.  0.
<mgrwt>
<rscale>  0 0.12499587E+03</rscale>
<asrwt>0</asrwt>
<pdfrwt beam="2">  1        4 0.12125846E-02 0.12499587E+03</pdfrwt>
<pdfrwt beam="1">  1       -4 0.76241703E-01 0.12499587E+03</pdfrwt>
<totfact> 0.55602504E+03</totfact>
</mgrwt>
</event>
<event>
 5    1  0.3241863E-002  0.1250024E+03  0.7818608E-02  0.1235065E+00
          4   -1    0    0  501    0  0.00000000000E+00  0.00000000000E+00  0.13838918031E+02  0.13897069917E+02  0.12700000000E+01 0.  1.
         -4   -1    0    0    0  501 -0.00000000000E+00 -0.00000000000E+00 -0.28162514417E+03  0.28162800771E+03  0.12700000000E+01 0.  1.
         25    2    1    2    0    0  0.00000000000E+00  0.00000000000E+00 -0.26778622613E+03  0.29552507763E+03  0.12500243437E+03 0.  0.
    9000005    1    3    3    0    0  0.35683717127E+02 -0.42947680556E+02 -0.67546189938E+02  0.87643132693E+02  0.10000000000E+01 0.  0.
    9000005    1    3    3    0    0 -0.35683717127E+02  0.42947680556E+02 -0.20024003620E+03  0.20788194493E+03  0.10000000000E+01 0.  0.
<mgrwt>
<rscale>  0 0.12500243E+03</rscale>
<asrwt>0</asrwt>
<pdfrwt beam="1">  1        4 0.21337580E-02 0.12500243E+03</pdfrwt>
<pdfrwt beam="2">  1       -4 0.43331634E-01 0.12500243E+03</pdfrwt>
<totfact> 0.76159500E+03</totfact>
</mgrwt>
</event>
<event>
 5    1  0.3241863E-002  0.1250024E+03  0.7818608E-02  0.1235066E+00
         -4   -1    0    0    0  501 -0.00000000000E+00  0.00000000000E+00  0.16928031623E+03  0.16928508016E+03  0.12700000000E+01 0.  1.
          4   -1    0    0  501    0  0.00000000000E+00 -0.00000000000E+00 -0.23053940321E+02  0.23088894826E+02  0.12700000000E+01 0.  1.
         25    2    1    2    0    0  0.00000000000E+00  0.00000000000E+00  0.14622637591E+03  0.19237397498E+03  0.12500237293E+03 0.  0.
    9000005    1    3    3    0    0  0.24090562583E+00  0.50779584985E+02  0.12916976065E+03  0.13879643854E+03  0.10000000000E+01 0.  0.
    9000005    1    3    3    0    0 -0.24090562583E+00 -0.50779584985E+02  0.17056615266E+02  0.53577536441E+02  0.10000000000E+01 0.  0.
<mgrwt>
<rscale>  0 0.12500237E+03</rscale>
<asrwt>0</asrwt>
<pdfrwt beam="2">  1        4 0.35498154E-02 0.12500237E+03</pdfrwt>
<pdfrwt beam="1">  1       -4 0.26046180E-01 0.12500237E+03</pdfrwt>
<totfact> 0.91431026E+03</totfact>
</mgrwt>
</event>
<event>
 5    1  0.3241863E-002  0.1249987E+03  0.7818608E-02  0.1235071E+00
         -4   -1    0    0    0  501 -0.00000000000E+00  0.00000000000E+00  0.45928066730E+02  0.45945622355E+02  0.12700000000E+01 0. -1.
          4   -1    0    0  501    0  0.00000000000E+00 -0.00000000000E+00 -0.85011175364E+02  0.85020661234E+02  0.12700000000E+01 0. -1.
         25    2    1    2    0    0  0.00000000000E+00  0.00000000000E+00 -0.39083108634E+02  0.13096628359E+03  0.12499871222E+03 0.  0.
    9000005    1    3    3    0    0  0.81433534428E+01  0.12885120905E+02 -0.83038716695E+02  0.84432037855E+02  0.10000000000E+01 0.  0.
    9000005    1    3    3    0    0 -0.81433534428E+01 -0.12885120905E+02  0.43955608061E+02  0.46534245734E+02  0.10000000000E+01 0.  0.
<mgrwt>
<rscale>  0 0.12499871E+03</rscale>
<asrwt>0</asrwt>
<pdfrwt beam="2">  1        4 0.13080722E-01 0.12499871E+03</pdfrwt>
<pdfrwt beam="1">  1       -4 0.70679365E-02 0.12499871E+03</pdfrwt>
<totfact> 0.10324112E+04</totfact>
</mgrwt>
</event>
<event>
 5    1  0.3241863E-002  0.1250012E+03  0.7818608E-02  0.1235067E+00
          4   -1    0    0  501    0  0.00000000000E+00  0.00000000000E+00  0.13115826117E+03  0.13116440970E+03  0.12700000000E+01 0. -1.
         -4   -1    0    0    0  501 -0.00000000000E+00 -0.00000000000E+00 -0.29762881869E+02  0.29789965377E+02  0.12700000000E+01 0. -1.
         25    2    1    2    0    0  0.00000000000E+00  0.00000000000E+00  0.10139537930E+03  0.16095437508E+03  0.12500115165E+03 0.  0.
    9000005    1    3    3    0    0 -0.36213069477E+02  0.42884044712E+02  0.86075572644E+02  0.10276396206E+03  0.10000000000E+01 0.  0.
    9000005    1    3    3    0    0  0.36213069477E+02 -0.42884044712E+02  0.15319806657E+02  0.58190413023E+02  0.10000000000E+01 0.  0.
<mgrwt>
<rscale>  0 0.12500115E+03</rscale>
<asrwt>0</asrwt>
<pdfrwt beam="1">  1        4 0.20180750E-01 0.12500115E+03</pdfrwt>
<pdfrwt beam="2">  1       -4 0.45814613E-02 0.12500115E+03</pdfrwt>
<totfact> 0.97156589E+03</totfact>
</mgrwt>
</event>
<event>
 5    1  0.3241863E-002  0.1250011E+03  0.7818608E-02  0.1235068E+00
          4   -1    0    0  501    0  0.00000000000E+00  0.00000000000E+00  0.85766978578E+02  0.85776380866E+02  0.12700000000E+01 0.  1.
         -4   -1    0    0    0  501 -0.00000000000E+00 -0.00000000000E+00 -0.45524987552E+02  0.45542698554E+02  0.12700000000E+01 0.  1.
         25    2    1    2    0    0  0.00000000000E+00  0.00000000000E+00  0.40241991027E+02  0.13131907942E+03  0.12500113111E+03 0.  0.
    9000005    1    3    3    0    0 -0.74070889870E+01 -0.15919131524E+02  0.83127638076E+02  0.84967569859E+02  0.10000000000E+01 0.  0.
    9000005    1    3    3    0    0  0.74070889870E+01  0.15919131524E+02 -0.42885647049E+02  0.46351509561E+02  0.10000000000E+01 0.  0.
<mgrwt>
<rscale>  0 0.12500113E+03</rscale>
<asrwt>0</asrwt>
<pdfrwt beam="1">  1        4 0.13197005E-01 0.12500113E+03</pdfrwt>
<pdfrwt beam="2">  1       -4 0.70059299E-02 0.12500113E+03</pdfrwt>
<totfact> 0.10315990E+04</totfact>
</mgrwt>
</event>
<event>
 5    1  0.3241863E-002  0.1250014E+03  0.7818608E-02  0.1235067E+00
         -4   -1    0    0    0  501 -0.00000000000E+00  0.00000000000E+00  0.16911960727E+02  0.16959578875E+02  0.12700000000E+01 0.  1.
          4   -1    0    0  501    0  0.00000000000E+00 -0.00000000000E+00 -0.23060658418E+03  0.23061008123E+03  0.12700000000E+01 0.  1.
         25    2    1    2    0    0  0.00000000000E+00  0.00000000000E+00 -0.21369462345E+03  0.24756966011E+03  0.12500137805E+03 0.  0.
    9000005    1    3    3    0    0 -0.57211830961E+02 -0.14664411735E+02 -0.14729572053E+03  0.15869867000E+03  0.10000000000E+01 0.  0.
    9000005    1    3    3    0    0  0.57211830961E+02  0.14664411735E+02 -0.66398902917E+02  0.88870990104E+02  0.10000000000E+01 0.  0.
<mgrwt>
<rscale>  0 0.12500138E+03</rscale>
<asrwt>0</asrwt>
<pdfrwt beam="2">  1        4 0.35481866E-01 0.12500138E+03</pdfrwt>
<pdfrwt beam="1">  1       -4 0.26057722E-02 0.12500138E+03</pdfrwt>
<totfact> 0.82680223E+03</totfact>
</mgrwt>
</event>
<event>
 4    1  0.3241863E-002  0.1250637E+03  0.7818608E-02  0.1234970E+00
          4   -1    0    0  501    0  0.00000000000E+00  0.00000000000E+00  0.18604715041E+02  0.18648011201E+02  0.12700000000E+01 0. -1.
         -4   -1    0    0    0  501 -0.00000000000E+00 -0.00000000000E+00 -0.20988463364E+03  0.20988847595E+03  0.12700000000E+01 0. -1.
    9000005    1    1    2    0    0  0.54922024569E+02  0.20676779060E+02 -0.56223488453E+02  0.81277540741E+02  0.10000000000E+01 0.  0.
    9000005    1    1    2    0    0 -0.54922024569E+02 -0.20676779060E+02 -0.13505643015E+03  0.14725894641E+03  0.10000000000E+01 0.  0.
<mgrwt>
<rscale>  0 0.12506366E+03</rscale>
<asrwt>0</asrwt>
<pdfrwt beam="1">  1        4 0.28658900E-02 0.12506366E+03</pdfrwt>
<pdfrwt beam="2">  1       -4 0.32293568E-01 0.12506366E+03</pdfrwt>
<totfact> 0.85413440E+03</totfact>
</mgrwt>
</event>
<event>
 5    1  0.3241863E-002  0.1249999E+03  0.7818608E-02  0.1235070E+00
         -4   -1    0    0    0  501 -0.00000000000E+00  0.00000000000E+00  0.10359255500E+03  0.10360033954E+03  0.12700000000E+01 0. -1.
          4   -1    0    0  501    0  0.00000000000E+00 -0.00000000000E+00 -0.37687842026E+02  0.37709234103E+02  0.12700000000E+01 0. -1.
         25    2    1    2    0    0  0.00000000000E+00  0.00000000000E+00  0.65904712977E+02  0.14130957364E+03  0.12499985764E+03 0.  0.
    9000005    1    3    3    0    0  0.44964146138E+02  0.87018026079E+01  0.81017549176E+02  0.93071687860E+02  0.10000000000E+01 0.  0.
    9000005    1    3    3    0    0 -0.44964146138E+02 -0.87018026079E+01 -0.15112836199E+02  0.48237885780E+02  0.10000000000E+01 0.  0.
<mgrwt>
<rscale>  0 0.12499986E+03</rscale>
<asrwt>0</asrwt>
<pdfrwt beam="2">  1        4 0.58003740E-02 0.12499986E+03</pdfrwt>
<pdfrwt beam="1">  1       -4 0.15939560E-01 0.12499986E+03</pdfrwt>
<totfact> 0.10106548E+04</totfact>
</mgrwt>
</event>
<event>
 5    1  0.3241863E-002  0.1250024E+03  0.7818608E-02  0.1235066E+00
         -4   -1    0    0    0  501 -0.00000000000E+00  0.00000000000E+00  0.98129347555E+02  0.98137565446E+02  0.12700000000E+01 0. -1.
          4   -1    0    0  501    0  0.00000000000E+00 -0.00000000000E+00 -0.39788671820E+02  0.39808934993E+02  0.12700000000E+01 0. -1.
         25    2    1    2    0    0  0.00000000000E+00  0.00000000000E+00  0.58340675735E+02  0.13794650044E+03  0.12500241013E+03 0.  0.
    9000005    1    3    3    0    0 -0.25822396223E+02 -0.99640085578E+01  0.91001912014E+02  0.95123212748E+02  0.10000000000E+01 0.  0.
    9000005    1    3    3    0    0  0.25822396223E+02  0.99640085578E+01 -0.32661236280E+02  0.42823287690E+02  0.10000000000E+01 0.  0.
<mgrwt>
<rscale>  0 0.12500241E+03</rscale>
<asrwt>0</asrwt>
<pdfrwt beam="2">  1        4 0.61235250E-02 0.12500241E+03</pdfrwt>
<pdfrwt beam="1">  1       -4 0.15099013E-01 0.12500241E+03</pdfrwt>
<totfact> 0.10175771E+04</totfact>
</mgrwt>
</event>
<event>
 5    1  0.3241863E-002  0.1250014E+03  0.7818608E-02  0.1235067E+00
          4   -1    0    0  501    0  0.00000000000E+00  0.00000000000E+00  0.78614842043E+02  0.78625099615E+02  0.12700000000E+01 0. -1.
         -4   -1    0    0    0  501 -0.00000000000E+00 -0.00000000000E+00 -0.49667923434E+02  0.49684157619E+02  0.12700000000E+01 0. -1.
         25    2    1    2    0    0  0.00000000000E+00  0.00000000000E+00  0.28946918609E+02  0.12830925723E+03  0.12500136557E+03 0.  0.
    9000005    1    3    3    0    0 -0.61214138894E+02  0.70133016863E+01  0.25188971732E+02  0.66572077465E+02  0.10000000000E+01 0.  0.
    9000005    1    3    3    0    0  0.61214138894E+02 -0.70133016863E+01  0.37579468774E+01  0.61737179769E+02  0.10000000000E+01 0.  0.
<mgrwt>
<rscale>  0 0.12500137E+03</rscale>
<asrwt>0</asrwt>
<pdfrwt beam="1">  1        4 0.12096629E-01 0.12500137E+03</pdfrwt>
<pdfrwt beam="2">  1       -4 0.76432568E-02 0.12500137E+03</pdfrwt>
<totfact> 0.10380494E+04</totfact>
</mgrwt>
</event>
<event>
 5    1  0.3241863E-002  0.1249941E+03  0.7818608E-02  0.1235079E+00
         -4   -1    0    0    0  501 -0.00000000000E+00  0.00000000000E+00  0.25459950743E+03  0.25460267494E+03  0.12700000000E+01 0. -1.
          4   -1    0    0  501    0  0.00000000000E+00 -0.00000000000E+00 -0.15311712561E+02  0.15364291118E+02  0.12700000000E+01 0. -1.
         25    2    1    2    0    0  0.00000000000E+00  0.00000000000E+00  0.23928779487E+03  0.26996696606E+03  0.12499405580E+03 0.  0.
    9000005    1    3    3    0    0  0.15227703940E+02 -0.56122358602E+02  0.70237084792E+02  0.91191283479E+02  0.10000000000E+01 0.  0.
    9000005    1    3    3    0    0 -0.15227703940E+02  0.56122358602E+02  0.16905071008E+03  0.17877568258E+03  0.10000000000E+01 0.  0.
<mgrwt>
<rscale>  0 0.12499406E+03</rscale>
<asrwt>0</asrwt>
<pdfrwt beam="2">  1        4 0.23599362E-02 0.12499406E+03</pdfrwt>
<pdfrwt beam="1">  1       -4 0.39173443E-01 0.12499406E+03</pdfrwt>
<totfact> 0.79537886E+03</totfact>
</mgrwt>
</event>
<event>
 5    1  0.3241863E-002  0.1250005E+03  0.7818608E-02  0.1235068E+00
         -4   -1    0    0    0  501 -0.00000000000E+00  0.00000000000E+00  0.81550538128E+01  0.82533509976E+01  0.12700000000E+01 0. -1.
          4   -1    0    0  501    0  0.00000000000E+00 -0.00000000000E+00 -0.47603265346E+03  0.47603434756E+03  0.12700000000E+01 0. -1.
         25    2    1    2    0    0  0.00000000000E+00  0.00000000000E+00 -0.46787759965E+03  0.48428769856E+03  0.12500050690E+03 0.  0.
    9000005    1    3    3    0    0 -0.57852962677E+02 -0.23001946671E+02 -0.25488390746E+03  0.26237923150E+03  0.10000000000E+01 0.  0.
    9000005    1    3    3    0    0  0.57852962677E+02  0.23001946671E+02 -0.21299369219E+03  0.22190846706E+03  0.10000000000E+01 0.  0.
<mgrwt>
<rscale>  0 0.12500051E+03</rscale>
<asrwt>0</asrwt>
<pdfrwt beam="2">  1        4 0.73243463E-01 0.12500051E+03</pdfrwt>
<pdfrwt beam="1">  1       -4 0.12623157E-02 0.12500051E+03</pdfrwt>
<totfact> 0.57103766E+03</totfact>
</mgrwt>
</event>
<event>
 5    1  0.3241863E-002  0.1249999E+03  0.7818608E-02  0.1235069E+00
         -4   -1    0    0    0  501 -0.00000000000E+00  0.00000000000E+00  0.87438858115E+01  0.88356346170E+01  0.12700000000E+01 0.  1.
          4   -1    0    0  501    0  0.00000000000E+00 -0.00000000000E+00 -0.44431589672E+03  0.44431771176E+03  0.12700000000E+01 0.  1.
         25    2    1    2    0    0  0.00000000000E+00  0.00000000000E+00 -0.43557201091E+03  0.45315334637E+03  0.12499991456E+03 0.  0.
    9000005    1    3    3    0    0  0.79694889172E+01 -0.37426428825E+02 -0.39689560413E+03  0.39873722036E+03  0.10000000000E+01 0.  0.
    9000005    1    3    3    0    0 -0.79694889172E+01  0.37426428825E+02 -0.38676406786E+02  0.54416126011E+02  0.10000000000E+01 0.  0.
<mgrwt>
<rscale>  0 0.12499991E+03</rscale>
<asrwt>0</asrwt>
<pdfrwt beam="2">  1        4 0.68363472E-01 0.12499991E+03</pdfrwt>
<pdfrwt beam="1">  1       -4 0.13524108E-02 0.12499991E+03</pdfrwt>
<totfact> 0.59691711E+03</totfact>
</mgrwt>
</event>
<event>
 5    1  0.3241863E-002  0.1250002E+03  0.7818608E-02  0.1235069E+00
          4   -1    0    0  501    0  0.00000000000E+00  0.00000000000E+00  0.22473886450E+03  0.22474245286E+03  0.12700000000E+01 0.  1.
         -4   -1    0    0    0  501 -0.00000000000E+00 -0.00000000000E+00 -0.17354410890E+02  0.17400818295E+02  0.12700000000E+01 0.  1.
         25    2    1    2    0    0  0.00000000000E+00  0.00000000000E+00  0.20738445362E+03  0.24214327116E+03  0.12500020866E+03 0.  0.
    9000005    1    3    3    0    0  0.45987221712E+02  0.33137372728E+02  0.52720956264E+02  0.77417112201E+02  0.10000000000E+01 0.  0.
    9000005    1    3    3    0    0 -0.45987221712E+02 -0.33137372728E+02  0.15466349735E+03  0.16472615896E+03  0.10000000000E+01 0.  0.
<mgrwt>
<rscale>  0 0.12500021E+03</rscale>
<asrwt>0</asrwt>
<pdfrwt beam="1">  1        4 0.34579056E-01 0.12500021E+03</pdfrwt>
<pdfrwt beam="2">  1       -4 0.26737552E-02 0.12500021E+03</pdfrwt>
<totfact> 0.83478808E+03</totfact>
</mgrwt>
</event>
<event>
 5    1  0.3241863E-002  0.1250109E+03  0.7818608E-02  0.1235052E+00
         -4   -1    0    0    0  501 -0.00000000000E+00  0.00000000000E+00  0.53917600109E+03  0.53917749680E+03  0.12700000000E+01 0. -1.
          4   -1    0    0  501    0  0.00000000000E+00 -0.00000000000E+00 -0.71889461402E+01  0.73002634615E+01  0.12700000000E+01 0. -1.
         25    2    1    2    0    0  0.00000000000E+00  0.00000000000E+00  0.53198705495E+03  0.54647776026E+03  0.12501086282E+03 0.  0.
    9000005    1    3    3    0    0 -0.27494114413E+02  0.52835184843E+02  0.18323046916E+03  0.19267041266E+03  0.10000000000E+01 0.  0.
    9000005    1    3    3    0    0  0.27494114413E+02 -0.52835184843E+02  0.34875658579E+03  0.35380734761E+03  0.10000000000E+01 0.  0.
<mgrwt>
<rscale>  0 0.12501086E+03</rscale>
<asrwt>0</asrwt>
<pdfrwt beam="2">  1        4 0.11146698E-02 0.12501086E+03</pdfrwt>
<pdfrwt beam="1">  1       -4 0.82958817E-01 0.12501086E+03</pdfrwt>
<totfact> 0.52417877E+03</totfact>
</mgrwt>
</event>
<event>
 5    1  0.3241863E-002  0.1250022E+03  0.7818608E-02  0.1235066E+00
          4   -1    0    0  501    0  0.00000000000E+00  0.00000000000E+00  0.42327251986E+03  0.42327442513E+03  0.12700000000E+01 0. -1.
         -4   -1    0    0    0  501 -0.00000000000E+00 -0.00000000000E+00 -0.91833869283E+01  0.92707872091E+01  0.12700000000E+01 0. -1.
         25    2    1    2    0    0  0.00000000000E+00  0.00000000000E+00  0.41408913293E+03  0.43254521233E+03  0.12500220280E+03 0.  0.
    9000005    1    3    3    0    0 -0.40030992088E+02  0.22783315013E+02  0.60897426808E+02  0.76361353853E+02  0.10000000000E+01 0.  0.
    9000005    1    3    3    0    0  0.40030992088E+02 -0.22783315013E+02  0.35319170612E+03  0.35618385848E+03  0.10000000000E+01 0.  0.
<mgrwt>
<rscale>  0 0.12500220E+03</rscale>
<asrwt>0</asrwt>
<pdfrwt beam="1">  1        4 0.65125710E-01 0.12500220E+03</pdfrwt>
<pdfrwt beam="2">  1       -4 0.14196986E-02 0.12500220E+03</pdfrwt>
<totfact> 0.61502976E+03</totfact>
</mgrwt>
</event>
<event>
 5    1  0.3241863E-002  0.1250003E+03  0.7818608E-02  0.1235069E+00
         -4   -1    0    0    0  501 -0.00000000000E+00  0.00000000000E+00  0.35204112574E+02  0.35227012961E+02  0.12700000000E+01 0.  1.
          4   -1    0    0  501    0  0.00000000000E+00 -0.00000000000E+00 -0.11089801973E+03  0.11090529149E+03  0.12700000000E+01 0.  1.
         25    2    1    2    0    0  0.00000000000E+00  0.00000000000E+00 -0.75693907156E+02  0.14613230445E+03  0.12500033129E+03 0.  0.
    9000005    1    3    3    0    0  0.24108548713E+00  0.60397183710E+02 -0.56602652482E+02  0.82781267146E+02  0.10000000000E+01 0.  0.
    9000005    1    3    3    0    0 -0.24108548713E+00 -0.60397183710E+02 -0.19091254675E+02  0.63351037303E+02  0.10000000000E+01 0.  0.
<mgrwt>
<rscale>  0 0.12500033E+03</rscale>
<asrwt>0</asrwt>
<pdfrwt beam="2">  1        4 0.17063555E-01 0.12500033E+03</pdfrwt>
<pdfrwt beam="1">  1       -4 0.54183383E-02 0.12500033E+03</pdfrwt>
<totfact> 0.10007958E+04</totfact>
</mgrwt>
</event>
<event>
 4    1  0.3241863E-002  0.1250808E+03  0.7818608E-02  0.1234943E+00
         -4   -1    0    0    0  501 -0.00000000000E+00  0.00000000000E+00  0.66536633527E+01  0.67737829912E+01  0.12700000000E+01 0.  1.
          4   -1    0    0  501    0  0.00000000000E+00 -0.00000000000E+00 -0.58246196149E+03  0.58246334604E+03  0.12700000000E+01 0.  1.
    9000005    1    1    2    0    0  0.26041410316E+02 -0.33683522961E+00 -0.20087648385E+02  0.32905654937E+02  0.10000000000E+01 0.  0.
    9000005    1    1    2    0    0 -0.26041410316E+02  0.33683522961E+00 -0.55572064975E+03  0.55633147410E+03  0.10000000000E+01 0.  0.
<mgrwt>
<rscale>  0 0.12508077E+03</rscale>
<asrwt>0</asrwt>
<pdfrwt beam="2">  1        4 0.89618839E-01 0.12508077E+03</pdfrwt>
<pdfrwt beam="1">  1       -4 0.10329875E-02 0.12508077E+03</pdfrwt>
<totfact> 0.49466455E+03</totfact>
</mgrwt>
</event>
<event>
 5    1  0.3241863E-002  0.1249937E+03  0.7818608E-02  0.1235079E+00
          4   -1    0    0  501    0  0.00000000000E+00  0.00000000000E+00  0.43641112889E+01  0.45451476700E+01  0.12700000000E+01 0. -1.
         -4   -1    0    0    0  501 -0.00000000000E+00 -0.00000000000E+00 -0.87662637913E+03  0.87662729907E+03  0.12700000000E+01 0. -1.
         25    2    1    2    0    0  0.00000000000E+00  0.00000000000E+00 -0.87226226784E+03  0.88117244674E+03  0.12499366786E+03 0.  0.
    9000005    1    3    3    0    0  0.49068705859E+02  0.17074143914E+02 -0.19135294967E+03  0.19828317032E+03  0.10000000000E+01 0.  0.
    9000005    1    3    3    0    0 -0.49068705859E+02 -0.17074143914E+02 -0.68090931817E+03  0.68288927642E+03  0.10000000000E+01 0.  0.
<mgrwt>
<rscale>  0 0.12499367E+03</rscale>
<asrwt>0</asrwt>
<pdfrwt beam="1">  1        4 0.68539908E-03 0.12499367E+03</pdfrwt>
<pdfrwt beam="2">  1       -4 0.13487946E+00 0.12499367E+03</pdfrwt>
<totfact> 0.34889401E+03</totfact>
</mgrwt>
</event>
<event>
 5    1  0.3241863E-002  0.1250014E+03  0.7818608E-02  0.1235067E+00
          4   -1    0    0  501    0  0.00000000000E+00  0.00000000000E+00  0.20819012741E+04  0.20819016614E+04  0.12700000000E+01 0.  1.
         -4   -1    0    0    0  501 -0.00000000000E+00 -0.00000000000E+00 -0.16609978962E+01  0.20908883307E+01  0.12700000000E+01 0.  1.
         25    2    1    2    0    0  0.00000000000E+00  0.00000000000E+00  0.20802402762E+04  0.20839925498E+04  0.12500136340E+03 0.  0.
    9000005    1    3    3    0    0 -0.38142410835E+02 -0.87906860432E+01  0.22794441354E+03  0.23128289027E+03  0.10000000000E+01 0.  0.
    9000005    1    3    3    0    0  0.38142410835E+02  0.87906860432E+01  0.18522958626E+04  0.18527096595E+04  0.10000000000E+01 0.  0.
<mgrwt>
<rscale>  0 0.12500136E+03</rscale>
<asrwt>0</asrwt>
<pdfrwt beam="1">  1        4 0.32032586E+00 0.12500136E+03</pdfrwt>
<pdfrwt beam="2">  1       -4 0.28863620E-03 0.12500136E+03</pdfrwt>
<totfact> 0.88042407E+02</totfact>
</mgrwt>
</event>
<event>
 5    1  0.3241863E-002  0.1249990E+03  0.7818608E-02  0.1235071E+00
         -4   -1    0    0    0  501 -0.00000000000E+00  0.00000000000E+00  0.74174109872E+01  0.75253495436E+01  0.12700000000E+01 0.  1.
          4   -1    0    0  501    0  0.00000000000E+00 -0.00000000000E+00 -0.52271164893E+03  0.52271319175E+03  0.12700000000E+01 0.  1.
         25    2    1    2    0    0  0.00000000000E+00  0.00000000000E+00 -0.51529423794E+03  0.53023854129E+03  0.12499903605E+03 0.  0.
    9000005    1    3    3    0    0 -0.39684090674E+02 -0.43921595141E+02 -0.34261905154E+03  0.34769634460E+03  0.10000000000E+01 0.  0.
    9000005    1    3    3    0    0  0.39684090674E+02  0.43921595141E+02 -0.17267518640E+03  0.18254219668E+03  0.10000000000E+01 0.  0.
<mgrwt>
<rscale>  0 0.12499904E+03</rscale>
<asrwt>0</asrwt>
<pdfrwt beam="2">  1        4 0.80425570E-01 0.12499904E+03</pdfrwt>
<pdfrwt beam="1">  1       -4 0.11495622E-02 0.12499904E+03</pdfrwt>
<totfact> 0.53593402E+03</totfact>
</mgrwt>
</event>
<event>
 5    1  0.3241863E-002  0.1250040E+03  0.7818608E-02  0.1235063E+00
         -4   -1    0    0    0  501 -0.00000000000E+00  0.00000000000E+00  0.15273519254E+03  0.15274047250E+03  0.12700000000E+01 0. -1.
          4   -1    0    0  501    0  0.00000000000E+00 -0.00000000000E+00 -0.25555443382E+02  0.25586980800E+02  0.12700000000E+01 0. -1.
         25    2    1    2    0    0  0.00000000000E+00  0.00000000000E+00  0.12717974915E+03  0.17832745330E+03  0.12500396796E+03 0.  0.
    9000005    1    3    3    0    0  0.28314247073E+02  0.55393911242E+02  0.72067617281E+02  0.95209891558E+02  0.10000000000E+01 0.  0.
    9000005    1    3    3    0    0 -0.28314247073E+02 -0.55393911242E+02  0.55112131872E+02  0.83117561739E+02  0.10000000000E+01 0.  0.
<mgrwt>
<rscale>  0 0.12500397E+03</rscale>
<asrwt>0</asrwt>
<pdfrwt beam="2">  1        4 0.39344389E-02 0.12500397E+03</pdfrwt>
<pdfrwt beam="1">  1       -4 0.23500554E-01 0.12500397E+03</pdfrwt>
<totfact> 0.93910580E+03</totfact>
</mgrwt>
</event>
<event>
 5    1  0.3241863E-002  0.1250001E+03  0.7818608E-02  0.1235069E+00
          4   -1    0    0  501    0  0.00000000000E+00  0.00000000000E+00  0.10237421124E+03  0.10238208841E+03  0.12700000000E+01 0. -1.
         -4   -1    0    0    0  501 -0.00000000000E+00 -0.00000000000E+00 -0.38136753889E+02  0.38157894297E+02  0.12700000000E+01 0. -1.
         25    2    1    2    0    0  0.00000000000E+00  0.00000000000E+00  0.64237457350E+02  0.14053998270E+03  0.12500014325E+03 0.  0.
    9000005    1    3    3    0    0  0.36059526465E+02 -0.29029636582E+01 -0.25172361526E+02  0.44083607289E+02  0.10000000000E+01 0.  0.
    9000005    1    3    3    0    0 -0.36059526465E+02  0.29029636582E+01  0.89409818876E+02  0.96456375415E+02  0.10000000000E+01 0.  0.
<mgrwt>
<rscale>  0 0.12500014E+03</rscale>
<asrwt>0</asrwt>
<pdfrwt beam="1">  1        4 0.15752111E-01 0.12500014E+03</pdfrwt>
<pdfrwt beam="2">  1       -4 0.58694250E-02 0.12500014E+03</pdfrwt>
<totfact> 0.10122374E+04</totfact>
</mgrwt>
</event>
<event>
 4    1  0.3241863E-002  0.1248552E+03  0.7818608E-02  0.1235296E+00
          4   -1    0    0  501    0  0.00000000000E+00  0.00000000000E+00  0.81366102034E+01  0.82351275401E+01  0.12700000000E+01 0.  1.
         -4   -1    0    0    0  501 -0.00000000000E+00 -0.00000000000E+00 -0.47599009149E+03  0.47599178574E+03  0.12700000000E+01 0.  1.
    9000005    1    1    2    0    0 -0.49053278500E+02 -0.38257565443E+01 -0.84960074195E+02  0.98183882343E+02  0.10000000000E+01 0.  0.
    9000005    1    1    2    0    0  0.49053278500E+02  0.38257565443E+01 -0.38289340709E+03  0.38604303094E+03  0.10000000000E+01 0.  0.
<mgrwt>
<rscale>  0 0.12485521E+03</rscale>
<asrwt>0</asrwt>
<pdfrwt beam="1">  1        4 0.12594951E-02 0.12485521E+03</pdfrwt>
<pdfrwt beam="2">  1       -4 0.73236932E-01 0.12485521E+03</pdfrwt>
<totfact> 0.57291580E+03</totfact>
</mgrwt>
</event>
<event>
 5    1  0.3241863E-002  0.1250030E+03  0.7818608E-02  0.1235065E+00
          4   -1    0    0  501    0  0.00000000000E+00  0.00000000000E+00  0.96069491108E+01  0.96905299761E+01  0.12700000000E+01 0. -1.
         -4   -1    0    0    0  501 -0.00000000000E+00 -0.00000000000E+00 -0.40478073550E+03  0.40478272781E+03  0.12700000000E+01 0. -1.
         25    2    1    2    0    0  0.00000000000E+00  0.00000000000E+00 -0.39517378639E+03  0.41447325778E+03  0.12500303984E+03 0.  0.
    9000005    1    3    3    0    0  0.27238824650E+01  0.37201533526E+02 -0.36383790947E+03  0.36574635747E+03  0.10000000000E+01 0.  0.
    9000005    1    3    3    0    0 -0.27238824650E+01 -0.37201533526E+02 -0.31335876920E+02  0.48726900319E+02  0.10000000000E+01 0.  0.
<mgrwt>
<rscale>  0 0.12500304E+03</rscale>
<asrwt>0</asrwt>
<pdfrwt beam="1">  1        4 0.14845750E-02 0.12500304E+03</pdfrwt>
<pdfrwt beam="2">  1       -4 0.62280529E-01 0.12500304E+03</pdfrwt>
<totfact> 0.63164835E+03</totfact>
</mgrwt>
</event>
<event>
 5    1  0.3241863E-002  0.1249988E+03  0.7818608E-02  0.1235071E+00
          4   -1    0    0  501    0  0.00000000000E+00  0.00000000000E+00  0.75863973952E+02  0.75874603418E+02  0.12700000000E+01 0.  1.
         -4   -1    0    0    0  501 -0.00000000000E+00 -0.00000000000E+00 -0.51467152405E+02  0.51482819238E+02  0.12700000000E+01 0.  1.
         25    2    1    2    0    0  0.00000000000E+00  0.00000000000E+00  0.24396821547E+02  0.12735742266E+03  0.12499883281E+03 0.  0.
    9000005    1    3    3    0    0  0.19724833294E+01 -0.38346598870E+01  0.75717199405E+02  0.75846487016E+02  0.10000000000E+01 0.  0.
    9000005    1    3    3    0    0 -0.19724833294E+01  0.38346598870E+01 -0.51320377858E+02  0.51510935639E+02  0.10000000000E+01 0.  0.
<mgrwt>
<rscale>  0 0.12499883E+03</rscale>
<asrwt>0</asrwt>
<pdfrwt beam="1">  1        4 0.11673403E-01 0.12499883E+03</pdfrwt>
<pdfrwt beam="2">  1       -4 0.79200462E-02 0.12499883E+03</pdfrwt>
<totfact> 0.10401664E+04</totfact>
</mgrwt>
</event>
<event>
 5    1  0.3241863E-002  0.1250373E+03  0.7818608E-02  0.1235011E+00
         -4   -1    0    0    0  501 -0.00000000000E+00  0.00000000000E+00  0.33385373490E+01  0.35719366778E+01  0.12700000000E+01 0. -1.
          4   -1    0    0  501    0  0.00000000000E+00 -0.00000000000E+00 -0.11309718322E+04  0.11309725452E+04  0.12700000000E+01 0. -1.
         25    2    1    2    0    0  0.00000000000E+00  0.00000000000E+00 -0.11276332948E+04  0.11345444819E+04  0.12503732977E+03 0.  0.
    9000005    1    3    3    0    0  0.44048601384E+02 -0.32246728265E+02 -0.28748684897E+03  0.29262573212E+03  0.10000000000E+01 0.  0.
    9000005    1    3    3    0    0 -0.44048601384E+02  0.32246728265E+02 -0.84014644583E+03  0.84191874977E+03  0.10000000000E+01 0.  0.
<mgrwt>
<rscale>  0 0.12503733E+03</rscale>
<asrwt>0</asrwt>
<pdfrwt beam="2">  1        4 0.17401338E+00 0.12503733E+03</pdfrwt>
<pdfrwt beam="1">  1       -4 0.53163068E-03 0.12503733E+03</pdfrwt>
<totfact> 0.26471481E+03</totfact>
</mgrwt>
</event>
<event>
 5    1  0.3241863E-002  0.1250045E+03  0.7818608E-02  0.1235062E+00
          4   -1    0    0  501    0  0.00000000000E+00  0.00000000000E+00  0.11074993527E+03  0.11075721675E+03  0.12700000000E+01 0. -1.
         -4   -1    0    0    0  501 -0.00000000000E+00 -0.00000000000E+00 -0.35253553801E+02  0.35276422092E+02  0.12700000000E+01 0. -1.
         25    2    1    2    0    0  0.00000000000E+00  0.00000000000E+00  0.75496381473E+02  0.14603363885E+03  0.12500448016E+03 0.  0.
    9000005    1    3    3    0    0  0.38881633940E+02  0.26985391220E+02  0.85424705426E+02  0.97664594886E+02  0.10000000000E+01 0.  0.
    9000005    1    3    3    0    0 -0.38881633940E+02 -0.26985391220E+02 -0.99283239527E+01  0.48369043960E+02  0.10000000000E+01 0.  0.
<mgrwt>
<rscale>  0 0.12500448E+03</rscale>
<asrwt>0</asrwt>
<pdfrwt beam="1">  1        4 0.17040770E-01 0.12500448E+03</pdfrwt>
<pdfrwt beam="2">  1       -4 0.54259430E-02 0.12500448E+03</pdfrwt>
<totfact> 0.10009020E+04</totfact>
</mgrwt>
</event>
<event>
 5    1  0.3241863E-002  0.1250013E+03  0.7818608E-02  0.1235067E+00
          4   -1    0    0  501    0  0.00000000000E+00  0.00000000000E+00  0.36894254624E+01  0.39018918799E+01  0.12700000000E+01 0.  1.
         -4   -1    0    0    0  501 -0.00000000000E+00 -0.00000000000E+00 -0.10289441418E+04  0.10289449256E+04  0.12700000000E+01 0.  1.
         25    2    1    2    0    0  0.00000000000E+00  0.00000000000E+00 -0.10252547164E+04  0.10328468175E+04  0.12500125972E+03 0.  0.
    9000005    1    3    3    0    0 -0.60541470882E+02  0.96386214472E+01 -0.61286031286E+03  0.61591958549E+03  0.10000000000E+01 0.  0.
    9000005    1    3    3    0    0  0.60541470882E+02 -0.96386214472E+01 -0.41239440353E+03  0.41692723200E+03  0.10000000000E+01 0.  0.
<mgrwt>
<rscale>  0 0.12500126E+03</rscale>
<asrwt>0</asrwt>
<pdfrwt beam="1">  1        4 0.58400860E-03 0.12500126E+03</pdfrwt>
<pdfrwt beam="2">  1       -4 0.15831528E+00 0.12500126E+03</pdfrwt>
<totfact> 0.29535692E+03</totfact>
</mgrwt>
</event>
<event>
 5    1  0.3241863E-002  0.1249994E+03  0.7818608E-02  0.1235070E+00
         -4   -1    0    0    0  501 -0.00000000000E+00  0.00000000000E+00  0.18943288479E+03  0.18943714192E+03  0.12700000000E+01 0.  1.
          4   -1    0    0  501    0  0.00000000000E+00 -0.00000000000E+00 -0.20596513212E+02  0.20635630751E+02  0.12700000000E+01 0.  1.
         25    2    1    2    0    0  0.00000000000E+00  0.00000000000E+00  0.16883637158E+03  0.21007277267E+03  0.12499939780E+03 0.  0.
    9000005    1    3    3    0    0 -0.27160068822E+02 -0.44716907944E+02  0.26983753808E+02  0.58876091617E+02  0.10000000000E+01 0.  0.
    9000005    1    3    3    0    0  0.27160068822E+02  0.44716907944E+02  0.14185261777E+03  0.15119668106E+03  0.10000000000E+01 0.  0.
<mgrwt>
<rscale>  0 0.12499940E+03</rscale>
<asrwt>0</asrwt>
<pdfrwt beam="2">  1        4 0.31720308E-02 0.12499940E+03</pdfrwt>
<pdfrwt beam="1">  1       -4 0.29146858E-01 0.12499940E+03</pdfrwt>
<totfact> 0.88465188E+03</totfact>
</mgrwt>
</event>
<event>
 5    1  0.3241863E-002  0.1249975E+03  0.7818608E-02  0.1235073E+00
          4   -1    0    0  501    0  0.00000000000E+00  0.00000000000E+00  0.17040299846E+03  0.17040773100E+03  0.12700000000E+01 0. -1.
         -4   -1    0    0    0  501 -0.00000000000E+00 -0.00000000000E+00 -0.22900048399E+02  0.22935237446E+02  0.12700000000E+01 0. -1.
         25    2    1    2    0    0  0.00000000000E+00  0.00000000000E+00  0.14750295006E+03  0.19334296845E+03  0.12499753266E+03 0.  0.
    9000005    1    3    3    0    0 -0.25677068532E+02  0.55164862682E+02  0.95769081275E+02  0.11346889817E+03  0.10000000000E+01 0.  0.
    9000005    1    3    3    0    0  0.25677068532E+02 -0.55164862682E+02  0.51733868789E+02  0.79874070280E+02  0.10000000000E+01 0.  0.
<mgrwt>
<rscale>  0 0.12499753E+03</rscale>
<asrwt>0</asrwt>
<pdfrwt beam="1">  1        4 0.26218918E-01 0.12499753E+03</pdfrwt>
<pdfrwt beam="2">  1       -4 0.35261551E-02 0.12499753E+03</pdfrwt>
<totfact> 0.91273923E+03</totfact>
</mgrwt>
</event>
<event>
 5    1  0.3241863E-002  0.1249995E+03  0.7818608E-02  0.1235070E+00
         -4   -1    0    0    0  501 -0.00000000000E+00  0.00000000000E+00  0.81615699558E+01  0.82597895943E+01  0.12700000000E+01 0. -1.
          4   -1    0    0  501    0  0.00000000000E+00 -0.00000000000E+00 -0.47564923898E+03  0.47565093445E+03  0.12700000000E+01 0. -1.
         25    2    1    2    0    0  0.00000000000E+00  0.00000000000E+00 -0.46748766902E+03  0.48391072404E+03  0.12499947262E+03 0.  0.
    9000005    1    3    3    0    0 -0.60855543947E+01  0.60810219384E+02 -0.18322367036E+03  0.19314976089E+03  0.10000000000E+01 0.  0.
    9000005    1    3    3    0    0  0.60855543947E+01 -0.60810219384E+02 -0.28426399867E+03  0.29076096315E+03  0.10000000000E+01 0.  0.
<mgrwt>
<rscale>  0 0.12499947E+03</rscale>
<asrwt>0</asrwt>
<pdfrwt beam="2">  1        4 0.73184470E-01 0.12499947E+03</pdfrwt>
<pdfrwt beam="1">  1       -4 0.12633123E-02 0.12499947E+03</pdfrwt>
<totfact> 0.57135340E+03</totfact>
</mgrwt>
</event>
<event>
 5    1  0.3241863E-002  0.1250014E+03  0.7818608E-02  0.1235067E+00
          4   -1    0    0  501    0  0.00000000000E+00  0.00000000000E+00  0.61362928138E+02  0.61376069030E+02  0.12700000000E+01 0. -1.
         -4   -1    0    0    0  501 -0.00000000000E+00 -0.00000000000E+00 -0.63633304000E+02  0.63645976134E+02  0.12700000000E+01 0. -1.
         25    2    1    2    0    0  0.00000000000E+00  0.00000000000E+00 -0.22703758627E+01  0.12502204516E+03  0.12500142867E+03 0.  0.
    9000005    1    3    3    0    0 -0.30837574103E+02  0.36148710869E+02 -0.41733187373E+02  0.63248274303E+02  0.10000000000E+01 0.  0.
    9000005    1    3    3    0    0  0.30837574103E+02 -0.36148710869E+02  0.39462811510E+02  0.61773770861E+02  0.10000000000E+01 0.  0.
<mgrwt>
<rscale>  0 0.12500143E+03</rscale>
<asrwt>0</asrwt>
<pdfrwt beam="1">  1        4 0.94424361E-02 0.12500143E+03</pdfrwt>
<pdfrwt beam="2">  1       -4 0.97917247E-02 0.12500143E+03</pdfrwt>
<totfact> 0.10452046E+04</totfact>
</mgrwt>
</event>
<event>
 5    1  0.3241863E-002  0.1250131E+03  0.7818608E-02  0.1235049E+00
          4   -1    0    0  501    0  0.00000000000E+00  0.00000000000E+00  0.23103021825E+02  0.23137902183E+02  0.12700000000E+01 0. -1.
         -4   -1    0    0    0  501 -0.00000000000E+00 -0.00000000000E+00 -0.16895016502E+03  0.16895493826E+03  0.12700000000E+01 0. -1.
         25    2    1    2    0    0  0.00000000000E+00  0.00000000000E+00 -0.14584714320E+03  0.19209284044E+03  0.12501307999E+03 0.  0.
    9000005    1    3    3    0    0  0.29482629302E+02  0.38250480127E+02 -0.11966708086E+02  0.49764714034E+02  0.10000000000E+01 0.  0.
    9000005    1    3    3    0    0 -0.29482629302E+02 -0.38250480127E+02 -0.13388043511E+03  0.14232812641E+03  0.10000000000E+01 0.  0.
<mgrwt>
<rscale>  0 0.12501308E+03</rscale>
<asrwt>0</asrwt>
<pdfrwt beam="1">  1        4 0.35573614E-02 0.12501308E+03</pdfrwt>
<pdfrwt beam="2">  1       -4 0.25995383E-01 0.12501308E+03</pdfrwt>
<totfact> 0.91457644E+03</totfact>
</mgrwt>
</event>
<event>
 5    1  0.3241863E-002  0.1249977E+03  0.7818608E-02  0.1235073E+00
          4   -1    0    0  501    0  0.00000000000E+00  0.00000000000E+00  0.23390784317E+03  0.23391129087E+03  0.12700000000E+01 0. -1.
         -4   -1    0    0    0  501 -0.00000000000E+00 -0.00000000000E+00 -0.16671627055E+02  0.16719929685E+02  0.12700000000E+01 0. -1.
         25    2    1    2    0    0  0.00000000000E+00  0.00000000000E+00  0.21723621611E+03  0.25063122055E+03  0.12499774048E+03 0.  0.
    9000005    1    3    3    0    0 -0.57944598300E+01 -0.20490345479E+01 -0.16073973171E+02  0.17237950017E+02  0.10000000000E+01 0.  0.
    9000005    1    3    3    0    0  0.57944598300E+01  0.20490345479E+01  0.23331018928E+03  0.23339327053E+03  0.10000000000E+01 0.  0.
<mgrwt>
<rscale>  0 0.12499774E+03</rscale>
<asrwt>0</asrwt>
<pdfrwt beam="1">  1        4 0.35989802E-01 0.12499774E+03</pdfrwt>
<pdfrwt beam="2">  1       -4 0.25688465E-02 0.12499774E+03</pdfrwt>
<totfact> 0.82243221E+03</totfact>
</mgrwt>
</event>
<event>
 5    1  0.3241863E-002  0.1250035E+03  0.7818608E-02  0.1235064E+00
         -4   -1    0    0    0  501 -0.00000000000E+00  0.00000000000E+00  0.36396227518E+02  0.36418378293E+02  0.12700000000E+01 0. -1.
          4   -1    0    0  501    0  0.00000000000E+00 -0.00000000000E+00 -0.10727310259E+03  0.10728062006E+03  0.12700000000E+01 0. -1.
         25    2    1    2    0    0  0.00000000000E+00  0.00000000000E+00 -0.70876875077E+02  0.14369899835E+03  0.12500348278E+03 0.  0.
    9000005    1    3    3    0    0 -0.34081469209E+02  0.14618076231E+02  0.22386062146E+02  0.43328633426E+02  0.10000000000E+01 0.  0.
    9000005    1    3    3    0    0  0.34081469209E+02 -0.14618076231E+02 -0.93262937223E+02  0.10037036493E+03  0.10000000000E+01 0.  0.
<mgrwt>
<rscale>  0 0.12500348E+03</rscale>
<asrwt>0</asrwt>
<pdfrwt beam="2">  1        4 0.16505836E-01 0.12500348E+03</pdfrwt>
<pdfrwt beam="1">  1       -4 0.56017018E-02 0.12500348E+03</pdfrwt>
<totfact> 0.10056700E+04</totfact>
</mgrwt>
</event>
<event>
 5    1  0.3241863E-002  0.1250015E+03  0.7818608E-02  0.1235067E+00
         -4   -1    0    0    0  501 -0.00000000000E+00  0.00000000000E+00  0.15565352847E+03  0.15565870945E+03  0.12700000000E+01 0. -1.
          4   -1    0    0  501    0  0.00000000000E+00 -0.00000000000E+00 -0.25074750077E+02  0.25106891313E+02  0.12700000000E+01 0. -1.
         25    2    1    2    0    0  0.00000000000E+00  0.00000000000E+00  0.13057877840E+03  0.18076560076E+03  0.12500154019E+03 0.  0.
    9000005    1    3    3    0    0 -0.38213972585E+02  0.68575839447E+01 -0.55257495112E+01  0.39228408914E+02  0.10000000000E+01 0.  0.
    9000005    1    3    3    0    0  0.38213972585E+02 -0.68575839447E+01  0.13610452791E+03  0.14153719185E+03  0.10000000000E+01 0.  0.
<mgrwt>
<rscale>  0 0.12500154E+03</rscale>
<asrwt>0</asrwt>
<pdfrwt beam="2">  1        4 0.38605249E-02 0.12500154E+03</pdfrwt>
<pdfrwt beam="1">  1       -4 0.23949567E-01 0.12500154E+03</pdfrwt>
<totfact> 0.93476146E+03</totfact>
</mgrwt>
</event>
<event>
 5    1  0.3241863E-002  0.1250011E+03  0.7818608E-02  0.1235068E+00
         -4   -1    0    0    0  501 -0.00000000000E+00  0.00000000000E+00  0.13524037812E+03  0.13524634107E+03  0.12700000000E+01 0.  1.
          4   -1    0    0  501    0  0.00000000000E+00 -0.00000000000E+00 -0.28863696114E+02  0.28891622546E+02  0.12700000000E+01 0.  1.
         25    2    1    2    0    0  0.00000000000E+00  0.00000000000E+00  0.10637668200E+03  0.16413796362E+03  0.12500109050E+03 0.  0.
    9000005    1    3    3    0    0 -0.40461582086E+02  0.18998783170E+02  0.11053342305E+03  0.11923393392E+03  0.10000000000E+01 0.  0.
    9000005    1    3    3    0    0  0.40461582086E+02 -0.18998783170E+02 -0.41567410490E+01  0.44904029696E+02  0.10000000000E+01 0.  0.
<mgrwt>
<rscale>  0 0.12500109E+03</rscale>
<asrwt>0</asrwt>
<pdfrwt beam="2">  1        4 0.44431756E-02 0.12500109E+03</pdfrwt>
<pdfrwt beam="1">  1       -4 0.20808819E-01 0.12500109E+03</pdfrwt>
<totfact> 0.96548532E+03</totfact>
</mgrwt>
</event>
<event>
 5    1  0.3241863E-002  0.1249956E+03  0.7818608E-02  0.1235076E+00
         -4   -1    0    0    0  501 -0.00000000000E+00  0.00000000000E+00  0.39497874160E+03  0.39498078335E+03  0.12700000000E+01 0. -1.
          4   -1    0    0  501    0  0.00000000000E+00 -0.00000000000E+00 -0.98462272097E+01  0.99277938267E+01  0.12700000000E+01 0. -1.
         25    2    1    2    0    0  0.00000000000E+00  0.00000000000E+00  0.38513251439E+03  0.40490857717E+03  0.12499560885E+03 0.  0.
    9000005    1    3    3    0    0 -0.26244980968E+02  0.37037979677E+02  0.33168498847E+03  0.33477834838E+03  0.10000000000E+01 0.  0.
    9000005    1    3    3    0    0  0.26244980968E+02 -0.37037979677E+02  0.53447525914E+02  0.70130228795E+02  0.10000000000E+01 0.  0.
<mgrwt>
<rscale>  0 0.12499561E+03</rscale>
<asrwt>0</asrwt>
<pdfrwt beam="2">  1        4 0.15212355E-02 0.12499561E+03</pdfrwt>
<pdfrwt beam="1">  1       -4 0.60772394E-01 0.12499561E+03</pdfrwt>
<totfact> 0.64084378E+03</totfact>
</mgrwt>
</event>
<event>
 5    1  0.3241863E-002  0.1250012E+03  0.7818608E-02  0.1235067E+00
          4   -1    0    0  501    0  0.00000000000E+00  0.00000000000E+00  0.28478578857E+03  0.28478862033E+03  0.12700000000E+01 0. -1.
         -4   -1    0    0    0  501 -0.00000000000E+00 -0.00000000000E+00 -0.13684419797E+02  0.13743225429E+02  0.12700000000E+01 0. -1.
         25    2    1    2    0    0  0.00000000000E+00  0.00000000000E+00  0.27110136877E+03  0.29853184576E+03  0.12500124313E+03 0.  0.
    9000005    1    3    3    0    0 -0.62334890044E+02  0.27585161849E+01  0.12725015820E+03  0.14172808716E+03  0.10000000000E+01 0.  0.
    9000005    1    3    3    0    0  0.62334890044E+02 -0.27585161849E+01  0.14385121058E+03  0.15680375860E+03  0.10000000000E+01 0.  0.
<mgrwt>
<rscale>  0 0.12500124E+03</rscale>
<asrwt>0</asrwt>
<pdfrwt beam="1">  1        4 0.43817939E-01 0.12500124E+03</pdfrwt>
<pdfrwt beam="2">  1       -4 0.21100367E-02 0.12500124E+03</pdfrwt>
<totfact> 0.75781278E+03</totfact>
</mgrwt>
</event>
<event>
 5    1  0.3241863E-002  0.1250073E+03  0.7818608E-02  0.1235058E+00
          4   -1    0    0  501    0  0.00000000000E+00  0.00000000000E+00  0.63267580012E+03  0.63267707478E+03  0.12700000000E+01 0.  1.
         -4   -1    0    0    0  501 -0.00000000000E+00 -0.00000000000E+00 -0.61083006105E+01  0.62389291027E+01  0.12700000000E+01 0.  1.
         25    2    1    2    0    0  0.00000000000E+00  0.00000000000E+00  0.62656749950E+03  0.63891600388E+03  0.12500731411E+03 0.  0.
    9000005    1    3    3    0    0 -0.59258880974E+02 -0.46815405278E+01  0.41188493714E+03  0.41615349721E+03  0.10000000000E+01 0.  0.
    9000005    1    3    3    0    0  0.59258880974E+02  0.46815405278E+01  0.21468256236E+03  0.22276250667E+03  0.10000000000E+01 0.  0.
<mgrwt>
<rscale>  0 0.12500731E+03</rscale>
<asrwt>0</asrwt>
<pdfrwt beam="1">  1        4 0.97344901E-01 0.12500731E+03</pdfrwt>
<pdfrwt beam="2">  1       -4 0.94988479E-03 0.12500731E+03</pdfrwt>
<totfact> 0.46492291E+03</totfact>
</mgrwt>
</event>
<event>
 5    1  0.3241863E-002  0.1250170E+03  0.7818608E-02  0.1235043E+00
         -4   -1    0    0    0  501 -0.00000000000E+00  0.00000000000E+00  0.50959031704E+02  0.50974854705E+02  0.12700000000E+01 0.  1.
          4   -1    0    0  501    0  0.00000000000E+00 -0.00000000000E+00 -0.76642606589E+02  0.76653128082E+02  0.12700000000E+01 0.  1.
         25    2    1    2    0    0  0.00000000000E+00  0.00000000000E+00 -0.25683574885E+02  0.12762798279E+03  0.12501702273E+03 0.  0.
    9000005    1    3    3    0    0 -0.17654988834E+02  0.58234825050E+02 -0.27398635606E+02  0.66743379540E+02  0.10000000000E+01 0.  0.
    9000005    1    3    3    0    0  0.17654988834E+02 -0.58234825050E+02  0.17150607214E+01  0.60884603247E+02  0.10000000000E+01 0.  0.
<mgrwt>
<rscale>  0 0.12501702E+03</rscale>
<asrwt>0</asrwt>
<pdfrwt beam="2">  1        4 0.11793197E-01 0.12501702E+03</pdfrwt>
<pdfrwt beam="1">  1       -4 0.78418775E-02 0.12501702E+03</pdfrwt>
<totfact> 0.10391536E+04</totfact>
</mgrwt>
</event>
<event>
 5    1  0.3241863E-002  0.1249986E+03  0.7818608E-02  0.1235071E+00
         -4   -1    0    0    0  501 -0.00000000000E+00  0.00000000000E+00  0.16588328116E+02  0.16636872593E+02  0.12700000000E+01 0. -1.
          4   -1    0    0  501    0  0.00000000000E+00 -0.00000000000E+00 -0.23508228282E+03  0.23508571330E+03  0.12700000000E+01 0. -1.
         25    2    1    2    0    0  0.00000000000E+00  0.00000000000E+00 -0.21849395471E+03  0.25172258589E+03  0.12499860801E+03 0.  0.
    9000005    1    3    3    0    0 -0.28915649846E+01  0.14069800674E+02 -0.23172267754E+03  0.23216959259E+03  0.10000000000E+01 0.  0.
    9000005    1    3    3    0    0  0.28915649846E+01 -0.14069800674E+02  0.13228722834E+02  0.19552993297E+02  0.10000000000E+01 0.  0.
<mgrwt>
<rscale>  0 0.12499861E+03</rscale>
<asrwt>0</asrwt>
<pdfrwt beam="2">  1        4 0.36170501E-01 0.12499861E+03</pdfrwt>
<pdfrwt beam="1">  1       -4 0.25560487E-02 0.12499861E+03</pdfrwt>
<totfact> 0.82084442E+03</totfact>
</mgrwt>
</event>
<event>
 5    1  0.3241863E-002  0.1250084E+03  0.7818608E-02  0.1235056E+00
          4   -1    0    0  501    0  0.00000000000E+00  0.00000000000E+00  0.96110009734E+02  0.96118400273E+02  0.12700000000E+01 0. -1.
         -4   -1    0    0    0  501 -0.00000000000E+00 -0.00000000000E+00 -0.40628912653E+02  0.40648756972E+02  0.12700000000E+01 0. -1.
         25    2    1    2    0    0  0.00000000000E+00  0.00000000000E+00  0.55481097080E+02  0.13676715725E+03  0.12500841239E+03 0.  0.
    9000005    1    3    3    0    0  0.31964586743E+02  0.53613197964E+02  0.24339085472E+02  0.67003737830E+02  0.10000000000E+01 0.  0.
    9000005    1    3    3    0    0 -0.31964586743E+02 -0.53613197964E+02  0.31142011609E+02  0.69763419416E+02  0.10000000000E+01 0.  0.
<mgrwt>
<rscale>  0 0.12500841E+03</rscale>
<asrwt>0</asrwt>
<pdfrwt beam="1">  1        4 0.14788327E-01 0.12500841E+03</pdfrwt>
<pdfrwt beam="2">  1       -4 0.62527739E-02 0.12500841E+03</pdfrwt>
<totfact> 0.10199022E+04</totfact>
</mgrwt>
</event>
<event>
 5    1  0.3241863E-002  0.1249985E+03  0.7818608E-02  0.1235072E+00
         -4   -1    0    0    0  501 -0.00000000000E+00  0.00000000000E+00  0.39463506884E+01  0.41456704833E+01  0.12700000000E+01 0. -1.
          4   -1    0    0  501    0  0.00000000000E+00 -0.00000000000E+00 -0.96523366548E+03  0.96523450098E+03  0.12700000000E+01 0. -1.
         25    2    1    2    0    0  0.00000000000E+00  0.00000000000E+00 -0.96128731479E+03  0.96938017146E+03  0.12499846095E+03 0.  0.
    9000005    1    3    3    0    0 -0.49293210659E+01  0.62296326649E+02 -0.48182717387E+03  0.48586372163E+03  0.10000000000E+01 0.  0.
    9000005    1    3    3    0    0  0.49293210659E+01 -0.62296326649E+02 -0.47946014092E+03  0.48351644983E+03  0.10000000000E+01 0.  0.
<mgrwt>
<rscale>  0 0.12499846E+03</rscale>
<asrwt>0</asrwt>
<pdfrwt beam="2">  1        4 0.14851270E+00 0.12499846E+03</pdfrwt>
<pdfrwt beam="1">  1       -4 0.62252820E-03 0.12499846E+03</pdfrwt>
<totfact> 0.31638841E+03</totfact>
</mgrwt>
</event>
<event>
 5    1  0.3241863E-002  0.1250068E+03  0.7818608E-02  0.1235059E+00
         -4   -1    0    0    0  501 -0.00000000000E+00  0.00000000000E+00  0.12280820170E+02  0.12346312973E+02  0.12700000000E+01 0.  1.
          4   -1    0    0  501    0  0.00000000000E+00 -0.00000000000E+00 -0.31719931702E+03  0.31720185942E+03  0.12700000000E+01 0.  1.
         25    2    1    2    0    0  0.00000000000E+00  0.00000000000E+00 -0.30491849685E+03  0.32954817239E+03  0.12500683263E+03 0.  0.
    9000005    1    3    3    0    0 -0.10178806041E+01  0.15854832876E+02 -0.31179959547E+03  0.31220570069E+03  0.10000000000E+01 0.  0.
    9000005    1    3    3    0    0  0.10178806041E+01 -0.15854832876E+02  0.68810986222E+01  0.17342471701E+02  0.10000000000E+01 0.  0.
<mgrwt>
<rscale>  0 0.12500683E+03</rscale>
<asrwt>0</asrwt>
<pdfrwt beam="2">  1        4 0.48805122E-01 0.12500683E+03</pdfrwt>
<pdfrwt beam="1">  1       -4 0.18945907E-02 0.12500683E+03</pdfrwt>
<totfact> 0.72023805E+03</totfact>
</mgrwt>
</event>
<event>
 4    1  0.3241863E-002  0.1252951E+03  0.7818608E-02  0.1234609E+00
          4   -1    0    0  501    0  0.00000000000E+00  0.00000000000E+00  0.11044078410E+02  0.11116859626E+02  0.12700000000E+01 0. -1.
         -4   -1    0    0    0  501 -0.00000000000E+00 -0.00000000000E+00 -0.35412710467E+03  0.35412938195E+03  0.12700000000E+01 0. -1.
    9000005    1    1    2    0    0  0.58350668561E+02  0.19964743672E+02 -0.13956549985E+03  0.15258741842E+03  0.10000000000E+01 0.  0.
    9000005    1    1    2    0    0 -0.58350668561E+02 -0.19964743672E+02 -0.20351752641E+03  0.21265882316E+03  0.10000000000E+01 0.  0.
<mgrwt>
<rscale>  0 0.12529507E+03</rscale>
<asrwt>0</asrwt>
<pdfrwt beam="1">  1        4 0.17048630E-02 0.12529507E+03</pdfrwt>
<pdfrwt beam="2">  1       -4 0.54486858E-01 0.12529507E+03</pdfrwt>
<totfact> 0.67636921E+03</totfact>
</mgrwt>
</event>
<event>
 5    1  0.3241863E-002  0.1249977E+03  0.7818608E-02  0.1235073E+00
         -4   -1    0    0    0  501 -0.00000000000E+00  0.00000000000E+00  0.21601286536E+03  0.21601659867E+03  0.12700000000E+01 0. -1.
          4   -1    0    0  501    0  0.00000000000E+00 -0.00000000000E+00 -0.18056546616E+02  0.18101153988E+02  0.12700000000E+01 0. -1.
         25    2    1    2    0    0  0.00000000000E+00  0.00000000000E+00  0.19795631874E+03  0.23411775266E+03  0.12499767189E+03 0.  0.
    9000005    1    3    3    0    0 -0.22850805429E+01  0.34644370494E+02  0.16617237795E+01  0.34773773536E+02  0.10000000000E+01 0.  0.
    9000005    1    3    3    0    0  0.22850805429E+01 -0.34644370494E+02  0.19629459496E+03  0.19934397912E+03  0.10000000000E+01 0.  0.
<mgrwt>
<rscale>  0 0.12499767E+03</rscale>
<asrwt>0</asrwt>
<pdfrwt beam="2">  1        4 0.27816489E-02 0.12499767E+03</pdfrwt>
<pdfrwt beam="1">  1       -4 0.33236465E-01 0.12499767E+03</pdfrwt>
<totfact> 0.84685695E+03</totfact>
</mgrwt>
</event>
<event>
 5    1  0.3241863E-002  0.1250004E+03  0.7818608E-02  0.1235069E+00
         -4   -1    0    0    0  501 -0.00000000000E+00  0.00000000000E+00  0.38139090588E+01  0.40198012773E+01  0.12700000000E+01 0. -1.
          4   -1    0    0  501    0  0.00000000000E+00 -0.00000000000E+00 -0.99709222330E+03  0.99709303210E+03  0.12700000000E+01 0. -1.
         25    2    1    2    0    0  0.00000000000E+00  0.00000000000E+00 -0.99327831424E+03  0.10011128334E+04  0.12500038245E+03 0.  0.
    9000005    1    3    3    0    0 -0.57240372154E+02  0.59075619052E+01 -0.30145991886E+03  0.30690461412E+03  0.10000000000E+01 0.  0.
    9000005    1    3    3    0    0  0.57240372154E+02 -0.59075619052E+01 -0.69181839539E+03  0.69420821926E+03  0.10000000000E+01 0.  0.
<mgrwt>
<rscale>  0 0.12500038E+03</rscale>
<asrwt>0</asrwt>
<pdfrwt beam="2">  1        4 0.15341450E+00 0.12500038E+03</pdfrwt>
<pdfrwt beam="1">  1       -4 0.60265611E-03 0.12500038E+03</pdfrwt>
<totfact> 0.30567554E+03</totfact>
</mgrwt>
</event>
<event>
 5    1  0.3241863E-002  0.1250001E+03  0.7818608E-02  0.1235069E+00
         -4   -1    0    0    0  501 -0.00000000000E+00  0.00000000000E+00  0.61976736690E+01  0.63264570580E+01  0.12700000000E+01 0.  1.
          4   -1    0    0  501    0  0.00000000000E+00 -0.00000000000E+00 -0.62366757978E+03  0.62366887285E+03  0.12700000000E+01 0.  1.
         25    2    1    2    0    0  0.00000000000E+00  0.00000000000E+00 -0.61746990611E+03  0.62999532991E+03  0.12500012304E+03 0.  0.
    9000005    1    3    3    0    0  0.32704851156E+02 -0.53200331941E+02 -0.32041970353E+03  0.32645010188E+03  0.10000000000E+01 0.  0.
    9000005    1    3    3    0    0 -0.32704851156E+02  0.53200331941E+02 -0.29705020258E+03  0.30354522803E+03  0.10000000000E+01 0.  0.
<mgrwt>
<rscale>  0 0.12500012E+03</rscale>
<asrwt>0</asrwt>
<pdfrwt beam="2">  1        4 0.95958815E-01 0.12500012E+03</pdfrwt>
<pdfrwt beam="1">  1       -4 0.96349463E-03 0.12500012E+03</pdfrwt>
<totfact> 0.47027246E+03</totfact>
</mgrwt>
</event>
<event>
 5    1  0.3241863E-002  0.1250003E+03  0.7818608E-02  0.1235069E+00
          4   -1    0    0  501    0  0.00000000000E+00  0.00000000000E+00  0.53497119793E+02  0.53512192313E+02  0.12700000000E+01 0.  1.
         -4   -1    0    0    0  501 -0.00000000000E+00 -0.00000000000E+00 -0.72987365834E+02  0.72998414171E+02  0.12700000000E+01 0.  1.
         25    2    1    2    0    0  0.00000000000E+00  0.00000000000E+00 -0.19490246042E+02  0.12651060648E+03  0.12500025545E+03 0.  0.
    9000005    1    3    3    0    0  0.24452047676E+02 -0.29267858691E+02 -0.59848391136E+02  0.70974221443E+02  0.10000000000E+01 0.  0.
    9000005    1    3    3    0    0 -0.24452047676E+02  0.29267858691E+02  0.40358145094E+02  0.55536385040E+02  0.10000000000E+01 0.  0.
<mgrwt>
<rscale>  0 0.12500026E+03</rscale>
<asrwt>0</asrwt>
<pdfrwt beam="1">  1        4 0.82323354E-02 0.12500026E+03</pdfrwt>
<pdfrwt beam="2">  1       -4 0.11230835E-01 0.12500026E+03</pdfrwt>
<totfact> 0.10419737E+04</totfact>
</mgrwt>
</event>
<event>
 5    1  0.3241863E-002  0.1250014E+03  0.7818608E-02  0.1235067E+00
         -4   -1    0    0    0  501 -0.00000000000E+00  0.00000000000E+00  0.10034545790E+02  0.10114593873E+02  0.12700000000E+01 0. -1.
          4   -1    0    0  501    0  0.00000000000E+00 -0.00000000000E+00 -0.38766128124E+03  0.38766336152E+03  0.12700000000E+01 0. -1.
         25    2    1    2    0    0  0.00000000000E+00  0.00000000000E+00 -0.37762673544E+03  0.39777795540E+03  0.12500140190E+03 0.  0.
    9000005    1    3    3    0    0  0.28104979705E+02 -0.12907637588E+02 -0.36161644738E+03  0.36293794512E+03  0.10000000000E+01 0.  0.
    9000005    1    3    3    0    0 -0.28104979705E+02  0.12907637588E+02 -0.16010288066E+02  0.34840010279E+02  0.10000000000E+01 0.  0.
<mgrwt>
<rscale>  0 0.12500140E+03</rscale>
<asrwt>0</asrwt>
<pdfrwt beam="2">  1        4 0.59646503E-01 0.12500140E+03</pdfrwt>
<pdfrwt beam="1">  1       -4 0.15500941E-02 0.12500140E+03</pdfrwt>
<totfact> 0.64767478E+03</totfact>
</mgrwt>
</event>
<event>
 5    1  0.3241863E-002  0.1250052E+03  0.7818608E-02  0.1235061E+00
          4   -1    0    0  501    0  0.00000000000E+00  0.00000000000E+00  0.17892697411E+03  0.17893148120E+03  0.12700000000E+01 0. -1.
         -4   -1    0    0    0  501 -0.00000000000E+00 -0.00000000000E+00 -0.21810082827E+02  0.21847027554E+02  0.12700000000E+01 0. -1.
         25    2    1    2    0    0  0.00000000000E+00  0.00000000000E+00  0.15711689128E+03  0.20077850875E+03  0.12500516810E+03 0.  0.
    9000005    1    3    3    0    0 -0.17596570571E+02 -0.26663309109E+02  0.16482894062E+03  0.16789922875E+03  0.10000000000E+01 0.  0.
    9000005    1    3    3    0    0  0.17596570571E+02  0.26663309109E+02 -0.77120493380E+01  0.32879280003E+02  0.10000000000E+01 0.  0.
<mgrwt>
<rscale>  0 0.12500517E+03</rscale>
<asrwt>0</asrwt>
<pdfrwt beam="1">  1        4 0.27530415E-01 0.12500517E+03</pdfrwt>
<pdfrwt beam="2">  1       -4 0.33585859E-02 0.12500517E+03</pdfrwt>
<totfact> 0.89993963E+03</totfact>
</mgrwt>
</event>
<event>
 5    1  0.3241863E-002  0.1250017E+03  0.7818608E-02  0.1235067E+00
         -4   -1    0    0    0  501 -0.00000000000E+00  0.00000000000E+00  0.56424525091E+02  0.56438815825E+02  0.12700000000E+01 0. -1.
          4   -1    0    0  501    0  0.00000000000E+00 -0.00000000000E+00 -0.69202684446E+02  0.69214336915E+02  0.12700000000E+01 0. -1.
         25    2    1    2    0    0  0.00000000000E+00  0.00000000000E+00 -0.12778159356E+02  0.12565315274E+03  0.12500173374E+03 0.  0.
    9000005    1    3    3    0    0 -0.61580686867E+02 -0.88978531873E+01 -0.12250898640E+02  0.63422687611E+02  0.10000000000E+01 0.  0.
    9000005    1    3    3    0    0  0.61580686867E+02  0.88978531873E+01 -0.52726071536E+00  0.62230465129E+02  0.10000000000E+01 0.  0.
<mgrwt>
<rscale>  0 0.12500173E+03</rscale>
<asrwt>0</asrwt>
<pdfrwt beam="2">  1        4 0.10648562E-01 0.12500173E+03</pdfrwt>
<pdfrwt beam="1">  1       -4 0.86826919E-02 0.12500173E+03</pdfrwt>
<totfact> 0.10438167E+04</totfact>
</mgrwt>
</event>
<event>
 5    1  0.3241863E-002  0.1250009E+03  0.7818608E-02  0.1235068E+00
         -4   -1    0    0    0  501 -0.00000000000E+00  0.00000000000E+00  0.15046905552E+02  0.15100406176E+02  0.12700000000E+01 0.  1.
          4   -1    0    0  501    0  0.00000000000E+00 -0.00000000000E+00 -0.25909270520E+03  0.25909581777E+03  0.12700000000E+01 0.  1.
         25    2    1    2    0    0  0.00000000000E+00  0.00000000000E+00 -0.24404579965E+03  0.27419622395E+03  0.12500086761E+03 0.  0.
    9000005    1    3    3    0    0  0.27813146947E+02 -0.26094792772E+02 -0.13429876647E+02  0.40445901395E+02  0.10000000000E+01 0.  0.
    9000005    1    3    3    0    0 -0.27813146947E+02  0.26094792772E+02 -0.23061592300E+03  0.23375032255E+03  0.10000000000E+01 0.  0.
<mgrwt>
<rscale>  0 0.12500087E+03</rscale>
<asrwt>0</asrwt>
<pdfrwt beam="2">  1        4 0.39864768E-01 0.12500087E+03</pdfrwt>
<pdfrwt beam="1">  1       -4 0.23192636E-02 0.12500087E+03</pdfrwt>
<totfact> 0.78952469E+03</totfact>
</mgrwt>
</event>
<event>
 5    1  0.3241863E-002  0.1249982E+03  0.7818608E-02  0.1235072E+00
          4   -1    0    0  501    0  0.00000000000E+00  0.00000000000E+00  0.66696314325E+01  0.67894685687E+01  0.12700000000E+01 0.  1.
         -4   -1    0    0    0  501 -0.00000000000E+00 -0.00000000000E+00 -0.58032489920E+03  0.58032628885E+03  0.12700000000E+01 0.  1.
         25    2    1    2    0    0  0.00000000000E+00  0.00000000000E+00 -0.57365526777E+03  0.58711575742E+03  0.12499818548E+03 0.  0.
    9000005    1    3    3    0    0 -0.37707877469E+02  0.32351797796E+02 -0.10879892711E+03  0.11961074109E+03  0.10000000000E+01 0.  0.
    9000005    1    3    3    0    0  0.37707877469E+02 -0.32351797796E+02 -0.46485634066E+03  0.46750501633E+03  0.10000000000E+01 0.  0.
<mgrwt>
<rscale>  0 0.12499819E+03</rscale>
<asrwt>0</asrwt>
<pdfrwt beam="1">  1        4 0.10354227E-02 0.12499819E+03</pdfrwt>
<pdfrwt beam="2">  1       -4 0.89290039E-01 0.12499819E+03</pdfrwt>
<totfact> 0.49693127E+03</totfact>
</mgrwt>
</event>
<event>
 5    1  0.3241863E-002  0.1249952E+03  0.7818608E-02  0.1235077E+00
          4   -1    0    0  501    0  0.00000000000E+00  0.00000000000E+00  0.42549323138E+03  0.42549512671E+03  0.12700000000E+01 0. -1.
         -4   -1    0    0    0  501 -0.00000000000E+00 -0.00000000000E+00 -0.91339705277E+01  0.92218391659E+01  0.12700000000E+01 0. -1.
         25    2    1    2    0    0  0.00000000000E+00  0.00000000000E+00  0.41635926086E+03  0.43471696587E+03  0.12499522519E+03 0.  0.
    9000005    1    3    3    0    0  0.35494111130E+02  0.14168343952E+02  0.38012770685E+03  0.38204534732E+03  0.10000000000E+01 0.  0.
    9000005    1    3    3    0    0 -0.35494111130E+02 -0.14168343952E+02  0.36231554003E+02  0.52671618550E+02  0.10000000000E+01 0.  0.
<mgrwt>
<rscale>  0 0.12499523E+03</rscale>
<asrwt>0</asrwt>
<pdfrwt beam="1">  1        4 0.65467391E-01 0.12499523E+03</pdfrwt>
<pdfrwt beam="2">  1       -4 0.14121314E-02 0.12499523E+03</pdfrwt>
<totfact> 0.61317201E+03</totfact>
</mgrwt>
</event>
<event>
 5    1  0.3241863E-002  0.1250013E+03  0.7818608E-02  0.1235067E+00
         -4   -1    0    0    0  501 -0.00000000000E+00  0.00000000000E+00  0.57823093378E+03  0.57823232847E+03  0.12700000000E+01 0. -1.
          4   -1    0    0  501    0  0.00000000000E+00 -0.00000000000E+00 -0.66945538514E+01  0.68139526906E+01  0.12700000000E+01 0. -1.
         25    2    1    2    0    0  0.00000000000E+00  0.00000000000E+00  0.57153637993E+03  0.58504628116E+03  0.12500127003E+03 0.  0.
    9000005    1    3    3    0    0  0.28016781339E+02 -0.46496969329E+02  0.43066339034E+03  0.43407241789E+03  0.10000000000E+01 0.  0.
    9000005    1    3    3    0    0 -0.28016781339E+02  0.46496969329E+02  0.14087298959E+03  0.15097386327E+03  0.10000000000E+01 0.  0.
<mgrwt>
<rscale>  0 0.12500127E+03</rscale>
<asrwt>0</asrwt>
<pdfrwt beam="2">  1        4 0.10392232E-02 0.12500127E+03</pdfrwt>
<pdfrwt beam="1">  1       -4 0.88967897E-01 0.12500127E+03</pdfrwt>
<totfact> 0.49823956E+03</totfact>
</mgrwt>
</event>
<event>
 5    1  0.3241863E-002  0.1249984E+03  0.7818608E-02  0.1235072E+00
         -4   -1    0    0    0  501 -0.00000000000E+00  0.00000000000E+00  0.46398785309E+03  0.46398959117E+03  0.12700000000E+01 0. -1.
          4   -1    0    0  501    0  0.00000000000E+00 -0.00000000000E+00 -0.83689853250E+01  0.84647986019E+01  0.12700000000E+01 0. -1.
         25    2    1    2    0    0  0.00000000000E+00  0.00000000000E+00  0.45561886776E+03  0.47245438977E+03  0.12499839100E+03 0.  0.
    9000005    1    3    3    0    0  0.45289783572E+01 -0.67282210282E+01 -0.63897533047E+01  0.10373502324E+02  0.10000000000E+01 0.  0.
    9000005    1    3    3    0    0 -0.45289783572E+01  0.67282210282E+01  0.46200862106E+03  0.46208088744E+03  0.10000000000E+01 0.  0.
<mgrwt>
<rscale>  0 0.12499839E+03</rscale>
<asrwt>0</asrwt>
<pdfrwt beam="2">  1        4 0.12950399E-02 0.12499839E+03</pdfrwt>
<pdfrwt beam="1">  1       -4 0.71390266E-01 0.12499839E+03</pdfrwt>
<totfact> 0.58068800E+03</totfact>
</mgrwt>
</event>
<event>
 5    1  0.3241863E-002  0.1250033E+03  0.7818608E-02  0.1235064E+00
          4   -1    0    0  501    0  0.00000000000E+00  0.00000000000E+00  0.12334196728E+02  0.12399407603E+02  0.12700000000E+01 0.  1.
         -4   -1    0    0    0  501 -0.00000000000E+00 -0.00000000000E+00 -0.31581615276E+03  0.31581870630E+03  0.12700000000E+01 0.  1.
         25    2    1    2    0    0  0.00000000000E+00  0.00000000000E+00 -0.30348195604E+03  0.32821811390E+03  0.12500333056E+03 0.  0.
    9000005    1    3    3    0    0 -0.19438906083E+02  0.28220563579E+02 -0.28896074269E+03  0.29098725418E+03  0.10000000000E+01 0.  0.
    9000005    1    3    3    0    0  0.19438906083E+02 -0.28220563579E+02 -0.14521213344E+02  0.37230859719E+02  0.10000000000E+01 0.  0.
<mgrwt>
<rscale>  0 0.12500333E+03</rscale>
<asrwt>0</asrwt>
<pdfrwt beam="1">  1        4 0.19027816E-02 0.12500333E+03</pdfrwt>
<pdfrwt beam="2">  1       -4 0.48592307E-01 0.12500333E+03</pdfrwt>
<totfact> 0.72183910E+03</totfact>
</mgrwt>
</event>
<event>
 5    1  0.3241863E-002  0.1249974E+03  0.7818608E-02  0.1235073E+00
         -4   -1    0    0    0  501 -0.00000000000E+00  0.00000000000E+00  0.16202001403E+03  0.16202499143E+03  0.12700000000E+01 0. -1.
          4   -1    0    0  501    0  0.00000000000E+00 -0.00000000000E+00 -0.24086612888E+02  0.24120070904E+02  0.12700000000E+01 0. -1.
         25    2    1    2    0    0  0.00000000000E+00  0.00000000000E+00  0.13793340114E+03  0.18614506233E+03  0.12499744429E+03 0.  0.
    9000005    1    3    3    0    0 -0.46073670417E+01  0.47219536867E+02  0.83989453325E+01  0.48191853831E+02  0.10000000000E+01 0.  0.
    9000005    1    3    3    0    0  0.46073670417E+01 -0.47219536867E+02  0.12953445581E+03  0.13795320850E+03  0.10000000000E+01 0.  0.
<mgrwt>
<rscale>  0 0.12499744E+03</rscale>
<asrwt>0</asrwt>
<pdfrwt beam="2">  1        4 0.37085893E-02 0.12499744E+03</pdfrwt>
<pdfrwt beam="1">  1       -4 0.24929113E-01 0.12499744E+03</pdfrwt>
<totfact> 0.92527720E+03</totfact>
</mgrwt>
</event>
<event>
 5    1  0.3241863E-002  0.1250024E+03  0.7818608E-02  0.1235066E+00
         -4   -1    0    0    0  501 -0.00000000000E+00  0.00000000000E+00  0.60248283618E+03  0.60248417472E+03  0.12700000000E+01 0. -1.
          4   -1    0    0  501    0  0.00000000000E+00 -0.00000000000E+00 -0.64202897845E+01  0.65446941041E+01  0.12700000000E+01 0. -1.
         25    2    1    2    0    0  0.00000000000E+00  0.00000000000E+00  0.59606254639E+03  0.60902886882E+03  0.12500241537E+03 0.  0.
    9000005    1    3    3    0    0 -0.13343222690E+02 -0.37452965730E+02  0.53293874744E+03  0.53442069080E+03  0.10000000000E+01 0.  0.
    9000005    1    3    3    0    0  0.13343222690E+02  0.37452965730E+02  0.63123798957E+02  0.74608178027E+02  0.10000000000E+01 0.  0.
<mgrwt>
<rscale>  0 0.12500242E+03</rscale>
<asrwt>0</asrwt>
<pdfrwt beam="2">  1        4 0.99740944E-03 0.12500242E+03</pdfrwt>
<pdfrwt beam="1">  1       -4 0.92699338E-01 0.12500242E+03</pdfrwt>
<totfact> 0.48300040E+03</totfact>
</mgrwt>
</event>
<event>
 5    1  0.3241863E-002  0.1250038E+03  0.7818608E-02  0.1235063E+00
         -4   -1    0    0    0  501 -0.00000000000E+00  0.00000000000E+00  0.87053548714E+02  0.87062812059E+02  0.12700000000E+01 0. -1.
          4   -1    0    0  501    0  0.00000000000E+00 -0.00000000000E+00 -0.44853863249E+02  0.44871839146E+02  0.12700000000E+01 0. -1.
         25    2    1    2    0    0  0.00000000000E+00  0.00000000000E+00  0.42199685464E+02  0.13193465121E+03  0.12500375489E+03 0.  0.
    9000005    1    3    3    0    0 -0.21323418340E+02  0.46665981267E+02 -0.16558753228E+02  0.53922113143E+02  0.10000000000E+01 0.  0.
    9000005    1    3    3    0    0  0.21323418340E+02 -0.46665981267E+02  0.58758438693E+02  0.78012538062E+02  0.10000000000E+01 0.  0.
<mgrwt>
<rscale>  0 0.12500375E+03</rscale>
<asrwt>0</asrwt>
<pdfrwt beam="2">  1        4 0.69026897E-02 0.12500375E+03</pdfrwt>
<pdfrwt beam="1">  1       -4 0.13394949E-01 0.12500375E+03</pdfrwt>
<totfact> 0.10302221E+04</totfact>
</mgrwt>
</event>
<event>
 5    1  0.3241863E-002  0.1250014E+03  0.7818608E-02  0.1235067E+00
          4   -1    0    0  501    0  0.00000000000E+00  0.00000000000E+00  0.14273682911E+02  0.14330070616E+02  0.12700000000E+01 0.  1.
         -4   -1    0    0    0  501 -0.00000000000E+00 -0.00000000000E+00 -0.27307655237E+03  0.27307950556E+03  0.12700000000E+01 0.  1.
         25    2    1    2    0    0  0.00000000000E+00  0.00000000000E+00 -0.25880286946E+03  0.28740957617E+03  0.12500135693E+03 0.  0.
    9000005    1    3    3    0    0  0.23320343102E+02 -0.10210859816E+02 -0.26062475927E+03  0.26186707545E+03  0.10000000000E+01 0.  0.
    9000005    1    3    3    0    0 -0.23320343102E+02  0.10210859816E+02  0.18218898111E+01  0.25542500720E+02  0.10000000000E+01 0.  0.
<mgrwt>
<rscale>  0 0.12500136E+03</rscale>
<asrwt>0</asrwt>
<pdfrwt beam="1">  1        4 0.22005161E-02 0.12500136E+03</pdfrwt>
<pdfrwt beam="2">  1       -4 0.42016338E-01 0.12500136E+03</pdfrwt>
<totfact> 0.77203470E+03</totfact>
</mgrwt>
</event>
<event>
 5    1  0.3241863E-002  0.1250010E+03  0.7818608E-02  0.1235068E+00
         -4   -1    0    0    0  501 -0.00000000000E+00  0.00000000000E+00  0.18680800475E+02  0.18723920700E+02  0.12700000000E+01 0. -1.
          4   -1    0    0  501    0  0.00000000000E+00 -0.00000000000E+00 -0.20882222525E+03  0.20882608712E+03  0.12700000000E+01 0. -1.
         25    2    1    2    0    0  0.00000000000E+00  0.00000000000E+00 -0.19014142478E+03  0.22755000782E+03  0.12500097856E+03 0.  0.
    9000005    1    3    3    0    0  0.94926310957E+01 -0.60801604141E+02 -0.11487581136E+03  0.13032420016E+03  0.10000000000E+01 0.  0.
    9000005    1    3    3    0    0 -0.94926310957E+01  0.60801604141E+02 -0.75265613419E+02  0.97225807657E+02  0.10000000000E+01 0.  0.
<mgrwt>
<rscale>  0 0.12500098E+03</rscale>
<asrwt>0</asrwt>
<pdfrwt beam="2">  1        4 0.32130109E-01 0.12500098E+03</pdfrwt>
<pdfrwt beam="1">  1       -4 0.28775835E-02 0.12500098E+03</pdfrwt>
<totfact> 0.85685350E+03</totfact>
</mgrwt>
</event>
<event>
 5    1  0.3241863E-002  0.1250251E+03  0.7818608E-02  0.1235030E+00
          4   -1    0    0  501    0  0.00000000000E+00  0.00000000000E+00  0.71036674116E+01  0.72163003467E+01  0.12700000000E+01 0.  1.
         -4   -1    0    0    0  501 -0.00000000000E+00 -0.00000000000E+00 -0.54567221197E+03  0.54567368987E+03  0.12700000000E+01 0.  1.
         25    2    1    2    0    0  0.00000000000E+00  0.00000000000E+00 -0.53856854456E+03  0.55288999022E+03  0.12502505387E+03 0.  0.
    9000005    1    3    3    0    0 -0.52009191025E+02  0.24341349867E+02 -0.37844796194E+03  0.38278103030E+03  0.10000000000E+01 0.  0.
    9000005    1    3    3    0    0  0.52009191025E+02 -0.24341349867E+02 -0.16012058263E+03  0.17010895992E+03  0.10000000000E+01 0.  0.
<mgrwt>
<rscale>  0 0.12502505E+03</rscale>
<asrwt>0</asrwt>
<pdfrwt beam="1">  1        4 0.11016501E-02 0.12502505E+03</pdfrwt>
<pdfrwt beam="2">  1       -4 0.83958316E-01 0.12502505E+03</pdfrwt>
<totfact> 0.51954520E+03</totfact>
</mgrwt>
</event>
<event>
 5    1  0.3241863E-002  0.1250042E+03  0.7818608E-02  0.1235063E+00
         -4   -1    0    0    0  501 -0.00000000000E+00  0.00000000000E+00  0.49324840565E+02  0.49341187630E+02  0.12700000000E+01 0.  1.
          4   -1    0    0  501    0  0.00000000000E+00 -0.00000000000E+00 -0.79165153148E+02  0.79175339424E+02  0.12700000000E+01 0.  1.
         25    2    1    2    0    0  0.00000000000E+00  0.00000000000E+00 -0.29840312583E+02  0.12851652705E+03  0.12500421381E+03 0.  0.
    9000005    1    3    3    0    0 -0.66784332185E+01 -0.53731964365E+02 -0.47002531636E+02  0.71707485278E+02  0.10000000000E+01 0.  0.
    9000005    1    3    3    0    0  0.66784332185E+01  0.53731964365E+02  0.17162219053E+02  0.56809041776E+02  0.10000000000E+01 0.  0.
<mgrwt>
<rscale>  0 0.12500421E+03</rscale>
<asrwt>0</asrwt>
<pdfrwt beam="2">  1        4 0.12181295E-01 0.12500421E+03</pdfrwt>
<pdfrwt beam="1">  1       -4 0.75904780E-02 0.12500421E+03</pdfrwt>
<totfact> 0.10375361E+04</totfact>
</mgrwt>
</event>
<event>
 5    1  0.3241863E-002  0.1249993E+03  0.7818608E-02  0.1235070E+00
         -4   -1    0    0    0  501 -0.00000000000E+00  0.00000000000E+00  0.33096604419E+03  0.33096848084E+03  0.12700000000E+01 0.  1.
          4   -1    0    0  501    0  0.00000000000E+00 -0.00000000000E+00 -0.11765781292E+02  0.11834124784E+02  0.12700000000E+01 0.  1.
         25    2    1    2    0    0  0.00000000000E+00  0.00000000000E+00  0.31920026290E+03  0.34280260562E+03  0.12499927434E+03 0.  0.
    9000005    1    3    3    0    0  0.58310029219E+02 -0.22173575084E+02  0.14953209857E+03  0.16202646525E+03  0.10000000000E+01 0.  0.
    9000005    1    3    3    0    0 -0.58310029219E+02  0.22173575084E+02  0.16966816434E+03  0.18077614037E+03  0.10000000000E+01 0.  0.
<mgrwt>
<rscale>  0 0.12499927E+03</rscale>
<asrwt>0</asrwt>
<pdfrwt beam="2">  1        4 0.18155652E-02 0.12499927E+03</pdfrwt>
<pdfrwt beam="1">  1       -4 0.50923288E-01 0.12499927E+03</pdfrwt>
<totfact> 0.70524820E+03</totfact>
</mgrwt>
</event>
<event>
 5    1  0.3241863E-002  0.1249988E+03  0.7818608E-02  0.1235071E+00
          4   -1    0    0  501    0  0.00000000000E+00  0.00000000000E+00  0.46593119763E+03  0.46593292846E+03  0.12700000000E+01 0. -1.
         -4   -1    0    0    0  501 -0.00000000000E+00 -0.00000000000E+00 -0.83337322166E+01  0.84299461836E+01  0.12700000000E+01 0. -1.
         25    2    1    2    0    0  0.00000000000E+00  0.00000000000E+00  0.45759746541E+03  0.47436287465E+03  0.12499878595E+03 0.  0.
    9000005    1    3    3    0    0  0.26895656492E+02 -0.51921120853E+02  0.14513816737E+03  0.15647768773E+03  0.10000000000E+01 0.  0.
    9000005    1    3    3    0    0 -0.26895656492E+02  0.51921120853E+02  0.31245929804E+03  0.31788518692E+03  0.10000000000E+01 0.  0.
<mgrwt>
<rscale>  0 0.12499879E+03</rscale>
<asrwt>0</asrwt>
<pdfrwt beam="1">  1        4 0.71689274E-01 0.12499879E+03</pdfrwt>
<pdfrwt beam="2">  1       -4 0.12896466E-02 0.12499879E+03</pdfrwt>
<totfact> 0.57911381E+03</totfact>
</mgrwt>
</event>
<event>
 5    1  0.3241863E-002  0.1249998E+03  0.7818608E-02  0.1235070E+00
          4   -1    0    0  501    0  0.00000000000E+00  0.00000000000E+00  0.25358506740E+01  0.28360956684E+01  0.12700000000E+01 0. -1.
         -4   -1    0    0    0  501 -0.00000000000E+00 -0.00000000000E+00 -0.14540087389E+04  0.14540092935E+04  0.12700000000E+01 0. -1.
         25    2    1    2    0    0  0.00000000000E+00  0.00000000000E+00 -0.14514728882E+04  0.14568453892E+04  0.12499977120E+03 0.  0.
    9000005    1    3    3    0    0 -0.70391906901E+01  0.21510648081E+02 -0.46853752287E+02  0.52043561464E+02  0.10000000000E+01 0.  0.
    9000005    1    3    3    0    0  0.70391906901E+01 -0.21510648081E+02 -0.14046191359E+04  0.14048018277E+04  0.10000000000E+01 0.  0.
<mgrwt>
<rscale>  0 0.12499977E+03</rscale>
<asrwt>0</asrwt>
<pdfrwt beam="1">  1        4 0.41327047E-03 0.12499977E+03</pdfrwt>
<pdfrwt beam="2">  1       -4 0.22371616E+00 0.12499977E+03</pdfrwt>
<totfact> 0.18793139E+03</totfact>
</mgrwt>
</event>
<event>
 5    1  0.3241863E-002  0.1249990E+03  0.7818608E-02  0.1235071E+00
         -4   -1    0    0    0  501 -0.00000000000E+00  0.00000000000E+00  0.19929850366E+02  0.19970273799E+02  0.12700000000E+01 0.  1.
          4   -1    0    0  501    0  0.00000000000E+00 -0.00000000000E+00 -0.19575575500E+03  0.19575987463E+03  0.12700000000E+01 0.  1.
         25    2    1    2    0    0  0.00000000000E+00  0.00000000000E+00 -0.17582590464E+03  0.21573014843E+03  0.12499899280E+03 0.  0.
    9000005    1    3    3    0    0  0.60063218917E+02  0.17066225791E+02 -0.92258791461E+02  0.11140705063E+03  0.10000000000E+01 0.  0.
    9000005    1    3    3    0    0 -0.60063218917E+02 -0.17066225791E+02 -0.83567113177E+02  0.10432309780E+03  0.10000000000E+01 0.  0.
<mgrwt>
<rscale>  0 0.12499899E+03</rscale>
<asrwt>0</asrwt>
<pdfrwt beam="2">  1        4 0.30119695E-01 0.12499899E+03</pdfrwt>
<pdfrwt beam="1">  1       -4 0.30695573E-02 0.12499899E+03</pdfrwt>
<totfact> 0.87550511E+03</totfact>
</mgrwt>
</event>
<event>
 5    1  0.3241863E-002  0.1249997E+03  0.7818608E-02  0.1235070E+00
         -4   -1    0    0    0  501 -0.00000000000E+00  0.00000000000E+00  0.43643512383E+02  0.43661986591E+02  0.12700000000E+01 0. -1.
          4   -1    0    0  501    0  0.00000000000E+00 -0.00000000000E+00 -0.89461166518E+02  0.89470180589E+02  0.12700000000E+01 0. -1.
         25    2    1    2    0    0  0.00000000000E+00  0.00000000000E+00 -0.45817654135E+02  0.13313216718E+03  0.12499966603E+03 0.  0.
    9000005    1    3    3    0    0 -0.20728091220E+02  0.34530843543E+02 -0.73800387341E+02  0.84080497698E+02  0.10000000000E+01 0.  0.
    9000005    1    3    3    0    0  0.20728091220E+02 -0.34530843543E+02  0.27982733206E+02  0.49051669483E+02  0.10000000000E+01 0.  0.
<mgrwt>
<rscale>  0 0.12499967E+03</rscale>
<asrwt>0</asrwt>
<pdfrwt beam="2">  1        4 0.13765371E-01 0.12499967E+03</pdfrwt>
<pdfrwt beam="1">  1       -4 0.67165010E-02 0.12499967E+03</pdfrwt>
<totfact> 0.10277669E+04</totfact>
</mgrwt>
</event>
<event>
 5    1  0.3241863E-002  0.1249997E+03  0.7818608E-02  0.1235070E+00
          4   -1    0    0  501    0  0.00000000000E+00  0.00000000000E+00  0.30471670315E+02  0.30498124398E+02  0.12700000000E+01 0.  1.
         -4   -1    0    0    0  501 -0.00000000000E+00 -0.00000000000E+00 -0.12810702763E+03  0.12811332260E+03  0.12700000000E+01 0.  1.
         25    2    1    2    0    0  0.00000000000E+00  0.00000000000E+00 -0.97635357317E+02  0.15861144700E+03  0.12499971249E+03 0.  0.
    9000005    1    3    3    0    0 -0.16426348367E+02  0.72064122519E+00 -0.12531936653E+03  0.12639734123E+03  0.10000000000E+01 0.  0.
    9000005    1    3    3    0    0  0.16426348367E+02 -0.72064122519E+00  0.27684009210E+02  0.32214105767E+02  0.10000000000E+01 0.  0.
<mgrwt>
<rscale>  0 0.12499971E+03</rscale>
<asrwt>0</asrwt>
<pdfrwt beam="1">  1        4 0.46904685E-02 0.12499971E+03</pdfrwt>
<pdfrwt beam="2">  1       -4 0.19711292E-01 0.12499971E+03</pdfrwt>
<totfact> 0.97611788E+03</totfact>
</mgrwt>
</event>
<event>
 5    1  0.3241863E-002  0.1250006E+03  0.7818608E-02  0.1235068E+00
          4   -1    0    0  501    0  0.00000000000E+00  0.00000000000E+00  0.68478963606E+02  0.68490739203E+02  0.12700000000E+01 0. -1.
         -4   -1    0    0    0  501 -0.00000000000E+00 -0.00000000000E+00 -0.57019885330E+02  0.57034026888E+02  0.12700000000E+01 0. -1.
         25    2    1    2    0    0  0.00000000000E+00  0.00000000000E+00  0.11459078276E+02  0.12552476609E+03  0.12500062571E+03 0.  0.
    9000005    1    3    3    0    0  0.23600155480E+02 -0.33079009131E+02  0.53405989357E+02  0.67114736705E+02  0.10000000000E+01 0.  0.
    9000005    1    3    3    0    0 -0.23600155480E+02  0.33079009131E+02 -0.41946911081E+02  0.58410029387E+02  0.10000000000E+01 0.  0.
<mgrwt>
<rscale>  0 0.12500063E+03</rscale>
<asrwt>0</asrwt>
<pdfrwt beam="1">  1        4 0.10537219E-01 0.12500063E+03</pdfrwt>
<pdfrwt beam="2">  1       -4 0.87742836E-02 0.12500063E+03</pdfrwt>
<totfact> 0.10441260E+04</totfact>
</mgrwt>
</event>
<event>
 5    1  0.3241863E-002  0.1249989E+03  0.7818608E-02  0.1235071E+00
         -4   -1    0    0    0  501 -0.00000000000E+00  0.00000000000E+00  0.49491254374E+03  0.49491417322E+03  0.12700000000E+01 0. -1.
          4   -1    0    0  501    0  0.00000000000E+00 -0.00000000000E+00 -0.78399309004E+01  0.79421292185E+01  0.12700000000E+01 0. -1.
         25    2    1    2    0    0  0.00000000000E+00  0.00000000000E+00  0.48707261284E+03  0.50285630243E+03  0.12499892288E+03 0.  0.
    9000005    1    3    3    0    0 -0.46778495205E+02 -0.38448729384E+02  0.30568308144E+03  0.31162425882E+03  0.10000000000E+01 0.  0.
    9000005    1    3    3    0    0  0.46778495205E+02  0.38448729384E+02  0.18138953140E+03  0.19123204361E+03  0.10000000000E+01 0.  0.
<mgrwt>
<rscale>  0 0.12499892E+03</rscale>
<asrwt>0</asrwt>
<pdfrwt beam="2">  1        4 0.12141296E-02 0.12499892E+03</pdfrwt>
<pdfrwt beam="1">  1       -4 0.76148401E-01 0.12499892E+03</pdfrwt>
<totfact> 0.55644737E+03</totfact>
</mgrwt>
</event>
<event>
 5    1  0.3241863E-002  0.1249983E+03  0.7818608E-02  0.1235072E+00
          4   -1    0    0  501    0  0.00000000000E+00  0.00000000000E+00  0.97052784343E+03  0.97052867437E+03  0.12700000000E+01 0.  1.
         -4   -1    0    0    0  501 -0.00000000000E+00 -0.00000000000E+00 -0.39237195923E+01  0.41241332955E+01  0.12700000000E+01 0.  1.
         25    2    1    2    0    0  0.00000000000E+00  0.00000000000E+00  0.96660412384E+03  0.97465280767E+03  0.12499825306E+03 0.  0.
    9000005    1    3    3    0    0  0.27255223703E+01 -0.61202486633E+02  0.57942389245E+03  0.58265446019E+03  0.10000000000E+01 0.  0.
    9000005    1    3    3    0    0 -0.27255223703E+01  0.61202486633E+02  0.38718023139E+03  0.39199834748E+03  0.10000000000E+01 0.  0.
<mgrwt>
<rscale>  0 0.12499825E+03</rscale>
<asrwt>0</asrwt>
<pdfrwt beam="1">  1        4 0.14932751E+00 0.12499825E+03</pdfrwt>
<pdfrwt beam="2">  1       -4 0.61912932E-03 0.12499825E+03</pdfrwt>
<totfact> 0.31457739E+03</totfact>
</mgrwt>
</event>
<event>
 5    1  0.3241863E-002  0.1249868E+03  0.7818608E-02  0.1235090E+00
         -4   -1    0    0    0  501 -0.00000000000E+00  0.00000000000E+00  0.35993084063E+03  0.35993308120E+03  0.12700000000E+01 0. -1.
          4   -1    0    0  501    0  0.00000000000E+00 -0.00000000000E+00 -0.10811042968E+02  0.10885382403E+02  0.12700000000E+01 0. -1.
         25    2    1    2    0    0  0.00000000000E+00  0.00000000000E+00  0.34911979767E+03  0.37081846360E+03  0.12498679860E+03 0.  0.
    9000005    1    3    3    0    0 -0.38398297120E+02  0.46825744843E+02  0.22026740995E+03  0.22844214035E+03  0.10000000000E+01 0.  0.
    9000005    1    3    3    0    0  0.38398297120E+02 -0.46825744843E+02  0.12885238772E+03  0.14237632325E+03  0.10000000000E+01 0.  0.
<mgrwt>
<rscale>  0 0.12498680E+03</rscale>
<asrwt>0</asrwt>
<pdfrwt beam="2">  1        4 0.16691285E-02 0.12498680E+03</pdfrwt>
<pdfrwt beam="1">  1       -4 0.55379855E-01 0.12498680E+03</pdfrwt>
<totfact> 0.67513104E+03</totfact>
</mgrwt>
</event>
<event>
 5    1  0.3241863E-002  0.1249515E+03  0.7818608E-02  0.1235145E+00
          4   -1    0    0  501    0  0.00000000000E+00  0.00000000000E+00  0.53305871425E+03  0.53306022712E+03  0.12700000000E+01 0. -1.
         -4   -1    0    0    0  501 -0.00000000000E+00 -0.00000000000E+00 -0.72657091069E+01  0.73758680049E+01  0.12700000000E+01 0. -1.
         25    2    1    2    0    0  0.00000000000E+00  0.00000000000E+00  0.52579300514E+03  0.54043609513E+03  0.12495154524E+03 0.  0.
    9000005    1    3    3    0    0  0.21051979164E+02 -0.58310481960E+02  0.22969567255E+03  0.23791679243E+03  0.10000000000E+01 0.  0.
    9000005    1    3    3    0    0 -0.21051979164E+02  0.58310481960E+02  0.29609733260E+03  0.30251930270E+03  0.10000000000E+01 0.  0.
<mgrwt>
<rscale>  0 0.12495155E+03</rscale>
<asrwt>0</asrwt>
<pdfrwt beam="1">  1        4 0.82017634E-01 0.12495155E+03</pdfrwt>
<pdfrwt beam="2">  1       -4 0.11263914E-02 0.12495155E+03</pdfrwt>
<totfact> 0.52914352E+03</totfact>
</mgrwt>
</event>
<event>
 5    1  0.3241863E-002  0.1250021E+03  0.7818608E-02  0.1235066E+00
         -4   -1    0    0    0  501 -0.00000000000E+00  0.00000000000E+00  0.48239094127E+01  0.49882864816E+01  0.12700000000E+01 0. -1.
          4   -1    0    0  501    0  0.00000000000E+00 -0.00000000000E+00 -0.79606540955E+03  0.79606642259E+03  0.12700000000E+01 0. -1.
         25    2    1    2    0    0  0.00000000000E+00  0.00000000000E+00 -0.79124150013E+03  0.80105470907E+03  0.12500214155E+03 0.  0.
    9000005    1    3    3    0    0  0.64396129624E+01 -0.20511610949E+02 -0.77165305655E+03  0.77195312972E+03  0.10000000000E+01 0.  0.
    9000005    1    3    3    0    0 -0.64396129624E+01  0.20511610949E+02 -0.19588443582E+02  0.29101579352E+02  0.10000000000E+01 0.  0.
<mgrwt>
<rscale>  0 0.12500214E+03</rscale>
<asrwt>0</asrwt>
<pdfrwt beam="2">  1        4 0.12248422E+00 0.12500214E+03</pdfrwt>
<pdfrwt beam="1">  1       -4 0.75486286E-03 0.12500214E+03</pdfrwt>
<totfact> 0.38215923E+03</totfact>
</mgrwt>
</event>
<event>
 5    1  0.3241863E-002  0.1249992E+03  0.7818608E-02  0.1235071E+00
          4   -1    0    0  501    0  0.00000000000E+00  0.00000000000E+00  0.86547482054E+02  0.86556799559E+02  0.12700000000E+01 0.  1.
         -4   -1    0    0    0  501 -0.00000000000E+00 -0.00000000000E+00 -0.45112924925E+02  0.45130797636E+02  0.12700000000E+01 0.  1.
         25    2    1    2    0    0  0.00000000000E+00  0.00000000000E+00  0.41434557130E+02  0.13168759720E+03  0.12499920292E+03 0.  0.
    9000005    1    3    3    0    0  0.35653054351E+02  0.26877222223E+02 -0.25344917560E+02  0.51350659247E+02  0.10000000000E+01 0.  0.
    9000005    1    3    3    0    0 -0.35653054351E+02 -0.26877222223E+02  0.66779474690E+02  0.80336937948E+02  0.10000000000E+01 0.  0.
<mgrwt>
<rscale>  0 0.12499920E+03</rscale>
<asrwt>0</asrwt>
<pdfrwt beam="1">  1        4 0.13317089E-01 0.12499920E+03</pdfrwt>
<pdfrwt beam="2">  1       -4 0.69425416E-02 0.12499920E+03</pdfrwt>
<totfact> 0.10308556E+04</totfact>
</mgrwt>
</event>
<event>
 5    1  0.3241863E-002  0.1249997E+03  0.7818608E-02  0.1235070E+00
          4   -1    0    0  501    0  0.00000000000E+00  0.00000000000E+00  0.76551030388E+02  0.76561564466E+02  0.12700000000E+01 0.  1.
         -4   -1    0    0    0  501 -0.00000000000E+00 -0.00000000000E+00 -0.51005857547E+02  0.51021666027E+02  0.12700000000E+01 0.  1.
         25    2    1    2    0    0  0.00000000000E+00  0.00000000000E+00  0.25545172841E+02  0.12758323049E+03  0.12499969939E+03 0.  0.
    9000005    1    3    3    0    0 -0.10772590631E+02 -0.59493249536E+02  0.28902238339E+02  0.67021152111E+02  0.10000000000E+01 0.  0.
    9000005    1    3    3    0    0  0.10772590631E+02  0.59493249536E+02 -0.33570654975E+01  0.60562078382E+02  0.10000000000E+01 0.  0.
<mgrwt>
<rscale>  0 0.12499970E+03</rscale>
<asrwt>0</asrwt>
<pdfrwt beam="1">  1        4 0.11779108E-01 0.12499970E+03</pdfrwt>
<pdfrwt beam="2">  1       -4 0.78490814E-02 0.12499970E+03</pdfrwt>
<totfact> 0.10396569E+04</totfact>
</mgrwt>
</event>
<event>
 5    1  0.3241863E-002  0.1249991E+03  0.7818608E-02  0.1235071E+00
         -4   -1    0    0    0  501 -0.00000000000E+00  0.00000000000E+00  0.12773932822E+03  0.12774564131E+03  0.12700000000E+01 0.  1.
          4   -1    0    0  501    0  0.00000000000E+00 -0.00000000000E+00 -0.30559176787E+02  0.30585555184E+02  0.12700000000E+01 0.  1.
         25    2    1    2    0    0  0.00000000000E+00  0.00000000000E+00  0.97180151433E+02  0.15833119649E+03  0.12499914380E+03 0.  0.
    9000005    1    3    3    0    0 -0.14072880867E+02  0.24453214592E+01  0.12565007946E+03  0.12646330709E+03  0.10000000000E+01 0.  0.
    9000005    1    3    3    0    0  0.14072880867E+02 -0.24453214592E+01 -0.28469928027E+02  0.31867889400E+02  0.10000000000E+01 0.  0.
<mgrwt>
<rscale>  0 0.12499914E+03</rscale>
<asrwt>0</asrwt>
<pdfrwt beam="2">  1        4 0.47039266E-02 0.12499914E+03</pdfrwt>
<pdfrwt beam="1">  1       -4 0.19654719E-01 0.12499914E+03</pdfrwt>
<totfact> 0.97667365E+03</totfact>
</mgrwt>
</event>
<event>
 5    1  0.3241863E-002  0.1250089E+03  0.7818608E-02  0.1235055E+00
         -4   -1    0    0    0  501 -0.00000000000E+00  0.00000000000E+00  0.44205771356E+01  0.45993915045E+01  0.12700000000E+01 0. -1.
          4   -1    0    0  501    0  0.00000000000E+00 -0.00000000000E+00 -0.86607814864E+03  0.86607907979E+03  0.12700000000E+01 0. -1.
         25    2    1    2    0    0  0.00000000000E+00  0.00000000000E+00 -0.86165757150E+03  0.87067847129E+03  0.12500891907E+03 0.  0.
    9000005    1    3    3    0    0 -0.43695137828E+02 -0.42606669843E+02 -0.52458774362E+03  0.52812677848E+03  0.10000000000E+01 0.  0.
    9000005    1    3    3    0    0  0.43695137828E+02  0.42606669843E+02 -0.33706982788E+03  0.34255169281E+03  0.10000000000E+01 0.  0.
<mgrwt>
<rscale>  0 0.12500892E+03</rscale>
<asrwt>0</asrwt>
<pdfrwt beam="2">  1        4 0.13325649E+00 0.12500892E+03</pdfrwt>
<pdfrwt beam="1">  1       -4 0.69391606E-03 0.12500892E+03</pdfrwt>
<totfact> 0.35288924E+03</totfact>
</mgrwt>
</event>
<event>
 5    1  0.3241863E-002  0.1249977E+03  0.7818608E-02  0.1235073E+00
          4   -1    0    0  501    0  0.00000000000E+00  0.00000000000E+00  0.53609257313E+02  0.53624298314E+02  0.12700000000E+01 0.  1.
         -4   -1    0    0    0  501 -0.00000000000E+00 -0.00000000000E+00 -0.72831679854E+02  0.72842751803E+02  0.12700000000E+01 0.  1.
         25    2    1    2    0    0  0.00000000000E+00  0.00000000000E+00 -0.19222422540E+02  0.12646705012E+03  0.12499765293E+03 0.  0.
    9000005    1    3    3    0    0 -0.58169501191E+02  0.13185936869E+02  0.92504578219E+01  0.60366636231E+02  0.10000000000E+01 0.  0.
    9000005    1    3    3    0    0  0.58169501191E+02 -0.13185936869E+02 -0.28472880362E+02  0.66100413887E+02  0.10000000000E+01 0.  0.
<mgrwt>
<rscale>  0 0.12499765E+03</rscale>
<asrwt>0</asrwt>
<pdfrwt beam="1">  1        4 0.82495867E-02 0.12499765E+03</pdfrwt>
<pdfrwt beam="2">  1       -4 0.11206883E-01 0.12499765E+03</pdfrwt>
<totfact> 0.10421299E+04</totfact>
</mgrwt>
</event>
<event>
 5    1  0.3241863E-002  0.1249988E+03  0.7818608E-02  0.1235071E+00
         -4   -1    0    0    0  501 -0.00000000000E+00  0.00000000000E+00  0.22699786324E+02  0.22735285333E+02  0.12700000000E+01 0. -1.
          4   -1    0    0  501    0  0.00000000000E+00 -0.00000000000E+00 -0.17190740093E+03  0.17191209206E+03  0.12700000000E+01 0. -1.
         25    2    1    2    0    0  0.00000000000E+00  0.00000000000E+00 -0.14920761461E+03  0.19464737739E+03  0.12499875706E+03 0.  0.
    9000005    1    3    3    0    0 -0.17913080099E+02  0.59581710778E+02 -0.83725514438E+02  0.10431596458E+03  0.10000000000E+01 0.  0.
    9000005    1    3    3    0    0  0.17913080099E+02 -0.59581710778E+02 -0.65482100170E+02  0.90331412812E+02  0.10000000000E+01 0.  0.
<mgrwt>
<rscale>  0 0.12499876E+03</rscale>
<asrwt>0</asrwt>
<pdfrwt beam="2">  1        4 0.26450383E-01 0.12499876E+03</pdfrwt>
<pdfrwt beam="1">  1       -4 0.34953665E-02 0.12499876E+03</pdfrwt>
<totfact> 0.91047449E+03</totfact>
</mgrwt>
</event>
<event>
 5    1  0.3241863E-002  0.1249990E+03  0.7818608E-02  0.1235071E+00
          4   -1    0    0  501    0  0.00000000000E+00  0.00000000000E+00  0.21152448597E+03  0.21152829849E+03  0.12700000000E+01 0. -1.
         -4   -1    0    0    0  501 -0.00000000000E+00 -0.00000000000E+00 -0.18441011054E+02  0.18484690657E+02  0.12700000000E+01 0. -1.
         25    2    1    2    0    0  0.00000000000E+00  0.00000000000E+00  0.19308347491E+03  0.23001298915E+03  0.12499898757E+03 0.  0.
    9000005    1    3    3    0    0 -0.58145937769E+00 -0.47427633296E+02  0.17141147170E+03  0.17785559065E+03  0.10000000000E+01 0.  0.
    9000005    1    3    3    0    0  0.58145937769E+00  0.47427633296E+02  0.21672003211E+02  0.52157398499E+02  0.10000000000E+01 0.  0.
<mgrwt>
<rscale>  0 0.12499899E+03</rscale>
<asrwt>0</asrwt>
<pdfrwt beam="1">  1        4 0.32545880E-01 0.12499899E+03</pdfrwt>
<pdfrwt beam="2">  1       -4 0.28407320E-02 0.12499899E+03</pdfrwt>
<totfact> 0.85309530E+03</totfact>
</mgrwt>
</event>
<event>
 5    1  0.3241863E-002  0.1250015E+03  0.7818608E-02  0.1235067E+00
         -4   -1    0    0    0  501 -0.00000000000E+00  0.00000000000E+00  0.73808557306E+03  0.73808666569E+03  0.12700000000E+01 0. -1.
          4   -1    0    0  501    0  0.00000000000E+00 -0.00000000000E+00 -0.52152389171E+01  0.53676453834E+01  0.12700000000E+01 0. -1.
         25    2    1    2    0    0  0.00000000000E+00  0.00000000000E+00  0.73287033415E+03  0.74345431107E+03  0.12500154390E+03 0.  0.
    9000005    1    3    3    0    0 -0.25854080119E+02  0.34548810786E+02  0.63528155119E+03  0.63674618418E+03  0.10000000000E+01 0.  0.
    9000005    1    3    3    0    0  0.25854080119E+02 -0.34548810786E+02  0.97588782961E+02  0.10670812689E+03  0.10000000000E+01 0.  0.
<mgrwt>
<rscale>  0 0.12500154E+03</rscale>
<asrwt>0</asrwt>
<pdfrwt beam="2">  1        4 0.81415234E-03 0.12500154E+03</pdfrwt>
<pdfrwt beam="1">  1       -4 0.11356340E+00 0.12500154E+03</pdfrwt>
<totfact> 0.40887820E+03</totfact>
</mgrwt>
</event>
<event>
 5    1  0.3241863E-002  0.1249928E+03  0.7818608E-02  0.1235080E+00
          4   -1    0    0  501    0  0.00000000000E+00  0.00000000000E+00  0.53500077344E+02  0.53515149031E+02  0.12700000000E+01 0. -1.
         -4   -1    0    0    0  501 -0.00000000000E+00 -0.00000000000E+00 -0.72974657415E+02  0.72985707675E+02  0.12700000000E+01 0. -1.
         25    2    1    2    0    0  0.00000000000E+00  0.00000000000E+00 -0.19474580072E+02  0.12650085671E+03  0.12499282971E+03 0.  0.
    9000005    1    3    3    0    0 -0.49057299711E+02  0.12148451672E+02 -0.46931168860E+02  0.68976359309E+02  0.10000000000E+01 0.  0.
    9000005    1    3    3    0    0  0.49057299711E+02 -0.12148451672E+02  0.27456588788E+02  0.57524497397E+02  0.10000000000E+01 0.  0.
<mgrwt>
<rscale>  0 0.12499283E+03</rscale>
<asrwt>0</asrwt>
<pdfrwt beam="1">  1        4 0.82327905E-02 0.12499283E+03</pdfrwt>
<pdfrwt beam="2">  1       -4 0.11228880E-01 0.12499283E+03</pdfrwt>
<totfact> 0.10421696E+04</totfact>
</mgrwt>
</event>
<event>
 5    1  0.3241863E-002  0.1249971E+03  0.7818608E-02  0.1235074E+00
         -4   -1    0    0    0  501 -0.00000000000E+00  0.00000000000E+00  0.12602872549E+04  0.12602878948E+04  0.12700000000E+01 0. -1.
          4   -1    0    0  501    0  0.00000000000E+00 -0.00000000000E+00 -0.29685787133E+01  0.32288325409E+01  0.12700000000E+01 0. -1.
         25    2    1    2    0    0  0.00000000000E+00  0.00000000000E+00  0.12573186762E+04  0.12635167273E+04  0.12499706703E+03 0.  0.
    9000005    1    3    3    0    0  0.36365444344E+02  0.48070468304E+02  0.79532526468E+03  0.79760672772E+03  0.10000000000E+01 0.  0.
    9000005    1    3    3    0    0 -0.36365444344E+02 -0.48070468304E+02  0.46199341147E+03  0.46590999958E+03  0.10000000000E+01 0.  0.
<mgrwt>
<rscale>  0 0.12499707E+03</rscale>
<asrwt>0</asrwt>
<pdfrwt beam="2">  1        4 0.47677391E-03 0.12499707E+03</pdfrwt>
<pdfrwt beam="1">  1       -4 0.19391011E+00 0.12499707E+03</pdfrwt>
<totfact> 0.23107822E+03</totfact>
</mgrwt>
</event>
<event>
 5    1  0.3241863E-002  0.1249989E+03  0.7818608E-02  0.1235071E+00
         -4   -1    0    0    0  501 -0.00000000000E+00  0.00000000000E+00  0.10219202155E+04  0.10219210047E+04  0.12700000000E+01 0. -1.
          4   -1    0    0  501    0  0.00000000000E+00 -0.00000000000E+00 -0.37160900534E+01  0.39271141166E+01  0.12700000000E+01 0. -1.
         25    2    1    2    0    0  0.00000000000E+00  0.00000000000E+00  0.10182041255E+04  0.10258481188E+04  0.12499888681E+03 0.  0.
    9000005    1    3    3    0    0 -0.11845898918E+02 -0.56707469723E+02  0.31678857062E+03  0.32204356991E+03  0.10000000000E+01 0.  0.
    9000005    1    3    3    0    0  0.11845898918E+02  0.56707469723E+02  0.70141555486E+03  0.70380454890E+03  0.10000000000E+01 0.  0.
<mgrwt>
<rscale>  0 0.12499889E+03</rscale>
<asrwt>0</asrwt>
<pdfrwt beam="2">  1        4 0.58799967E-03 0.12499889E+03</pdfrwt>
<pdfrwt beam="1">  1       -4 0.15723474E+00 0.12499889E+03</pdfrwt>
<totfact> 0.29761754E+03</totfact>
</mgrwt>
</event>
<event>
 5    1  0.3241863E-002  0.1249963E+03  0.7818608E-02  0.1235075E+00
         -4   -1    0    0    0  501 -0.00000000000E+00  0.00000000000E+00  0.11006221611E+02  0.11079251516E+02  0.12700000000E+01 0. -1.
          4   -1    0    0  501    0  0.00000000000E+00 -0.00000000000E+00 -0.35364430081E+03  0.35364658120E+03  0.12700000000E+01 0. -1.
         25    2    1    2    0    0  0.00000000000E+00  0.00000000000E+00 -0.34263807919E+03  0.36472583271E+03  0.12499631888E+03 0.  0.
    9000005    1    3    3    0    0 -0.36438688661E+01  0.98984675952E+01  0.84042546665E+01  0.13523643649E+02  0.10000000000E+01 0.  0.
    9000005    1    3    3    0    0  0.36438688661E+01 -0.98984675952E+01 -0.35104233386E+03  0.35120218906E+03  0.10000000000E+01 0.  0.
<mgrwt>
<rscale>  0 0.12499632E+03</rscale>
<asrwt>0</asrwt>
<pdfrwt beam="2">  1        4 0.54412600E-01 0.12499632E+03</pdfrwt>
<pdfrwt beam="1">  1       -4 0.16990582E-02 0.12499632E+03</pdfrwt>
<totfact> 0.68139897E+03</totfact>
</mgrwt>
</event>
<event>
 5    1  0.3241863E-002  0.1249998E+03  0.7818608E-02  0.1235070E+00
         -4   -1    0    0    0  501 -0.00000000000E+00  0.00000000000E+00  0.30670664709E+02  0.30696947302E+02  0.12700000000E+01 0. -1.
          4   -1    0    0  501    0  0.00000000000E+00 -0.00000000000E+00 -0.12727661170E+03  0.12728294774E+03  0.12700000000E+01 0. -1.
         25    2    1    2    0    0  0.00000000000E+00  0.00000000000E+00 -0.96605946987E+02  0.15797989504E+03  0.12499975297E+03 0.  0.
    9000005    1    3    3    0    0  0.34971300615E+02 -0.77755849935E+01 -0.11301589927E+03  0.11856241005E+03  0.10000000000E+01 0.  0.
    9000005    1    3    3    0    0 -0.34971300615E+02  0.77755849935E+01  0.16409952287E+02  0.39417484988E+02  0.10000000000E+01 0.  0.
<mgrwt>
<rscale>  0 0.12499975E+03</rscale>
<asrwt>0</asrwt>
<pdfrwt beam="2">  1        4 0.19583526E-01 0.12499975E+03</pdfrwt>
<pdfrwt beam="1">  1       -4 0.47210730E-02 0.12499975E+03</pdfrwt>
<totfact> 0.97734208E+03</totfact>
</mgrwt>
</event>
<event>
 5    1  0.3241863E-002  0.1249999E+03  0.7818608E-02  0.1235069E+00
          4   -1    0    0  501    0  0.00000000000E+00  0.00000000000E+00  0.14118851604E+04  0.14118857316E+04  0.12700000000E+01 0.  1.
         -4   -1    0    0    0  501 -0.00000000000E+00 -0.00000000000E+00 -0.26203409428E+01  0.29118871298E+01  0.12700000000E+01 0.  1.
         25    2    1    2    0    0  0.00000000000E+00  0.00000000000E+00  0.14092648195E+04  0.14147976187E+04  0.12499988226E+03 0.  0.
    9000005    1    3    3    0    0  0.51048943911E+02 -0.11757445937E+02  0.31897402562E+03  0.32324860592E+03  0.10000000000E+01 0.  0.
    9000005    1    3    3    0    0 -0.51048943911E+02  0.11757445937E+02  0.10902907939E+04  0.10915490128E+04  0.10000000000E+01 0.  0.
<mgrwt>
<rscale>  0 0.12499988E+03</rscale>
<asrwt>0</asrwt>
<pdfrwt beam="1">  1        4 0.21723539E+00 0.12499988E+03</pdfrwt>
<pdfrwt beam="2">  1       -4 0.42560030E-03 0.12499988E+03</pdfrwt>
<totfact> 0.19665662E+03</totfact>
</mgrwt>
</event>
<event>
 5    1  0.3241863E-002  0.1249968E+03  0.7818608E-02  0.1235074E+00
         -4   -1    0    0    0  501 -0.00000000000E+00  0.00000000000E+00  0.10517087076E+03  0.10517853848E+03  0.12700000000E+01 0. -1.
          4   -1    0    0  501    0  0.00000000000E+00 -0.00000000000E+00 -0.37120140070E+02  0.37141859119E+02  0.12700000000E+01 0. -1.
         25    2    1    2    0    0  0.00000000000E+00  0.00000000000E+00  0.68050730687E+02  0.14232039759E+03  0.12499677446E+03 0.  0.
    9000005    1    3    3    0    0 -0.52148525707E+02  0.33821710885E+02  0.41375378995E+02  0.74674619836E+02  0.10000000000E+01 0.  0.
    9000005    1    3    3    0    0  0.52148525707E+02 -0.33821710885E+02  0.26675351692E+02  0.67645777759E+02  0.10000000000E+01 0.  0.
<mgrwt>
<rscale>  0 0.12499677E+03</rscale>
<asrwt>0</asrwt>
<pdfrwt beam="2">  1        4 0.57130513E-02 0.12499677E+03</pdfrwt>
<pdfrwt beam="1">  1       -4 0.16182394E-01 0.12499677E+03</pdfrwt>
<totfact> 0.10086452E+04</totfact>
</mgrwt>
</event>
<event>
 5    1  0.3241863E-002  0.1249959E+03  0.7818608E-02  0.1235076E+00
          4   -1    0    0  501    0  0.00000000000E+00  0.00000000000E+00  0.10506604860E+03  0.10507372397E+03  0.12700000000E+01 0.  1.
         -4   -1    0    0    0  501 -0.00000000000E+00 -0.00000000000E+00 -0.37156694913E+02  0.37178392607E+02  0.12700000000E+01 0.  1.
         25    2    1    2    0    0  0.00000000000E+00  0.00000000000E+00  0.67909353690E+02  0.14225211658E+03  0.12499593734E+03 0.  0.
    9000005    1    3    3    0    0  0.30170830834E+02  0.29691443568E+02  0.86269707607E+02  0.96100589514E+02  0.10000000000E+01 0.  0.
    9000005    1    3    3    0    0 -0.30170830834E+02 -0.29691443568E+02 -0.18360353917E+02  0.46151527063E+02  0.10000000000E+01 0.  0.
<mgrwt>
<rscale>  0 0.12499594E+03</rscale>
<asrwt>0</asrwt>
<pdfrwt beam="1">  1        4 0.16166267E-01 0.12499594E+03</pdfrwt>
<pdfrwt beam="2">  1       -4 0.57186740E-02 0.12499594E+03</pdfrwt>
<totfact> 0.10088044E+04</totfact>
</mgrwt>
</event>
<event>
 5    1  0.3241863E-002  0.1250002E+03  0.7818608E-02  0.1235069E+00
          4   -1    0    0  501    0  0.00000000000E+00  0.00000000000E+00  0.56812189228E+02  0.56826382472E+02  0.12700000000E+01 0. -1.
         -4   -1    0    0    0  501 -0.00000000000E+00 -0.00000000000E+00 -0.68728846825E+02  0.68740579615E+02  0.12700000000E+01 0. -1.
         25    2    1    2    0    0  0.00000000000E+00  0.00000000000E+00 -0.11916657596E+02  0.12556696209E+03  0.12500022096E+03 0.  0.
    9000005    1    3    3    0    0  0.47659970530E+02  0.62284562251E+01 -0.46076819841E+02  0.66590838593E+02  0.10000000000E+01 0.  0.
    9000005    1    3    3    0    0 -0.47659970530E+02 -0.62284562251E+01  0.34160162244E+02  0.58976123495E+02  0.10000000000E+01 0.  0.
<mgrwt>
<rscale>  0 0.12500022E+03</rscale>
<asrwt>0</asrwt>
<pdfrwt beam="1">  1        4 0.87423311E-02 0.12500022E+03</pdfrwt>
<pdfrwt beam="2">  1       -4 0.10575663E-01 0.12500022E+03</pdfrwt>
<totfact> 0.10440424E+04</totfact>
</mgrwt>
</event>
<event>
 5    1  0.3241863E-002  0.1250011E+03  0.7818608E-02  0.1235068E+00
          4   -1    0    0  501    0  0.00000000000E+00  0.00000000000E+00  0.13251566961E+02  0.13312284813E+02  0.12700000000E+01 0. -1.
         -4   -1    0    0    0  501 -0.00000000000E+00 -0.00000000000E+00 -0.29404594104E+03  0.29404868362E+03  0.12700000000E+01 0. -1.
         25    2    1    2    0    0  0.00000000000E+00  0.00000000000E+00 -0.28079437408E+03  0.30736096843E+03  0.12500113761E+03 0.  0.
    9000005    1    3    3    0    0  0.53568941802E+02  0.31196568077E+02 -0.12096379295E+03  0.13592680600E+03  0.10000000000E+01 0.  0.
    9000005    1    3    3    0    0 -0.53568941802E+02 -0.31196568077E+02 -0.15983058112E+03  0.17143416243E+03  0.10000000000E+01 0.  0.
<mgrwt>
<rscale>  0 0.12500114E+03</rscale>
<asrwt>0</asrwt>
<pdfrwt beam="1">  1        4 0.20435844E-02 0.12500114E+03</pdfrwt>
<pdfrwt beam="2">  1       -4 0.45242714E-01 0.12500114E+03</pdfrwt>
<totfact> 0.74682790E+03</totfact>
</mgrwt>
</event>
<event>
 5    1  0.3241863E-002  0.1249772E+03  0.7818608E-02  0.1235105E+00
          4   -1    0    0  501    0  0.00000000000E+00  0.00000000000E+00  0.27761839512E+02  0.27790873198E+02  0.12700000000E+01 0.  1.
         -4   -1    0    0    0  501 -0.00000000000E+00 -0.00000000000E+00 -0.14054903477E+03  0.14055477251E+03  0.12700000000E+01 0.  1.
         25    2    1    2    0    0  0.00000000000E+00  0.00000000000E+00 -0.11278719526E+03  0.16834564571E+03  0.12497721798E+03 0.  0.
    9000005    1    3    3    0    0  0.43550463259E+02 -0.44690383875E+02 -0.60643195883E+02  0.87019942932E+02  0.10000000000E+01 0.  0.
    9000005    1    3    3    0    0 -0.43550463259E+02  0.44690383875E+02 -0.52143999376E+02  0.81325702775E+02  0.10000000000E+01 0.  0.
<mgrwt>
<rscale>  0 0.12497722E+03</rscale>
<asrwt>0</asrwt>
<pdfrwt beam="1">  1        4 0.42737270E-02 0.12497722E+03</pdfrwt>
<pdfrwt beam="2">  1       -4 0.21625603E-01 0.12497722E+03</pdfrwt>
<totfact> 0.95806512E+03</totfact>
</mgrwt>
</event>
<event>
 5    1  0.3241863E-002  0.1250003E+03  0.7818608E-02  0.1235069E+00
         -4   -1    0    0    0  501 -0.00000000000E+00  0.00000000000E+00  0.11381482906E+02  0.11452120028E+02  0.12700000000E+01 0. -1.
          4   -1    0    0  501    0  0.00000000000E+00 -0.00000000000E+00 -0.34207885109E+03  0.34208120857E+03  0.12700000000E+01 0. -1.
         25    2    1    2    0    0  0.00000000000E+00  0.00000000000E+00 -0.33069736818E+03  0.35353332860E+03  0.12500026045E+03 0.  0.
    9000005    1    3    3    0    0  0.32044366170E+02 -0.49942951176E+02 -0.22078017763E+03  0.22861764283E+03  0.10000000000E+01 0.  0.
    9000005    1    3    3    0    0 -0.32044366170E+02  0.49942951176E+02 -0.10991719055E+03  0.12491568578E+03  0.10000000000E+01 0.  0.
<mgrwt>
<rscale>  0 0.12500026E+03</rscale>
<asrwt>0</asrwt>
<pdfrwt beam="2">  1        4 0.52633123E-01 0.12500026E+03</pdfrwt>
<pdfrwt beam="1">  1       -4 0.17566126E-02 0.12500026E+03</pdfrwt>
<totfact> 0.69337192E+03</totfact>
</mgrwt>
</event>
<event>
 5    1  0.3241863E-002  0.1249984E+03  0.7818608E-02  0.1235072E+00
         -4   -1    0    0    0  501 -0.00000000000E+00  0.00000000000E+00  0.61779039151E+02  0.61792091552E+02  0.12700000000E+01 0. -1.
          4   -1    0    0  501    0  0.00000000000E+00 -0.00000000000E+00 -0.63201607582E+02  0.63214366254E+02  0.12700000000E+01 0. -1.
         25    2    1    2    0    0  0.00000000000E+00  0.00000000000E+00 -0.14225684311E+01  0.12500645781E+03  0.12499836316E+03 0.  0.
    9000005    1    3    3    0    0 -0.69395857972E+01 -0.48768862554E+02  0.37743616634E+02  0.62065613688E+02  0.10000000000E+01 0.  0.
    9000005    1    3    3    0    0  0.69395857972E+01  0.48768862554E+02 -0.39166185065E+02  0.62940844119E+02  0.10000000000E+01 0.  0.
<mgrwt>
<rscale>  0 0.12499836E+03</rscale>
<asrwt>0</asrwt>
<pdfrwt beam="2">  1        4 0.97253097E-02 0.12499836E+03</pdfrwt>
<pdfrwt beam="1">  1       -4 0.95064531E-02 0.12499836E+03</pdfrwt>
<totfact> 0.10453109E+04</totfact>
</mgrwt>
</event>
<event>
 5    1  0.3241863E-002  0.1249987E+03  0.7818608E-02  0.1235071E+00
         -4   -1    0    0    0  501 -0.00000000000E+00  0.00000000000E+00  0.76096937167E+03  0.76097043144E+03  0.12700000000E+01 0.  1.
          4   -1    0    0  501    0  0.00000000000E+00 -0.00000000000E+00 -0.50535155006E+01  0.52106543653E+01  0.12700000000E+01 0.  1.
         25    2    1    2    0    0  0.00000000000E+00  0.00000000000E+00  0.75591585617E+03  0.76618108581E+03  0.12499869852E+03 0.  0.
    9000005    1    3    3    0    0  0.22304590658E+02  0.36777608023E+02  0.65582715588E+03  0.65723690219E+03  0.10000000000E+01 0.  0.
    9000005    1    3    3    0    0 -0.22304590658E+02 -0.36777608023E+02  0.10008870030E+03  0.10894418362E+03  0.10000000000E+01 0.  0.
<mgrwt>
<rscale>  0 0.12499870E+03</rscale>
<asrwt>0</asrwt>
<pdfrwt beam="2">  1        4 0.78963331E-03 0.12499870E+03</pdfrwt>
<pdfrwt beam="1">  1       -4 0.11708434E+00 0.12499870E+03</pdfrwt>
<totfact> 0.39813038E+03</totfact>
</mgrwt>
</event>
<event>
 5    1  0.3241863E-002  0.1250016E+03  0.7818608E-02  0.1235067E+00
          4   -1    0    0  501    0  0.00000000000E+00  0.00000000000E+00  0.99576434054E+03  0.99576515042E+03  0.12700000000E+01 0.  1.
         -4   -1    0    0    0  501 -0.00000000000E+00 -0.00000000000E+00 -0.38193468813E+01  0.40249609439E+01  0.12700000000E+01 0.  1.
         25    2    1    2    0    0  0.00000000000E+00  0.00000000000E+00  0.99194499366E+03  0.99979011136E+03  0.12500158534E+03 0.  0.
    9000005    1    3    3    0    0 -0.28559386490E+02 -0.28681539901E+02  0.11514638449E+03  0.12205719621E+03  0.10000000000E+01 0.  0.
    9000005    1    3    3    0    0  0.28559386490E+02  0.28681539901E+02  0.87679860917E+03  0.87773291515E+03  0.10000000000E+01 0.  0.
<mgrwt>
<rscale>  0 0.12500159E+03</rscale>
<asrwt>0</asrwt>
<pdfrwt beam="1">  1        4 0.15321049E+00 0.12500159E+03</pdfrwt>
<pdfrwt beam="2">  1       -4 0.60347021E-03 0.12500159E+03</pdfrwt>
<totfact> 0.30610333E+03</totfact>
</mgrwt>
</event>
<event>
 5    1  0.3241863E-002  0.1249939E+03  0.7818608E-02  0.1235079E+00
         -4   -1    0    0    0  501 -0.00000000000E+00  0.00000000000E+00  0.15227344147E+03  0.15227873744E+03  0.12700000000E+01 0. -1.
          4   -1    0    0  501    0  0.00000000000E+00 -0.00000000000E+00 -0.25628888400E+02  0.25660335551E+02  0.12700000000E+01 0. -1.
         25    2    1    2    0    0  0.00000000000E+00  0.00000000000E+00  0.12664455307E+03  0.17793907299E+03  0.12499388335E+03 0.  0.
    9000005    1    3    3    0    0 -0.23197300968E+02  0.33004534052E+02  0.13125942886E+03  0.13732243701E+03  0.10000000000E+01 0.  0.
    9000005    1    3    3    0    0  0.23197300968E+02 -0.33004534052E+02 -0.46148757937E+01  0.40616635986E+02  0.10000000000E+01 0.  0.
<mgrwt>
<rscale>  0 0.12499388E+03</rscale>
<asrwt>0</asrwt>
<pdfrwt beam="2">  1        4 0.39457323E-02 0.12499388E+03</pdfrwt>
<pdfrwt beam="1">  1       -4 0.23429509E-01 0.12499388E+03</pdfrwt>
<totfact> 0.94002192E+03</totfact>
</mgrwt>
</event>
<event>
 5    1  0.3241863E-002  0.1249987E+03  0.7818608E-02  0.1235071E+00
          4   -1    0    0  501    0  0.00000000000E+00  0.00000000000E+00  0.18718811271E+03  0.18719242089E+03  0.12700000000E+01 0. -1.
         -4   -1    0    0    0  501 -0.00000000000E+00 -0.00000000000E+00 -0.20843749917E+02  0.20882404330E+02  0.12700000000E+01 0. -1.
         25    2    1    2    0    0  0.00000000000E+00  0.00000000000E+00  0.16634436279E+03  0.20807482522E+03  0.12499874343E+03 0.  0.
    9000005    1    3    3    0    0  0.17030186110E+02  0.76180871018E+01  0.18245234323E+03  0.18340643403E+03  0.10000000000E+01 0.  0.
    9000005    1    3    3    0    0 -0.17030186110E+02 -0.76180871018E+01 -0.16107980446E+02  0.24668391193E+02  0.10000000000E+01 0.  0.
<mgrwt>
<rscale>  0 0.12499874E+03</rscale>
<asrwt>0</asrwt>
<pdfrwt beam="1">  1        4 0.28801476E-01 0.12499874E+03</pdfrwt>
<pdfrwt beam="2">  1       -4 0.32100356E-02 0.12499874E+03</pdfrwt>
<totfact> 0.88793750E+03</totfact>
</mgrwt>
</event>
<event>
 5    1  0.3241863E-002  0.1249990E+03  0.7818608E-02  0.1235071E+00
         -4   -1    0    0    0  501 -0.00000000000E+00  0.00000000000E+00  0.12328574429E+03  0.12329228543E+03  0.12700000000E+01 0. -1.
          4   -1    0    0  501    0  0.00000000000E+00 -0.00000000000E+00 -0.31663914262E+02  0.31689373083E+02  0.12700000000E+01 0. -1.
         25    2    1    2    0    0  0.00000000000E+00  0.00000000000E+00  0.91621830031E+02  0.15498165851E+03  0.12499901894E+03 0.  0.
    9000005    1    3    3    0    0 -0.35684956233E+02 -0.47932477776E+02  0.68478722191E+02  0.90891550322E+02  0.10000000000E+01 0.  0.
    9000005    1    3    3    0    0  0.35684956233E+02  0.47932477776E+02  0.23143107840E+02  0.64090108189E+02  0.10000000000E+01 0.  0.
<mgrwt>
<rscale>  0 0.12499902E+03</rscale>
<asrwt>0</asrwt>
<pdfrwt beam="2">  1        4 0.48738329E-02 0.12499902E+03</pdfrwt>
<pdfrwt beam="1">  1       -4 0.18969499E-01 0.12499902E+03</pdfrwt>
<totfact> 0.98321269E+03</totfact>
</mgrwt>
</event>
<event>
 5    1  0.3241863E-002  0.1249986E+03  0.7818608E-02  0.1235071E+00
         -4   -1    0    0    0  501 -0.00000000000E+00  0.00000000000E+00  0.62402098528E+02  0.62415020634E+02  0.12700000000E+01 0. -1.
          4   -1    0    0  501    0  0.00000000000E+00 -0.00000000000E+00 -0.62570831435E+02  0.62583718701E+02  0.12700000000E+01 0. -1.
         25    2    1    2    0    0  0.00000000000E+00  0.00000000000E+00 -0.16873290665E+00  0.12499873934E+03  0.12499862545E+03 0.  0.
    9000005    1    3    3    0    0 -0.43966921714E+02 -0.11192795435E+02  0.42890028035E+02  0.62441359527E+02  0.10000000000E+01 0.  0.
    9000005    1    3    3    0    0  0.43966921714E+02  0.11192795435E+02 -0.43058760942E+02  0.62557379809E+02  0.10000000000E+01 0.  0.
<mgrwt>
<rscale>  0 0.12499863E+03</rscale>
<asrwt>0</asrwt>
<pdfrwt beam="2">  1        4 0.96282671E-02 0.12499863E+03</pdfrwt>
<pdfrwt beam="1">  1       -4 0.96023082E-02 0.12499863E+03</pdfrwt>
<totfact> 0.10453215E+04</totfact>
</mgrwt>
</event>
<event>
 5    1  0.3241863E-002  0.1249855E+03  0.7818608E-02  0.1235092E+00
          4   -1    0    0  501    0  0.00000000000E+00  0.00000000000E+00  0.38104123716E+02  0.38125282217E+02  0.12700000000E+01 0. -1.
         -4   -1    0    0    0  501 -0.00000000000E+00 -0.00000000000E+00 -0.10243781948E+03  0.10244569176E+03  0.12700000000E+01 0. -1.
         25    2    1    2    0    0  0.00000000000E+00  0.00000000000E+00 -0.64333695764E+02  0.14057097398E+03  0.12498549641E+03 0.  0.
    9000005    1    3    3    0    0  0.54374076735E+02 -0.28337551520E+02 -0.18633659830E+02  0.64091889702E+02  0.10000000000E+01 0.  0.
    9000005    1    3    3    0    0 -0.54374076735E+02  0.28337551520E+02 -0.45700035935E+02  0.76479084274E+02  0.10000000000E+01 0.  0.
<mgrwt>
<rscale>  0 0.12498550E+03</rscale>
<asrwt>0</asrwt>
<pdfrwt beam="1">  1        4 0.58644060E-02 0.12498550E+03</pdfrwt>
<pdfrwt beam="2">  1       -4 0.15761898E-01 0.12498550E+03</pdfrwt>
<totfact> 0.10125074E+04</totfact>
</mgrwt>
</event>
<event>
 5    1  0.3241863E-002  0.1249996E+03  0.7818608E-02  0.1235070E+00
         -4   -1    0    0    0  501 -0.00000000000E+00  0.00000000000E+00  0.24460927548E+01  0.27561331182E+01  0.12700000000E+01 0. -1.
          4   -1    0    0  501    0  0.00000000000E+00 -0.00000000000E+00 -0.15014409897E+04  0.15014415268E+04  0.12700000000E+01 0. -1.
         25    2    1    2    0    0  0.00000000000E+00  0.00000000000E+00 -0.14989948969E+04  0.15041976599E+04  0.12499959635E+03 0.  0.
    9000005    1    3    3    0    0 -0.41505466874E+02  0.46715105002E+02 -0.75514115362E+03  0.75772301451E+03  0.10000000000E+01 0.  0.
    9000005    1    3    3    0    0  0.41505466874E+02 -0.46715105002E+02 -0.74385374331E+03  0.74647464542E+03  0.10000000000E+01 0.  0.
<mgrwt>
<rscale>  0 0.12499960E+03</rscale>
<asrwt>0</asrwt>
<pdfrwt beam="2">  1        4 0.23101412E+00 0.12499960E+03</pdfrwt>
<pdfrwt beam="1">  1       -4 0.40021374E-03 0.12499960E+03</pdfrwt>
<totfact> 0.17848303E+03</totfact>
</mgrwt>
</event>
<event>
 5    1  0.3241863E-002  0.1250007E+03  0.7818608E-02  0.1235068E+00
          4   -1    0    0  501    0  0.00000000000E+00  0.00000000000E+00  0.71306421001E+01  0.72428555667E+01  0.12700000000E+01 0. -1.
         -4   -1    0    0    0  501 -0.00000000000E+00 -0.00000000000E+00 -0.54342805276E+03  0.54342953677E+03  0.12700000000E+01 0. -1.
         25    2    1    2    0    0  0.00000000000E+00  0.00000000000E+00 -0.53629741066E+03  0.55067239233E+03  0.12500068397E+03 0.  0.
    9000005    1    3    3    0    0  0.16824470171E+02  0.12628126050E+02 -0.52738280896E+03  0.52780314469E+03  0.10000000000E+01 0.  0.
    9000005    1    3    3    0    0 -0.16824470171E+02 -0.12628126050E+02 -0.89146017070E+01  0.22869247641E+02  0.10000000000E+01 0.  0.
<mgrwt>
<rscale>  0 0.12500068E+03</rscale>
<asrwt>0</asrwt>
<pdfrwt beam="1">  1        4 0.11057682E-02 0.12500068E+03</pdfrwt>
<pdfrwt beam="2">  1       -4 0.83613030E-01 0.12500068E+03</pdfrwt>
<totfact> 0.52136326E+03</totfact>
</mgrwt>
</event>
<event>
 5    1  0.3241863E-002  0.1249982E+03  0.7818608E-02  0.1235072E+00
         -4   -1    0    0    0  501 -0.00000000000E+00  0.00000000000E+00  0.11485052724E+03  0.11485754876E+03  0.12700000000E+01 0. -1.
          4   -1    0    0  501    0  0.00000000000E+00 -0.00000000000E+00 -0.33990702981E+02  0.34014420312E+02  0.12700000000E+01 0. -1.
         25    2    1    2    0    0  0.00000000000E+00  0.00000000000E+00  0.80859824255E+02  0.14887196907E+03  0.12499820797E+03 0.  0.
    9000005    1    3    3    0    0 -0.54524570544E+02  0.15744293056E+02  0.92739758829E+01  0.57513634779E+02  0.10000000000E+01 0.  0.
    9000005    1    3    3    0    0  0.54524570544E+02 -0.15744293056E+02  0.71585848372E+02  0.91358334289E+02  0.10000000000E+01 0.  0.
<mgrwt>
<rscale>  0 0.12499821E+03</rscale>
<asrwt>0</asrwt>
<pdfrwt beam="2">  1        4 0.52317035E-02 0.12499821E+03</pdfrwt>
<pdfrwt beam="1">  1       -4 0.17671676E-01 0.12499821E+03</pdfrwt>
<totfact> 0.99533045E+03</totfact>
</mgrwt>
</event>
<event>
 5    1  0.3241863E-002  0.1249977E+03  0.7818608E-02  0.1235073E+00
          4   -1    0    0  501    0  0.00000000000E+00  0.00000000000E+00  0.41378138207E+02  0.41397623380E+02  0.12700000000E+01 0.  1.
         -4   -1    0    0    0  501 -0.00000000000E+00 -0.00000000000E+00 -0.94354297731E+02  0.94362844385E+02  0.12700000000E+01 0.  1.
         25    2    1    2    0    0  0.00000000000E+00  0.00000000000E+00 -0.52976159524E+02  0.13576046776E+03  0.12499772450E+03 0.  0.
    9000005    1    3    3    0    0 -0.21323550499E+02 -0.51573523184E+02  0.40502788886E+01  0.55963620849E+02  0.10000000000E+01 0.  0.
    9000005    1    3    3    0    0  0.21323550499E+02  0.51573523184E+02 -0.57026438413E+02  0.79796846915E+02  0.10000000000E+01 0.  0.
<mgrwt>
<rscale>  0 0.12499772E+03</rscale>
<asrwt>0</asrwt>
<pdfrwt beam="1">  1        4 0.63680238E-02 0.12499772E+03</pdfrwt>
<pdfrwt beam="2">  1       -4 0.14518202E-01 0.12499772E+03</pdfrwt>
<totfact> 0.10222592E+04</totfact>
</mgrwt>
</event>
<event>
 5    1  0.3241863E-002  0.1250035E+03  0.7818608E-02  0.1235064E+00
          4   -1    0    0  501    0  0.00000000000E+00  0.00000000000E+00  0.96490964282E+03  0.96491047859E+03  0.12700000000E+01 0.  1.
         -4   -1    0    0    0  501 -0.00000000000E+00 -0.00000000000E+00 -0.39480774109E+01  0.41473142204E+01  0.12700000000E+01 0.  1.
         25    2    1    2    0    0  0.00000000000E+00  0.00000000000E+00  0.96096156541E+03  0.96905779282E+03  0.12500350246E+03 0.  0.
    9000005    1    3    3    0    0  0.59781175665E+02 -0.10636689529E+02  0.59508318989E+03  0.59817383011E+03  0.10000000000E+01 0.  0.
    9000005    1    3    3    0    0 -0.59781175665E+02  0.10636689529E+02  0.36587837551E+03  0.37088396271E+03  0.10000000000E+01 0.  0.
<mgrwt>
<rscale>  0 0.12500350E+03</rscale>
<asrwt>0</asrwt>
<pdfrwt beam="1">  1        4 0.14846302E+00 0.12500350E+03</pdfrwt>
<pdfrwt beam="2">  1       -4 0.62278678E-03 0.12500350E+03</pdfrwt>
<totfact> 0.31646446E+03</totfact>
</mgrwt>
</event>
<event>
 5    1  0.3241863E-002  0.1250004E+03  0.7818608E-02  0.1235069E+00
          4   -1    0    0  501    0  0.00000000000E+00  0.00000000000E+00  0.14601210249E+03  0.14601762555E+03  0.12700000000E+01 0. -1.
         -4   -1    0    0    0  501 -0.00000000000E+00 -0.00000000000E+00 -0.26732006778E+02  0.26762157731E+02  0.12700000000E+01 0. -1.
         25    2    1    2    0    0  0.00000000000E+00  0.00000000000E+00  0.11928009571E+03  0.17277978328E+03  0.12500044912E+03 0.  0.
    9000005    1    3    3    0    0  0.28438931522E+02  0.51845387804E+02  0.87578980411E+02  0.10567778798E+03  0.10000000000E+01 0.  0.
    9000005    1    3    3    0    0 -0.28438931522E+02 -0.51845387804E+02  0.31701115296E+02  0.67101995304E+02  0.10000000000E+01 0.  0.
<mgrwt>
<rscale>  0 0.12500045E+03</rscale>
<asrwt>0</asrwt>
<pdfrwt beam="1">  1        4 0.22466145E-01 0.12500045E+03</pdfrwt>
<pdfrwt beam="2">  1       -4 0.41153605E-02 0.12500045E+03</pdfrwt>
<totfact> 0.94932091E+03</totfact>
</mgrwt>
</event>
<event>
 5    1  0.3241863E-002  0.1249763E+03  0.7818608E-02  0.1235106E+00
          4   -1    0    0  501    0  0.00000000000E+00  0.00000000000E+00  0.69201298310E+03  0.69201414846E+03  0.12700000000E+01 0. -1.
         -4   -1    0    0    0  501 -0.00000000000E+00 -0.00000000000E+00 -0.55699754404E+01  0.57129262560E+01  0.12700000000E+01 0. -1.
         25    2    1    2    0    0  0.00000000000E+00  0.00000000000E+00  0.68644300766E+03  0.69772707472E+03  0.12497626990E+03 0.  0.
    9000005    1    3    3    0    0 -0.14821350275E+02 -0.52731172866E+02  0.17540818737E+03  0.18376420003E+03  0.10000000000E+01 0.  0.
    9000005    1    3    3    0    0  0.14821350275E+02  0.52731172866E+02  0.51103482029E+03  0.51396287469E+03  0.10000000000E+01 0.  0.
<mgrwt>
<rscale>  0 0.12497627E+03</rscale>
<asrwt>0</asrwt>
<pdfrwt beam="1">  1        4 0.10647462E+00 0.12497627E+03</pdfrwt>
<pdfrwt beam="2">  1       -4 0.86800515E-03 0.12497627E+03</pdfrwt>
<totfact> 0.43229385E+03</totfact>
</mgrwt>
</event>
<event>
 5    1  0.3241863E-002  0.1249994E+03  0.7818608E-02  0.1235070E+00
         -4   -1    0    0    0  501 -0.00000000000E+00  0.00000000000E+00  0.12428411060E+02  0.12493130171E+02  0.12700000000E+01 0.  1.
          4   -1    0    0  501    0  0.00000000000E+00 -0.00000000000E+00 -0.31341491669E+03  0.31341748979E+03  0.12700000000E+01 0.  1.
         25    2    1    2    0    0  0.00000000000E+00  0.00000000000E+00 -0.30098650563E+03  0.32591061996E+03  0.12499942252E+03 0.  0.
    9000005    1    3    3    0    0  0.54176566900E+02 -0.16546967318E+02 -0.81692648656E+02  0.99416253062E+02  0.10000000000E+01 0.  0.
    9000005    1    3    3    0    0 -0.54176566900E+02  0.16546967318E+02 -0.21929385698E+03  0.22649436690E+03  0.10000000000E+01 0.  0.
<mgrwt>
<rscale>  0 0.12499942E+03</rscale>
<asrwt>0</asrwt>
<pdfrwt beam="2">  1        4 0.48222850E-01 0.12499942E+03</pdfrwt>
<pdfrwt beam="1">  1       -4 0.19172398E-02 0.12499942E+03</pdfrwt>
<totfact> 0.72459537E+03</totfact>
</mgrwt>
</event>
<event>
 5    1  0.3241863E-002  0.1249838E+03  0.7818608E-02  0.1235095E+00
          4   -1    0    0  501    0  0.00000000000E+00  0.00000000000E+00  0.75439956065E+02  0.75450645267E+02  0.12700000000E+01 0.  1.
         -4   -1    0    0    0  501 -0.00000000000E+00 -0.00000000000E+00 -0.51744060846E+02  0.51759643863E+02  0.12700000000E+01 0.  1.
         25    2    1    2    0    0  0.00000000000E+00  0.00000000000E+00  0.23695895219E+02  0.12721028913E+03  0.12498384780E+03 0.  0.
    9000005    1    3    3    0    0 -0.29108053527E+00 -0.42395505103E+02  0.58565236327E+02  0.72307333562E+02  0.10000000000E+01 0.  0.
    9000005    1    3    3    0    0  0.29108053527E+00  0.42395505103E+02 -0.34869341108E+02  0.54902955568E+02  0.10000000000E+01 0.  0.
<mgrwt>
<rscale>  0 0.12498385E+03</rscale>
<asrwt>0</asrwt>
<pdfrwt beam="1">  1        4 0.11608168E-01 0.12498385E+03</pdfrwt>
<pdfrwt beam="2">  1       -4 0.79626457E-02 0.12498385E+03</pdfrwt>
<totfact> 0.10408375E+04</totfact>
</mgrwt>
</event>
<event>
 5    1  0.3241863E-002  0.1250027E+03  0.7818608E-02  0.1235065E+00
          4   -1    0    0  501    0  0.00000000000E+00  0.00000000000E+00  0.62990855710E+02  0.63003657062E+02  0.12700000000E+01 0. -1.
         -4   -1    0    0    0  501 -0.00000000000E+00 -0.00000000000E+00 -0.61990069936E+02  0.62003077913E+02  0.12700000000E+01 0. -1.
         25    2    1    2    0    0  0.00000000000E+00  0.00000000000E+00  0.10007857741E+01  0.12500673497E+03  0.12500272884E+03 0.  0.
    9000005    1    3    3    0    0  0.28277154215E+01  0.42751823284E+02  0.45995874523E+02  0.62867597709E+02  0.10000000000E+01 0.  0.
    9000005    1    3    3    0    0 -0.28277154215E+01 -0.42751823284E+02 -0.44995088749E+02  0.62139137265E+02  0.10000000000E+01 0.  0.
<mgrwt>
<rscale>  0 0.12500273E+03</rscale>
<asrwt>0</asrwt>
<pdfrwt beam="1">  1        4 0.96928862E-02 0.12500273E+03</pdfrwt>
<pdfrwt beam="2">  1       -4 0.95389192E-02 0.12500273E+03</pdfrwt>
<totfact> 0.10452072E+04</totfact>
</mgrwt>
</event>
<event>
 5    1  0.3241863E-002  0.1250001E+03  0.7818608E-02  0.1235069E+00
          4   -1    0    0  501    0  0.00000000000E+00  0.00000000000E+00  0.28405571360E+03  0.28405855264E+03  0.12700000000E+01 0. -1.
         -4   -1    0    0    0  501 -0.00000000000E+00 -0.00000000000E+00 -0.13719488197E+02  0.13778144156E+02  0.12700000000E+01 0. -1.
         25    2    1    2    0    0  0.00000000000E+00  0.00000000000E+00  0.27033622540E+03  0.29783669680E+03  0.12500009278E+03 0.  0.
    9000005    1    3    3    0    0 -0.30585131915E+02  0.26792802111E+02  0.22098119894E+02  0.46288567077E+02  0.10000000000E+01 0.  0.
    9000005    1    3    3    0    0  0.30585131915E+02 -0.26792802111E+02  0.24823810551E+03  0.25154812972E+03  0.10000000000E+01 0.  0.
<mgrwt>
<rscale>  0 0.12500009E+03</rscale>
<asrwt>0</asrwt>
<pdfrwt beam="1">  1        4 0.43705609E-01 0.12500009E+03</pdfrwt>
<pdfrwt beam="2">  1       -4 0.21154209E-02 0.12500009E+03</pdfrwt>
<totfact> 0.75870845E+03</totfact>
</mgrwt>
</event>
<event>
 5    1  0.3241863E-002  0.1250005E+03  0.7818608E-02  0.1235068E+00
          4   -1    0    0  501    0  0.00000000000E+00  0.00000000000E+00  0.81016981073E+02  0.81026934548E+02  0.12700000000E+01 0. -1.
         -4   -1    0    0    0  501 -0.00000000000E+00 -0.00000000000E+00 -0.48194308437E+02  0.48211038837E+02  0.12700000000E+01 0. -1.
         25    2    1    2    0    0  0.00000000000E+00  0.00000000000E+00  0.32822672636E+02  0.12923797338E+03  0.12500050370E+03 0.  0.
    9000005    1    3    3    0    0 -0.10744566591E+01  0.48947659809E+02  0.56564111277E+02  0.74816619427E+02  0.10000000000E+01 0.  0.
    9000005    1    3    3    0    0  0.10744566591E+01 -0.48947659809E+02 -0.23741438641E+02  0.54421353958E+02  0.10000000000E+01 0.  0.
<mgrwt>
<rscale>  0 0.12500050E+03</rscale>
<asrwt>0</asrwt>
<pdfrwt beam="1">  1        4 0.12466203E-01 0.12500050E+03</pdfrwt>
<pdfrwt beam="2">  1       -4 0.74165617E-02 0.12500050E+03</pdfrwt>
<totfact> 0.10360718E+04</totfact>
</mgrwt>
</event>
<event>
 5    1  0.3241863E-002  0.1250013E+03  0.7818608E-02  0.1235067E+00
          4   -1    0    0  501    0  0.00000000000E+00  0.00000000000E+00  0.35614395908E+02  0.35637032647E+02  0.12700000000E+01 0.  1.
         -4   -1    0    0    0  501 -0.00000000000E+00 -0.00000000000E+00 -0.10962288052E+03  0.10963023686E+03  0.12700000000E+01 0.  1.
         25    2    1    2    0    0  0.00000000000E+00  0.00000000000E+00 -0.74008484614E+02  0.14526726951E+03  0.12500129517E+03 0.  0.
    9000005    1    3    3    0    0 -0.40149484010E+02  0.43963983920E+02 -0.59069892925E+02  0.83875295520E+02  0.10000000000E+01 0.  0.
    9000005    1    3    3    0    0  0.40149484010E+02 -0.43963983920E+02 -0.14938591689E+02  0.61391973987E+02  0.10000000000E+01 0.  0.
<mgrwt>
<rscale>  0 0.12500130E+03</rscale>
<asrwt>0</asrwt>
<pdfrwt beam="1">  1        4 0.54814450E-02 0.12500130E+03</pdfrwt>
<pdfrwt beam="2">  1       -4 0.16867366E-01 0.12500130E+03</pdfrwt>
<totfact> 0.10025269E+04</totfact>
</mgrwt>
</event>
<event>
 5    1  0.3241863E-002  0.1249990E+03  0.7818608E-02  0.1235071E+00
          4   -1    0    0  501    0  0.00000000000E+00  0.00000000000E+00  0.30738662201E+02  0.30764886704E+02  0.12700000000E+01 0.  1.
         -4   -1    0    0    0  501 -0.00000000000E+00 -0.00000000000E+00 -0.12699370702E+03  0.12700005718E+03  0.12700000000E+01 0.  1.
         25    2    1    2    0    0  0.00000000000E+00  0.00000000000E+00 -0.96255044821E+02  0.15776494388E+03  0.12499897545E+03 0.  0.
    9000005    1    3    3    0    0 -0.50857969492E+02  0.35963342608E+02 -0.41780264541E+02  0.75009903196E+02  0.10000000000E+01 0.  0.
    9000005    1    3    3    0    0  0.50857969492E+02 -0.35963342608E+02 -0.54474780280E+02  0.82755040686E+02  0.10000000000E+01 0.  0.
<mgrwt>
<rscale>  0 0.12499898E+03</rscale>
<asrwt>0</asrwt>
<pdfrwt beam="1">  1        4 0.47315307E-02 0.12499898E+03</pdfrwt>
<pdfrwt beam="2">  1       -4 0.19539999E-01 0.12499898E+03</pdfrwt>
<totfact> 0.97777677E+03</totfact>
</mgrwt>
</event>
<event>
 5    1  0.3241863E-002  0.1250003E+03  0.7818608E-02  0.1235069E+00
         -4   -1    0    0    0  501 -0.00000000000E+00  0.00000000000E+00  0.95908696450E+02  0.95917104600E+02  0.12700000000E+01 0.  1.
          4   -1    0    0  501    0  0.00000000000E+00 -0.00000000000E+00 -0.40708950698E+02  0.40728756020E+02  0.12700000000E+01 0.  1.
         25    2    1    2    0    0  0.00000000000E+00  0.00000000000E+00  0.55199745752E+02  0.13664586062E+03  0.12500031717E+03 0.  0.
    9000005    1    3    3    0    0  0.39785032981E+02  0.26426039036E+02 -0.16454578889E+02  0.50526602447E+02  0.10000000000E+01 0.  0.
    9000005    1    3    3    0    0 -0.39785032981E+02 -0.26426039036E+02  0.71654324641E+02  0.86119258173E+02  0.10000000000E+01 0.  0.
<mgrwt>
<rscale>  0 0.12500032E+03</rscale>
<asrwt>0</asrwt>
<pdfrwt beam="2">  1        4 0.62650858E-02 0.12500032E+03</pdfrwt>
<pdfrwt beam="1">  1       -4 0.14757354E-01 0.12500032E+03</pdfrwt>
<totfact> 0.10203423E+04</totfact>
</mgrwt>
</event>
<event>
 5    1  0.3241863E-002  0.1249936E+03  0.7818608E-02  0.1235079E+00
          4   -1    0    0  501    0  0.00000000000E+00  0.00000000000E+00  0.37344793449E+03  0.37345009396E+03  0.12700000000E+01 0.  1.
         -4   -1    0    0    0  501 -0.00000000000E+00 -0.00000000000E+00 -0.10418130026E+02  0.10495252890E+02  0.12700000000E+01 0.  1.
         25    2    1    2    0    0  0.00000000000E+00  0.00000000000E+00  0.36302980447E+03  0.38394534685E+03  0.12499356157E+03 0.  0.
    9000005    1    3    3    0    0 -0.42616108890E+02 -0.44485126464E+02  0.14932942271E+03  0.16154050792E+03  0.10000000000E+01 0.  0.
    9000005    1    3    3    0    0  0.42616108890E+02  0.44485126464E+02  0.21370038176E+03  0.22240483893E+03  0.10000000000E+01 0.  0.
<mgrwt>
<rscale>  0 0.12499356E+03</rscale>
<asrwt>0</asrwt>
<pdfrwt beam="1">  1        4 0.57459615E-01 0.12499356E+03</pdfrwt>
<pdfrwt beam="2">  1       -4 0.16088882E-02 0.12499356E+03</pdfrwt>
<totfact> 0.66154198E+03</totfact>
</mgrwt>
</event>
<event>
 5    1  0.3241863E-002  0.1250009E+03  0.7818608E-02  0.1235068E+00
         -4   -1    0    0    0  501 -0.00000000000E+00  0.00000000000E+00  0.57775459085E+02  0.57789415748E+02  0.12700000000E+01 0.  1.
          4   -1    0    0  501    0  0.00000000000E+00 -0.00000000000E+00 -0.67583776962E+02  0.67595708507E+02  0.12700000000E+01 0.  1.
         25    2    1    2    0    0  0.00000000000E+00  0.00000000000E+00 -0.98083178774E+01  0.12538512425E+03  0.12500090514E+03 0.  0.
    9000005    1    3    3    0    0 -0.56458533351E+02  0.28468570166E+01  0.21816715908E+02  0.60602307514E+02  0.10000000000E+01 0.  0.
    9000005    1    3    3    0    0  0.56458533351E+02 -0.28468570166E+01 -0.31625033785E+02  0.64782816741E+02  0.10000000000E+01 0.  0.
<mgrwt>
<rscale>  0 0.12500091E+03</rscale>
<asrwt>0</asrwt>
<pdfrwt beam="2">  1        4 0.10399496E-01 0.12500091E+03</pdfrwt>
<pdfrwt beam="1">  1       -4 0.88905236E-02 0.12500091E+03</pdfrwt>
<totfact> 0.10444283E+04</totfact>
</mgrwt>
</event>
<event>
 5    1  0.3241863E-002  0.1249962E+03  0.7818608E-02  0.1235075E+00
         -4   -1    0    0    0  501 -0.00000000000E+00  0.00000000000E+00  0.13270584505E+03  0.13271192189E+03  0.12700000000E+01 0.  1.
          4   -1    0    0  501    0  0.00000000000E+00 -0.00000000000E+00 -0.29413164548E+02  0.29440569776E+02  0.12700000000E+01 0.  1.
         25    2    1    2    0    0  0.00000000000E+00  0.00000000000E+00  0.10329268050E+03  0.16215249166E+03  0.12499621077E+03 0.  0.
    9000005    1    3    3    0    0 -0.65901219375E+01 -0.24979847980E+02  0.12546017163E+03  0.12809635895E+03  0.10000000000E+01 0.  0.
    9000005    1    3    3    0    0  0.65901219375E+01  0.24979847980E+02 -0.22167491125E+02  0.34056132708E+02  0.10000000000E+01 0.  0.
<mgrwt>
<rscale>  0 0.12499621E+03</rscale>
<asrwt>0</asrwt>
<pdfrwt beam="2">  1        4 0.45276778E-02 0.12499621E+03</pdfrwt>
<pdfrwt beam="1">  1       -4 0.20418859E-01 0.12499621E+03</pdfrwt>
<totfact> 0.96937654E+03</totfact>
</mgrwt>
</event>
<event>
 5    1  0.3241863E-002  0.1249995E+03  0.7818608E-02  0.1235070E+00
         -4   -1    0    0    0  501 -0.00000000000E+00  0.00000000000E+00  0.37320166904E+02  0.37341769612E+02  0.12700000000E+01 0. -1.
          4   -1    0    0  501    0  0.00000000000E+00 -0.00000000000E+00 -0.10461207328E+03  0.10461978195E+03  0.12700000000E+01 0. -1.
         25    2    1    2    0    0  0.00000000000E+00  0.00000000000E+00 -0.67291906374E+02  0.14196155156E+03  0.12499952583E+03 0.  0.
    9000005    1    3    3    0    0  0.45671129644E+02 -0.23026837804E+02 -0.74422574545E+02  0.90309506388E+02  0.10000000000E+01 0.  0.
    9000005    1    3    3    0    0 -0.45671129644E+02  0.23026837804E+02  0.71306681705E+01  0.51652045175E+02  0.10000000000E+01 0.  0.
<mgrwt>
<rscale>  0 0.12499953E+03</rscale>
<asrwt>0</asrwt>
<pdfrwt beam="2">  1        4 0.16096420E-01 0.12499953E+03</pdfrwt>
<pdfrwt beam="1">  1       -4 0.57438189E-02 0.12499953E+03</pdfrwt>
<totfact> 0.10093200E+04</totfact>
</mgrwt>
</event>
<event>
 5    1  0.3241863E-002  0.1250062E+03  0.7818608E-02  0.1235060E+00
          4   -1    0    0  501    0  0.00000000000E+00  0.00000000000E+00  0.19111759876E+03  0.19112181836E+03  0.12700000000E+01 0.  1.
         -4   -1    0    0    0  501 -0.00000000000E+00 -0.00000000000E+00 -0.20416826935E+02  0.20456288082E+02  0.12700000000E+01 0.  1.
         25    2    1    2    0    0  0.00000000000E+00  0.00000000000E+00  0.17070077182E+03  0.21157810644E+03  0.12500616635E+03 0.  0.
    9000005    1    3    3    0    0  0.33234457617E+02  0.13088255767E+02  0.17214663615E+03  0.17581608559E+03  0.10000000000E+01 0.  0.
    9000005    1    3    3    0    0 -0.33234457617E+02 -0.13088255767E+02 -0.14458643333E+01  0.35762020857E+02  0.10000000000E+01 0.  0.
<mgrwt>
<rscale>  0 0.12500617E+03</rscale>
<asrwt>0</asrwt>
<pdfrwt beam="1">  1        4 0.29406068E-01 0.12500617E+03</pdfrwt>
<pdfrwt beam="2">  1       -4 0.31444103E-02 0.12500617E+03</pdfrwt>
<totfact> 0.88206643E+03</totfact>
</mgrwt>
</event>
<event>
 5    1  0.3241863E-002  0.1250001E+03  0.7818608E-02  0.1235069E+00
         -4   -1    0    0    0  501 -0.00000000000E+00  0.00000000000E+00  0.13714458789E+03  0.13715046805E+03  0.12700000000E+01 0.  1.
          4   -1    0    0  501    0  0.00000000000E+00 -0.00000000000E+00 -0.28462113732E+02  0.28490433799E+02  0.12700000000E+01 0.  1.
         25    2    1    2    0    0  0.00000000000E+00  0.00000000000E+00  0.10868247416E+03  0.16564090185E+03  0.12500011271E+03 0.  0.
    9000005    1    3    3    0    0  0.60548738300E+02  0.55328711974E+01  0.35207285904E+02  0.70266032719E+02  0.10000000000E+01 0.  0.
    9000005    1    3    3    0    0 -0.60548738300E+02 -0.55328711974E+01  0.73475188252E+02  0.95374869132E+02  0.10000000000E+01 0.  0.
<mgrwt>
<rscale>  0 0.12500011E+03</rscale>
<asrwt>0</asrwt>
<pdfrwt beam="2">  1        4 0.43814175E-02 0.12500011E+03</pdfrwt>
<pdfrwt beam="1">  1       -4 0.21101798E-01 0.12500011E+03</pdfrwt>
<totfact> 0.96265909E+03</totfact>
</mgrwt>
</event>
<event>
 5    1  0.3241863E-002  0.1249951E+03  0.7818608E-02  0.1235077E+00
         -4   -1    0    0    0  501 -0.00000000000E+00  0.00000000000E+00  0.78211105130E+02  0.78221415646E+02  0.12700000000E+01 0.  1.
          4   -1    0    0  501    0  0.00000000000E+00 -0.00000000000E+00 -0.49919392331E+02  0.49935544762E+02  0.12700000000E+01 0.  1.
         25    2    1    2    0    0  0.00000000000E+00  0.00000000000E+00  0.28291712799E+02  0.12815696041E+03  0.12499514186E+03 0.  0.
    9000005    1    3    3    0    0  0.30381588659E+02 -0.33125186243E+02  0.58656289914E+02  0.73904527869E+02  0.10000000000E+01 0.  0.
    9000005    1    3    3    0    0 -0.30381588659E+02  0.33125186243E+02 -0.30364577115E+02  0.54252432539E+02  0.10000000000E+01 0.  0.
<mgrwt>
<rscale>  0 0.12499514E+03</rscale>
<asrwt>0</asrwt>
<pdfrwt beam="2">  1        4 0.76819422E-02 0.12499514E+03</pdfrwt>
<pdfrwt beam="1">  1       -4 0.12034513E-01 0.12499514E+03</pdfrwt>
<totfact> 0.10385238E+04</totfact>
</mgrwt>
</event>
<event>
 5    1  0.3241863E-002  0.1249999E+03  0.7818608E-02  0.1235069E+00
          4   -1    0    0  501    0  0.00000000000E+00  0.00000000000E+00  0.13481695982E+03  0.13482294150E+03  0.12700000000E+01 0.  1.
         -4   -1    0    0    0  501 -0.00000000000E+00 -0.00000000000E+00 -0.28953863062E+02  0.28981702611E+02  0.12700000000E+01 0.  1.
         25    2    1    2    0    0  0.00000000000E+00  0.00000000000E+00  0.10586309675E+03  0.16380464411E+03  0.12499986471E+03 0.  0.
    9000005    1    3    3    0    0  0.43184169744E+01 -0.39324681766E+02 -0.10461210041E+02  0.40933070208E+02  0.10000000000E+01 0.  0.
    9000005    1    3    3    0    0 -0.43184169744E+01  0.39324681766E+02  0.11632430680E+03  0.12287157390E+03  0.10000000000E+01 0.  0.
<mgrwt>
<rscale>  0 0.12499986E+03</rscale>
<asrwt>0</asrwt>
<pdfrwt beam="1">  1        4 0.20743672E-01 0.12499986E+03</pdfrwt>
<pdfrwt beam="2">  1       -4 0.44570421E-02 0.12499986E+03</pdfrwt>
<totfact> 0.96614547E+03</totfact>
</mgrwt>
</event>
<event>
 5    1  0.3241863E-002  0.1249993E+03  0.7818608E-02  0.1235070E+00
         -4   -1    0    0    0  501 -0.00000000000E+00  0.00000000000E+00  0.80122369355E+02  0.80132433952E+02  0.12700000000E+01 0.  1.
          4   -1    0    0  501    0  0.00000000000E+00 -0.00000000000E+00 -0.48731639591E+02  0.48748185579E+02  0.12700000000E+01 0.  1.
         25    2    1    2    0    0  0.00000000000E+00  0.00000000000E+00  0.31390729764E+02  0.12888061953E+03  0.12499934470E+03 0.  0.
    9000005    1    3    3    0    0  0.18587426440E+02 -0.34799855356E+02  0.65663417255E+02  0.76610748072E+02  0.10000000000E+01 0.  0.
    9000005    1    3    3    0    0 -0.18587426440E+02  0.34799855356E+02 -0.34272687491E+02  0.52269871459E+02  0.10000000000E+01 0.  0.
<mgrwt>
<rscale>  0 0.12499934E+03</rscale>
<asrwt>0</asrwt>
<pdfrwt beam="2">  1        4 0.74992224E-02 0.12499934E+03</pdfrwt>
<pdfrwt beam="1">  1       -4 0.12328565E-01 0.12499934E+03</pdfrwt>
<totfact> 0.10368666E+04</totfact>
</mgrwt>
</event>
<event>
 5    1  0.3241863E-002  0.1250040E+03  0.7818608E-02  0.1235063E+00
         -4   -1    0    0    0  501 -0.00000000000E+00  0.00000000000E+00  0.21193086434E+03  0.21193466956E+03  0.12700000000E+01 0. -1.
          4   -1    0    0  501    0  0.00000000000E+00 -0.00000000000E+00 -0.18407051656E+02  0.18450811653E+02  0.12700000000E+01 0. -1.
         25    2    1    2    0    0  0.00000000000E+00  0.00000000000E+00  0.19352381268E+03  0.23038548121E+03  0.12500401544E+03 0.  0.
    9000005    1    3    3    0    0  0.60551858269E+02 -0.15057437630E+02  0.90312109688E+02  0.10977491118E+03  0.10000000000E+01 0.  0.
    9000005    1    3    3    0    0 -0.60551858269E+02  0.15057437630E+02  0.10321170300E+03  0.12061057003E+03  0.10000000000E+01 0.  0.
<mgrwt>
<rscale>  0 0.12500402E+03</rscale>
<asrwt>0</asrwt>
<pdfrwt beam="2">  1        4 0.28355130E-02 0.12500402E+03</pdfrwt>
<pdfrwt beam="1">  1       -4 0.32608406E-01 0.12500402E+03</pdfrwt>
<totfact> 0.85242804E+03</totfact>
</mgrwt>
</event>
<event>
 5    1  0.3241863E-002  0.1249990E+03  0.7818608E-02  0.1235071E+00
          4   -1    0    0  501    0  0.00000000000E+00  0.00000000000E+00  0.13037809984E+02  0.13099518662E+02  0.12700000000E+01 0.  1.
         -4   -1    0    0    0  501 -0.00000000000E+00 -0.00000000000E+00 -0.29883410885E+03  0.29883680749E+03  0.12700000000E+01 0.  1.
         25    2    1    2    0    0  0.00000000000E+00  0.00000000000E+00 -0.28579629887E+03  0.31193632615E+03  0.12499898851E+03 0.  0.
    9000005    1    3    3    0    0  0.14978413767E+02  0.49284514730E+02 -0.54602529749E+02  0.75071649283E+02  0.10000000000E+01 0.  0.
    9000005    1    3    3    0    0 -0.14978413767E+02 -0.49284514730E+02 -0.23119376912E+03  0.23686467687E+03  0.10000000000E+01 0.  0.
<mgrwt>
<rscale>  0 0.12499899E+03</rscale>
<asrwt>0</asrwt>
<pdfrwt beam="1">  1        4 0.20107716E-02 0.12499899E+03</pdfrwt>
<pdfrwt beam="2">  1       -4 0.45979427E-01 0.12499899E+03</pdfrwt>
<totfact> 0.74127219E+03</totfact>
</mgrwt>
</event>
<event>
 5    1  0.3241863E-002  0.1249916E+03  0.7818608E-02  0.1235082E+00
         -4   -1    0    0    0  501 -0.00000000000E+00  0.00000000000E+00  0.61324367983E+03  0.61324499489E+03  0.12700000000E+01 0. -1.
          4   -1    0    0  501    0  0.00000000000E+00 -0.00000000000E+00 -0.63043168908E+01  0.64309650488E+01  0.12700000000E+01 0. -1.
         25    2    1    2    0    0  0.00000000000E+00  0.00000000000E+00  0.60693936294E+03  0.61967595994E+03  0.12499161986E+03 0.  0.
    9000005    1    3    3    0    0 -0.58064611379E+02  0.45694286819E+01  0.19125076879E+03  0.19992557450E+03  0.10000000000E+01 0.  0.
    9000005    1    3    3    0    0  0.58064611379E+02 -0.45694286819E+01  0.41568859415E+03  0.41975038544E+03  0.10000000000E+01 0.  0.
<mgrwt>
<rscale>  0 0.12499162E+03</rscale>
<asrwt>0</asrwt>
<pdfrwt beam="2">  1        4 0.97973825E-03 0.12499162E+03</pdfrwt>
<pdfrwt beam="1">  1       -4 0.94355023E-01 0.12499162E+03</pdfrwt>
<totfact> 0.47657456E+03</totfact>
</mgrwt>
</event>
<event>
 5    1  0.3241863E-002  0.1250030E+03  0.7818608E-02  0.1235065E+00
          4   -1    0    0  501    0  0.00000000000E+00  0.00000000000E+00  0.17155052089E+03  0.17155522177E+03  0.12700000000E+01 0. -1.
         -4   -1    0    0    0  501 -0.00000000000E+00 -0.00000000000E+00 -0.22748631254E+02  0.22784054159E+02  0.12700000000E+01 0. -1.
         25    2    1    2    0    0  0.00000000000E+00  0.00000000000E+00  0.14880188963E+03  0.19433927593E+03  0.12500300721E+03 0.  0.
    9000005    1    3    3    0    0  0.59001055030E+01 -0.50158243611E+02  0.13162439982E+03  0.14098454977E+03  0.10000000000E+01 0.  0.
    9000005    1    3    3    0    0 -0.59001055030E+01  0.50158243611E+02  0.17177489818E+02  0.53354726159E+02  0.10000000000E+01 0.  0.
<mgrwt>
<rscale>  0 0.12500301E+03</rscale>
<asrwt>0</asrwt>
<pdfrwt beam="1">  1        4 0.26395474E-01 0.12500301E+03</pdfrwt>
<pdfrwt beam="2">  1       -4 0.35028759E-02 0.12500301E+03</pdfrwt>
<totfact> 0.91091595E+03</totfact>
</mgrwt>
</event>
<event>
 5    1  0.3241863E-002  0.1250044E+03  0.7818608E-02  0.1235062E+00
         -4   -1    0    0    0  501 -0.00000000000E+00  0.00000000000E+00  0.25993404767E+02  0.26024411451E+02  0.12700000000E+01 0. -1.
          4   -1    0    0  501    0  0.00000000000E+00 -0.00000000000E+00 -0.15016585770E+03  0.15017122800E+03  0.12700000000E+01 0. -1.
         25    2    1    2    0    0  0.00000000000E+00  0.00000000000E+00 -0.12417245294E+03  0.17619563945E+03  0.12500442110E+03 0.  0.
    9000005    1    3    3    0    0  0.23548594436E+02  0.20836396977E+02  0.14038489164E+02  0.34449541606E+02  0.10000000000E+01 0.  0.
    9000005    1    3    3    0    0 -0.23548594436E+02 -0.20836396977E+02 -0.13821094210E+03  0.14174609785E+03  0.10000000000E+01 0.  0.
<mgrwt>
<rscale>  0 0.12500442E+03</rscale>
<asrwt>0</asrwt>
<pdfrwt beam="2">  1        4 0.23105237E-01 0.12500442E+03</pdfrwt>
<pdfrwt beam="1">  1       -4 0.40017837E-02 0.12500442E+03</pdfrwt>
<totfact> 0.94296966E+03</totfact>
</mgrwt>
</event>
<event>
 5    1  0.3241863E-002  0.1249996E+03  0.7818608E-02  0.1235070E+00
          4   -1    0    0  501    0  0.00000000000E+00  0.00000000000E+00  0.10897982234E+02  0.10971732624E+02  0.12700000000E+01 0. -1.
         -4   -1    0    0    0  501 -0.00000000000E+00 -0.00000000000E+00 -0.35715175740E+03  0.35715401539E+03  0.12700000000E+01 0. -1.
         25    2    1    2    0    0  0.00000000000E+00  0.00000000000E+00 -0.34625377516E+03  0.36812574802E+03  0.12499955816E+03 0.  0.
    9000005    1    3    3    0    0 -0.10780103216E+02 -0.27019135004E+02 -0.33600994054E+03  0.33726832704E+03  0.10000000000E+01 0.  0.
    9000005    1    3    3    0    0  0.10780103216E+02  0.27019135004E+02 -0.10243834622E+02  0.30857420979E+02  0.10000000000E+01 0.  0.
<mgrwt>
<rscale>  0 0.12499956E+03</rscale>
<asrwt>0</asrwt>
<pdfrwt beam="1">  1        4 0.16824597E-02 0.12499956E+03</pdfrwt>
<pdfrwt beam="2">  1       -4 0.54952262E-01 0.12499956E+03</pdfrwt>
<totfact> 0.67776142E+03</totfact>
</mgrwt>
</event>
<event>
 5    1  0.3241863E-002  0.1249949E+03  0.7818608E-02  0.1235077E+00
          4   -1    0    0  501    0  0.00000000000E+00  0.00000000000E+00  0.42489576901E+02  0.42508552612E+02  0.12700000000E+01 0.  1.
         -4   -1    0    0    0  501 -0.00000000000E+00 -0.00000000000E+00 -0.91882995140E+02  0.91891771644E+02  0.12700000000E+01 0.  1.
         25    2    1    2    0    0  0.00000000000E+00  0.00000000000E+00 -0.49393418240E+02  0.13440032426E+03  0.12499494948E+03 0.  0.
    9000005    1    3    3    0    0 -0.59536686573E+01  0.52783980741E+02  0.10694072267E+02  0.54193707892E+02  0.10000000000E+01 0.  0.
    9000005    1    3    3    0    0  0.59536686573E+01 -0.52783980741E+02 -0.60087490507E+02  0.80206616365E+02  0.10000000000E+01 0.  0.
<mgrwt>
<rscale>  0 0.12499495E+03</rscale>
<asrwt>0</asrwt>
<pdfrwt beam="1">  1        4 0.65389928E-02 0.12499495E+03</pdfrwt>
<pdfrwt beam="2">  1       -4 0.14137980E-01 0.12499495E+03</pdfrwt>
<totfact> 0.10251894E+04</totfact>
</mgrwt>
</event>
<event>
 4    1  0.3241863E-002  0.1226783E+03  0.7818608E-02  0.1238743E+00
          4   -1    0    0  501    0  0.00000000000E+00  0.00000000000E+00  0.21473595682E+03  0.21473971233E+03  0.12700000000E+01 0. -1.
         -4   -1    0    0    0  501 -0.00000000000E+00 -0.00000000000E+00 -0.17494550292E+02  0.17540586932E+02  0.12700000000E+01 0. -1.
    9000005    1    1    2    0    0  0.94525467794E+01 -0.30132499864E+02  0.19816749019E+03  0.20067055678E+03  0.10000000000E+01 0.  0.
    9000005    1    1    2    0    0 -0.94525467794E+01  0.30132499864E+02 -0.92608366774E+00  0.31609742480E+02  0.10000000000E+01 0.  0.
<mgrwt>
<rscale>  0 0.12267830E+03</rscale>
<asrwt>0</asrwt>
<pdfrwt beam="1">  1        4 0.33040132E-01 0.12267830E+03</pdfrwt>
<pdfrwt beam="2">  1       -4 0.26952993E-02 0.12267830E+03</pdfrwt>
<totfact> 0.89515269E+03</totfact>
</mgrwt>
</event>
<event>
 5    1  0.3241863E-002  0.1249993E+03  0.7818608E-02  0.1235070E+00
         -4   -1    0    0    0  501 -0.00000000000E+00  0.00000000000E+00  0.76031444643E+03  0.76031550711E+03  0.12700000000E+01 0. -1.
          4   -1    0    0  501    0  0.00000000000E+00 -0.00000000000E+00 -0.50580566776E+01  0.52150587105E+01  0.12700000000E+01 0. -1.
         25    2    1    2    0    0  0.00000000000E+00  0.00000000000E+00  0.75525638975E+03  0.76553056582E+03  0.12499933177E+03 0.  0.
    9000005    1    3    3    0    0  0.37734728252E+02  0.40825428235E+02  0.55242057517E+03  0.55521177687E+03  0.10000000000E+01 0.  0.
    9000005    1    3    3    0    0 -0.37734728252E+02 -0.40825428235E+02  0.20283581459E+03  0.21031878895E+03  0.10000000000E+01 0.  0.
<mgrwt>
<rscale>  0 0.12499933E+03</rscale>
<asrwt>0</asrwt>
<pdfrwt beam="2">  1        4 0.79032108E-03 0.12499933E+03</pdfrwt>
<pdfrwt beam="1">  1       -4 0.11698364E+00 0.12499933E+03</pdfrwt>
<totfact> 0.39842672E+03</totfact>
</mgrwt>
</event>
<event>
 5    1  0.3241863E-002  0.1249976E+03  0.7818608E-02  0.1235073E+00
          4   -1    0    0  501    0  0.00000000000E+00  0.00000000000E+00  0.22490312194E+03  0.22490670768E+03  0.12700000000E+01 0. -1.
         -4   -1    0    0    0  501 -0.00000000000E+00 -0.00000000000E+00 -0.17340971802E+02  0.17387415076E+02  0.12700000000E+01 0. -1.
         25    2    1    2    0    0  0.00000000000E+00  0.00000000000E+00  0.20756215014E+03  0.24229412275E+03  0.12499758298E+03 0.  0.
    9000005    1    3    3    0    0  0.59700967092E+02 -0.70880190280E+01  0.70734305874E+02  0.92837425174E+02  0.10000000000E+01 0.  0.
    9000005    1    3    3    0    0 -0.59700967092E+02  0.70880190280E+01  0.13682784426E+03  0.14945669758E+03  0.10000000000E+01 0.  0.
<mgrwt>
<rscale>  0 0.12499758E+03</rscale>
<asrwt>0</asrwt>
<pdfrwt beam="1">  1        4 0.34604325E-01 0.12499758E+03</pdfrwt>
<pdfrwt beam="2">  1       -4 0.26716905E-02 0.12499758E+03</pdfrwt>
<totfact> 0.83461380E+03</totfact>
</mgrwt>
</event>
<event>
 5    1  0.3241863E-002  0.1250012E+03  0.7818608E-02  0.1235067E+00
         -4   -1    0    0    0  501 -0.00000000000E+00  0.00000000000E+00  0.57593719037E+02  0.57607719730E+02  0.12700000000E+01 0.  1.
          4   -1    0    0  501    0  0.00000000000E+00 -0.00000000000E+00 -0.67797300039E+02  0.67809194013E+02  0.12700000000E+01 0.  1.
         25    2    1    2    0    0  0.00000000000E+00  0.00000000000E+00 -0.10203581003E+02  0.12541691374E+03  0.12500115674E+03 0.  0.
    9000005    1    3    3    0    0 -0.34546985445E+02  0.29502932641E+01  0.47062709712E+02  0.58464494175E+02  0.10000000000E+01 0.  0.
    9000005    1    3    3    0    0  0.34546985445E+02 -0.29502932641E+01 -0.57266290715E+02  0.66952419567E+02  0.10000000000E+01 0.  0.
<mgrwt>
<rscale>  0 0.12500116E+03</rscale>
<asrwt>0</asrwt>
<pdfrwt beam="2">  1        4 0.10432346E-01 0.12500116E+03</pdfrwt>
<pdfrwt beam="1">  1       -4 0.88625641E-02 0.12500116E+03</pdfrwt>
<totfact> 0.10443520E+04</totfact>
</mgrwt>
</event>
<event>
 5    1  0.3241863E-002  0.1250048E+03  0.7818608E-02  0.1235062E+00
         -4   -1    0    0    0  501 -0.00000000000E+00  0.00000000000E+00  0.16716102359E+04  0.16716107183E+04  0.12700000000E+01 0.  1.
          4   -1    0    0  501    0  0.00000000000E+00 -0.00000000000E+00 -0.21639416391E+01  0.25090921501E+01  0.12700000000E+01 0.  1.
         25    2    1    2    0    0  0.00000000000E+00  0.00000000000E+00  0.16694462942E+04  0.16741198105E+04  0.12500484171E+03 0.  0.
    9000005    1    3    3    0    0  0.61219068628E+02  0.44454469831E+01  0.67738833978E+03  0.68016431781E+03  0.10000000000E+01 0.  0.
    9000005    1    3    3    0    0 -0.61219068628E+02 -0.44454469831E+01  0.99205795446E+03  0.99395549265E+03  0.10000000000E+01 0.  0.
<mgrwt>
<rscale>  0 0.12500484E+03</rscale>
<asrwt>0</asrwt>
<pdfrwt beam="2">  1        4 0.35950207E-03 0.12500484E+03</pdfrwt>
<pdfrwt beam="1">  1       -4 0.25719681E+00 0.12500484E+03</pdfrwt>
<totfact> 0.14742800E+03</totfact>
</mgrwt>
</event>
<event>
 5    1  0.3241863E-002  0.1250003E+03  0.7818608E-02  0.1235069E+00
          4   -1    0    0  501    0  0.00000000000E+00  0.00000000000E+00  0.97751054537E+02  0.97759304228E+02  0.12700000000E+01 0. -1.
         -4   -1    0    0    0  501 -0.00000000000E+00 -0.00000000000E+00 -0.39941372809E+02  0.39961558552E+02  0.12700000000E+01 0. -1.
         25    2    1    2    0    0  0.00000000000E+00  0.00000000000E+00  0.57809681728E+02  0.13772086278E+03  0.12500030697E+03 0.  0.
    9000005    1    3    3    0    0 -0.11784693378E+02 -0.33095347883E+02 -0.28037165355E+02  0.44958466285E+02  0.10000000000E+01 0.  0.
    9000005    1    3    3    0    0  0.11784693378E+02  0.33095347883E+02  0.85846847083E+02  0.92762396496E+02  0.10000000000E+01 0.  0.
<mgrwt>
<rscale>  0 0.12500031E+03</rscale>
<asrwt>0</asrwt>
<pdfrwt beam="1">  1        4 0.15040811E-01 0.12500031E+03</pdfrwt>
<pdfrwt beam="2">  1       -4 0.61470141E-02 0.12500031E+03</pdfrwt>
<totfact> 0.10180964E+04</totfact>
</mgrwt>
</event>
<event>
 5    1  0.3241863E-002  0.1250142E+03  0.7818608E-02  0.1235047E+00
          4   -1    0    0  501    0  0.00000000000E+00  0.00000000000E+00  0.11832018201E+02  0.11899981290E+02  0.12700000000E+01 0. -1.
         -4   -1    0    0    0  501 -0.00000000000E+00 -0.00000000000E+00 -0.32920239413E+03  0.32920484383E+03  0.12700000000E+01 0. -1.
         25    2    1    2    0    0  0.00000000000E+00  0.00000000000E+00 -0.31737037593E+03  0.34110482512E+03  0.12501418401E+03 0.  0.
    9000005    1    3    3    0    0  0.46328858627E+02  0.40521192948E+02 -0.18830026643E+03  0.19810684126E+03  0.10000000000E+01 0.  0.
    9000005    1    3    3    0    0 -0.46328858627E+02 -0.40521192948E+02 -0.12907010951E+03  0.14299798386E+03  0.10000000000E+01 0.  0.
<mgrwt>
<rscale>  0 0.12501418E+03</rscale>
<asrwt>0</asrwt>
<pdfrwt beam="1">  1        4 0.18257271E-02 0.12501418E+03</pdfrwt>
<pdfrwt beam="2">  1       -4 0.50651932E-01 0.12501418E+03</pdfrwt>
<totfact> 0.70692148E+03</totfact>
</mgrwt>
</event>
<event>
 5    1  0.3241863E-002  0.1249901E+03  0.7818608E-02  0.1235085E+00
         -4   -1    0    0    0  501 -0.00000000000E+00  0.00000000000E+00  0.65820298693E+03  0.65820421216E+03  0.12700000000E+01 0.  1.
          4   -1    0    0  501    0  0.00000000000E+00 -0.00000000000E+00 -0.58645819984E+01  0.60005184790E+01  0.12700000000E+01 0.  1.
         25    2    1    2    0    0  0.00000000000E+00  0.00000000000E+00  0.65233840494E+03  0.66420473064E+03  0.12499011822E+03 0.  0.
    9000005    1    3    3    0    0 -0.59055657646E+02 -0.28942407451E+01  0.21874041372E+03  0.22659284173E+03  0.10000000000E+01 0.  0.
    9000005    1    3    3    0    0  0.59055657646E+02  0.28942407451E+01  0.43359799122E+03  0.43761188891E+03  0.10000000000E+01 0.  0.
<mgrwt>
<rscale>  0 0.12499012E+03</rscale>
<asrwt>0</asrwt>
<pdfrwt beam="2">  1        4 0.91279432E-03 0.12499012E+03</pdfrwt>
<pdfrwt beam="1">  1       -4 0.10127254E+00 0.12499012E+03</pdfrwt>
<totfact> 0.45054496E+03</totfact>
</mgrwt>
</event>
<event>
 5    1  0.3241863E-002  0.1249963E+03  0.7818608E-02  0.1235075E+00
         -4   -1    0    0    0  501 -0.00000000000E+00  0.00000000000E+00  0.50868571665E+01  0.52429968369E+01  0.12700000000E+01 0. -1.
          4   -1    0    0  501    0  0.00000000000E+00 -0.00000000000E+00 -0.75610122817E+03  0.75610229476E+03  0.12700000000E+01 0. -1.
         25    2    1    2    0    0  0.00000000000E+00  0.00000000000E+00 -0.75101437101E+03  0.76134529160E+03  0.12499627027E+03 0.  0.
    9000005    1    3    3    0    0 -0.40472386929E+02  0.29304775116E+02 -0.14693579922E+03  0.15520281261E+03  0.10000000000E+01 0.  0.
    9000005    1    3    3    0    0  0.40472386929E+02 -0.29304775116E+02 -0.60407857179E+03  0.60614247899E+03  0.10000000000E+01 0.  0.
<mgrwt>
<rscale>  0 0.12499627E+03</rscale>
<asrwt>0</asrwt>
<pdfrwt beam="2">  1        4 0.11633527E+00 0.12499627E+03</pdfrwt>
<pdfrwt beam="1">  1       -4 0.79468680E-03 0.12499627E+03</pdfrwt>
<totfact> 0.40040574E+03</totfact>
</mgrwt>
</event>
<event>
 5    1  0.3241863E-002  0.1250035E+03  0.7818608E-02  0.1235064E+00
          4   -1    0    0  501    0  0.00000000000E+00  0.00000000000E+00  0.25641705480E+02  0.25673136932E+02  0.12700000000E+01 0. -1.
         -4   -1    0    0    0  501 -0.00000000000E+00 -0.00000000000E+00 -0.15222094952E+03  0.15222624732E+03  0.12700000000E+01 0. -1.
         25    2    1    2    0    0  0.00000000000E+00  0.00000000000E+00 -0.12657924404E+03  0.17789938425E+03  0.12500354353E+03 0.  0.
    9000005    1    3    3    0    0 -0.24059617388E+02 -0.32456361188E+02 -0.13114278159E+03  0.13722867679E+03  0.10000000000E+01 0.  0.
    9000005    1    3    3    0    0  0.24059617388E+02  0.32456361188E+02  0.45635375497E+01  0.40670707461E+02  0.10000000000E+01 0.  0.
<mgrwt>
<rscale>  0 0.12500354E+03</rscale>
<asrwt>0</asrwt>
<pdfrwt beam="1">  1        4 0.39477032E-02 0.12500354E+03</pdfrwt>
<pdfrwt beam="2">  1       -4 0.23421432E-01 0.12500354E+03</pdfrwt>
<totfact> 0.93989024E+03</totfact>
</mgrwt>
</event>
<event>
 5    1  0.3241863E-002  0.1250015E+03  0.7818608E-02  0.1235067E+00
          4   -1    0    0  501    0  0.00000000000E+00  0.00000000000E+00  0.24130804359E+01  0.27268768197E+01  0.12700000000E+01 0.  1.
         -4   -1    0    0    0  501 -0.00000000000E+00 -0.00000000000E+00 -0.15196768108E+04  0.15196773414E+04  0.12700000000E+01 0.  1.
         25    2    1    2    0    0  0.00000000000E+00  0.00000000000E+00 -0.15172637303E+04  0.15224042183E+04  0.12500150557E+03 0.  0.
    9000005    1    3    3    0    0  0.29798101330E+02 -0.30297711326E+02 -0.13166767760E+04  0.13173627483E+04  0.10000000000E+01 0.  0.
    9000005    1    3    3    0    0 -0.29798101330E+02  0.30297711326E+02 -0.20058695434E+03  0.20504146996E+03  0.10000000000E+01 0.  0.
<mgrwt>
<rscale>  0 0.12500151E+03</rscale>
<asrwt>0</asrwt>
<pdfrwt beam="1">  1        4 0.39542336E-03 0.12500151E+03</pdfrwt>
<pdfrwt beam="2">  1       -4 0.23381989E+00 0.12500151E+03</pdfrwt>
<totfact> 0.17493683E+03</totfact>
</mgrwt>
</event>
<event>
 5    1  0.3241863E-002  0.1249996E+03  0.7818608E-02  0.1235070E+00
          4   -1    0    0  501    0  0.00000000000E+00  0.00000000000E+00  0.61749669546E+02  0.61762728155E+02  0.12700000000E+01 0.  1.
         -4   -1    0    0    0  501 -0.00000000000E+00 -0.00000000000E+00 -0.63232969564E+02  0.63245721910E+02  0.12700000000E+01 0.  1.
         25    2    1    2    0    0  0.00000000000E+00  0.00000000000E+00 -0.14833000181E+01  0.12500845006E+03  0.12499964963E+03 0.  0.
    9000005    1    3    3    0    0 -0.55436852092E+02  0.28246026196E+02 -0.65854796209E+01  0.62573565565E+02  0.10000000000E+01 0.  0.
    9000005    1    3    3    0    0  0.55436852092E+02 -0.28246026196E+02  0.51021796028E+01  0.62434884499E+02  0.10000000000E+01 0.  0.
<mgrwt>
<rscale>  0 0.12499965E+03</rscale>
<asrwt>0</asrwt>
<pdfrwt beam="1">  1        4 0.95019347E-02 0.12499965E+03</pdfrwt>
<pdfrwt beam="2">  1       -4 0.97301346E-02 0.12499965E+03</pdfrwt>
<totfact> 0.10452762E+04</totfact>
</mgrwt>
</event>
<event>
 5    1  0.3241863E-002  0.1250023E+03  0.7818608E-02  0.1235066E+00
         -4   -1    0    0    0  501 -0.00000000000E+00  0.00000000000E+00  0.42202644516E+03  0.42202835605E+03  0.12700000000E+01 0. -1.
          4   -1    0    0  501    0  0.00000000000E+00 -0.00000000000E+00 -0.92107792915E+01  0.92979220881E+01  0.12700000000E+01 0. -1.
         25    2    1    2    0    0  0.00000000000E+00  0.00000000000E+00  0.41281566587E+03  0.43132627814E+03  0.12500233690E+03 0.  0.
    9000005    1    3    3    0    0  0.55982122091E+02  0.13253440670E+02  0.12218734355E+03  0.13505701984E+03  0.10000000000E+01 0.  0.
    9000005    1    3    3    0    0 -0.55982122091E+02 -0.13253440670E+02  0.29062832232E+03  0.29626925831E+03  0.10000000000E+01 0.  0.
<mgrwt>
<rscale>  0 0.12500234E+03</rscale>
<asrwt>0</asrwt>
<pdfrwt beam="2">  1        4 0.14238930E-02 0.12500234E+03</pdfrwt>
<pdfrwt beam="1">  1       -4 0.64934007E-01 0.12500234E+03</pdfrwt>
<totfact> 0.61612773E+03</totfact>
</mgrwt>
</event>
<event>
 5    1  0.3241863E-002  0.1250012E+03  0.7818608E-02  0.1235067E+00
          4   -1    0    0  501    0  0.00000000000E+00  0.00000000000E+00  0.20309878669E+02  0.20349547208E+02  0.12700000000E+01 0.  1.
         -4   -1    0    0    0  501 -0.00000000000E+00 -0.00000000000E+00 -0.19210689729E+03  0.19211109517E+03  0.12700000000E+01 0.  1.
         25    2    1    2    0    0  0.00000000000E+00  0.00000000000E+00 -0.17179701862E+03  0.21246064238E+03  0.12500123580E+03 0.  0.
    9000005    1    3    3    0    0 -0.59534248099E+02 -0.18971683141E+02 -0.87661402216E+02  0.10765580754E+03  0.10000000000E+01 0.  0.
    9000005    1    3    3    0    0  0.59534248099E+02  0.18971683141E+02 -0.84135616409E+02  0.10480483484E+03  0.10000000000E+01 0.  0.
<mgrwt>
<rscale>  0 0.12500124E+03</rscale>
<asrwt>0</asrwt>
<pdfrwt beam="1">  1        4 0.31279712E-02 0.12500124E+03</pdfrwt>
<pdfrwt beam="2">  1       -4 0.29558280E-01 0.12500124E+03</pdfrwt>
<totfact> 0.88073164E+03</totfact>
</mgrwt>
</event>
<event>
 5    1  0.3241863E-002  0.1250002E+03  0.7818608E-02  0.1235069E+00
         -4   -1    0    0    0  501 -0.00000000000E+00  0.00000000000E+00  0.64244509353E+02  0.64257060951E+02  0.12700000000E+01 0. -1.
          4   -1    0    0  501    0  0.00000000000E+00 -0.00000000000E+00 -0.60777897096E+02  0.60791164452E+02  0.12700000000E+01 0. -1.
         25    2    1    2    0    0  0.00000000000E+00  0.00000000000E+00  0.34666122566E+01  0.12504822540E+03  0.12500016510E+03 0.  0.
    9000005    1    3    3    0    0  0.16785473958E+02 -0.30769198486E+02  0.53490656700E+02  0.63958940467E+02  0.10000000000E+01 0.  0.
    9000005    1    3    3    0    0 -0.16785473958E+02  0.30769198486E+02 -0.50024044443E+02  0.61089284936E+02  0.10000000000E+01 0.  0.
<mgrwt>
<rscale>  0 0.12500017E+03</rscale>
<asrwt>0</asrwt>
<pdfrwt beam="2">  1        4 0.93524318E-02 0.12500017E+03</pdfrwt>
<pdfrwt beam="1">  1       -4 0.98857567E-02 0.12500017E+03</pdfrwt>
<totfact> 0.10451776E+04</totfact>
</mgrwt>
</event>
<event>
 5    1  0.3241863E-002  0.1249951E+03  0.7818608E-02  0.1235077E+00
          4   -1    0    0  501    0  0.00000000000E+00  0.00000000000E+00  0.11888699580E+03  0.11889377894E+03  0.12700000000E+01 0. -1.
         -4   -1    0    0    0  501 -0.00000000000E+00 -0.00000000000E+00 -0.32834256367E+02  0.32858808426E+02  0.12700000000E+01 0. -1.
         25    2    1    2    0    0  0.00000000000E+00  0.00000000000E+00  0.86052739435E+02  0.15175258737E+03  0.12499509514E+03 0.  0.
    9000005    1    3    3    0    0 -0.60447399043E+02 -0.85493180591E+01  0.26830290299E+02  0.66692153721E+02  0.10000000000E+01 0.  0.
    9000005    1    3    3    0    0  0.60447399043E+02  0.85493180591E+01  0.59222449135E+02  0.85060433646E+02  0.10000000000E+01 0.  0.
<mgrwt>
<rscale>  0 0.12499510E+03</rscale>
<asrwt>0</asrwt>
<pdfrwt beam="1">  1        4 0.18292717E-01 0.12499510E+03</pdfrwt>
<pdfrwt beam="2">  1       -4 0.50538345E-02 0.12499510E+03</pdfrwt>
<totfact> 0.98966409E+03</totfact>
</mgrwt>
</event>
<event>
 5    1  0.3241863E-002  0.1250008E+03  0.7818608E-02  0.1235068E+00
          4   -1    0    0  501    0  0.00000000000E+00  0.00000000000E+00  0.68562260795E+01  0.69728570939E+01  0.12700000000E+01 0. -1.
         -4   -1    0    0    0  501 -0.00000000000E+00 -0.00000000000E+00 -0.56482257084E+03  0.56482399863E+03  0.12700000000E+01 0. -1.
         25    2    1    2    0    0  0.00000000000E+00  0.00000000000E+00 -0.55796634476E+03  0.57179685573E+03  0.12500080933E+03 0.  0.
    9000005    1    3    3    0    0  0.59722323670E+02 -0.17935790476E+02 -0.26020490939E+03  0.26757436984E+03  0.10000000000E+01 0.  0.
    9000005    1    3    3    0    0 -0.59722323670E+02  0.17935790476E+02 -0.29776143537E+03  0.30422248589E+03  0.10000000000E+01 0.  0.
<mgrwt>
<rscale>  0 0.12500081E+03</rscale>
<asrwt>0</asrwt>
<pdfrwt beam="1">  1        4 0.10638859E-02 0.12500081E+03</pdfrwt>
<pdfrwt beam="2">  1       -4 0.86904826E-01 0.12500081E+03</pdfrwt>
<totfact> 0.50696797E+03</totfact>
</mgrwt>
</event>
<event>
 5    1  0.3241863E-002  0.1250028E+03  0.7818608E-02  0.1235065E+00
         -4   -1    0    0    0  501 -0.00000000000E+00  0.00000000000E+00  0.79285241683E+01  0.80295949765E+01  0.12700000000E+01 0. -1.
          4   -1    0    0  501    0  0.00000000000E+00 -0.00000000000E+00 -0.48948311691E+03  0.48948476446E+03  0.12700000000E+01 0. -1.
         25    2    1    2    0    0  0.00000000000E+00  0.00000000000E+00 -0.48155459274E+03  0.49751435944E+03  0.12500284819E+03 0.  0.
    9000005    1    3    3    0    0  0.19424155472E+02 -0.57589254970E+02 -0.29867370978E+03  0.30479633367E+03  0.10000000000E+01 0.  0.
    9000005    1    3    3    0    0 -0.19424155472E+02  0.57589254970E+02 -0.18288088296E+03  0.19271802577E+03  0.10000000000E+01 0.  0.
<mgrwt>
<rscale>  0 0.12500285E+03</rscale>
<asrwt>0</asrwt>
<pdfrwt beam="2">  1        4 0.75312973E-01 0.12500285E+03</pdfrwt>
<pdfrwt beam="1">  1       -4 0.12276747E-02 0.12500285E+03</pdfrwt>
<totfact> 0.56054238E+03</totfact>
</mgrwt>
</event>
<event>
 5    1  0.3241863E-002  0.1250020E+03  0.7818608E-02  0.1235066E+00
          4   -1    0    0  501    0  0.00000000000E+00  0.00000000000E+00  0.22894233420E+02  0.22929431390E+02  0.12700000000E+01 0. -1.
         -4   -1    0    0    0  501 -0.00000000000E+00 -0.00000000000E+00 -0.17045845773E+03  0.17046318873E+03  0.12700000000E+01 0. -1.
         25    2    1    2    0    0  0.00000000000E+00  0.00000000000E+00 -0.14756422431E+03  0.19339262012E+03  0.12500202086E+03 0.  0.
    9000005    1    3    3    0    0  0.49003554923E+02  0.33841842234E+02 -0.10308587783E+03  0.11905594016E+03  0.10000000000E+01 0.  0.
    9000005    1    3    3    0    0 -0.49003554923E+02 -0.33841842234E+02 -0.44478346482E+02  0.74336679954E+02  0.10000000000E+01 0.  0.
<mgrwt>
<rscale>  0 0.12500202E+03</rscale>
<asrwt>0</asrwt>
<pdfrwt beam="1">  1        4 0.35252613E-02 0.12500202E+03</pdfrwt>
<pdfrwt beam="2">  1       -4 0.26227449E-01 0.12500202E+03</pdfrwt>
<totfact> 0.91256209E+03</totfact>
</mgrwt>
</event>
<event>
 5    1  0.3241863E-002  0.1249982E+03  0.7818608E-02  0.1235072E+00
          4   -1    0    0  501    0  0.00000000000E+00  0.00000000000E+00  0.35437226921E+03  0.35437454492E+03  0.12700000000E+01 0.  1.
         -4   -1    0    0    0  501 -0.00000000000E+00 -0.00000000000E+00 -0.10983795511E+02  0.11056973539E+02  0.12700000000E+01 0.  1.
         25    2    1    2    0    0  0.00000000000E+00  0.00000000000E+00  0.34338847370E+03  0.36543151846E+03  0.12499820323E+03 0.  0.
    9000005    1    3    3    0    0 -0.22068407232E+02 -0.23239437796E+02  0.32853231896E+03  0.33009327571E+03  0.10000000000E+01 0.  0.
    9000005    1    3    3    0    0  0.22068407232E+02  0.23239437796E+02  0.14856154740E+02  0.35338242748E+02  0.10000000000E+01 0.  0.
<mgrwt>
<rscale>  0 0.12499820E+03</rscale>
<asrwt>0</asrwt>
<pdfrwt beam="1">  1        4 0.54524611E-01 0.12499820E+03</pdfrwt>
<pdfrwt beam="2">  1       -4 0.16956190E-02 0.12499820E+03</pdfrwt>
<totfact> 0.68062314E+03</totfact>
</mgrwt>
</event>
<event>
 5    1  0.3241863E-002  0.1250015E+03  0.7818608E-02  0.1235067E+00
         -4   -1    0    0    0  501 -0.00000000000E+00  0.00000000000E+00  0.26651687565E+02  0.26681929280E+02  0.12700000000E+01 0. -1.
          4   -1    0    0  501    0  0.00000000000E+00 -0.00000000000E+00 -0.14645400422E+03  0.14645951062E+03  0.12700000000E+01 0. -1.
         25    2    1    2    0    0  0.00000000000E+00  0.00000000000E+00 -0.11980231665E+03  0.17314143990E+03  0.12500145253E+03 0.  0.
    9000005    1    3    3    0    0 -0.59502453177E+02 -0.15785660668E+01 -0.33536368401E+02  0.68328045563E+02  0.10000000000E+01 0.  0.
    9000005    1    3    3    0    0  0.59502453177E+02  0.15785660668E+01 -0.86265948251E+02  0.10481339434E+03  0.10000000000E+01 0.  0.
<mgrwt>
<rscale>  0 0.12500145E+03</rscale>
<asrwt>0</asrwt>
<pdfrwt beam="2">  1        4 0.22534135E-01 0.12500145E+03</pdfrwt>
<pdfrwt beam="1">  1       -4 0.41030096E-02 0.12500145E+03</pdfrwt>
<totfact> 0.94863246E+03</totfact>
</mgrwt>
</event>
<event>
 5    1  0.3241863E-002  0.1250008E+03  0.7818608E-02  0.1235068E+00
          4   -1    0    0  501    0  0.00000000000E+00  0.00000000000E+00  0.27325482492E+03  0.27325777617E+03  0.12700000000E+01 0. -1.
         -4   -1    0    0    0  501 -0.00000000000E+00 -0.00000000000E+00 -0.14264194993E+02  0.14320620056E+02  0.12700000000E+01 0. -1.
         25    2    1    2    0    0  0.00000000000E+00  0.00000000000E+00  0.25899062992E+03  0.28757839623E+03  0.12500075036E+03 0.  0.
    9000005    1    3    3    0    0  0.23403256279E+02  0.38718185639E+02  0.30315486288E+02  0.54468697547E+02  0.10000000000E+01 0.  0.
    9000005    1    3    3    0    0 -0.23403256279E+02 -0.38718185639E+02  0.22867514363E+03  0.23310969868E+03  0.10000000000E+01 0.  0.
<mgrwt>
<rscale>  0 0.12500075E+03</rscale>
<asrwt>0</asrwt>
<pdfrwt beam="1">  1        4 0.42043771E-01 0.12500075E+03</pdfrwt>
<pdfrwt beam="2">  1       -4 0.21990590E-02 0.12500075E+03</pdfrwt>
<totfact> 0.77182589E+03</totfact>
</mgrwt>
</event>
<event>
 5    1  0.3241863E-002  0.1249995E+03  0.7818608E-02  0.1235070E+00
          4   -1    0    0  501    0  0.00000000000E+00  0.00000000000E+00  0.22547178007E+01  0.25877890874E+01  0.12700000000E+01 0. -1.
         -4   -1    0    0    0  501 -0.00000000000E+00 -0.00000000000E+00 -0.16129714760E+04  0.16129719760E+04  0.12700000000E+01 0. -1.
         25    2    1    2    0    0  0.00000000000E+00  0.00000000000E+00 -0.16107167582E+04  0.16155597651E+04  0.12499951741E+03 0.  0.
    9000005    1    3    3    0    0  0.50615423192E+02 -0.36477587174E+02 -0.85138931266E+03  0.85367282792E+03  0.10000000000E+01 0.  0.
    9000005    1    3    3    0    0 -0.50615423192E+02  0.36477587174E+02 -0.75932744555E+03  0.76188693714E+03  0.10000000000E+01 0.  0.
<mgrwt>
<rscale>  0 0.12499952E+03</rscale>
<asrwt>0</asrwt>
<pdfrwt beam="1">  1        4 0.37254028E-03 0.12499952E+03</pdfrwt>
<pdfrwt beam="2">  1       -4 0.24817426E+00 0.12499952E+03</pdfrwt>
<totfact> 0.15766797E+03</totfact>
</mgrwt>
</event>
<event>
 5    1  0.3241863E-002  0.1249991E+03  0.7818608E-02  0.1235071E+00
         -4   -1    0    0    0  501 -0.00000000000E+00  0.00000000000E+00  0.22765495553E+02  0.22800892258E+02  0.12700000000E+01 0. -1.
          4   -1    0    0  501    0  0.00000000000E+00 -0.00000000000E+00 -0.17141293158E+03  0.17141763624E+03  0.12700000000E+01 0. -1.
         25    2    1    2    0    0  0.00000000000E+00  0.00000000000E+00 -0.14864743603E+03  0.19421852850E+03  0.12499910629E+03 0.  0.
    9000005    1    3    3    0    0 -0.36405169441E+02 -0.50790391536E+02 -0.73639518619E+02  0.96585604191E+02  0.10000000000E+01 0.  0.
    9000005    1    3    3    0    0  0.36405169441E+02  0.50790391536E+02 -0.75007917413E+02  0.97632924308E+02  0.10000000000E+01 0.  0.
<mgrwt>
<rscale>  0 0.12499911E+03</rscale>
<asrwt>0</asrwt>
<pdfrwt beam="2">  1        4 0.26374304E-01 0.12499911E+03</pdfrwt>
<pdfrwt beam="1">  1       -4 0.35054688E-02 0.12499911E+03</pdfrwt>
<totfact> 0.91120265E+03</totfact>
</mgrwt>
</event>
<event>
 5    1  0.3241863E-002  0.1250204E+03  0.7818608E-02  0.1235037E+00
          4   -1    0    0  501    0  0.00000000000E+00  0.00000000000E+00  0.82549829151E+03  0.82549926844E+03  0.12700000000E+01 0.  1.
         -4   -1    0    0    0  501 -0.00000000000E+00 -0.00000000000E+00 -0.46473499296E+01  0.48177548057E+01  0.12700000000E+01 0.  1.
         25    2    1    2    0    0  0.00000000000E+00  0.00000000000E+00  0.82085094158E+03  0.83031702324E+03  0.12502036150E+03 0.  0.
    9000005    1    3    3    0    0  0.52482334659E+02 -0.29684108428E+02  0.51975376558E+03  0.52324040228E+03  0.10000000000E+01 0.  0.
    9000005    1    3    3    0    0 -0.52482334659E+02  0.29684108428E+02  0.30109717600E+03  0.30707662096E+03  0.10000000000E+01 0.  0.
<mgrwt>
<rscale>  0 0.12502036E+03</rscale>
<asrwt>0</asrwt>
<pdfrwt beam="1">  1        4 0.12701294E+00 0.12502036E+03</pdfrwt>
<pdfrwt beam="2">  1       -4 0.72816000E-03 0.12502036E+03</pdfrwt>
<totfact> 0.36930145E+03</totfact>
</mgrwt>
</event>
<event>
 5    1  0.3241863E-002  0.1249976E+03  0.7818608E-02  0.1235073E+00
          4   -1    0    0  501    0  0.00000000000E+00  0.00000000000E+00  0.49733657971E+01  0.51329589276E+01  0.12700000000E+01 0.  1.
         -4   -1    0    0    0  501 -0.00000000000E+00 -0.00000000000E+00 -0.77284048711E+03  0.77284153060E+03  0.12700000000E+01 0.  1.
         25    2    1    2    0    0  0.00000000000E+00  0.00000000000E+00 -0.76786712131E+03  0.77797448953E+03  0.12499756141E+03 0.  0.
    9000005    1    3    3    0    0  0.14739576157E+02  0.47039170170E+02 -0.14488660026E+03  0.15304595902E+03  0.10000000000E+01 0.  0.
    9000005    1    3    3    0    0 -0.14739576157E+02 -0.47039170170E+02 -0.62298052105E+03  0.62492853051E+03  0.10000000000E+01 0.  0.
<mgrwt>
<rscale>  0 0.12499756E+03</rscale>
<asrwt>0</asrwt>
<pdfrwt beam="1">  1        4 0.77749047E-03 0.12499756E+03</pdfrwt>
<pdfrwt beam="2">  1       -4 0.11891080E+00 0.12499756E+03</pdfrwt>
<totfact> 0.39269226E+03</totfact>
</mgrwt>
</event>
<event>
 5    1  0.3241863E-002  0.1249920E+03  0.7818608E-02  0.1235082E+00
          4   -1    0    0  501    0  0.00000000000E+00  0.00000000000E+00  0.79828360477E+01  0.80832277813E+01  0.12700000000E+01 0. -1.
         -4   -1    0    0    0  501 -0.00000000000E+00 -0.00000000000E+00 -0.48611005372E+03  0.48611171270E+03  0.12700000000E+01 0. -1.
         25    2    1    2    0    0  0.00000000000E+00  0.00000000000E+00 -0.47812721767E+03  0.49419494048E+03  0.12499201143E+03 0.  0.
    9000005    1    3    3    0    0  0.21555858923E+02 -0.15273819739E+02 -0.46296272996E+03  0.46371697613E+03  0.10000000000E+01 0.  0.
    9000005    1    3    3    0    0 -0.21555858923E+02  0.15273819739E+02 -0.15164487712E+02  0.30477964350E+02  0.10000000000E+01 0.  0.
<mgrwt>
<rscale>  0 0.12499201E+03</rscale>
<asrwt>0</asrwt>
<pdfrwt beam="1">  1        4 0.12359791E-02 0.12499201E+03</pdfrwt>
<pdfrwt beam="2">  1       -4 0.74793989E-01 0.12499201E+03</pdfrwt>
<totfact> 0.56327503E+03</totfact>
</mgrwt>
</event>
<event>
 5    1  0.3241863E-002  0.1249964E+03  0.7818608E-02  0.1235075E+00
         -4   -1    0    0    0  501 -0.00000000000E+00  0.00000000000E+00  0.29952434423E+02  0.29979346688E+02  0.12700000000E+01 0.  1.
          4   -1    0    0  501    0  0.00000000000E+00 -0.00000000000E+00 -0.13031907016E+03  0.13032525829E+03  0.12700000000E+01 0.  1.
         25    2    1    2    0    0  0.00000000000E+00  0.00000000000E+00 -0.10036663574E+03  0.16030460498E+03  0.12499641918E+03 0.  0.
    9000005    1    3    3    0    0 -0.54400917410E+02 -0.27728533117E+02 -0.67230804454E+02  0.90825725603E+02  0.10000000000E+01 0.  0.
    9000005    1    3    3    0    0  0.54400917410E+02  0.27728533117E+02 -0.33135831285E+02  0.69478879373E+02  0.10000000000E+01 0.  0.
<mgrwt>
<rscale>  0 0.12499642E+03</rscale>
<asrwt>0</asrwt>
<pdfrwt beam="2">  1        4 0.20051634E-01 0.12499642E+03</pdfrwt>
<pdfrwt beam="1">  1       -4 0.46106131E-02 0.12499642E+03</pdfrwt>
<totfact> 0.97291922E+03</totfact>
</mgrwt>
</event>
<event>
 5    1  0.3241863E-002  0.1250014E+03  0.7818608E-02  0.1235067E+00
          4   -1    0    0  501    0  0.00000000000E+00  0.00000000000E+00  0.99175645351E+01  0.99985492101E+01  0.12700000000E+01 0. -1.
         -4   -1    0    0    0  501 -0.00000000000E+00 -0.00000000000E+00 -0.39219680551E+03  0.39219886174E+03  0.12700000000E+01 0. -1.
         25    2    1    2    0    0  0.00000000000E+00  0.00000000000E+00 -0.38227924097E+03  0.40219741095E+03  0.12500135718E+03 0.  0.
    9000005    1    3    3    0    0  0.40286065162E+02  0.38545406374E+02 -0.10032620945E+03  0.11478268032E+03  0.10000000000E+01 0.  0.
    9000005    1    3    3    0    0 -0.40286065162E+02 -0.38545406374E+02 -0.28195303152E+03  0.28741473063E+03  0.10000000000E+01 0.  0.
<mgrwt>
<rscale>  0 0.12500136E+03</rscale>
<asrwt>0</asrwt>
<pdfrwt beam="1">  1        4 0.15321672E-02 0.12500136E+03</pdfrwt>
<pdfrwt beam="2">  1       -4 0.60344346E-01 0.12500136E+03</pdfrwt>
<totfact> 0.64337709E+03</totfact>
</mgrwt>
</event>
<event>
 5    1  0.3241863E-002  0.1249975E+03  0.7818608E-02  0.1235073E+00
         -4   -1    0    0    0  501 -0.00000000000E+00  0.00000000000E+00  0.17891593281E+03  0.17892044018E+03  0.12700000000E+01 0. -1.
          4   -1    0    0  501    0  0.00000000000E+00 -0.00000000000E+00 -0.21808756268E+02  0.21845703238E+02  0.12700000000E+01 0. -1.
         25    2    1    2    0    0  0.00000000000E+00  0.00000000000E+00  0.15710717655E+03  0.20076614342E+03  0.12499751766E+03 0.  0.
    9000005    1    3    3    0    0  0.36605152434E+02  0.30905620825E+02  0.14106683681E+02  0.49950906977E+02  0.10000000000E+01 0.  0.
    9000005    1    3    3    0    0 -0.36605152434E+02 -0.30905620825E+02  0.14300049286E+03  0.15081523644E+03  0.10000000000E+01 0.  0.
<mgrwt>
<rscale>  0 0.12499752E+03</rscale>
<asrwt>0</asrwt>
<pdfrwt beam="2">  1        4 0.33583822E-02 0.12499752E+03</pdfrwt>
<pdfrwt beam="1">  1       -4 0.27528716E-01 0.12499752E+03</pdfrwt>
<totfact> 0.90011451E+03</totfact>
</mgrwt>
</event>
<event>
 5    1  0.3241863E-002  0.1249989E+03  0.7818608E-02  0.1235071E+00
         -4   -1    0    0    0  501 -0.00000000000E+00  0.00000000000E+00  0.12849317204E+04  0.12849323480E+04  0.12700000000E+01 0.  1.
          4   -1    0    0  501    0  0.00000000000E+00 -0.00000000000E+00 -0.29066948287E+01  0.31720300798E+01  0.12700000000E+01 0.  1.
         25    2    1    2    0    0  0.00000000000E+00  0.00000000000E+00  0.12820250256E+04  0.12881043781E+04  0.12499889076E+03 0.  0.
    9000005    1    3    3    0    0  0.47063433977E+02 -0.30034483711E+02  0.93031194802E+03  0.93198624328E+03  0.10000000000E+01 0.  0.
    9000005    1    3    3    0    0 -0.47063433977E+02  0.30034483711E+02  0.35171307757E+03  0.35611813485E+03  0.10000000000E+01 0.  0.
<mgrwt>
<rscale>  0 0.12499889E+03</rscale>
<asrwt>0</asrwt>
<pdfrwt beam="2">  1        4 0.46764325E-03 0.12499889E+03</pdfrwt>
<pdfrwt beam="1">  1       -4 0.19770194E+00 0.12499889E+03</pdfrwt>
<totfact> 0.22511619E+03</totfact>
</mgrwt>
</event>
<event>
 5    1  0.3241863E-002  0.1249998E+03  0.7818608E-02  0.1235070E+00
         -4   -1    0    0    0  501 -0.00000000000E+00  0.00000000000E+00  0.68380789088E+02  0.68392581588E+02  0.12700000000E+01 0.  1.
          4   -1    0    0  501    0  0.00000000000E+00 -0.00000000000E+00 -0.57101012876E+02  0.57115134347E+02  0.12700000000E+01 0.  1.
         25    2    1    2    0    0  0.00000000000E+00  0.00000000000E+00  0.11279776212E+02  0.12550771594E+03  0.12499981363E+03 0.  0.
    9000005    1    3    3    0    0 -0.26726668011E+02  0.10400124456E+02  0.61388105798E+02  0.67764126978E+02  0.10000000000E+01 0.  0.
    9000005    1    3    3    0    0  0.26726668011E+02 -0.10400124456E+02 -0.50108329586E+02  0.57743588957E+02  0.10000000000E+01 0.  0.
<mgrwt>
<rscale>  0 0.12499981E+03</rscale>
<asrwt>0</asrwt>
<pdfrwt beam="2">  1        4 0.87867646E-02 0.12499981E+03</pdfrwt>
<pdfrwt beam="1">  1       -4 0.10522115E-01 0.12499981E+03</pdfrwt>
<totfact> 0.10441828E+04</totfact>
</mgrwt>
</event>
<event>
 5    1  0.3241863E-002  0.1249985E+03  0.7818608E-02  0.1235072E+00
          4   -1    0    0  501    0  0.00000000000E+00  0.00000000000E+00  0.66747311573E+02  0.66759392615E+02  0.12700000000E+01 0.  1.
         -4   -1    0    0    0  501 -0.00000000000E+00 -0.00000000000E+00 -0.58497286149E+02  0.58511070635E+02  0.12700000000E+01 0.  1.
         25    2    1    2    0    0  0.00000000000E+00  0.00000000000E+00  0.82500254241E+01  0.12527046325E+03  0.12499850416E+03 0.  0.
    9000005    1    3    3    0    0  0.25556970578E+02  0.30016787062E+02  0.52717517092E+02  0.65835422525E+02  0.10000000000E+01 0.  0.
    9000005    1    3    3    0    0 -0.25556970578E+02 -0.30016787062E+02 -0.44467491668E+02  0.59435040724E+02  0.10000000000E+01 0.  0.
<mgrwt>
<rscale>  0 0.12499850E+03</rscale>
<asrwt>0</asrwt>
<pdfrwt beam="1">  1        4 0.10270807E-01 0.12499850E+03</pdfrwt>
<pdfrwt beam="2">  1       -4 0.90015722E-02 0.12499850E+03</pdfrwt>
<totfact> 0.10447344E+04</totfact>
</mgrwt>
</event>
<event>
 5    1  0.3241863E-002  0.1250012E+03  0.7818608E-02  0.1235067E+00
          4   -1    0    0  501    0  0.00000000000E+00  0.00000000000E+00  0.24140289732E+02  0.24173673455E+02  0.12700000000E+01 0. -1.
         -4   -1    0    0    0  501 -0.00000000000E+00 -0.00000000000E+00 -0.16167004107E+03  0.16167502924E+03  0.12700000000E+01 0. -1.
         25    2    1    2    0    0  0.00000000000E+00  0.00000000000E+00 -0.13752975134E+03  0.18584870270E+03  0.12500123116E+03 0.  0.
    9000005    1    3    3    0    0  0.11926153789E+02 -0.54589370444E+02 -0.11037052584E+03  0.12371291559E+03  0.10000000000E+01 0.  0.
    9000005    1    3    3    0    0 -0.11926153789E+02  0.54589370444E+02 -0.27159225503E+02  0.62135787108E+02  0.10000000000E+01 0.  0.
<mgrwt>
<rscale>  0 0.12500123E+03</rscale>
<asrwt>0</asrwt>
<pdfrwt beam="1">  1        4 0.37168425E-02 0.12500123E+03</pdfrwt>
<pdfrwt beam="2">  1       -4 0.24875265E-01 0.12500123E+03</pdfrwt>
<totfact> 0.92572132E+03</totfact>
</mgrwt>
</event>
<event>
 5    1  0.3241863E-002  0.1250016E+03  0.7818608E-02  0.1235067E+00
         -4   -1    0    0    0  501 -0.00000000000E+00  0.00000000000E+00  0.47313615017E+02  0.47330656724E+02  0.12700000000E+01 0. -1.
          4   -1    0    0  501    0  0.00000000000E+00 -0.00000000000E+00 -0.82526061768E+02  0.82535833254E+02  0.12700000000E+01 0. -1.
         25    2    1    2    0    0  0.00000000000E+00  0.00000000000E+00 -0.35212446751E+02  0.12986648998E+03  0.12500155524E+03 0.  0.
    9000005    1    3    3    0    0  0.78958019566E+01 -0.51001231052E+02  0.19005581872E+02  0.55006194193E+02  0.10000000000E+01 0.  0.
    9000005    1    3    3    0    0 -0.78958019566E+01  0.51001231052E+02 -0.54218028622E+02  0.74860295785E+02  0.10000000000E+01 0.  0.
<mgrwt>
<rscale>  0 0.12500156E+03</rscale>
<asrwt>0</asrwt>
<pdfrwt beam="2">  1        4 0.12698380E-01 0.12500156E+03</pdfrwt>
<pdfrwt beam="1">  1       -4 0.72810803E-02 0.12500156E+03</pdfrwt>
<totfact> 0.10347001E+04</totfact>
</mgrwt>
</event>
<event>
 5    1  0.3241863E-002  0.1250050E+03  0.7818608E-02  0.1235062E+00
          4   -1    0    0  501    0  0.00000000000E+00  0.00000000000E+00  0.89873664795E+01  0.90766544628E+01  0.12700000000E+01 0.  1.
         -4   -1    0    0    0  501 -0.00000000000E+00 -0.00000000000E+00 -0.43243374580E+03  0.43243561070E+03  0.12700000000E+01 0.  1.
         25    2    1    2    0    0  0.00000000000E+00  0.00000000000E+00 -0.42344637932E+03  0.44151226517E+03  0.12500497644E+03 0.  0.
    9000005    1    3    3    0    0 -0.22707739039E+02  0.47902566994E+02 -0.32861250548E+03  0.33286254835E+03  0.10000000000E+01 0.  0.
    9000005    1    3    3    0    0  0.22707739039E+02 -0.47902566994E+02 -0.94833873837E+02  0.10864971681E+03  0.10000000000E+01 0.  0.
<mgrwt>
<rscale>  0 0.12500498E+03</rscale>
<asrwt>0</asrwt>
<pdfrwt beam="1">  1        4 0.13896839E-02 0.12500498E+03</pdfrwt>
<pdfrwt beam="2">  1       -4 0.66535264E-01 0.12500498E+03</pdfrwt>
<totfact> 0.60699509E+03</totfact>
</mgrwt>
</event>
<event>
 5    1  0.3241863E-002  0.1249926E+03  0.7818608E-02  0.1235081E+00
          4   -1    0    0  501    0  0.00000000000E+00  0.00000000000E+00  0.54691305256E+02  0.54706048757E+02  0.12700000000E+01 0. -1.
         -4   -1    0    0    0  501 -0.00000000000E+00 -0.00000000000E+00 -0.71385108427E+02  0.71396404708E+02  0.12700000000E+01 0. -1.
         25    2    1    2    0    0  0.00000000000E+00  0.00000000000E+00 -0.16693803172E+02  0.12610245346E+03  0.12499258260E+03 0.  0.
    9000005    1    3    3    0    0 -0.25679144463E+02  0.50346945397E+02  0.18545993051E+02  0.59491068484E+02  0.10000000000E+01 0.  0.
    9000005    1    3    3    0    0  0.25679144463E+02 -0.50346945397E+02 -0.35239796223E+02  0.66611384980E+02  0.10000000000E+01 0.  0.
<mgrwt>
<rscale>  0 0.12499258E+03</rscale>
<asrwt>0</asrwt>
<pdfrwt beam="1">  1        4 0.84160500E-02 0.12499258E+03</pdfrwt>
<pdfrwt beam="2">  1       -4 0.10984327E-01 0.12499258E+03</pdfrwt>
<totfact> 0.10430459E+04</totfact>
</mgrwt>
</event>
<event>
 5    1  0.3241863E-002  0.1249839E+03  0.7818608E-02  0.1235094E+00
          4   -1    0    0  501    0  0.00000000000E+00  0.00000000000E+00  0.21424603369E+03  0.21424979779E+03  0.12700000000E+01 0.  1.
         -4   -1    0    0    0  501 -0.00000000000E+00 -0.00000000000E+00 -0.18201786847E+02  0.18246039143E+02  0.12700000000E+01 0.  1.
         25    2    1    2    0    0  0.00000000000E+00  0.00000000000E+00  0.19604424684E+03  0.23249583693E+03  0.12498386884E+03 0.  0.
    9000005    1    3    3    0    0  0.32684779784E+02  0.22977625322E+02  0.18738905355E+03  0.19160355813E+03  0.10000000000E+01 0.  0.
    9000005    1    3    3    0    0 -0.32684779784E+02 -0.22977625322E+02  0.86551932903E+01  0.40892278805E+02  0.10000000000E+01 0.  0.
<mgrwt>
<rscale>  0 0.12498387E+03</rscale>
<asrwt>0</asrwt>
<pdfrwt beam="1">  1        4 0.32964622E-01 0.12498387E+03</pdfrwt>
<pdfrwt beam="2">  1       -4 0.28039685E-02 0.12498387E+03</pdfrwt>
<totfact> 0.84958394E+03</totfact>
</mgrwt>
</event>
<event>
 5    1  0.3241863E-002  0.1250011E+03  0.7818608E-02  0.1235068E+00
          4   -1    0    0  501    0  0.00000000000E+00  0.00000000000E+00  0.65113357882E+03  0.65113481735E+03  0.12700000000E+01 0.  1.
         -4   -1    0    0    0  501 -0.00000000000E+00 -0.00000000000E+00 -0.59307877955E+01  0.60652406280E+01  0.12700000000E+01 0.  1.
         25    2    1    2    0    0  0.00000000000E+00  0.00000000000E+00  0.64520279103E+03  0.65720005798E+03  0.12500109864E+03 0.  0.
    9000005    1    3    3    0    0  0.13633099812E+02  0.39527345723E+02  0.56678330526E+03  0.56832436829E+03  0.10000000000E+01 0.  0.
    9000005    1    3    3    0    0 -0.13633099812E+02 -0.39527345723E+02  0.78419485772E+02  0.88875689697E+02  0.10000000000E+01 0.  0.
<mgrwt>
<rscale>  0 0.12500110E+03</rscale>
<asrwt>0</asrwt>
<pdfrwt beam="1">  1        4 0.10018478E+00 0.12500110E+03</pdfrwt>
<pdfrwt beam="2">  1       -4 0.92286719E-03 0.12500110E+03</pdfrwt>
<totfact> 0.45443068E+03</totfact>
</mgrwt>
</event>
<event>
 5    1  0.3241863E-002  0.1250011E+03  0.7818608E-02  0.1235068E+00
          4   -1    0    0  501    0  0.00000000000E+00  0.00000000000E+00  0.50574196636E+01  0.52144408764E+01  0.12700000000E+01 0.  1.
         -4   -1    0    0    0  501 -0.00000000000E+00 -0.00000000000E+00 -0.76042852324E+03  0.76042958376E+03  0.12700000000E+01 0.  1.
         25    2    1    2    0    0  0.00000000000E+00  0.00000000000E+00 -0.75537110358E+03  0.76564402464E+03  0.12500107337E+03 0.  0.
    9000005    1    3    3    0    0  0.40418489405E+01  0.14459781187E+02 -0.74924720341E+03  0.74939828772E+03  0.10000000000E+01 0.  0.
    9000005    1    3    3    0    0 -0.40418489405E+01 -0.14459781187E+02 -0.61239001673E+01  0.16245736920E+02  0.10000000000E+01 0.  0.
<mgrwt>
<rscale>  0 0.12500107E+03</rscale>
<asrwt>0</asrwt>
<pdfrwt beam="1">  1        4 0.79022530E-03 0.12500107E+03</pdfrwt>
<pdfrwt beam="2">  1       -4 0.11700107E+00 0.12500107E+03</pdfrwt>
<totfact> 0.39835919E+03</totfact>
</mgrwt>
</event>
<event>
 5    1  0.3241863E-002  0.1249996E+03  0.7818608E-02  0.1235070E+00
         -4   -1    0    0    0  501 -0.00000000000E+00  0.00000000000E+00  0.12183622291E+03  0.12184284186E+03  0.12700000000E+01 0. -1.
          4   -1    0    0  501    0  0.00000000000E+00 -0.00000000000E+00 -0.32041229446E+02  0.32066388703E+02  0.12700000000E+01 0. -1.
         25    2    1    2    0    0  0.00000000000E+00  0.00000000000E+00  0.89794993461E+02  0.15390923056E+03  0.12499964161E+03 0.  0.
    9000005    1    3    3    0    0 -0.21214095981E+01  0.12425029672E+02 -0.30465790506E+02  0.32985544291E+02  0.10000000000E+01 0.  0.
    9000005    1    3    3    0    0  0.21214095981E+01 -0.12425029672E+02  0.12026078397E+03  0.12092368627E+03  0.10000000000E+01 0.  0.
<mgrwt>
<rscale>  0 0.12499964E+03</rscale>
<asrwt>0</asrwt>
<pdfrwt beam="2">  1        4 0.49318644E-02 0.12499964E+03</pdfrwt>
<pdfrwt beam="1">  1       -4 0.18746479E-01 0.12499964E+03</pdfrwt>
<totfact> 0.98530851E+03</totfact>
</mgrwt>
</event>
<event>
 5    1  0.3241863E-002  0.1249988E+03  0.7818608E-02  0.1235071E+00
          4   -1    0    0  501    0  0.00000000000E+00  0.00000000000E+00  0.79607704278E+01  0.80614369566E+01  0.12700000000E+01 0. -1.
         -4   -1    0    0    0  501 -0.00000000000E+00 -0.00000000000E+00 -0.48749371721E+03  0.48749537149E+03  0.12700000000E+01 0. -1.
         25    2    1    2    0    0  0.00000000000E+00  0.00000000000E+00 -0.47953294678E+03  0.49555680844E+03  0.12499881337E+03 0.  0.
    9000005    1    3    3    0    0 -0.53505014918E+02 -0.32231846489E+02 -0.23235246368E+03  0.24060412700E+03  0.10000000000E+01 0.  0.
    9000005    1    3    3    0    0  0.53505014918E+02  0.32231846489E+02 -0.24718048310E+03  0.25495268144E+03  0.10000000000E+01 0.  0.
<mgrwt>
<rscale>  0 0.12499881E+03</rscale>
<asrwt>0</asrwt>
<pdfrwt beam="1">  1        4 0.12326051E-02 0.12499881E+03</pdfrwt>
<pdfrwt beam="2">  1       -4 0.75006881E-01 0.12499881E+03</pdfrwt>
<totfact> 0.56212236E+03</totfact>
</mgrwt>
</event>
<event>
 5    1  0.3241863E-002  0.1249941E+03  0.7818608E-02  0.1235078E+00
          4   -1    0    0  501    0  0.00000000000E+00  0.00000000000E+00  0.19467412893E+02  0.19508794549E+02  0.12700000000E+01 0.  1.
         -4   -1    0    0    0  501 -0.00000000000E+00 -0.00000000000E+00 -0.20038051322E+03  0.20038453777E+03  0.12700000000E+01 0.  1.
         25    2    1    2    0    0  0.00000000000E+00  0.00000000000E+00 -0.18091310033E+03  0.21989333232E+03  0.12499411078E+03 0.  0.
    9000005    1    3    3    0    0 -0.61238499020E+02 -0.12413387738E+02 -0.91859501299E+02  0.11110091780E+03  0.10000000000E+01 0.  0.
    9000005    1    3    3    0    0  0.61238499020E+02  0.12413387738E+02 -0.89053599027E+02  0.10879241452E+03  0.10000000000E+01 0.  0.
<mgrwt>
<rscale>  0 0.12499411E+03</rscale>
<asrwt>0</asrwt>
<pdfrwt beam="1">  1        4 0.29984795E-02 0.12499411E+03</pdfrwt>
<pdfrwt beam="2">  1       -4 0.30831263E-01 0.12499411E+03</pdfrwt>
<totfact> 0.86896662E+03</totfact>
</mgrwt>
</event>
<event>
 5    1  0.3241863E-002  0.1250013E+03  0.7818608E-02  0.1235067E+00
         -4   -1    0    0    0  501 -0.00000000000E+00  0.00000000000E+00  0.33509828736E+03  0.33510069395E+03  0.12700000000E+01 0.  1.
          4   -1    0    0  501    0  0.00000000000E+00 -0.00000000000E+00 -0.11620229240E+02  0.11689423749E+02  0.12700000000E+01 0.  1.
         25    2    1    2    0    0  0.00000000000E+00  0.00000000000E+00  0.32347805812E+03  0.34679011770E+03  0.12500132661E+03 0.  0.
    9000005    1    3    3    0    0 -0.29771810587E+02  0.37710524322E+02  0.50875322036E+02  0.69983874875E+02  0.10000000000E+01 0.  0.
    9000005    1    3    3    0    0  0.29771810587E+02 -0.37710524322E+02  0.27260273608E+03  0.27680624283E+03  0.10000000000E+01 0.  0.
<mgrwt>
<rscale>  0 0.12500133E+03</rscale>
<asrwt>0</asrwt>
<pdfrwt beam="2">  1        4 0.17932356E-02 0.12500133E+03</pdfrwt>
<pdfrwt beam="1">  1       -4 0.51559083E-01 0.12500133E+03</pdfrwt>
<totfact> 0.70077077E+03</totfact>
</mgrwt>
</event>
<event>
 5    1  0.3241863E-002  0.1250039E+03  0.7818608E-02  0.1235063E+00
         -4   -1    0    0    0  501 -0.00000000000E+00  0.00000000000E+00  0.12882604449E+02  0.12945053008E+02  0.12700000000E+01 0. -1.
          4   -1    0    0  501    0  0.00000000000E+00 -0.00000000000E+00 -0.30244113128E+03  0.30244379773E+03  0.12700000000E+01 0. -1.
         25    2    1    2    0    0  0.00000000000E+00  0.00000000000E+00 -0.28955852683E+03  0.31538885074E+03  0.12500394679E+03 0.  0.
    9000005    1    3    3    0    0  0.33809115343E+02 -0.17595114986E+01 -0.27731273531E+03  0.27937341557E+03  0.10000000000E+01 0.  0.
    9000005    1    3    3    0    0 -0.33809115343E+02  0.17595114986E+01 -0.12245791519E+02  0.36015435176E+02  0.10000000000E+01 0.  0.
<mgrwt>
<rscale>  0 0.12500395E+03</rscale>
<asrwt>0</asrwt>
<pdfrwt beam="2">  1        4 0.46534409E-01 0.12500395E+03</pdfrwt>
<pdfrwt beam="1">  1       -4 0.19869482E-02 0.12500395E+03</pdfrwt>
<totfact> 0.73701489E+03</totfact>
</mgrwt>
</event>
<event>
 5    1  0.3241863E-002  0.1250386E+03  0.7818608E-02  0.1235009E+00
          4   -1    0    0  501    0  0.00000000000E+00  0.00000000000E+00  0.19793958532E+02  0.19834658918E+02  0.12700000000E+01 0.  1.
         -4   -1    0    0    0  501 -0.00000000000E+00 -0.00000000000E+00 -0.19722178745E+03  0.19722587646E+03  0.12700000000E+01 0.  1.
         25    2    1    2    0    0  0.00000000000E+00  0.00000000000E+00 -0.17742782892E+03  0.21706053538E+03  0.12503856023E+03 0.  0.
    9000005    1    3    3    0    0  0.11403908683E+02  0.56232053571E+02 -0.45643930219E+02  0.73324357125E+02  0.10000000000E+01 0.  0.
    9000005    1    3    3    0    0 -0.11403908683E+02 -0.56232053571E+02 -0.13178389870E+03  0.14373617825E+03  0.10000000000E+01 0.  0.
<mgrwt>
<rscale>  0 0.12503856E+03</rscale>
<asrwt>0</asrwt>
<pdfrwt beam="1">  1        4 0.30486699E-02 0.12503856E+03</pdfrwt>
<pdfrwt beam="2">  1       -4 0.30345257E-01 0.12503856E+03</pdfrwt>
<totfact> 0.87260430E+03</totfact>
</mgrwt>
</event>
<event>
 5    1  0.3241863E-002  0.1249916E+03  0.7818608E-02  0.1235082E+00
          4   -1    0    0  501    0  0.00000000000E+00  0.00000000000E+00  0.13372540701E+02  0.13432711744E+02  0.12700000000E+01 0. -1.
         -4   -1    0    0    0  501 -0.00000000000E+00 -0.00000000000E+00 -0.29135315213E+03  0.29135592007E+03  0.12700000000E+01 0. -1.
         25    2    1    2    0    0  0.00000000000E+00  0.00000000000E+00 -0.27798061143E+03  0.30478863181E+03  0.12499155871E+03 0.  0.
    9000005    1    3    3    0    0 -0.41931073462E+02 -0.45408225091E+02 -0.16141904315E+03  0.17285030899E+03  0.10000000000E+01 0.  0.
    9000005    1    3    3    0    0  0.41931073462E+02  0.45408225091E+02 -0.11656156829E+03  0.13193832282E+03  0.10000000000E+01 0.  0.
<mgrwt>
<rscale>  0 0.12499156E+03</rscale>
<asrwt>0</asrwt>
<pdfrwt beam="1">  1        4 0.20621556E-02 0.12499156E+03</pdfrwt>
<pdfrwt beam="2">  1       -4 0.44828398E-01 0.12499156E+03</pdfrwt>
<totfact> 0.75016115E+03</totfact>
</mgrwt>
</event>
<event>
 5    1  0.3241863E-002  0.1249810E+03  0.7818608E-02  0.1235099E+00
          4   -1    0    0  501    0  0.00000000000E+00  0.00000000000E+00  0.20448328322E+03  0.20448722702E+03  0.12700000000E+01 0.  1.
         -4   -1    0    0    0  501 -0.00000000000E+00 -0.00000000000E+00 -0.19071960655E+02  0.19114198472E+02  0.12700000000E+01 0.  1.
         25    2    1    2    0    0  0.00000000000E+00  0.00000000000E+00  0.18541132256E+03  0.22360142550E+03  0.12498095434E+03 0.  0.
    9000005    1    3    3    0    0 -0.21778791444E+02  0.16041129489E+02 -0.80632326254E+01  0.28242685999E+02  0.10000000000E+01 0.  0.
    9000005    1    3    3    0    0  0.21778791444E+02 -0.16041129489E+02  0.19347455519E+03  0.19535873950E+03  0.10000000000E+01 0.  0.
<mgrwt>
<rscale>  0 0.12498095E+03</rscale>
<asrwt>0</asrwt>
<pdfrwt beam="1">  1        4 0.31462516E-01 0.12498095E+03</pdfrwt>
<pdfrwt beam="2">  1       -4 0.29377005E-02 0.12498095E+03</pdfrwt>
<totfact> 0.86338374E+03</totfact>
</mgrwt>
</event>
<event>
 5    1  0.3241863E-002  0.1250008E+03  0.7818608E-02  0.1235068E+00
         -4   -1    0    0    0  501 -0.00000000000E+00  0.00000000000E+00  0.18808940463E+03  0.18809369217E+03  0.12700000000E+01 0.  1.
          4   -1    0    0  501    0  0.00000000000E+00 -0.00000000000E+00 -0.20744377679E+02  0.20783216914E+02  0.12700000000E+01 0.  1.
         25    2    1    2    0    0  0.00000000000E+00  0.00000000000E+00  0.16734502695E+03  0.20887690908E+03  0.12500082041E+03 0.  0.
    9000005    1    3    3    0    0 -0.29101077353E+02 -0.55040130474E+02  0.92673103271E+02  0.11164941888E+03  0.10000000000E+01 0.  0.
    9000005    1    3    3    0    0  0.29101077353E+02  0.55040130474E+02  0.74671923679E+02  0.97227490205E+02  0.10000000000E+01 0.  0.
<mgrwt>
<rscale>  0 0.12500082E+03</rscale>
<asrwt>0</asrwt>
<pdfrwt beam="2">  1        4 0.31947602E-02 0.12500082E+03</pdfrwt>
<pdfrwt beam="1">  1       -4 0.28940148E-01 0.12500082E+03</pdfrwt>
<totfact> 0.88657999E+03</totfact>
</mgrwt>
</event>
<event>
 5    1  0.3241863E-002  0.1249993E+03  0.7818608E-02  0.1235070E+00
         -4   -1    0    0    0  501 -0.00000000000E+00  0.00000000000E+00  0.17627824826E+03  0.17628282307E+03  0.12700000000E+01 0.  1.
          4   -1    0    0  501    0  0.00000000000E+00 -0.00000000000E+00 -0.22136257354E+02  0.22172658605E+02  0.12700000000E+01 0.  1.
         25    2    1    2    0    0  0.00000000000E+00  0.00000000000E+00  0.15414199091E+03  0.19845548168E+03  0.12499929938E+03 0.  0.
    9000005    1    3    3    0    0 -0.47129863134E+02  0.31687491849E+01  0.12114045392E+02  0.48775148039E+02  0.10000000000E+01 0.  0.
    9000005    1    3    3    0    0  0.47129863134E+02 -0.31687491849E+01  0.14202794552E+03  0.14968033364E+03  0.10000000000E+01 0.  0.
<mgrwt>
<rscale>  0 0.12499930E+03</rscale>
<asrwt>0</asrwt>
<pdfrwt beam="2">  1        4 0.34087300E-02 0.12499930E+03</pdfrwt>
<pdfrwt beam="1">  1       -4 0.27122883E-01 0.12499930E+03</pdfrwt>
<totfact> 0.90397963E+03</totfact>
</mgrwt>
</event>
<event>
 5    1  0.3241863E-002  0.1249932E+03  0.7818608E-02  0.1235080E+00
          4   -1    0    0  501    0  0.00000000000E+00  0.00000000000E+00  0.76920825880E+03  0.76920930721E+03  0.12700000000E+01 0. -1.
         -4   -1    0    0    0  501 -0.00000000000E+00 -0.00000000000E+00 -0.49972399688E+01  0.51560941909E+01  0.12700000000E+01 0. -1.
         25    2    1    2    0    0  0.00000000000E+00  0.00000000000E+00  0.76421101883E+03  0.77436540140E+03  0.12499317418E+03 0.  0.
    9000005    1    3    3    0    0 -0.12442320049E+02 -0.32770784511E+02  0.70259206726E+03  0.70346666489E+03  0.10000000000E+01 0.  0.
    9000005    1    3    3    0    0  0.12442320049E+02  0.32770784511E+02  0.61618951571E+02  0.70898736507E+02  0.10000000000E+01 0.  0.
<mgrwt>
<rscale>  0 0.12499317E+03</rscale>
<asrwt>0</asrwt>
<pdfrwt beam="1">  1        4 0.11835201E+00 0.12499317E+03</pdfrwt>
<pdfrwt beam="2">  1       -4 0.78110652E-03 0.12499317E+03</pdfrwt>
<totfact> 0.39440827E+03</totfact>
</mgrwt>
</event>
<event>
 5    1  0.3241863E-002  0.1250024E+03  0.7818608E-02  0.1235065E+00
         -4   -1    0    0    0  501 -0.00000000000E+00  0.00000000000E+00  0.59534549164E+01  0.60874071197E+01  0.12700000000E+01 0.  1.
          4   -1    0    0  501    0  0.00000000000E+00 -0.00000000000E+00 -0.64872306599E+03  0.64872430912E+03  0.12700000000E+01 0.  1.
         25    2    1    2    0    0  0.00000000000E+00  0.00000000000E+00 -0.64276961107E+03  0.65481171624E+03  0.12500244321E+03 0.  0.
    9000005    1    3    3    0    0  0.24365038114E+02  0.57545640571E+02 -0.32398756018E+03  0.32996074764E+03  0.10000000000E+01 0.  0.
    9000005    1    3    3    0    0 -0.24365038114E+02 -0.57545640571E+02 -0.31878205090E+03  0.32485096861E+03  0.10000000000E+01 0.  0.
<mgrwt>
<rscale>  0 0.12500244E+03</rscale>
<asrwt>0</asrwt>
<pdfrwt beam="2">  1        4 0.99813893E-01 0.12500244E+03</pdfrwt>
<pdfrwt beam="1">  1       -4 0.92631629E-03 0.12500244E+03</pdfrwt>
<totfact> 0.45578310E+03</totfact>
</mgrwt>
</event>
<event>
 5    1  0.3241863E-002  0.1249990E+03  0.7818608E-02  0.1235071E+00
          4   -1    0    0  501    0  0.00000000000E+00  0.00000000000E+00  0.96566427659E+03  0.96566511171E+03  0.12700000000E+01 0.  1.
         -4   -1    0    0    0  501 -0.00000000000E+00 -0.00000000000E+00 -0.39445406545E+01  0.41439475111E+01  0.12700000000E+01 0.  1.
         25    2    1    2    0    0  0.00000000000E+00  0.00000000000E+00  0.96171973593E+03  0.96980905922E+03  0.12499904347E+03 0.  0.
    9000005    1    3    3    0    0  0.25974747685E+02  0.26890994199E+02  0.86935839559E+03  0.87016253255E+03  0.10000000000E+01 0.  0.
    9000005    1    3    3    0    0 -0.25974747685E+02 -0.26890994199E+02  0.92361340346E+02  0.99646526667E+02  0.10000000000E+01 0.  0.
<mgrwt>
<rscale>  0 0.12499904E+03</rscale>
<asrwt>0</asrwt>
<pdfrwt beam="1">  1        4 0.14857900E+00 0.12499904E+03</pdfrwt>
<pdfrwt beam="2">  1       -4 0.62225620E-03 0.12499904E+03</pdfrwt>
<totfact> 0.31623637E+03</totfact>
</mgrwt>
</event>
<event>
 5    1  0.3241863E-002  0.1250167E+03  0.7818608E-02  0.1235043E+00
         -4   -1    0    0    0  501 -0.00000000000E+00  0.00000000000E+00  0.41496199615E+03  0.41496393957E+03  0.12700000000E+01 0.  1.
          4   -1    0    0  501    0  0.00000000000E+00 -0.00000000000E+00 -0.93712338715E+01  0.94568982375E+01  0.12700000000E+01 0.  1.
         25    2    1    2    0    0  0.00000000000E+00  0.00000000000E+00  0.40559076227E+03  0.42442083781E+03  0.12501672338E+03 0.  0.
    9000005    1    3    3    0    0 -0.43571404053E+02 -0.26858345359E+02  0.81029314740E+02  0.95846689112E+02  0.10000000000E+01 0.  0.
    9000005    1    3    3    0    0  0.43571404053E+02  0.26858345359E+02  0.32456144754E+03  0.32857414870E+03  0.10000000000E+01 0.  0.
<mgrwt>
<rscale>  0 0.12501672E+03</rscale>
<asrwt>0</asrwt>
<pdfrwt beam="2">  1        4 0.14484678E-02 0.12501672E+03</pdfrwt>
<pdfrwt beam="1">  1       -4 0.63847028E-01 0.12501672E+03</pdfrwt>
<totfact> 0.62222042E+03</totfact>
</mgrwt>
</event>
<event>
 5    1  0.3241863E-002  0.1249999E+03  0.7818608E-02  0.1235069E+00
         -4   -1    0    0    0  501 -0.00000000000E+00  0.00000000000E+00  0.10606247049E+04  0.10606254653E+04  0.12700000000E+01 0.  1.
          4   -1    0    0  501    0  0.00000000000E+00 -0.00000000000E+00 -0.35726994149E+01  0.37917121607E+01  0.12700000000E+01 0.  1.
         25    2    1    2    0    0  0.00000000000E+00  0.00000000000E+00  0.10570520055E+04  0.10644171774E+04  0.12499994110E+03 0.  0.
    9000005    1    3    3    0    0  0.16618840851E+02 -0.43427722761E+02  0.88404465294E+03  0.88526724855E+03  0.10000000000E+01 0.  0.
    9000005    1    3    3    0    0 -0.16618840851E+02  0.43427722761E+02  0.17300735258E+03  0.17914992889E+03  0.10000000000E+01 0.  0.
<mgrwt>
<rscale>  0 0.12499994E+03</rscale>
<asrwt>0</asrwt>
<pdfrwt beam="2">  1        4 0.56655068E-03 0.12499994E+03</pdfrwt>
<pdfrwt beam="1">  1       -4 0.16319023E+00 0.12499994E+03</pdfrwt>
<totfact> 0.28548825E+03</totfact>
</mgrwt>
</event>
<event>
 5    1  0.3241863E-002  0.1249635E+03  0.7818608E-02  0.1235126E+00
          4   -1    0    0  501    0  0.00000000000E+00  0.00000000000E+00  0.36534320153E+03  0.36534540890E+03  0.12700000000E+01 0. -1.
         -4   -1    0    0    0  501 -0.00000000000E+00 -0.00000000000E+00 -0.10645775699E+02  0.10721261131E+02  0.12700000000E+01 0. -1.
         25    2    1    2    0    0  0.00000000000E+00  0.00000000000E+00  0.35469742583E+03  0.37606667003E+03  0.12496350034E+03 0.  0.
    9000005    1    3    3    0    0 -0.21623533863E+02  0.46032048685E+02  0.68158782151E+02  0.85047905954E+02  0.10000000000E+01 0.  0.
    9000005    1    3    3    0    0  0.21623533863E+02 -0.46032048685E+02  0.28653864368E+03  0.29101876408E+03  0.10000000000E+01 0.  0.
<mgrwt>
<rscale>  0 0.12496350E+03</rscale>
<asrwt>0</asrwt>
<pdfrwt beam="1">  1        4 0.56212627E-01 0.12496350E+03</pdfrwt>
<pdfrwt beam="2">  1       -4 0.16437879E-02 0.12496350E+03</pdfrwt>
<totfact> 0.67003021E+03</totfact>
</mgrwt>
</event>
<event>
 5    1  0.3241863E-002  0.1249993E+03  0.7818608E-02  0.1235070E+00
          4   -1    0    0  501    0  0.00000000000E+00  0.00000000000E+00  0.22672558350E+03  0.22672914041E+03  0.12700000000E+01 0. -1.
         -4   -1    0    0    0  501 -0.00000000000E+00 -0.00000000000E+00 -0.17201690013E+02  0.17248508321E+02  0.12700000000E+01 0. -1.
         25    2    1    2    0    0  0.00000000000E+00  0.00000000000E+00  0.20952389349E+03  0.24397764874E+03  0.12499932456E+03 0.  0.
    9000005    1    3    3    0    0  0.48206805036E+02 -0.10225601624E+01  0.27171636620E+02  0.55355573502E+02  0.10000000000E+01 0.  0.
    9000005    1    3    3    0    0 -0.48206805036E+02  0.10225601624E+01  0.18235225687E+03  0.18862207523E+03  0.10000000000E+01 0.  0.
<mgrwt>
<rscale>  0 0.12499932E+03</rscale>
<asrwt>0</asrwt>
<pdfrwt beam="1">  1        4 0.34884736E-01 0.12499932E+03</pdfrwt>
<pdfrwt beam="2">  1       -4 0.26502887E-02 0.12499932E+03</pdfrwt>
<totfact> 0.83209761E+03</totfact>
</mgrwt>
</event>
<event>
 5    1  0.3241863E-002  0.1250021E+03  0.7818608E-02  0.1235066E+00
          4   -1    0    0  501    0  0.00000000000E+00  0.00000000000E+00  0.16961822279E+04  0.16961827033E+04  0.12700000000E+01 0.  1.
         -4   -1    0    0    0  501 -0.00000000000E+00 -0.00000000000E+00 -0.21274461341E+01  0.24776858263E+01  0.12700000000E+01 0.  1.
         25    2    1    2    0    0  0.00000000000E+00  0.00000000000E+00  0.16940547817E+04  0.16986603891E+04  0.12500205651E+03 0.  0.
    9000005    1    3    3    0    0  0.82599344161E+01  0.60340959425E+02  0.65672202056E+03  0.65954080252E+03  0.10000000000E+01 0.  0.
    9000005    1    3    3    0    0 -0.82599344161E+01 -0.60340959425E+02  0.10373327612E+04  0.10391195866E+04  0.10000000000E+01 0.  0.
<mgrwt>
<rscale>  0 0.12500206E+03</rscale>
<asrwt>0</asrwt>
<pdfrwt beam="1">  1        4 0.26097891E+00 0.12500206E+03</pdfrwt>
<pdfrwt beam="2">  1       -4 0.35427638E-03 0.12500206E+03</pdfrwt>
<totfact> 0.14329544E+03</totfact>
</mgrwt>
</event>
<event>
 5    1  0.3241863E-002  0.1249645E+03  0.7818608E-02  0.1235125E+00
         -4   -1    0    0    0  501 -0.00000000000E+00  0.00000000000E+00  0.10131958012E+03  0.10132753928E+03  0.12700000000E+01 0. -1.
          4   -1    0    0  501    0  0.00000000000E+00 -0.00000000000E+00 -0.38511926104E+02  0.38532860680E+02  0.12700000000E+01 0. -1.
         25    2    1    2    0    0  0.00000000000E+00  0.00000000000E+00  0.62807654017E+02  0.13986039996E+03  0.12496451526E+03 0.  0.
    9000005    1    3    3    0    0 -0.41262024396E+02  0.26911833060E+02 -0.11597834130E+02  0.50619276688E+02  0.10000000000E+01 0.  0.
    9000005    1    3    3    0    0  0.41262024396E+02 -0.26911833060E+02  0.74405488147E+02  0.89241123269E+02  0.10000000000E+01 0.  0.
<mgrwt>
<rscale>  0 0.12496452E+03</rscale>
<asrwt>0</asrwt>
<pdfrwt beam="2">  1        4 0.59271345E-02 0.12496452E+03</pdfrwt>
<pdfrwt beam="1">  1       -4 0.15589850E-01 0.12496452E+03</pdfrwt>
<totfact> 0.10144588E+04</totfact>
</mgrwt>
</event>
<event>
 5    1  0.3241863E-002  0.1250016E+03  0.7818608E-02  0.1235067E+00
         -4   -1    0    0    0  501 -0.00000000000E+00  0.00000000000E+00  0.47929662319E+03  0.47929830575E+03  0.12700000000E+01 0.  1.
          4   -1    0    0  501    0  0.00000000000E+00 -0.00000000000E+00 -0.80989892100E+01  0.81979586620E+01  0.12700000000E+01 0.  1.
         25    2    1    2    0    0  0.00000000000E+00  0.00000000000E+00  0.47119763398E+03  0.48749626442E+03  0.12500159021E+03 0.  0.
    9000005    1    3    3    0    0 -0.58618721115E+02 -0.12629596140E+02  0.16696816884E+03  0.17741203615E+03  0.10000000000E+01 0.  0.
    9000005    1    3    3    0    0  0.58618721115E+02  0.12629596140E+02  0.30422946513E+03  0.31008422827E+03  0.10000000000E+01 0.  0.
<mgrwt>
<rscale>  0 0.12500159E+03</rscale>
<asrwt>0</asrwt>
<pdfrwt beam="2">  1        4 0.12537406E-02 0.12500159E+03</pdfrwt>
<pdfrwt beam="1">  1       -4 0.73745699E-01 0.12500159E+03</pdfrwt>
<totfact> 0.56845725E+03</totfact>
</mgrwt>
</event>
<event>
 5    1  0.3241863E-002  0.1249842E+03  0.7818608E-02  0.1235094E+00
          4   -1    0    0  501    0  0.00000000000E+00  0.00000000000E+00  0.17977268009E+02  0.18022071608E+02  0.12700000000E+01 0.  1.
         -4   -1    0    0    0  501 -0.00000000000E+00 -0.00000000000E+00 -0.21691623024E+03  0.21691994800E+03  0.12700000000E+01 0.  1.
         25    2    1    2    0    0  0.00000000000E+00  0.00000000000E+00 -0.19893896223E+03  0.23494201961E+03  0.12498416654E+03 0.  0.
    9000005    1    3    3    0    0  0.12974767739E+02  0.60140722521E+02 -0.11997620453E+03  0.13483523559E+03  0.10000000000E+01 0.  0.
    9000005    1    3    3    0    0 -0.12974767739E+02 -0.60140722521E+02 -0.78962757699E+02  0.10010678402E+03  0.10000000000E+01 0.  0.
<mgrwt>
<rscale>  0 0.12498417E+03</rscale>
<asrwt>0</asrwt>
<pdfrwt beam="1">  1        4 0.27694661E-02 0.12498417E+03</pdfrwt>
<pdfrwt beam="2">  1       -4 0.33375458E-01 0.12498417E+03</pdfrwt>
<totfact> 0.84586344E+03</totfact>
</mgrwt>
</event>
<event>
 5    1  0.3241863E-002  0.1250101E+03  0.7818608E-02  0.1235054E+00
          4   -1    0    0  501    0  0.00000000000E+00  0.00000000000E+00  0.15000990464E+02  0.15054654260E+02  0.12700000000E+01 0. -1.
         -4   -1    0    0    0  501 -0.00000000000E+00 -0.00000000000E+00 -0.25992112879E+03  0.25992423144E+03  0.12700000000E+01 0. -1.
         25    2    1    2    0    0  0.00000000000E+00  0.00000000000E+00 -0.24492013833E+03  0.27497888570E+03  0.12501005330E+03 0.  0.
    9000005    1    3    3    0    0 -0.10703372957E+01  0.53665313707E+02 -0.19287535380E+03  0.20020742648E+03  0.10000000000E+01 0.  0.
    9000005    1    3    3    0    0  0.10703372957E+01 -0.53665313707E+02 -0.52044784531E+02  0.74771459221E+02  0.10000000000E+01 0.  0.
<mgrwt>
<rscale>  0 0.12501005E+03</rscale>
<asrwt>0</asrwt>
<pdfrwt beam="1">  1        4 0.23122115E-02 0.12501005E+03</pdfrwt>
<pdfrwt beam="2">  1       -4 0.39992229E-01 0.12501005E+03</pdfrwt>
<totfact> 0.78830991E+03</totfact>
</mgrwt>
</event>
<event>
 5    1  0.3241863E-002  0.1249976E+03  0.7818608E-02  0.1235073E+00
          4   -1    0    0  501    0  0.00000000000E+00  0.00000000000E+00  0.38034077635E+02  0.38055275082E+02  0.12700000000E+01 0. -1.
         -4   -1    0    0    0  501 -0.00000000000E+00 -0.00000000000E+00 -0.10264629109E+03  0.10265414738E+03  0.12700000000E+01 0. -1.
         25    2    1    2    0    0  0.00000000000E+00  0.00000000000E+00 -0.64612213453E+02  0.14070942246E+03  0.12499761375E+03 0.  0.
    9000005    1    3    3    0    0 -0.11631067291E+02 -0.60975534886E+02 -0.40408253108E+02  0.74075127406E+02  0.10000000000E+01 0.  0.
    9000005    1    3    3    0    0  0.11631067291E+02  0.60975534886E+02 -0.24203960344E+02  0.66634295054E+02  0.10000000000E+01 0.  0.
<mgrwt>
<rscale>  0 0.12499761E+03</rscale>
<asrwt>0</asrwt>
<pdfrwt beam="1">  1        4 0.58536315E-02 0.12499761E+03</pdfrwt>
<pdfrwt beam="2">  1       -4 0.15793972E-01 0.12499761E+03</pdfrwt>
<totfact> 0.10119448E+04</totfact>
</mgrwt>
</event>
<event>
 5    1  0.3241863E-002  0.1249989E+03  0.7818608E-02  0.1235071E+00
          4   -1    0    0  501    0  0.00000000000E+00  0.00000000000E+00  0.95697908257E+01  0.96536934097E+01  0.12700000000E+01 0. -1.
         -4   -1    0    0    0  501 -0.00000000000E+00 -0.00000000000E+00 -0.40631208412E+03  0.40631406892E+03  0.12700000000E+01 0. -1.
         25    2    1    2    0    0  0.00000000000E+00  0.00000000000E+00 -0.39674229330E+03  0.41596776233E+03  0.12499892803E+03 0.  0.
    9000005    1    3    3    0    0  0.43634876454E+02  0.13215700390E+02 -0.34059298681E+03  0.34363241966E+03  0.10000000000E+01 0.  0.
    9000005    1    3    3    0    0 -0.43634876454E+02 -0.13215700390E+02 -0.56149306489E+02  0.72335342670E+02  0.10000000000E+01 0.  0.
<mgrwt>
<rscale>  0 0.12499893E+03</rscale>
<asrwt>0</asrwt>
<pdfrwt beam="1">  1        4 0.14788826E-02 0.12499893E+03</pdfrwt>
<pdfrwt beam="2">  1       -4 0.62516145E-01 0.12499893E+03</pdfrwt>
<totfact> 0.63030354E+03</totfact>
</mgrwt>
</event>
<event>
 5    1  0.3241863E-002  0.1250001E+03  0.7818608E-02  0.1235069E+00
          4   -1    0    0  501    0  0.00000000000E+00  0.00000000000E+00  0.10825775509E+03  0.10826520418E+03  0.12700000000E+01 0.  1.
         -4   -1    0    0    0  501 -0.00000000000E+00 -0.00000000000E+00 -0.36063073985E+02  0.36085429265E+02  0.12700000000E+01 0.  1.
         25    2    1    2    0    0  0.00000000000E+00  0.00000000000E+00  0.72194681104E+02  0.14435063345E+03  0.12500013359E+03 0.  0.
    9000005    1    3    3    0    0 -0.53671324989E+02 -0.38838363127E+01 -0.59495964017E+00  0.53824244421E+02  0.10000000000E+01 0.  0.
    9000005    1    3    3    0    0  0.53671324989E+02  0.38838363127E+01  0.72789640744E+02  0.90526389027E+02  0.10000000000E+01 0.  0.
<mgrwt>
<rscale>  0 0.12500013E+03</rscale>
<asrwt>0</asrwt>
<pdfrwt beam="1">  1        4 0.16657332E-01 0.12500013E+03</pdfrwt>
<pdfrwt beam="2">  1       -4 0.55504579E-02 0.12500013E+03</pdfrwt>
<totfact> 0.10044169E+04</totfact>
</mgrwt>
</event>
<event>
 5    1  0.3241863E-002  0.1249693E+03  0.7818608E-02  0.1235117E+00
         -4   -1    0    0    0  501 -0.00000000000E+00  0.00000000000E+00  0.27951781323E+03  0.27952069836E+03  0.12700000000E+01 0.  1.
          4   -1    0    0  501    0  0.00000000000E+00 -0.00000000000E+00 -0.13936274725E+02  0.13994022052E+02  0.12700000000E+01 0.  1.
         25    2    1    2    0    0  0.00000000000E+00  0.00000000000E+00  0.26558153851E+03  0.29351472042E+03  0.12496934626E+03 0.  0.
    9000005    1    3    3    0    0 -0.22287184046E+02  0.56869629499E+02  0.10194668401E+03  0.11884864203E+03  0.10000000000E+01 0.  0.
    9000005    1    3    3    0    0  0.22287184046E+02 -0.56869629499E+02  0.16363485450E+03  0.17466607839E+03  0.10000000000E+01 0.  0.
<mgrwt>
<rscale>  0 0.12496935E+03</rscale>
<asrwt>0</asrwt>
<pdfrwt beam="2">  1        4 0.21487064E-02 0.12496935E+03</pdfrwt>
<pdfrwt beam="1">  1       -4 0.43007403E-01 0.12496935E+03</pdfrwt>
<totfact> 0.76471656E+03</totfact>
</mgrwt>
</event>
<event>
 5    1  0.3241863E-002  0.1250013E+03  0.7818608E-02  0.1235067E+00
          4   -1    0    0  501    0  0.00000000000E+00  0.00000000000E+00  0.27236637389E+02  0.27266230327E+02  0.12700000000E+01 0. -1.
         -4   -1    0    0    0  501 -0.00000000000E+00 -0.00000000000E+00 -0.14331156252E+03  0.14331718966E+03  0.12700000000E+01 0. -1.
         25    2    1    2    0    0  0.00000000000E+00  0.00000000000E+00 -0.11607492513E+03  0.17058341999E+03  0.12500125971E+03 0.  0.
    9000005    1    3    3    0    0 -0.24485857581E+02  0.57305887535E+02 -0.51664842191E+02  0.80955406776E+02  0.10000000000E+01 0.  0.
    9000005    1    3    3    0    0  0.24485857581E+02 -0.57305887535E+02 -0.64410082939E+02  0.89628013210E+02  0.10000000000E+01 0.  0.
<mgrwt>
<rscale>  0 0.12500126E+03</rscale>
<asrwt>0</asrwt>
<pdfrwt beam="1">  1        4 0.41929612E-02 0.12500126E+03</pdfrwt>
<pdfrwt beam="2">  1       -4 0.22050642E-01 0.12500126E+03</pdfrwt>
<totfact> 0.95337311E+03</totfact>
</mgrwt>
</event>
<event>
 5    1  0.3241863E-002  0.1249951E+03  0.7818608E-02  0.1235077E+00
          4   -1    0    0  501    0  0.00000000000E+00  0.00000000000E+00  0.22801177023E+03  0.22801530709E+03  0.12700000000E+01 0.  1.
         -4   -1    0    0    0  501 -0.00000000000E+00 -0.00000000000E+00 -0.17103230434E+02  0.17150317527E+02  0.12700000000E+01 0.  1.
         25    2    1    2    0    0  0.00000000000E+00  0.00000000000E+00  0.21090853980E+03  0.24516562461E+03  0.12499508523E+03 0.  0.
    9000005    1    3    3    0    0 -0.46776201233E+02 -0.40761748349E+02  0.12005449489E+03  0.13514294237E+03  0.10000000000E+01 0.  0.
    9000005    1    3    3    0    0  0.46776201233E+02  0.40761748349E+02  0.90854044912E+02  0.11002268224E+03  0.10000000000E+01 0.  0.
<mgrwt>
<rscale>  0 0.12499509E+03</rscale>
<asrwt>0</asrwt>
<pdfrwt beam="1">  1        4 0.35082624E-01 0.12499509E+03</pdfrwt>
<pdfrwt beam="2">  1       -4 0.26351607E-02 0.12499509E+03</pdfrwt>
<totfact> 0.83043102E+03</totfact>
</mgrwt>
</event>
<event>
 5    1  0.3241863E-002  0.1249975E+03  0.7818608E-02  0.1235073E+00
         -4   -1    0    0    0  501 -0.00000000000E+00  0.00000000000E+00  0.17212743118E+03  0.17213211631E+03  0.12700000000E+01 0. -1.
          4   -1    0    0  501    0  0.00000000000E+00 -0.00000000000E+00 -0.22670285258E+02  0.22705830389E+02  0.12700000000E+01 0. -1.
         25    2    1    2    0    0  0.00000000000E+00  0.00000000000E+00  0.14945714592E+03  0.19483794670E+03  0.12499754800E+03 0.  0.
    9000005    1    3    3    0    0  0.11151991391E+02 -0.29003296772E+02  0.15923926055E+03  0.16224580191E+03  0.10000000000E+01 0.  0.
    9000005    1    3    3    0    0 -0.11151991391E+02  0.29003296772E+02 -0.97821146264E+01  0.32592144792E+02  0.10000000000E+01 0.  0.
<mgrwt>
<rscale>  0 0.12499755E+03</rscale>
<asrwt>0</asrwt>
<pdfrwt beam="2">  1        4 0.34908308E-02 0.12499755E+03</pdfrwt>
<pdfrwt beam="1">  1       -4 0.26484238E-01 0.12499755E+03</pdfrwt>
<totfact> 0.91017272E+03</totfact>
</mgrwt>
</event>
<event>
 5    1  0.3241863E-002  0.1249980E+03  0.7818608E-02  0.1235072E+00
          4   -1    0    0  501    0  0.00000000000E+00  0.00000000000E+00  0.64190182284E+01  0.65434467230E+01  0.12700000000E+01 0. -1.
         -4   -1    0    0    0  501 -0.00000000000E+00 -0.00000000000E+00 -0.60255706456E+03  0.60255840294E+03  0.12700000000E+01 0. -1.
         25    2    1    2    0    0  0.00000000000E+00  0.00000000000E+00 -0.59613804633E+03  0.60910184966E+03  0.12499797189E+03 0.  0.
    9000005    1    3    3    0    0  0.23756470970E+02  0.52081171360E+02 -0.42021303555E+03  0.42409528832E+03  0.10000000000E+01 0.  0.
    9000005    1    3    3    0    0 -0.23756470970E+02 -0.52081171360E+02 -0.17592501078E+03  0.18500656135E+03  0.10000000000E+01 0.  0.
<mgrwt>
<rscale>  0 0.12499797E+03</rscale>
<asrwt>0</asrwt>
<pdfrwt beam="1">  1        4 0.99721612E-03 0.12499797E+03</pdfrwt>
<pdfrwt beam="2">  1       -4 0.92710717E-01 0.12499797E+03</pdfrwt>
<totfact> 0.48300234E+03</totfact>
</mgrwt>
</event>
<event>
 5    1  0.3241863E-002  0.1249980E+03  0.7818608E-02  0.1235072E+00
          4   -1    0    0  501    0  0.00000000000E+00  0.00000000000E+00  0.22202824050E+01  0.25578416600E+01  0.12700000000E+01 0. -1.
         -4   -1    0    0    0  501 -0.00000000000E+00 -0.00000000000E+00 -0.16346666170E+04  0.16346671103E+04  0.12700000000E+01 0. -1.
         25    2    1    2    0    0  0.00000000000E+00  0.00000000000E+00 -0.16324463345E+04  0.16372249520E+04  0.12499803249E+03 0.  0.
    9000005    1    3    3    0    0  0.56652442227E+02  0.25528900593E+02 -0.72943659188E+03  0.73207920716E+03  0.10000000000E+01 0.  0.
    9000005    1    3    3    0    0 -0.56652442227E+02 -0.25528900593E+02 -0.90300974267E+03  0.90514574480E+03  0.10000000000E+01 0.  0.
<mgrwt>
<rscale>  0 0.12499803E+03</rscale>
<asrwt>0</asrwt>
<pdfrwt beam="1">  1        4 0.36758726E-03 0.12499803E+03</pdfrwt>
<pdfrwt beam="2">  1       -4 0.25151228E+00 0.12499803E+03</pdfrwt>
<totfact> 0.15383381E+03</totfact>
</mgrwt>
</event>
<event>
 5    1  0.3241863E-002  0.1250003E+03  0.7818608E-02  0.1235069E+00
         -4   -1    0    0    0  501 -0.00000000000E+00  0.00000000000E+00  0.24600889261E+02  0.24633648784E+02  0.12700000000E+01 0. -1.
          4   -1    0    0  501    0  0.00000000000E+00 -0.00000000000E+00 -0.15864459779E+03  0.15864968108E+03  0.12700000000E+01 0. -1.
         25    2    1    2    0    0  0.00000000000E+00  0.00000000000E+00 -0.13404370853E+03  0.18328332987E+03  0.12500025284E+03 0.  0.
    9000005    1    3    3    0    0  0.15153583035E+02  0.60606146939E+02 -0.64689767887E+02  0.89936100620E+02  0.10000000000E+01 0.  0.
    9000005    1    3    3    0    0 -0.15153583035E+02 -0.60606146939E+02 -0.69353940643E+02  0.93347229248E+02  0.10000000000E+01 0.  0.
<mgrwt>
<rscale>  0 0.12500025E+03</rscale>
<asrwt>0</asrwt>
<pdfrwt beam="2">  1        4 0.24409771E-01 0.12500025E+03</pdfrwt>
<pdfrwt beam="1">  1       -4 0.37876633E-02 0.12500025E+03</pdfrwt>
<totfact> 0.93028783E+03</totfact>
</mgrwt>
</event>
<event>
 5    1  0.3241863E-002  0.1249985E+03  0.7818608E-02  0.1235072E+00
         -4   -1    0    0    0  501 -0.00000000000E+00  0.00000000000E+00  0.19097751994E+03  0.19098174264E+03  0.12700000000E+01 0.  1.
          4   -1    0    0  501    0  0.00000000000E+00 -0.00000000000E+00 -0.20429329967E+02  0.20468767010E+02  0.12700000000E+01 0.  1.
         25    2    1    2    0    0  0.00000000000E+00  0.00000000000E+00  0.17054818997E+03  0.21145050965E+03  0.12499853171E+03 0.  0.
    9000005    1    3    3    0    0  0.13769101596E+02 -0.59449598195E+02  0.10805238448E+03  0.12409738384E+03  0.10000000000E+01 0.  0.
    9000005    1    3    3    0    0 -0.13769101596E+02  0.59449598195E+02  0.62495805487E+02  0.87353125804E+02  0.10000000000E+01 0.  0.
<mgrwt>
<rscale>  0 0.12499853E+03</rscale>
<asrwt>0</asrwt>
<pdfrwt beam="2">  1        4 0.31463323E-02 0.12499853E+03</pdfrwt>
<pdfrwt beam="1">  1       -4 0.29384515E-01 0.12499853E+03</pdfrwt>
<totfact> 0.88242436E+03</totfact>
</mgrwt>
</event>
<event>
 5    1  0.3241863E-002  0.1249991E+03  0.7818608E-02  0.1235071E+00
          4   -1    0    0  501    0  0.00000000000E+00  0.00000000000E+00  0.71295260861E+03  0.71295373975E+03  0.12700000000E+01 0. -1.
         -4   -1    0    0    0  501 -0.00000000000E+00 -0.00000000000E+00 -0.54041488501E+01  0.55513714336E+01  0.12700000000E+01 0. -1.
         25    2    1    2    0    0  0.00000000000E+00  0.00000000000E+00  0.70754845976E+03  0.71850511118E+03  0.12499908755E+03 0.  0.
    9000005    1    3    3    0    0 -0.52688090990E+02  0.14770598393E+02  0.52726613626E+03  0.53009884357E+03  0.10000000000E+01 0.  0.
    9000005    1    3    3    0    0  0.52688090990E+02 -0.14770598393E+02  0.18028232350E+03  0.18840626761E+03  0.10000000000E+01 0.  0.
<mgrwt>
<rscale>  0 0.12499909E+03</rscale>
<asrwt>0</asrwt>
<pdfrwt beam="1">  1        4 0.10969637E+00 0.12499909E+03</pdfrwt>
<pdfrwt beam="2">  1       -4 0.84281979E-03 0.12499909E+03</pdfrwt>
<totfact> 0.42128520E+03</totfact>
</mgrwt>
</event>
<event>
 5    1  0.3241863E-002  0.1250073E+03  0.7818608E-02  0.1235058E+00
         -4   -1    0    0    0  501 -0.00000000000E+00  0.00000000000E+00  0.47235672159E+02  0.47252741977E+02  0.12700000000E+01 0. -1.
          4   -1    0    0  501    0  0.00000000000E+00 -0.00000000000E+00 -0.82669807014E+02  0.82679561512E+02  0.12700000000E+01 0. -1.
         25    2    1    2    0    0  0.00000000000E+00  0.00000000000E+00 -0.35434134855E+02  0.12993230349E+03  0.12500730209E+03 0.  0.
    9000005    1    3    3    0    0  0.24684607251E+02  0.54991193622E+02 -0.34870127348E+02  0.69644001840E+02  0.10000000000E+01 0.  0.
    9000005    1    3    3    0    0 -0.24684607251E+02 -0.54991193622E+02 -0.56400750776E+00  0.60288301648E+02  0.10000000000E+01 0.  0.
<mgrwt>
<rscale>  0 0.12500730E+03</rscale>
<asrwt>0</asrwt>
<pdfrwt beam="2">  1        4 0.12720495E-01 0.12500730E+03</pdfrwt>
<pdfrwt beam="1">  1       -4 0.72690899E-02 0.12500730E+03</pdfrwt>
<totfact> 0.10344251E+04</totfact>
</mgrwt>
</event>
<event>
 5    1  0.3241863E-002  0.1249962E+03  0.7818608E-02  0.1235075E+00
         -4   -1    0    0    0  501 -0.00000000000E+00  0.00000000000E+00  0.62535370728E+02  0.62548265300E+02  0.12700000000E+01 0.  1.
          4   -1    0    0  501    0  0.00000000000E+00 -0.00000000000E+00 -0.62435063135E+02  0.62447978419E+02  0.12700000000E+01 0.  1.
         25    2    1    2    0    0  0.00000000000E+00  0.00000000000E+00  0.10030759350E+00  0.12499624372E+03  0.12499620347E+03 0.  0.
    9000005    1    3    3    0    0  0.52877488436E+02 -0.33269139421E+02  0.15158621266E+01  0.62499298068E+02  0.10000000000E+01 0.  0.
    9000005    1    3    3    0    0 -0.52877488436E+02  0.33269139421E+02 -0.14155545331E+01  0.62496945651E+02  0.10000000000E+01 0.  0.
<mgrwt>
<rscale>  0 0.12499620E+03</rscale>
<asrwt>0</asrwt>
<pdfrwt beam="2">  1        4 0.96073797E-02 0.12499620E+03</pdfrwt>
<pdfrwt beam="1">  1       -4 0.96228117E-02 0.12499620E+03</pdfrwt>
<totfact> 0.10453841E+04</totfact>
</mgrwt>
</event>
<event>
 5    1  0.3241863E-002  0.1249980E+03  0.7818608E-02  0.1235072E+00
         -4   -1    0    0    0  501 -0.00000000000E+00  0.00000000000E+00  0.22718385525E+01  0.26027198099E+01  0.12700000000E+01 0. -1.
          4   -1    0    0  501    0  0.00000000000E+00 -0.00000000000E+00 -0.16023265734E+04  0.16023270767E+04  0.12700000000E+01 0. -1.
         25    2    1    2    0    0  0.00000000000E+00  0.00000000000E+00 -0.16000547349E+04  0.16049297965E+04  0.12499798885E+03 0.  0.
    9000005    1    3    3    0    0  0.48323723633E+02  0.35949938766E+02 -0.58612337537E+03  0.58921065123E+03  0.10000000000E+01 0.  0.
    9000005    1    3    3    0    0 -0.48323723633E+02 -0.35949938766E+02 -0.10139313595E+04  0.10157191453E+04  0.10000000000E+01 0.  0.
<mgrwt>
<rscale>  0 0.12499799E+03</rscale>
<asrwt>0</asrwt>
<pdfrwt beam="2">  1        4 0.24653643E+00 0.12499799E+03</pdfrwt>
<pdfrwt beam="1">  1       -4 0.37500602E-03 0.12499799E+03</pdfrwt>
<totfact> 0.15958074E+03</totfact>
</mgrwt>
</event>
<event>
 5    1  0.3241863E-002  0.1250064E+03  0.7818608E-02  0.1235059E+00
          4   -1    0    0  501    0  0.00000000000E+00  0.00000000000E+00  0.46611844092E+03  0.46612017106E+03  0.12700000000E+01 0.  1.
         -4   -1    0    0    0  501 -0.00000000000E+00 -0.00000000000E+00 -0.83313781479E+01  0.84276189902E+01  0.12700000000E+01 0.  1.
         25    2    1    2    0    0  0.00000000000E+00  0.00000000000E+00  0.45778706277E+03  0.47454779005E+03  0.12500644062E+03 0.  0.
    9000005    1    3    3    0    0  0.27593520184E+02  0.55724241512E+02  0.20516839667E+03  0.21438671704E+03  0.10000000000E+01 0.  0.
    9000005    1    3    3    0    0 -0.27593520184E+02 -0.55724241512E+02  0.25261866610E+03  0.26016107301E+03  0.10000000000E+01 0.  0.
<mgrwt>
<rscale>  0 0.12500644E+03</rscale>
<asrwt>0</asrwt>
<pdfrwt beam="1">  1        4 0.71718050E-01 0.12500644E+03</pdfrwt>
<pdfrwt beam="2">  1       -4 0.12892870E-02 0.12500644E+03</pdfrwt>
<totfact> 0.57886477E+03</totfact>
</mgrwt>
</event>
<event>
 5    1  0.3241863E-002  0.1250004E+03  0.7818608E-02  0.1235069E+00
         -4   -1    0    0    0  501 -0.00000000000E+00  0.00000000000E+00  0.88295112266E+02  0.88304245369E+02  0.12700000000E+01 0. -1.
          4   -1    0    0  501    0  0.00000000000E+00 -0.00000000000E+00 -0.44220562598E+02  0.44238795830E+02  0.12700000000E+01 0. -1.
         25    2    1    2    0    0  0.00000000000E+00  0.00000000000E+00  0.44074549668E+02  0.13254304120E+03  0.12500036737E+03 0.  0.
    9000005    1    3    3    0    0 -0.49356975296E+02 -0.38327898734E+02  0.21648939945E+02  0.66142387563E+02  0.10000000000E+01 0.  0.
    9000005    1    3    3    0    0  0.49356975296E+02  0.38327898734E+02  0.22425609723E+02  0.66400653635E+02  0.10000000000E+01 0.  0.
<mgrwt>
<rscale>  0 0.12500037E+03</rscale>
<asrwt>0</asrwt>
<pdfrwt beam="2">  1        4 0.68052686E-02 0.12500037E+03</pdfrwt>
<pdfrwt beam="1">  1       -4 0.13585968E-01 0.12500037E+03</pdfrwt>
<totfact> 0.10290036E+04</totfact>
</mgrwt>
</event>
<event>
 5    1  0.3241863E-002  0.1250018E+03  0.7818608E-02  0.1235066E+00
         -4   -1    0    0    0  501 -0.00000000000E+00  0.00000000000E+00  0.23939985080E+02  0.23973647733E+02  0.12700000000E+01 0. -1.
          4   -1    0    0  501    0  0.00000000000E+00 -0.00000000000E+00 -0.16302245188E+03  0.16302739866E+03  0.12700000000E+01 0. -1.
         25    2    1    2    0    0  0.00000000000E+00  0.00000000000E+00 -0.13908246680E+03  0.18700104640E+03  0.12500183512E+03 0.  0.
    9000005    1    3    3    0    0  0.23125366221E+02  0.58321439019E+01  0.16871482120E+02  0.29230863386E+02  0.10000000000E+01 0.  0.
    9000005    1    3    3    0    0 -0.23125366221E+02 -0.58321439019E+01 -0.15595394892E+03  0.15777018301E+03  0.10000000000E+01 0.  0.
<mgrwt>
<rscale>  0 0.12500184E+03</rscale>
<asrwt>0</asrwt>
<pdfrwt beam="2">  1        4 0.25083346E-01 0.12500184E+03</pdfrwt>
<pdfrwt beam="1">  1       -4 0.36860447E-02 0.12500184E+03</pdfrwt>
<totfact> 0.92367959E+03</totfact>
</mgrwt>
</event>
<event>
 4    1  0.3241863E-002  0.1247857E+03  0.7818608E-02  0.1235405E+00
         -4   -1    0    0    0  501 -0.00000000000E+00  0.00000000000E+00  0.11413073764E+03  0.11413780344E+03  0.12700000000E+01 0. -1.
          4   -1    0    0  501    0  0.00000000000E+00 -0.00000000000E+00 -0.34088880679E+02  0.34112529750E+02  0.12700000000E+01 0. -1.
    9000005    1    1    2    0    0  0.24180085261E+01  0.61891104022E+02  0.48872429408E+02  0.78904181629E+02  0.10000000000E+01 0.  0.
    9000005    1    1    2    0    0 -0.24180085261E+01 -0.61891104022E+02  0.31169427550E+02  0.69346151560E+02  0.10000000000E+01 0.  0.
<mgrwt>
<rscale>  0 0.12478567E+03</rscale>
<asrwt>0</asrwt>
<pdfrwt beam="2">  1        4 0.52468059E-02 0.12478567E+03</pdfrwt>
<pdfrwt beam="1">  1       -4 0.17560938E-01 0.12478567E+03</pdfrwt>
<totfact> 0.10013594E+04</totfact>
</mgrwt>
</event>
<event>
 5    1  0.3241863E-002  0.1249993E+03  0.7818608E-02  0.1235070E+00
          4   -1    0    0  501    0  0.00000000000E+00  0.00000000000E+00  0.10650373015E+02  0.10725826093E+02  0.12700000000E+01 0.  1.
         -4   -1    0    0    0  501 -0.00000000000E+00 -0.00000000000E+00 -0.36539587019E+03  0.36539807724E+03  0.12700000000E+01 0.  1.
         25    2    1    2    0    0  0.00000000000E+00  0.00000000000E+00 -0.35474549718E+03  0.37612390334E+03  0.12499929157E+03 0.  0.
    9000005    1    3    3    0    0  0.61685953203E+02  0.35327172468E+01 -0.20553050880E+03  0.21461926046E+03  0.10000000000E+01 0.  0.
    9000005    1    3    3    0    0 -0.61685953203E+02 -0.35327172468E+01 -0.14921498838E+03  0.16150464288E+03  0.10000000000E+01 0.  0.
<mgrwt>
<rscale>  0 0.12499929E+03</rscale>
<asrwt>0</asrwt>
<pdfrwt beam="1">  1        4 0.16444931E-02 0.12499929E+03</pdfrwt>
<pdfrwt beam="2">  1       -4 0.56220714E-01 0.12499929E+03</pdfrwt>
<totfact> 0.66944144E+03</totfact>
</mgrwt>
</event>
<event>
 5    1  0.3241863E-002  0.1250237E+03  0.7818608E-02  0.1235032E+00
          4   -1    0    0  501    0  0.00000000000E+00  0.00000000000E+00  0.59648853836E+01  0.60985865280E+01  0.12700000000E+01 0. -1.
         -4   -1    0    0    0  501 -0.00000000000E+00 -0.00000000000E+00 -0.64772740291E+03  0.64772864795E+03  0.12700000000E+01 0. -1.
         25    2    1    2    0    0  0.00000000000E+00  0.00000000000E+00 -0.64176251752E+03  0.65382723448E+03  0.12502369235E+03 0.  0.
    9000005    1    3    3    0    0 -0.29898509026E+01 -0.59224020786E+02 -0.21756375790E+03  0.22550257781E+03  0.10000000000E+01 0.  0.
    9000005    1    3    3    0    0  0.29898509026E+01  0.59224020786E+02 -0.42419875962E+03  0.42832465667E+03  0.10000000000E+01 0.  0.
<mgrwt>
<rscale>  0 0.12502369E+03</rscale>
<asrwt>0</asrwt>
<pdfrwt beam="1">  1        4 0.92805566E-03 0.12502369E+03</pdfrwt>
<pdfrwt beam="2">  1       -4 0.99660695E-01 0.12502369E+03</pdfrwt>
<totfact> 0.45613224E+03</totfact>
</mgrwt>
</event>
<event>
 5    1  0.3241863E-002  0.1249960E+03  0.7818608E-02  0.1235076E+00
          4   -1    0    0  501    0  0.00000000000E+00  0.00000000000E+00  0.98661123265E+03  0.98661205004E+03  0.12700000000E+01 0.  1.
         -4   -1    0    0    0  501 -0.00000000000E+00 -0.00000000000E+00 -0.38563152489E+01  0.40600575488E+01  0.12700000000E+01 0.  1.
         25    2    1    2    0    0  0.00000000000E+00  0.00000000000E+00  0.98275491740E+03  0.99067210759E+03  0.12499598828E+03 0.  0.
    9000005    1    3    3    0    0 -0.58237091688E+02 -0.21993183039E+02  0.53459964196E+03  0.53821281677E+03  0.10000000000E+01 0.  0.
    9000005    1    3    3    0    0  0.58237091688E+02  0.21993183039E+02  0.44815527544E+03  0.45245929082E+03  0.10000000000E+01 0.  0.
<mgrwt>
<rscale>  0 0.12499599E+03</rscale>
<asrwt>0</asrwt>
<pdfrwt beam="1">  1        4 0.15180204E+00 0.12499599E+03</pdfrwt>
<pdfrwt beam="2">  1       -4 0.60901480E-03 0.12499599E+03</pdfrwt>
<totfact> 0.30917198E+03</totfact>
</mgrwt>
</event>
<event>
 5    1  0.3241863E-002  0.1250054E+03  0.7818608E-02  0.1235061E+00
          4   -1    0    0  501    0  0.00000000000E+00  0.00000000000E+00  0.98264933859E+01  0.99082224573E+01  0.12700000000E+01 0. -1.
         -4   -1    0    0    0  501 -0.00000000000E+00 -0.00000000000E+00 -0.39582744300E+03  0.39582948037E+03  0.12700000000E+01 0. -1.
         25    2    1    2    0    0  0.00000000000E+00  0.00000000000E+00 -0.38600094962E+03  0.40573770283E+03  0.12500540146E+03 0.  0.
    9000005    1    3    3    0    0 -0.49979572430E+02  0.26989148685E+01 -0.31446074221E+03  0.31842079109E+03  0.10000000000E+01 0.  0.
    9000005    1    3    3    0    0  0.49979572430E+02 -0.26989148685E+01 -0.71540207402E+02  0.87316911746E+02  0.10000000000E+01 0.  0.
<mgrwt>
<rscale>  0 0.12500540E+03</rscale>
<asrwt>0</asrwt>
<pdfrwt beam="1">  1        4 0.15182121E-02 0.12500540E+03</pdfrwt>
<pdfrwt beam="2">  1       -4 0.60902961E-01 0.12500540E+03</pdfrwt>
<totfact> 0.63990923E+03</totfact>
</mgrwt>
</event>
<event>
 5    1  0.3241863E-002  0.1249987E+03  0.7818608E-02  0.1235071E+00
          4   -1    0    0  501    0  0.00000000000E+00  0.00000000000E+00  0.42182578837E+02  0.42201692589E+02  0.12700000000E+01 0. -1.
         -4   -1    0    0    0  501 -0.00000000000E+00 -0.00000000000E+00 -0.92556958615E+02  0.92565671218E+02  0.12700000000E+01 0. -1.
         25    2    1    2    0    0  0.00000000000E+00  0.00000000000E+00 -0.50374379777E+02  0.13476736381E+03  0.12499865683E+03 0.  0.
    9000005    1    3    3    0    0  0.56951467808E+02 -0.13296099110E+02 -0.48928791255E+02  0.76257999913E+02  0.10000000000E+01 0.  0.
    9000005    1    3    3    0    0 -0.56951467808E+02  0.13296099110E+02 -0.14455885226E+01  0.58509363894E+02  0.10000000000E+01 0.  0.
<mgrwt>
<rscale>  0 0.12499866E+03</rscale>
<asrwt>0</asrwt>
<pdfrwt beam="1">  1        4 0.64917680E-02 0.12499866E+03</pdfrwt>
<pdfrwt beam="2">  1       -4 0.14241672E-01 0.12499866E+03</pdfrwt>
<totfact> 0.10243287E+04</totfact>
</mgrwt>
</event>
<event>
 5    1  0.3241863E-002  0.1249939E+03  0.7818608E-02  0.1235079E+00
          4   -1    0    0  501    0  0.00000000000E+00  0.00000000000E+00  0.41476683586E+02  0.41496122485E+02  0.12700000000E+01 0.  1.
         -4   -1    0    0    0  501 -0.00000000000E+00 -0.00000000000E+00 -0.94124477415E+02  0.94133044935E+02  0.12700000000E+01 0.  1.
         25    2    1    2    0    0  0.00000000000E+00  0.00000000000E+00 -0.52647793829E+02  0.13562916742E+03  0.12499392329E+03 0.  0.
    9000005    1    3    3    0    0  0.10245551938E+02 -0.61341711395E+02 -0.19715257286E+02  0.65249277860E+02  0.10000000000E+01 0.  0.
    9000005    1    3    3    0    0 -0.10245551938E+02  0.61341711395E+02 -0.32932536543E+02  0.70379889560E+02  0.10000000000E+01 0.  0.
<mgrwt>
<rscale>  0 0.12499392E+03</rscale>
<asrwt>0</asrwt>
<pdfrwt beam="1">  1        4 0.63831826E-02 0.12499392E+03</pdfrwt>
<pdfrwt beam="2">  1       -4 0.14482843E-01 0.12499392E+03</pdfrwt>
<totfact> 0.10226228E+04</totfact>
</mgrwt>
</event>
<event>
 5    1  0.3241863E-002  0.1249969E+03  0.7818608E-02  0.1235074E+00
         -4   -1    0    0    0  501 -0.00000000000E+00  0.00000000000E+00  0.16352430611E+03  0.16352923772E+03  0.12700000000E+01 0. -1.
          4   -1    0    0  501    0  0.00000000000E+00 -0.00000000000E+00 -0.23864531085E+02  0.23898300021E+02  0.12700000000E+01 0. -1.
         25    2    1    2    0    0  0.00000000000E+00  0.00000000000E+00  0.13965977502E+03  0.18742753774E+03  0.12499691653E+03 0.  0.
    9000005    1    3    3    0    0  0.21031948822E+02  0.91690025791E+01 -0.17327720812E+02  0.28769139509E+02  0.10000000000E+01 0.  0.
    9000005    1    3    3    0    0 -0.21031948822E+02 -0.91690025791E+01  0.15698749583E+03  0.15865839823E+03  0.10000000000E+01 0.  0.
<mgrwt>
<rscale>  0 0.12499692E+03</rscale>
<asrwt>0</asrwt>
<pdfrwt beam="2">  1        4 0.36744433E-02 0.12499692E+03</pdfrwt>
<pdfrwt beam="1">  1       -4 0.25160563E-01 0.12499692E+03</pdfrwt>
<totfact> 0.92303227E+03</totfact>
</mgrwt>
</event>
<event>
 5    1  0.3241863E-002  0.1249996E+03  0.7818608E-02  0.1235070E+00
          4   -1    0    0  501    0  0.00000000000E+00  0.00000000000E+00  0.16565844472E+03  0.16566331280E+03  0.12700000000E+01 0.  1.
         -4   -1    0    0    0  501 -0.00000000000E+00 -0.00000000000E+00 -0.23557686143E+02  0.23591894294E+02  0.12700000000E+01 0.  1.
         25    2    1    2    0    0  0.00000000000E+00  0.00000000000E+00  0.14210075858E+03  0.18925520710E+03  0.12499963129E+03 0.  0.
    9000005    1    3    3    0    0 -0.43797850230E+02  0.42112967904E+02  0.93171686705E+02  0.11123721029E+03  0.10000000000E+01 0.  0.
    9000005    1    3    3    0    0  0.43797850230E+02 -0.42112967904E+02  0.48929071876E+02  0.78017996802E+02  0.10000000000E+01 0.  0.
<mgrwt>
<rscale>  0 0.12499963E+03</rscale>
<asrwt>0</asrwt>
<pdfrwt beam="1">  1        4 0.25488920E-01 0.12499963E+03</pdfrwt>
<pdfrwt beam="2">  1       -4 0.36272653E-02 0.12499963E+03</pdfrwt>
<totfact> 0.91977827E+03</totfact>
</mgrwt>
</event>
<event>
 5    1  0.3241863E-002  0.1250015E+03  0.7818608E-02  0.1235067E+00
         -4   -1    0    0    0  501 -0.00000000000E+00  0.00000000000E+00  0.53158005390E+03  0.53158157098E+03  0.12700000000E+01 0.  1.
          4   -1    0    0  501    0  0.00000000000E+00 -0.00000000000E+00 -0.72921405464E+01  0.74019060889E+01  0.12700000000E+01 0.  1.
         25    2    1    2    0    0  0.00000000000E+00  0.00000000000E+00  0.52428791336E+03  0.53898347707E+03  0.12500148984E+03 0.  0.
    9000005    1    3    3    0    0 -0.61563549443E+02 -0.61946631993E+01  0.22433283139E+03  0.23271154615E+03  0.10000000000E+01 0.  0.
    9000005    1    3    3    0    0  0.61563549443E+02  0.61946631993E+01  0.29995508197E+03  0.30627193092E+03  0.10000000000E+01 0.  0.
<mgrwt>
<rscale>  0 0.12500149E+03</rscale>
<asrwt>0</asrwt>
<pdfrwt beam="2">  1        4 0.11304281E-02 0.12500149E+03</pdfrwt>
<pdfrwt beam="1">  1       -4 0.81790098E-01 0.12500149E+03</pdfrwt>
<totfact> 0.52959973E+03</totfact>
</mgrwt>
</event>
<event>
 4    1  0.3241863E-002  0.1250838E+03  0.7818608E-02  0.1234938E+00
         -4   -1    0    0    0  501 -0.00000000000E+00  0.00000000000E+00  0.40246121954E+03  0.40246322333E+03  0.12700000000E+01 0.  1.
          4   -1    0    0  501    0  0.00000000000E+00 -0.00000000000E+00 -0.96753971991E+01  0.97583918224E+01  0.12700000000E+01 0.  1.
    9000005    1    1    2    0    0 -0.71576196105E+01 -0.55774559753E+02  0.10623311126E+03  0.12020194243E+03  0.10000000000E+01 0.  0.
    9000005    1    1    2    0    0  0.71576196105E+01  0.55774559753E+02  0.28655271107E+03  0.29201967272E+03  0.10000000000E+01 0.  0.
<mgrwt>
<rscale>  0 0.12508380E+03</rscale>
<asrwt>0</asrwt>
<pdfrwt beam="2">  1        4 0.14950610E-02 0.12508380E+03</pdfrwt>
<pdfrwt beam="1">  1       -4 0.61923650E-01 0.12508380E+03</pdfrwt>
<totfact> 0.63264178E+03</totfact>
</mgrwt>
</event>
<event>
 5    1  0.3241863E-002  0.1250131E+03  0.7818608E-02  0.1235049E+00
         -4   -1    0    0    0  501 -0.00000000000E+00  0.00000000000E+00  0.24526158778E+03  0.24526487588E+03  0.12700000000E+01 0.  1.
          4   -1    0    0  501    0  0.00000000000E+00 -0.00000000000E+00 -0.15901500365E+02  0.15952135088E+02  0.12700000000E+01 0.  1.
         25    2    1    2    0    0  0.00000000000E+00  0.00000000000E+00  0.22936008742E+03  0.26121701097E+03  0.12501310779E+03 0.  0.
    9000005    1    3    3    0    0  0.99908047071E+01  0.60832729961E+02  0.93204518558E+02  0.11175204469E+03  0.10000000000E+01 0.  0.
    9000005    1    3    3    0    0 -0.99908047071E+01 -0.60832729961E+02  0.13615556886E+03  0.14946496628E+03  0.10000000000E+01 0.  0.
<mgrwt>
<rscale>  0 0.12501311E+03</rscale>
<asrwt>0</asrwt>
<pdfrwt beam="2">  1        4 0.24505324E-02 0.12501311E+03</pdfrwt>
<pdfrwt beam="1">  1       -4 0.37736702E-01 0.12501311E+03</pdfrwt>
<totfact> 0.80712020E+03</totfact>
</mgrwt>
</event>
<event>
 5    1  0.3241863E-002  0.1250052E+03  0.7818608E-02  0.1235061E+00
          4   -1    0    0  501    0  0.00000000000E+00  0.00000000000E+00  0.32694810258E+02  0.32719466954E+02  0.12700000000E+01 0.  1.
         -4   -1    0    0    0  501 -0.00000000000E+00 -0.00000000000E+00 -0.11941305443E+03  0.11941980769E+03  0.12700000000E+01 0.  1.
         25    2    1    2    0    0  0.00000000000E+00  0.00000000000E+00 -0.86718244171E+02  0.15213927464E+03  0.12500521996E+03 0.  0.
    9000005    1    3    3    0    0  0.21521395172E+02  0.21340351735E+02  0.23157541069E+02  0.38155638779E+02  0.10000000000E+01 0.  0.
    9000005    1    3    3    0    0 -0.21521395172E+02 -0.21340351735E+02 -0.10987578524E+03  0.11398363586E+03  0.10000000000E+01 0.  0.
<mgrwt>
<rscale>  0 0.12500522E+03</rscale>
<asrwt>0</asrwt>
<pdfrwt beam="1">  1        4 0.50323870E-02 0.12500522E+03</pdfrwt>
<pdfrwt beam="2">  1       -4 0.18373655E-01 0.12500522E+03</pdfrwt>
<totfact> 0.98867351E+03</totfact>
</mgrwt>
</event>
<event>
 5    1  0.3241863E-002  0.1250022E+03  0.7818608E-02  0.1235066E+00
         -4   -1    0    0    0  501 -0.00000000000E+00  0.00000000000E+00  0.13969359216E+03  0.13969936504E+03  0.12700000000E+01 0.  1.
          4   -1    0    0  501    0  0.00000000000E+00 -0.00000000000E+00 -0.27943204805E+02  0.27972050242E+02  0.12700000000E+01 0.  1.
         25    2    1    2    0    0  0.00000000000E+00  0.00000000000E+00  0.11175038736E+03  0.16767141528E+03  0.12500221769E+03 0.  0.
    9000005    1    3    3    0    0  0.28517404068E+02 -0.27217453613E+02 -0.91678043589E+01  0.40485562275E+02  0.10000000000E+01 0.  0.
    9000005    1    3    3    0    0 -0.28517404068E+02  0.27217453613E+02  0.12091819172E+03  0.12718585300E+03  0.10000000000E+01 0.  0.
<mgrwt>
<rscale>  0 0.12500222E+03</rscale>
<asrwt>0</asrwt>
<pdfrwt beam="2">  1        4 0.43016175E-02 0.12500222E+03</pdfrwt>
<pdfrwt beam="1">  1       -4 0.21493985E-01 0.12500222E+03</pdfrwt>
<totfact> 0.95879071E+03</totfact>
</mgrwt>
</event>
<event>
 5    1  0.3241863E-002  0.1249963E+03  0.7818608E-02  0.1235075E+00
         -4   -1    0    0    0  501 -0.00000000000E+00  0.00000000000E+00  0.46455558582E+02  0.46472914942E+02  0.12700000000E+01 0.  1.
          4   -1    0    0  501    0  0.00000000000E+00 -0.00000000000E+00 -0.84042899567E+02  0.84052494714E+02  0.12700000000E+01 0.  1.
         25    2    1    2    0    0  0.00000000000E+00  0.00000000000E+00 -0.37587340985E+02  0.13052540966E+03  0.12499629740E+03 0.  0.
    9000005    1    3    3    0    0 -0.33150542419E+02 -0.42067141466E+02 -0.52411131951E+02  0.74943509433E+02  0.10000000000E+01 0.  0.
    9000005    1    3    3    0    0  0.33150542419E+02  0.42067141466E+02  0.14823790966E+02  0.55581900223E+02  0.10000000000E+01 0.  0.
<mgrwt>
<rscale>  0 0.12499630E+03</rscale>
<asrwt>0</asrwt>
<pdfrwt beam="2">  1        4 0.12931750E-01 0.12499630E+03</pdfrwt>
<pdfrwt beam="1">  1       -4 0.71490822E-02 0.12499630E+03</pdfrwt>
<totfact> 0.10334138E+04</totfact>
</mgrwt>
</event>
<event>
 5    1  0.3241863E-002  0.1250053E+03  0.7818608E-02  0.1235061E+00
         -4   -1    0    0    0  501 -0.00000000000E+00  0.00000000000E+00  0.26664558180E+02  0.26694785314E+02  0.12700000000E+01 0.  1.
          4   -1    0    0  501    0  0.00000000000E+00 -0.00000000000E+00 -0.14639235311E+03  0.14639786183E+03  0.12700000000E+01 0.  1.
         25    2    1    2    0    0  0.00000000000E+00  0.00000000000E+00 -0.11972779493E+03  0.17309264715E+03  0.12500527836E+03 0.  0.
    9000005    1    3    3    0    0 -0.11013410940E+02  0.19106709615E+02  0.21104153429E+02  0.30540904781E+02  0.10000000000E+01 0.  0.
    9000005    1    3    3    0    0  0.11013410940E+02 -0.19106709615E+02 -0.14083194836E+03  0.14255174236E+03  0.10000000000E+01 0.  0.
<mgrwt>
<rscale>  0 0.12500528E+03</rscale>
<asrwt>0</asrwt>
<pdfrwt beam="2">  1        4 0.22524649E-01 0.12500528E+03</pdfrwt>
<pdfrwt beam="1">  1       -4 0.41049887E-02 0.12500528E+03</pdfrwt>
<totfact> 0.94864098E+03</totfact>
</mgrwt>
</event>
<event>
 5    1  0.3241863E-002  0.1250017E+03  0.7818608E-02  0.1235067E+00
          4   -1    0    0  501    0  0.00000000000E+00  0.00000000000E+00  0.45652070270E+01  0.47385667875E+01  0.12700000000E+01 0. -1.
         -4   -1    0    0    0  501 -0.00000000000E+00 -0.00000000000E+00 -0.83956162313E+03  0.83956258369E+03  0.12700000000E+01 0. -1.
         25    2    1    2    0    0  0.00000000000E+00  0.00000000000E+00 -0.83499641610E+03  0.84430115047E+03  0.12500167116E+03 0.  0.
    9000005    1    3    3    0    0  0.37815094819E+02 -0.48444730336E+02 -0.34093832215E+03  0.34643442786E+03  0.10000000000E+01 0.  0.
    9000005    1    3    3    0    0 -0.37815094819E+02  0.48444730336E+02 -0.49405809395E+03  0.49786672262E+03  0.10000000000E+01 0.  0.
<mgrwt>
<rscale>  0 0.12500167E+03</rscale>
<asrwt>0</asrwt>
<pdfrwt beam="1">  1        4 0.71574946E-03 0.12500167E+03</pdfrwt>
<pdfrwt beam="2">  1       -4 0.12917662E+00 0.12500167E+03</pdfrwt>
<totfact> 0.36360371E+03</totfact>
</mgrwt>
</event>
<event>
 5    1  0.3241863E-002  0.1250005E+03  0.7818608E-02  0.1235068E+00
         -4   -1    0    0    0  501 -0.00000000000E+00  0.00000000000E+00  0.17537592938E+02  0.17583516885E+02  0.12700000000E+01 0.  1.
          4   -1    0    0  501    0  0.00000000000E+00 -0.00000000000E+00 -0.22239861743E+03  0.22240224355E+03  0.12700000000E+01 0.  1.
         25    2    1    2    0    0  0.00000000000E+00  0.00000000000E+00 -0.20486102449E+03  0.23998576043E+03  0.12500050341E+03 0.  0.
    9000005    1    3    3    0    0 -0.56446158617E+02  0.21656831407E+02 -0.72068845898E+02  0.94075000496E+02  0.10000000000E+01 0.  0.
    9000005    1    3    3    0    0  0.56446158617E+02 -0.21656831407E+02 -0.13279217859E+03  0.14591075993E+03  0.10000000000E+01 0.  0.
<mgrwt>
<rscale>  0 0.12500050E+03</rscale>
<asrwt>0</asrwt>
<pdfrwt beam="2">  1        4 0.34218982E-01 0.12500050E+03</pdfrwt>
<pdfrwt beam="1">  1       -4 0.27019029E-02 0.12500050E+03</pdfrwt>
<totfact> 0.83798549E+03</totfact>
</mgrwt>
</event>
<event>
 5    1  0.3241863E-002  0.1249990E+03  0.7818608E-02  0.1235071E+00
          4   -1    0    0  501    0  0.00000000000E+00  0.00000000000E+00  0.13214831285E+02  0.13275717152E+02  0.12700000000E+01 0.  1.
         -4   -1    0    0    0  501 -0.00000000000E+00 -0.00000000000E+00 -0.29484942232E+03  0.29485215744E+03  0.12700000000E+01 0.  1.
         25    2    1    2    0    0  0.00000000000E+00  0.00000000000E+00 -0.28163459104E+03  0.30812787459E+03  0.12499897691E+03 0.  0.
    9000005    1    3    3    0    0 -0.38915764746E+02  0.31353766626E+02 -0.23330375189E+03  0.23859827341E+03  0.10000000000E+01 0.  0.
    9000005    1    3    3    0    0  0.38915764746E+02 -0.31353766626E+02 -0.48330839147E+02  0.69529601178E+02  0.10000000000E+01 0.  0.
<mgrwt>
<rscale>  0 0.12499898E+03</rscale>
<asrwt>0</asrwt>
<pdfrwt beam="1">  1        4 0.20379451E-02 0.12499898E+03</pdfrwt>
<pdfrwt beam="2">  1       -4 0.45366339E-01 0.12499898E+03</pdfrwt>
<totfact> 0.74592170E+03</totfact>
</mgrwt>
</event>
<event>
 5    1  0.3241863E-002  0.1249984E+03  0.7818608E-02  0.1235072E+00
         -4   -1    0    0    0  501 -0.00000000000E+00  0.00000000000E+00  0.21029102520E+02  0.21067416851E+02  0.12700000000E+01 0. -1.
          4   -1    0    0  501    0  0.00000000000E+00 -0.00000000000E+00 -0.18554020210E+03  0.18554454855E+03  0.12700000000E+01 0. -1.
         25    2    1    2    0    0  0.00000000000E+00  0.00000000000E+00 -0.16451109958E+03  0.20661196540E+03  0.12499840943E+03 0.  0.
    9000005    1    3    3    0    0  0.56864790836E+01  0.59433055660E+02 -0.11275741529E+03  0.12759255015E+03  0.10000000000E+01 0.  0.
    9000005    1    3    3    0    0 -0.56864790836E+01 -0.59433055660E+02 -0.51753684288E+02  0.79019415252E+02  0.10000000000E+01 0.  0.
<mgrwt>
<rscale>  0 0.12499841E+03</rscale>
<asrwt>0</asrwt>
<pdfrwt beam="2">  1        4 0.28547927E-01 0.12499841E+03</pdfrwt>
<pdfrwt beam="1">  1       -4 0.32385283E-02 0.12499841E+03</pdfrwt>
<totfact> 0.89035365E+03</totfact>
</mgrwt>
</event>
<event>
 5    1  0.3241863E-002  0.1250007E+03  0.7818608E-02  0.1235068E+00
         -4   -1    0    0    0  501 -0.00000000000E+00  0.00000000000E+00  0.56471422680E+03  0.56471565486E+03  0.12700000000E+01 0.  1.
          4   -1    0    0  501    0  0.00000000000E+00 -0.00000000000E+00 -0.68575483892E+01  0.69741572903E+01  0.12700000000E+01 0.  1.
         25    2    1    2    0    0  0.00000000000E+00  0.00000000000E+00  0.55785667841E+03  0.57168981216E+03  0.12500067070E+03 0.  0.
    9000005    1    3    3    0    0 -0.39943704017E+02  0.36592734616E+02  0.42142509798E+03  0.42489368190E+03  0.10000000000E+01 0.  0.
    9000005    1    3    3    0    0  0.39943704017E+02 -0.36592734616E+02  0.13643158043E+03  0.14679613025E+03  0.10000000000E+01 0.  0.
<mgrwt>
<rscale>  0 0.12500067E+03</rscale>
<asrwt>0</asrwt>
<pdfrwt beam="2">  1        4 0.10640867E-02 0.12500067E+03</pdfrwt>
<pdfrwt beam="1">  1       -4 0.86888235E-01 0.12500067E+03</pdfrwt>
<totfact> 0.50704058E+03</totfact>
</mgrwt>
</event>
<event>
 5    1  0.3241863E-002  0.1249991E+03  0.7818608E-02  0.1235071E+00
         -4   -1    0    0    0  501 -0.00000000000E+00  0.00000000000E+00  0.15137390255E+04  0.15137395583E+04  0.12700000000E+01 0. -1.
          4   -1    0    0  501    0  0.00000000000E+00 -0.00000000000E+00 -0.24236698427E+01  0.27362520912E+01  0.12700000000E+01 0. -1.
         25    2    1    2    0    0  0.00000000000E+00  0.00000000000E+00  0.15113153557E+04  0.15164758104E+04  0.12499911646E+03 0.  0.
    9000005    1    3    3    0    0  0.47973958950E+02 -0.27240604374E+02  0.39954096514E+03  0.40333303124E+03  0.10000000000E+01 0.  0.
    9000005    1    3    3    0    0 -0.47973958950E+02  0.27240604374E+02  0.11117743906E+04  0.11131427791E+04  0.10000000000E+01 0.  0.
<mgrwt>
<rscale>  0 0.12499912E+03</rscale>
<asrwt>0</asrwt>
<pdfrwt beam="2">  1        4 0.39695924E-03 0.12499912E+03</pdfrwt>
<pdfrwt beam="1">  1       -4 0.23290631E+00 0.12499912E+03</pdfrwt>
<totfact> 0.17609221E+03</totfact>
</mgrwt>
</event>
<event>
 5    1  0.3241863E-002  0.1249998E+03  0.7818608E-02  0.1235070E+00
         -4   -1    0    0    0  501 -0.00000000000E+00  0.00000000000E+00  0.96667875318E+01  0.97498554443E+01  0.12700000000E+01 0. -1.
          4   -1    0    0  501    0  0.00000000000E+00 -0.00000000000E+00 -0.40227534974E+03  0.40227735445E+03  0.12700000000E+01 0. -1.
         25    2    1    2    0    0  0.00000000000E+00  0.00000000000E+00 -0.39260856221E+03  0.41202720990E+03  0.12499975432E+03 0.  0.
    9000005    1    3    3    0    0  0.24958659656E+02  0.55103323293E+02 -0.24799552028E+03  0.25526866045E+03  0.10000000000E+01 0.  0.
    9000005    1    3    3    0    0 -0.24958659656E+02 -0.55103323293E+02 -0.14461304193E+03  0.15675854945E+03  0.10000000000E+01 0.  0.
<mgrwt>
<rscale>  0 0.12499975E+03</rscale>
<asrwt>0</asrwt>
<pdfrwt beam="2">  1        4 0.61895046E-01 0.12499975E+03</pdfrwt>
<pdfrwt beam="1">  1       -4 0.14937424E-02 0.12499975E+03</pdfrwt>
<totfact> 0.63399958E+03</totfact>
</mgrwt>
</event>
<event>
 5    1  0.3241863E-002  0.1249969E+03  0.7818608E-02  0.1235074E+00
         -4   -1    0    0    0  501 -0.00000000000E+00  0.00000000000E+00  0.30455461425E+02  0.30481929575E+02  0.12700000000E+01 0.  1.
          4   -1    0    0  501    0  0.00000000000E+00 -0.00000000000E+00 -0.12816937319E+03  0.12817566510E+03  0.12700000000E+01 0.  1.
         25    2    1    2    0    0  0.00000000000E+00  0.00000000000E+00 -0.97713911762E+02  0.15865759467E+03  0.12499689514E+03 0.  0.
    9000005    1    3    3    0    0  0.22449114505E+01  0.55256349367E+02 -0.85792100266E+02  0.10207638434E+03  0.10000000000E+01 0.  0.
    9000005    1    3    3    0    0 -0.22449114505E+01 -0.55256349367E+02 -0.11921811496E+02  0.56581210328E+02  0.10000000000E+01 0.  0.
<mgrwt>
<rscale>  0 0.12499690E+03</rscale>
<asrwt>0</asrwt>
<pdfrwt beam="2">  1        4 0.19720885E-01 0.12499690E+03</pdfrwt>
<pdfrwt beam="1">  1       -4 0.46879757E-02 0.12499690E+03</pdfrwt>
<totfact> 0.97609029E+03</totfact>
</mgrwt>
</event>
<event>
 5    1  0.3241863E-002  0.1249965E+03  0.7818608E-02  0.1235075E+00
          4   -1    0    0  501    0  0.00000000000E+00  0.00000000000E+00  0.20816144635E+02  0.20854850214E+02  0.12700000000E+01 0.  1.
         -4   -1    0    0    0  501 -0.00000000000E+00 -0.00000000000E+00 -0.18742901807E+03  0.18743332071E+03  0.12700000000E+01 0.  1.
         25    2    1    2    0    0  0.00000000000E+00  0.00000000000E+00 -0.16661287343E+03  0.20828817093E+03  0.12499645017E+03 0.  0.
    9000005    1    3    3    0    0 -0.28820293772E+02 -0.15013269194E+02  0.56371662372E+01  0.32996745721E+02  0.10000000000E+01 0.  0.
    9000005    1    3    3    0    0  0.28820293772E+02  0.15013269194E+02 -0.17225003967E+03  0.17529142521E+03  0.10000000000E+01 0.  0.
<mgrwt>
<rscale>  0 0.12499645E+03</rscale>
<asrwt>0</asrwt>
<pdfrwt beam="1">  1        4 0.32057922E-02 0.12499645E+03</pdfrwt>
<pdfrwt beam="2">  1       -4 0.28838541E-01 0.12499645E+03</pdfrwt>
<totfact> 0.88763256E+03</totfact>
</mgrwt>
</event>
<event>
 5    1  0.3241863E-002  0.1249988E+03  0.7818608E-02  0.1235071E+00
          4   -1    0    0  501    0  0.00000000000E+00  0.00000000000E+00  0.26396132626E+03  0.26396438142E+03  0.12700000000E+01 0. -1.
         -4   -1    0    0    0  501 -0.00000000000E+00 -0.00000000000E+00 -0.14767893479E+02  0.14822401216E+02  0.12700000000E+01 0. -1.
         25    2    1    2    0    0  0.00000000000E+00  0.00000000000E+00  0.24919343278E+03  0.27878678264E+03  0.12499881293E+03 0.  0.
    9000005    1    3    3    0    0 -0.30209207287E+02  0.43830548942E+02  0.19760208464E+03  0.20464920493E+03  0.10000000000E+01 0.  0.
    9000005    1    3    3    0    0  0.30209207287E+02 -0.43830548942E+02  0.51591348141E+02  0.74137577709E+02  0.10000000000E+01 0.  0.
<mgrwt>
<rscale>  0 0.12499881E+03</rscale>
<asrwt>0</asrwt>
<pdfrwt beam="1">  1        4 0.40613857E-01 0.12499881E+03</pdfrwt>
<pdfrwt beam="2">  1       -4 0.22764119E-02 0.12499881E+03</pdfrwt>
<totfact> 0.78341315E+03</totfact>
</mgrwt>
</event>
<event>
 5    1  0.3241863E-002  0.1249966E+03  0.7818608E-02  0.1235075E+00
          4   -1    0    0  501    0  0.00000000000E+00  0.00000000000E+00  0.88241171968E+02  0.88250310653E+02  0.12700000000E+01 0.  1.
         -4   -1    0    0    0  501 -0.00000000000E+00 -0.00000000000E+00 -0.44244919210E+02  0.44263142409E+02  0.12700000000E+01 0.  1.
         25    2    1    2    0    0  0.00000000000E+00  0.00000000000E+00  0.43996252758E+02  0.13251345306E+03  0.12499657990E+03 0.  0.
    9000005    1    3    3    0    0  0.33171217852E+02  0.41294185355E+02  0.57150837677E+02  0.77927900556E+02  0.10000000000E+01 0.  0.
    9000005    1    3    3    0    0 -0.33171217852E+02 -0.41294185355E+02 -0.13154584919E+02  0.54585552506E+02  0.10000000000E+01 0.  0.
<mgrwt>
<rscale>  0 0.12499658E+03</rscale>
<asrwt>0</asrwt>
<pdfrwt beam="1">  1        4 0.13577669E-01 0.12499658E+03</pdfrwt>
<pdfrwt beam="2">  1       -4 0.68090155E-02 0.12499658E+03</pdfrwt>
<totfact> 0.10291545E+04</totfact>
</mgrwt>
</event>
<event>
 5    1  0.3241863E-002  0.1250010E+03  0.7818608E-02  0.1235068E+00
         -4   -1    0    0    0  501 -0.00000000000E+00  0.00000000000E+00  0.17676967896E+01  0.21766147890E+01  0.12700000000E+01 0. -1.
          4   -1    0    0  501    0  0.00000000000E+00 -0.00000000000E+00 -0.19803219411E+04  0.19803223483E+04  0.12700000000E+01 0. -1.
         25    2    1    2    0    0  0.00000000000E+00  0.00000000000E+00 -0.19785542443E+04  0.19824989631E+04  0.12500096438E+03 0.  0.
    9000005    1    3    3    0    0  0.22636535953E+02  0.24454932223E+02 -0.15082329214E+03  0.15446398260E+03  0.10000000000E+01 0.  0.
    9000005    1    3    3    0    0 -0.22636535953E+02 -0.24454932223E+02 -0.18277309521E+04  0.18280349805E+04  0.10000000000E+01 0.  0.
<mgrwt>
<rscale>  0 0.12500096E+03</rscale>
<asrwt>0</asrwt>
<pdfrwt beam="2">  1        4 0.30469481E+00 0.12500096E+03</pdfrwt>
<pdfrwt beam="1">  1       -4 0.30344149E-03 0.12500096E+03</pdfrwt>
<totfact> 0.10091338E+03</totfact>
</mgrwt>
</event>
<event>
 5    1  0.3241863E-002  0.1249995E+03  0.7818608E-02  0.1235070E+00
          4   -1    0    0  501    0  0.00000000000E+00  0.00000000000E+00  0.50694750355E+02  0.50710655818E+02  0.12700000000E+01 0. -1.
         -4   -1    0    0    0  501 -0.00000000000E+00 -0.00000000000E+00 -0.77020481002E+02  0.77030950882E+02  0.12700000000E+01 0. -1.
         25    2    1    2    0    0  0.00000000000E+00  0.00000000000E+00 -0.26325730647E+02  0.12774160670E+03  0.12499949595E+03 0.  0.
    9000005    1    3    3    0    0  0.95433487474E+01 -0.60584735889E+02 -0.25410462081E+02  0.66394859072E+02  0.10000000000E+01 0.  0.
    9000005    1    3    3    0    0 -0.95433487474E+01  0.60584735889E+02 -0.91526856538E+00  0.61346747628E+02  0.10000000000E+01 0.  0.
<mgrwt>
<rscale>  0 0.12499950E+03</rscale>
<asrwt>0</asrwt>
<pdfrwt beam="1">  1        4 0.78012212E-02 0.12499950E+03</pdfrwt>
<pdfrwt beam="2">  1       -4 0.11851334E-01 0.12499950E+03</pdfrwt>
<totfact> 0.10393190E+04</totfact>
</mgrwt>
</event>
<event>
 5    1  0.3241863E-002  0.1249993E+03  0.7818608E-02  0.1235070E+00
         -4   -1    0    0    0  501 -0.00000000000E+00  0.00000000000E+00  0.60098354237E+02  0.60111771576E+02  0.12700000000E+01 0. -1.
          4   -1    0    0  501    0  0.00000000000E+00 -0.00000000000E+00 -0.64970028255E+02  0.64982439716E+02  0.12700000000E+01 0. -1.
         25    2    1    2    0    0  0.00000000000E+00  0.00000000000E+00 -0.48716740175E+01  0.12509421129E+03  0.12499931396E+03 0.  0.
    9000005    1    3    3    0    0  0.22396229212E+02  0.47261219919E+02 -0.36666967333E+02  0.63880204168E+02  0.10000000000E+01 0.  0.
    9000005    1    3    3    0    0 -0.22396229212E+02 -0.47261219919E+02  0.31795293315E+02  0.61214007124E+02  0.10000000000E+01 0.  0.
<mgrwt>
<rscale>  0 0.12499931E+03</rscale>
<asrwt>0</asrwt>
<pdfrwt beam="2">  1        4 0.99973758E-02 0.12499931E+03</pdfrwt>
<pdfrwt beam="1">  1       -4 0.92478875E-02 0.12499931E+03</pdfrwt>
<totfact> 0.10450979E+04</totfact>
</mgrwt>
</event>
<event>
 5    1  0.3241863E-002  0.1249971E+03  0.7818608E-02  0.1235074E+00
         -4   -1    0    0    0  501 -0.00000000000E+00  0.00000000000E+00  0.20295966216E+03  0.20296363557E+03  0.12700000000E+01 0.  1.
          4   -1    0    0  501    0  0.00000000000E+00 -0.00000000000E+00 -0.19220411905E+02  0.19262324205E+02  0.12700000000E+01 0.  1.
         25    2    1    2    0    0  0.00000000000E+00  0.00000000000E+00  0.18373925025E+03  0.22222595977E+03  0.12499706042E+03 0.  0.
    9000005    1    3    3    0    0  0.25734146910E+02  0.35542293573E+02  0.12769001008E+02  0.45711577706E+02  0.10000000000E+01 0.  0.
    9000005    1    3    3    0    0 -0.25734146910E+02 -0.35542293573E+02  0.17097024925E+03  0.17651438207E+03  0.10000000000E+01 0.  0.
<mgrwt>
<rscale>  0 0.12499706E+03</rscale>
<asrwt>0</asrwt>
<pdfrwt beam="2">  1        4 0.29605161E-02 0.12499706E+03</pdfrwt>
<pdfrwt beam="1">  1       -4 0.31228094E-01 0.12499706E+03</pdfrwt>
<totfact> 0.86523020E+03</totfact>
</mgrwt>
</event>
<event>
 5    1  0.3241863E-002  0.1249986E+03  0.7818608E-02  0.1235071E+00
         -4   -1    0    0    0  501 -0.00000000000E+00  0.00000000000E+00  0.22781152722E+03  0.22781506718E+03  0.12700000000E+01 0. -1.
          4   -1    0    0  501    0  0.00000000000E+00 -0.00000000000E+00 -0.17119278852E+02  0.17166321924E+02  0.12700000000E+01 0. -1.
         25    2    1    2    0    0  0.00000000000E+00  0.00000000000E+00  0.21069224836E+03  0.24498138910E+03  0.12499862993E+03 0.  0.
    9000005    1    3    3    0    0  0.57340343027E+02  0.89479820254E+01  0.59921746041E+02  0.83424198943E+02  0.10000000000E+01 0.  0.
    9000005    1    3    3    0    0 -0.57340343027E+02 -0.89479820254E+01  0.15077050232E+03  0.16155719016E+03  0.10000000000E+01 0.  0.
<mgrwt>
<rscale>  0 0.12499863E+03</rscale>
<asrwt>0</asrwt>
<pdfrwt beam="2">  1        4 0.26376264E-02 0.12499863E+03</pdfrwt>
<pdfrwt beam="1">  1       -4 0.35051816E-01 0.12499863E+03</pdfrwt>
<totfact> 0.83063564E+03</totfact>
</mgrwt>
</event>
<event>
 5    1  0.3241863E-002  0.1250024E+03  0.7818608E-02  0.1235066E+00
         -4   -1    0    0    0  501 -0.00000000000E+00  0.00000000000E+00  0.30111587969E+01  0.32680234546E+01  0.12700000000E+01 0.  1.
          4   -1    0    0  501    0  0.00000000000E+00 -0.00000000000E+00 -0.12439813416E+04  0.12439819899E+04  0.12700000000E+01 0.  1.
         25    2    1    2    0    0  0.00000000000E+00  0.00000000000E+00 -0.12409701828E+04  0.12472500133E+04  0.12500240461E+03 0.  0.
    9000005    1    3    3    0    0 -0.42426855022E+02 -0.37164104582E+02 -0.88899597231E+03  0.89078395107E+03  0.10000000000E+01 0.  0.
    9000005    1    3    3    0    0  0.42426855022E+02  0.37164104582E+02 -0.35197421046E+03  0.35646606224E+03  0.10000000000E+01 0.  0.
<mgrwt>
<rscale>  0 0.12500240E+03</rscale>
<asrwt>0</asrwt>
<pdfrwt beam="2">  1        4 0.19140116E+00 0.12500240E+03</pdfrwt>
<pdfrwt beam="1">  1       -4 0.48306488E-03 0.12500240E+03</pdfrwt>
<totfact> 0.23507199E+03</totfact>
</mgrwt>
</event>
<event>
 5    1  0.3241863E-002  0.1249993E+03  0.7818608E-02  0.1235070E+00
         -4   -1    0    0    0  501 -0.00000000000E+00  0.00000000000E+00  0.34564972617E+03  0.34565205930E+03  0.12700000000E+01 0.  1.
          4   -1    0    0  501    0  0.00000000000E+00 -0.00000000000E+00 -0.11263003756E+02  0.11334379277E+02  0.12700000000E+01 0.  1.
         25    2    1    2    0    0  0.00000000000E+00  0.00000000000E+00  0.33438672241E+03  0.35698643858E+03  0.12499934882E+03 0.  0.
    9000005    1    3    3    0    0 -0.24832396640E+02 -0.83320369571E+01  0.32923021471E+03  0.33027201673E+03  0.10000000000E+01 0.  0.
    9000005    1    3    3    0    0  0.24832396640E+02  0.83320369571E+01  0.51565077051E+01  0.26714421844E+02  0.10000000000E+01 0.  0.
<mgrwt>
<rscale>  0 0.12499935E+03</rscale>
<asrwt>0</asrwt>
<pdfrwt beam="2">  1        4 0.17384400E-02 0.12499935E+03</pdfrwt>
<pdfrwt beam="1">  1       -4 0.53182543E-01 0.12499935E+03</pdfrwt>
<totfact> 0.68963736E+03</totfact>
</mgrwt>
</event>
<event>
 5    1  0.3241863E-002  0.1249995E+03  0.7818608E-02  0.1235070E+00
          4   -1    0    0  501    0  0.00000000000E+00  0.00000000000E+00  0.24422951052E+03  0.24423281251E+03  0.12700000000E+01 0.  1.
         -4   -1    0    0    0  501 -0.00000000000E+00 -0.00000000000E+00 -0.15965428971E+02  0.16015861582E+02  0.12700000000E+01 0.  1.
         25    2    1    2    0    0  0.00000000000E+00  0.00000000000E+00  0.22826408155E+03  0.26024867410E+03  0.12499952577E+03 0.  0.
    9000005    1    3    3    0    0  0.32407389015E+02  0.37937913496E+02  0.35795354571E+02  0.61415238761E+02  0.10000000000E+01 0.  0.
    9000005    1    3    3    0    0 -0.32407389015E+02 -0.37937913496E+02  0.19246872698E+03  0.19883343534E+03  0.10000000000E+01 0.  0.
<mgrwt>
<rscale>  0 0.12499953E+03</rscale>
<asrwt>0</asrwt>
<pdfrwt beam="1">  1        4 0.37577903E-01 0.12499953E+03</pdfrwt>
<pdfrwt beam="2">  1       -4 0.24603533E-02 0.12499953E+03</pdfrwt>
<totfact> 0.80872029E+03</totfact>
</mgrwt>
</event>
<event>
 5    1  0.3241863E-002  0.1249999E+03  0.7818608E-02  0.1235069E+00
          4   -1    0    0  501    0  0.00000000000E+00  0.00000000000E+00  0.12362261050E+02  0.12427324663E+02  0.12700000000E+01 0. -1.
         -4   -1    0    0    0  501 -0.00000000000E+00 -0.00000000000E+00 -0.31508559696E+03  0.31508815642E+03  0.12700000000E+01 0. -1.
         25    2    1    2    0    0  0.00000000000E+00  0.00000000000E+00 -0.30272333591E+03  0.32751548108E+03  0.12499988896E+03 0.  0.
    9000005    1    3    3    0    0 -0.19004205302E+02  0.53112715423E+02 -0.80904009865E+02  0.98633560064E+02  0.10000000000E+01 0.  0.
    9000005    1    3    3    0    0  0.19004205302E+02 -0.53112715423E+02 -0.22181932605E+03  0.22888192102E+03  0.10000000000E+01 0.  0.
<mgrwt>
<rscale>  0 0.12499989E+03</rscale>
<asrwt>0</asrwt>
<pdfrwt beam="1">  1        4 0.19070883E-02 0.12499989E+03</pdfrwt>
<pdfrwt beam="2">  1       -4 0.48479903E-01 0.12499989E+03</pdfrwt>
<totfact> 0.72271266E+03</totfact>
</mgrwt>
</event>
<event>
 5    1  0.3241863E-002  0.1250030E+03  0.7818608E-02  0.1235065E+00
          4   -1    0    0  501    0  0.00000000000E+00  0.00000000000E+00  0.19137125818E+02  0.19179220125E+02  0.12700000000E+01 0.  1.
         -4   -1    0    0    0  501 -0.00000000000E+00 -0.00000000000E+00 -0.20386035557E+03  0.20386431142E+03  0.12700000000E+01 0.  1.
         25    2    1    2    0    0  0.00000000000E+00  0.00000000000E+00 -0.18472322975E+03  0.22304353155E+03  0.12500298139E+03 0.  0.
    9000005    1    3    3    0    0 -0.46871775002E+02 -0.25856989046E+02 -0.34822551506E+02  0.63868280607E+02  0.10000000000E+01 0.  0.
    9000005    1    3    3    0    0  0.46871775002E+02  0.25856989046E+02 -0.14990067824E+03  0.15917525094E+03  0.10000000000E+01 0.  0.
<mgrwt>
<rscale>  0 0.12500298E+03</rscale>
<asrwt>0</asrwt>
<pdfrwt beam="1">  1        4 0.29477156E-02 0.12500298E+03</pdfrwt>
<pdfrwt beam="2">  1       -4 0.31366673E-01 0.12500298E+03</pdfrwt>
<totfact> 0.86383279E+03</totfact>
</mgrwt>
</event>
<event>
 5    1  0.3241863E-002  0.1249965E+03  0.7818608E-02  0.1235075E+00
         -4   -1    0    0    0  501 -0.00000000000E+00  0.00000000000E+00  0.27362330507E+02  0.27391787652E+02  0.12700000000E+01 0. -1.
          4   -1    0    0  501    0  0.00000000000E+00 -0.00000000000E+00 -0.14264312088E+03  0.14264877439E+03  0.12700000000E+01 0. -1.
         25    2    1    2    0    0  0.00000000000E+00  0.00000000000E+00 -0.11528079037E+03  0.17004056204E+03  0.12499652839E+03 0.  0.
    9000005    1    3    3    0    0 -0.50378793753E+02 -0.34518807381E+02 -0.75660040869E+02  0.97236889643E+02  0.10000000000E+01 0.  0.
    9000005    1    3    3    0    0  0.50378793753E+02  0.34518807381E+02 -0.39620749501E+02  0.72803672394E+02  0.10000000000E+01 0.  0.
<mgrwt>
<rscale>  0 0.12499653E+03</rscale>
<asrwt>0</asrwt>
<pdfrwt beam="2">  1        4 0.21947796E-01 0.12499653E+03</pdfrwt>
<pdfrwt beam="1">  1       -4 0.42122902E-02 0.12499653E+03</pdfrwt>
<totfact> 0.95448514E+03</totfact>
</mgrwt>
</event>
<event>
 5    1  0.3241863E-002  0.1249997E+03  0.7818608E-02  0.1235070E+00
         -4   -1    0    0    0  501 -0.00000000000E+00  0.00000000000E+00  0.35364253205E+02  0.35387049959E+02  0.12700000000E+01 0. -1.
          4   -1    0    0  501    0  0.00000000000E+00 -0.00000000000E+00 -0.11039509172E+03  0.11040239661E+03  0.12700000000E+01 0. -1.
         25    2    1    2    0    0  0.00000000000E+00  0.00000000000E+00 -0.75030838516E+02  0.14578944656E+03  0.12499974400E+03 0.  0.
    9000005    1    3    3    0    0  0.14811453174E+02  0.60156217447E+02 -0.27962687205E+02  0.67978390084E+02  0.10000000000E+01 0.  0.
    9000005    1    3    3    0    0 -0.14811453174E+02 -0.60156217447E+02 -0.47068151311E+02  0.77811056480E+02  0.10000000000E+01 0.  0.
<mgrwt>
<rscale>  0 0.12499974E+03</rscale>
<asrwt>0</asrwt>
<pdfrwt beam="2">  1        4 0.16986176E-01 0.12499974E+03</pdfrwt>
<pdfrwt beam="1">  1       -4 0.54429699E-02 0.12499974E+03</pdfrwt>
<totfact> 0.10015031E+04</totfact>
</mgrwt>
</event>
<event>
 5    1  0.3241863E-002  0.1250114E+03  0.7818608E-02  0.1235052E+00
          4   -1    0    0  501    0  0.00000000000E+00  0.00000000000E+00  0.13664510642E+03  0.13665100808E+03  0.12700000000E+01 0.  1.
         -4   -1    0    0    0  501 -0.00000000000E+00 -0.00000000000E+00 -0.28571403574E+02  0.28599615421E+02  0.12700000000E+01 0.  1.
         25    2    1    2    0    0  0.00000000000E+00  0.00000000000E+00  0.10807370285E+03  0.16525062350E+03  0.12501137276E+03 0.  0.
    9000005    1    3    3    0    0 -0.44181124256E+02  0.19217067757E+02  0.10665871286E+03  0.11703994387E+03  0.10000000000E+01 0.  0.
    9000005    1    3    3    0    0  0.44181124256E+02 -0.19217067757E+02  0.14149899945E+01  0.48210679630E+02  0.10000000000E+01 0.  0.
<mgrwt>
<rscale>  0 0.12501137E+03</rscale>
<asrwt>0</asrwt>
<pdfrwt beam="1">  1        4 0.21024948E-01 0.12501137E+03</pdfrwt>
<pdfrwt beam="2">  1       -4 0.43982246E-02 0.12501137E+03</pdfrwt>
<totfact> 0.96315340E+03</totfact>
</mgrwt>
</event>
<event>
 5    1  0.3241863E-002  0.1249960E+03  0.7818608E-02  0.1235076E+00
          4   -1    0    0  501    0  0.00000000000E+00  0.00000000000E+00  0.23226020310E+03  0.23226367526E+03  0.12700000000E+01 0. -1.
         -4   -1    0    0    0  501 -0.00000000000E+00 -0.00000000000E+00 -0.16789756582E+02  0.16837720335E+02  0.12700000000E+01 0. -1.
         25    2    1    2    0    0  0.00000000000E+00  0.00000000000E+00  0.21547044652E+03  0.24910139559E+03  0.12499596779E+03 0.  0.
    9000005    1    3    3    0    0  0.55738097163E+02 -0.25020934714E+02  0.81582550722E+02  0.10192887339E+03  0.10000000000E+01 0.  0.
    9000005    1    3    3    0    0 -0.55738097163E+02  0.25020934714E+02  0.13388789580E+03  0.14717252220E+03  0.10000000000E+01 0.  0.
<mgrwt>
<rscale>  0 0.12499597E+03</rscale>
<asrwt>0</asrwt>
<pdfrwt beam="1">  1        4 0.35736294E-01 0.12499597E+03</pdfrwt>
<pdfrwt beam="2">  1       -4 0.25869962E-02 0.12499597E+03</pdfrwt>
<totfact> 0.82467686E+03</totfact>
</mgrwt>
</event>
<event>
 5    1  0.3241863E-002  0.1249998E+03  0.7818608E-02  0.1235070E+00
          4   -1    0    0  501    0  0.00000000000E+00  0.00000000000E+00  0.66856640644E+02  0.66868701933E+02  0.12700000000E+01 0.  1.
         -4   -1    0    0    0  501 -0.00000000000E+00 -0.00000000000E+00 -0.58402852481E+02  0.58416659250E+02  0.12700000000E+01 0.  1.
         25    2    1    2    0    0  0.00000000000E+00  0.00000000000E+00  0.84537881625E+01  0.12528536118E+03  0.12499982077E+03 0.  0.
    9000005    1    3    3    0    0  0.25843345165E+02  0.17215010083E+02 -0.50128009186E+02  0.58975014764E+02  0.10000000000E+01 0.  0.
    9000005    1    3    3    0    0 -0.25843345165E+02 -0.17215010083E+02  0.58581797349E+02  0.66310346418E+02  0.10000000000E+01 0.  0.
<mgrwt>
<rscale>  0 0.12499982E+03</rscale>
<asrwt>0</asrwt>
<pdfrwt beam="1">  1        4 0.10287627E-01 0.12499982E+03</pdfrwt>
<pdfrwt beam="2">  1       -4 0.89870441E-02 0.12499982E+03</pdfrwt>
<totfact> 0.10446710E+04</totfact>
</mgrwt>
</event>
<event>
 5    1  0.3241863E-002  0.1249991E+03  0.7818608E-02  0.1235071E+00
          4   -1    0    0  501    0  0.00000000000E+00  0.00000000000E+00  0.63895065585E+03  0.63895191800E+03  0.12700000000E+01 0.  1.
         -4   -1    0    0    0  501 -0.00000000000E+00 -0.00000000000E+00 -0.60462163074E+01  0.61781576247E+01  0.12700000000E+01 0.  1.
         25    2    1    2    0    0  0.00000000000E+00  0.00000000000E+00  0.63290443955E+03  0.64513007562E+03  0.12499913951E+03 0.  0.
    9000005    1    3    3    0    0 -0.55855744924E+02 -0.27354213755E+02  0.28502513576E+03  0.29173351755E+03  0.10000000000E+01 0.  0.
    9000005    1    3    3    0    0  0.55855744924E+02  0.27354213755E+02  0.34787930379E+03  0.35339655807E+03  0.10000000000E+01 0.  0.
<mgrwt>
<rscale>  0 0.12499914E+03</rscale>
<asrwt>0</asrwt>
<pdfrwt beam="1">  1        4 0.98310387E-01 0.12499914E+03</pdfrwt>
<pdfrwt beam="2">  1       -4 0.94043317E-03 0.12499914E+03</pdfrwt>
<totfact> 0.46138134E+03</totfact>
</mgrwt>
</event>
<event>
 5    1  0.3241863E-002  0.1249985E+03  0.7818608E-02  0.1235072E+00
         -4   -1    0    0    0  501 -0.00000000000E+00  0.00000000000E+00  0.15995615246E+02  0.16045952982E+02  0.12700000000E+01 0.  1.
          4   -1    0    0  501    0  0.00000000000E+00 -0.00000000000E+00 -0.24376611817E+03  0.24376942644E+03  0.12700000000E+01 0.  1.
         25    2    1    2    0    0  0.00000000000E+00  0.00000000000E+00 -0.22777050293E+03  0.25981537943E+03  0.12499851752E+03 0.  0.
    9000005    1    3    3    0    0  0.33091136826E+02  0.94196561512E+01 -0.54534909702E+01  0.34849588552E+02  0.10000000000E+01 0.  0.
    9000005    1    3    3    0    0 -0.33091136826E+02 -0.94196561512E+01 -0.22231701196E+03  0.22496579087E+03  0.10000000000E+01 0.  0.
<mgrwt>
<rscale>  0 0.12499852E+03</rscale>
<asrwt>0</asrwt>
<pdfrwt beam="2">  1        4 0.37506604E-01 0.12499852E+03</pdfrwt>
<pdfrwt beam="1">  1       -4 0.24649907E-02 0.12499852E+03</pdfrwt>
<totfact> 0.80934649E+03</totfact>
</mgrwt>
</event>
<event>
 5    1  0.3241863E-002  0.1249971E+03  0.7818608E-02  0.1235074E+00
          4   -1    0    0  501    0  0.00000000000E+00  0.00000000000E+00  0.73997029404E+02  0.74007927012E+02  0.12700000000E+01 0. -1.
         -4   -1    0    0    0  501 -0.00000000000E+00 -0.00000000000E+00 -0.52764429724E+02  0.52779711482E+02  0.12700000000E+01 0. -1.
         25    2    1    2    0    0  0.00000000000E+00  0.00000000000E+00  0.21232599680E+02  0.12678763849E+03  0.12499712791E+03 0.  0.
    9000005    1    3    3    0    0 -0.92196309161E+01 -0.61270265901E+02  0.23744275174E+01  0.62013587091E+02  0.10000000000E+01 0.  0.
    9000005    1    3    3    0    0  0.92196309161E+01  0.61270265901E+02  0.18858172163E+02  0.64774051403E+02  0.10000000000E+01 0.  0.
<mgrwt>
<rscale>  0 0.12499713E+03</rscale>
<asrwt>0</asrwt>
<pdfrwt beam="1">  1        4 0.11386172E-01 0.12499713E+03</pdfrwt>
<pdfrwt beam="2">  1       -4 0.81196184E-02 0.12499713E+03</pdfrwt>
<totfact> 0.10414438E+04</totfact>
</mgrwt>
</event>
<event>
 5    1  0.3241863E-002  0.1249958E+03  0.7818608E-02  0.1235076E+00
          4   -1    0    0  501    0  0.00000000000E+00  0.00000000000E+00  0.42363026222E+02  0.42382058594E+02  0.12700000000E+01 0. -1.
         -4   -1    0    0    0  501 -0.00000000000E+00 -0.00000000000E+00 -0.92158573713E+02  0.92167323975E+02  0.12700000000E+01 0. -1.
         25    2    1    2    0    0  0.00000000000E+00  0.00000000000E+00 -0.49795547491E+02  0.13454938257E+03  0.12499575913E+03 0.  0.
    9000005    1    3    3    0    0  0.47885713967E+02 -0.33745713448E+02 -0.14827226206E+01  0.58608986039E+02  0.10000000000E+01 0.  0.
    9000005    1    3    3    0    0 -0.47885713967E+02  0.33745713448E+02 -0.48312824870E+02  0.75940396530E+02  0.10000000000E+01 0.  0.
<mgrwt>
<rscale>  0 0.12499576E+03</rscale>
<asrwt>0</asrwt>
<pdfrwt beam="1">  1        4 0.65195258E-02 0.12499576E+03</pdfrwt>
<pdfrwt beam="2">  1       -4 0.14180379E-01 0.12499576E+03</pdfrwt>
<totfact> 0.10248558E+04</totfact>
</mgrwt>
</event>
<event>
 5    1  0.3241863E-002  0.1250003E+03  0.7818608E-02  0.1235069E+00
          4   -1    0    0  501    0  0.00000000000E+00  0.00000000000E+00  0.68471301279E+02  0.68483078193E+02  0.12700000000E+01 0.  1.
         -4   -1    0    0    0  501 -0.00000000000E+00 -0.00000000000E+00 -0.57025928708E+02  0.57040068767E+02  0.12700000000E+01 0.  1.
         25    2    1    2    0    0  0.00000000000E+00  0.00000000000E+00  0.11445372571E+02  0.12552314696E+03  0.12500025548E+03 0.  0.
    9000005    1    3    3    0    0 -0.54049293955E+02 -0.30648475124E+02  0.12429754812E+02  0.63373133180E+02  0.10000000000E+01 0.  0.
    9000005    1    3    3    0    0  0.54049293955E+02  0.30648475124E+02 -0.98438224066E+00  0.62150013780E+02  0.10000000000E+01 0.  0.
<mgrwt>
<rscale>  0 0.12500026E+03</rscale>
<asrwt>0</asrwt>
<pdfrwt beam="1">  1        4 0.10536040E-01 0.12500026E+03</pdfrwt>
<pdfrwt beam="2">  1       -4 0.87752135E-02 0.12500026E+03</pdfrwt>
<totfact> 0.10441383E+04</totfact>
</mgrwt>
</event>
<event>
 5    1  0.3241863E-002  0.1249975E+03  0.7818608E-02  0.1235073E+00
         -4   -1    0    0    0  501 -0.00000000000E+00  0.00000000000E+00  0.11246533594E+04  0.11246540765E+04  0.12700000000E+01 0.  1.
          4   -1    0    0  501    0  0.00000000000E+00 -0.00000000000E+00 -0.33563113220E+01  0.35885548191E+01  0.12700000000E+01 0.  1.
         25    2    1    2    0    0  0.00000000000E+00  0.00000000000E+00  0.11212970481E+04  0.11282426313E+04  0.12499746005E+03 0.  0.
    9000005    1    3    3    0    0 -0.60248324325E+02 -0.82321868942E+01  0.69065660771E+03  0.69332905554E+03  0.10000000000E+01 0.  0.
    9000005    1    3    3    0    0  0.60248324325E+02  0.82321868942E+01  0.43064044041E+03  0.43491357579E+03  0.10000000000E+01 0.  0.
<mgrwt>
<rscale>  0 0.12499746E+03</rscale>
<asrwt>0</asrwt>
<pdfrwt beam="2">  1        4 0.53427641E-03 0.12499746E+03</pdfrwt>
<pdfrwt beam="1">  1       -4 0.17304126E+00 0.12499746E+03</pdfrwt>
<totfact> 0.26672679E+03</totfact>
</mgrwt>
</event>
<event>
 5    1  0.3241863E-002  0.1249969E+03  0.7818608E-02  0.1235074E+00
         -4   -1    0    0    0  501 -0.00000000000E+00  0.00000000000E+00  0.91594472268E+01  0.92470737804E+01  0.12700000000E+01 0.  1.
          4   -1    0    0  501    0  0.00000000000E+00 -0.00000000000E+00 -0.42433233631E+03  0.42433423683E+03  0.12700000000E+01 0.  1.
         25    2    1    2    0    0  0.00000000000E+00  0.00000000000E+00 -0.41517288909E+03  0.43358131061E+03  0.12499690025E+03 0.  0.
    9000005    1    3    3    0    0  0.34617785940E+02 -0.11373021415E+01 -0.38800648780E+03  0.38955066311E+03  0.10000000000E+01 0.  0.
    9000005    1    3    3    0    0 -0.34617785940E+02  0.11373021415E+01 -0.27166401292E+02  0.44030647494E+02  0.10000000000E+01 0.  0.
<mgrwt>
<rscale>  0 0.12499690E+03</rscale>
<asrwt>0</asrwt>
<pdfrwt beam="2">  1        4 0.65288769E-01 0.12499690E+03</pdfrwt>
<pdfrwt beam="1">  1       -4 0.14160328E-02 0.12499690E+03</pdfrwt>
<totfact> 0.61416908E+03</totfact>
</mgrwt>
</event>
<event>
 5    1  0.3241863E-002  0.1249997E+03  0.7818608E-02  0.1235070E+00
          4   -1    0    0  501    0  0.00000000000E+00  0.00000000000E+00  0.53553982272E+02  0.53569038792E+02  0.12700000000E+01 0. -1.
         -4   -1    0    0    0  501 -0.00000000000E+00 -0.00000000000E+00 -0.72909259978E+02  0.72920320148E+02  0.12700000000E+01 0. -1.
         25    2    1    2    0    0  0.00000000000E+00  0.00000000000E+00 -0.19355277706E+02  0.12648935894E+03  0.12499972460E+03 0.  0.
    9000005    1    3    3    0    0 -0.19529134323E+02 -0.79142087302E+01 -0.69210804014E+02  0.72354386042E+02  0.10000000000E+01 0.  0.
    9000005    1    3    3    0    0  0.19529134323E+02  0.79142087302E+01  0.49855526308E+02  0.54134972898E+02  0.10000000000E+01 0.  0.
<mgrwt>
<rscale>  0 0.12499972E+03</rscale>
<asrwt>0</asrwt>
<pdfrwt beam="1">  1        4 0.82410832E-02 0.12499972E+03</pdfrwt>
<pdfrwt beam="2">  1       -4 0.11218818E-01 0.12499972E+03</pdfrwt>
<totfact> 0.10420325E+04</totfact>
</mgrwt>
</event>
<event>
 5    1  0.3241863E-002  0.1249996E+03  0.7818608E-02  0.1235070E+00
          4   -1    0    0  501    0  0.00000000000E+00  0.00000000000E+00  0.97318789703E+02  0.97327076033E+02  0.12700000000E+01 0.  1.
         -4   -1    0    0    0  501 -0.00000000000E+00 -0.00000000000E+00 -0.40118403351E+02  0.40138500064E+02  0.12700000000E+01 0.  1.
         25    2    1    2    0    0  0.00000000000E+00  0.00000000000E+00  0.57200386352E+02  0.13746557610E+03  0.12499960165E+03 0.  0.
    9000005    1    3    3    0    0  0.33856172691E+02  0.48707403352E+01 -0.28915277658E+02  0.44800198914E+02  0.10000000000E+01 0.  0.
    9000005    1    3    3    0    0 -0.33856172691E+02 -0.48707403352E+01  0.86115664010E+02  0.92665377184E+02  0.10000000000E+01 0.  0.
<mgrwt>
<rscale>  0 0.12499960E+03</rscale>
<asrwt>0</asrwt>
<pdfrwt beam="1">  1        4 0.14974305E-01 0.12499960E+03</pdfrwt>
<pdfrwt beam="2">  1       -4 0.61742454E-02 0.12499960E+03</pdfrwt>
<totfact> 0.10186452E+04</totfact>
</mgrwt>
</event>
<event>
 5    1  0.3241863E-002  0.1250034E+03  0.7818608E-02  0.1235064E+00
          4   -1    0    0  501    0  0.00000000000E+00  0.00000000000E+00  0.37043575931E+02  0.37065339844E+02  0.12700000000E+01 0. -1.
         -4   -1    0    0    0  501 -0.00000000000E+00 -0.00000000000E+00 -0.10539933367E+03  0.10540698477E+03  0.12700000000E+01 0. -1.
         25    2    1    2    0    0  0.00000000000E+00  0.00000000000E+00 -0.68355757735E+02  0.14247232461E+03  0.12500341461E+03 0.  0.
    9000005    1    3    3    0    0 -0.45660040101E+01 -0.29006156735E+02 -0.97052880981E+02  0.10140250109E+03  0.10000000000E+01 0.  0.
    9000005    1    3    3    0    0  0.45660040101E+01  0.29006156735E+02  0.28697123246E+02  0.41069823517E+02  0.10000000000E+01 0.  0.
<mgrwt>
<rscale>  0 0.12500341E+03</rscale>
<asrwt>0</asrwt>
<pdfrwt beam="1">  1        4 0.57012744E-02 0.12500341E+03</pdfrwt>
<pdfrwt beam="2">  1       -4 0.16217545E-01 0.12500341E+03</pdfrwt>
<totfact> 0.10081825E+04</totfact>
</mgrwt>
</event>
<event>
 5    1  0.3241863E-002  0.1250029E+03  0.7818608E-02  0.1235065E+00
          4   -1    0    0  501    0  0.00000000000E+00  0.00000000000E+00  0.96076816351E+02  0.96085209789E+02  0.12700000000E+01 0.  1.
         -4   -1    0    0    0  501 -0.00000000000E+00 -0.00000000000E+00 -0.40639345214E+02  0.40659184442E+02  0.12700000000E+01 0.  1.
         25    2    1    2    0    0  0.00000000000E+00  0.00000000000E+00  0.55437471137E+02  0.13674439423E+03  0.12500286456E+03 0.  0.
    9000005    1    3    3    0    0  0.11398179361E+02  0.61439302933E+02  0.28648640013E+02  0.68749189175E+02  0.10000000000E+01 0.  0.
    9000005    1    3    3    0    0 -0.11398179361E+02 -0.61439302933E+02  0.26788831124E+02  0.67995205056E+02  0.10000000000E+01 0.  0.
<mgrwt>
<rscale>  0 0.12500286E+03</rscale>
<asrwt>0</asrwt>
<pdfrwt beam="1">  1        4 0.14783220E-01 0.12500286E+03</pdfrwt>
<pdfrwt beam="2">  1       -4 0.62543787E-02 0.12500286E+03</pdfrwt>
<totfact> 0.10200774E+04</totfact>
</mgrwt>
</event>
<event>
 5    1  0.3241863E-002  0.1250012E+03  0.7818608E-02  0.1235067E+00
         -4   -1    0    0    0  501 -0.00000000000E+00  0.00000000000E+00  0.32804787738E+02  0.32829361835E+02  0.12700000000E+01 0.  1.
          4   -1    0    0  501    0  0.00000000000E+00 -0.00000000000E+00 -0.11900533449E+03  0.11901211088E+03  0.12700000000E+01 0.  1.
         25    2    1    2    0    0  0.00000000000E+00  0.00000000000E+00 -0.86200546753E+02  0.15184147272E+03  0.12500119430E+03 0.  0.
    9000005    1    3    3    0    0 -0.49292896593E+02  0.22891196844E+02 -0.56299834663E+01  0.54648817566E+02  0.10000000000E+01 0.  0.
    9000005    1    3    3    0    0  0.49292896593E+02 -0.22891196844E+02 -0.80570563286E+02  0.97192655154E+02  0.10000000000E+01 0.  0.
<mgrwt>
<rscale>  0 0.12500119E+03</rscale>
<asrwt>0</asrwt>
<pdfrwt beam="2">  1        4 0.18310924E-01 0.12500119E+03</pdfrwt>
<pdfrwt beam="1">  1       -4 0.50493020E-02 0.12500119E+03</pdfrwt>
<totfact> 0.98935228E+03</totfact>
</mgrwt>
</event>
<event>
 5    1  0.3241863E-002  0.1250037E+03  0.7818608E-02  0.1235064E+00
          4   -1    0    0  501    0  0.00000000000E+00  0.00000000000E+00  0.11859617372E+03  0.11860297350E+03  0.12700000000E+01 0.  1.
         -4   -1    0    0    0  501 -0.00000000000E+00 -0.00000000000E+00 -0.32919345880E+02  0.32943834525E+02  0.12700000000E+01 0.  1.
         25    2    1    2    0    0  0.00000000000E+00  0.00000000000E+00  0.85676827843E+02  0.15154680802E+03  0.12500366471E+03 0.  0.
    9000005    1    3    3    0    0  0.54234303066E+02 -0.27247989437E+02  0.24788544234E+02  0.65568929247E+02  0.10000000000E+01 0.  0.
    9000005    1    3    3    0    0 -0.54234303066E+02  0.27247989437E+02  0.60888283609E+02  0.85977878773E+02  0.10000000000E+01 0.  0.
<mgrwt>
<rscale>  0 0.12500366E+03</rscale>
<asrwt>0</asrwt>
<pdfrwt beam="1">  1        4 0.18247972E-01 0.12500366E+03</pdfrwt>
<pdfrwt beam="2">  1       -4 0.50669215E-02 0.12500366E+03</pdfrwt>
<totfact> 0.98988091E+03</totfact>
</mgrwt>
</event>
<event>
 5    1  0.3241863E-002  0.1250009E+03  0.7818608E-02  0.1235068E+00
          4   -1    0    0  501    0  0.00000000000E+00  0.00000000000E+00  0.38411856587E+03  0.38412066534E+03  0.12700000000E+01 0.  1.
         -4   -1    0    0    0  501 -0.00000000000E+00 -0.00000000000E+00 -0.10127747289E+02  0.10207064473E+02  0.12700000000E+01 0.  1.
         25    2    1    2    0    0  0.00000000000E+00  0.00000000000E+00  0.37399081858E+03  0.39432772982E+03  0.12500090448E+03 0.  0.
    9000005    1    3    3    0    0  0.22738894807E+02 -0.41739293184E+02  0.31498354437E+03  0.31855118765E+03  0.10000000000E+01 0.  0.
    9000005    1    3    3    0    0 -0.22738894807E+02  0.41739293184E+02  0.59007274212E+02  0.75776542165E+02  0.10000000000E+01 0.  0.
<mgrwt>
<rscale>  0 0.12500090E+03</rscale>
<asrwt>0</asrwt>
<pdfrwt beam="1">  1        4 0.59101427E-01 0.12500090E+03</pdfrwt>
<pdfrwt beam="2">  1       -4 0.15643778E-02 0.12500090E+03</pdfrwt>
<totfact> 0.65106929E+03</totfact>
</mgrwt>
</event>
<event>
 5    1  0.3241863E-002  0.1249956E+03  0.7818608E-02  0.1235076E+00
         -4   -1    0    0    0  501 -0.00000000000E+00  0.00000000000E+00  0.34116876643E+02  0.34140506322E+02  0.12700000000E+01 0. -1.
          4   -1    0    0  501    0  0.00000000000E+00 -0.00000000000E+00 -0.11442118488E+03  0.11442823275E+03  0.12700000000E+01 0. -1.
         25    2    1    2    0    0  0.00000000000E+00  0.00000000000E+00 -0.80304308241E+02  0.14856873907E+03  0.12499555315E+03 0.  0.
    9000005    1    3    3    0    0  0.27398073925E+02  0.56088645583E+02 -0.36711090698E+02  0.72424407477E+02  0.10000000000E+01 0.  0.
    9000005    1    3    3    0    0 -0.27398073925E+02 -0.56088645583E+02 -0.43593217543E+02  0.76144331594E+02  0.10000000000E+01 0.  0.
<mgrwt>
<rscale>  0 0.12499555E+03</rscale>
<asrwt>0</asrwt>
<pdfrwt beam="2">  1        4 0.17605619E-01 0.12499555E+03</pdfrwt>
<pdfrwt beam="1">  1       -4 0.52511101E-02 0.12499555E+03</pdfrwt>
<totfact> 0.99599736E+03</totfact>
</mgrwt>
</event>
<event>
 5    1  0.3241863E-002  0.1250005E+03  0.7818608E-02  0.1235068E+00
          4   -1    0    0  501    0  0.00000000000E+00  0.00000000000E+00  0.25427744786E+03  0.25428061938E+03  0.12700000000E+01 0.  1.
         -4   -1    0    0    0  501 -0.00000000000E+00 -0.00000000000E+00 -0.15332765635E+02  0.15385272244E+02  0.12700000000E+01 0.  1.
         25    2    1    2    0    0  0.00000000000E+00  0.00000000000E+00  0.23894468223E+03  0.26966589162E+03  0.12500052776E+03 0.  0.
    9000005    1    3    3    0    0  0.22450924096E+02  0.36672525486E+02  0.21730058548E+03  0.22151628059E+03  0.10000000000E+01 0.  0.
    9000005    1    3    3    0    0 -0.22450924096E+02 -0.36672525486E+02  0.21644096750E+02  0.48149611031E+02  0.10000000000E+01 0.  0.
<mgrwt>
<rscale>  0 0.12500053E+03</rscale>
<asrwt>0</asrwt>
<pdfrwt beam="1">  1        4 0.39123888E-01 0.12500053E+03</pdfrwt>
<pdfrwt beam="2">  1       -4 0.23631701E-02 0.12500053E+03</pdfrwt>
<totfact> 0.79567506E+03</totfact>
</mgrwt>
</event>
<event>
 5    1  0.3241863E-002  0.1249975E+03  0.7818608E-02  0.1235073E+00
         -4   -1    0    0    0  501 -0.00000000000E+00  0.00000000000E+00  0.16272436253E+02  0.16321920280E+02  0.12700000000E+01 0. -1.
          4   -1    0    0  501    0  0.00000000000E+00 -0.00000000000E+00 -0.23962796067E+03  0.23963132607E+03  0.12700000000E+01 0. -1.
         25    2    1    2    0    0  0.00000000000E+00  0.00000000000E+00 -0.22335552442E+03  0.25595324635E+03  0.12499749610E+03 0.  0.
    9000005    1    3    3    0    0  0.20578504421E+02  0.47528666499E+02 -0.40078354065E+02  0.65495980396E+02  0.10000000000E+01 0.  0.
    9000005    1    3    3    0    0 -0.20578504421E+02 -0.47528666499E+02 -0.18327717035E+03  0.19045726596E+03  0.10000000000E+01 0.  0.
<mgrwt>
<rscale>  0 0.12499750E+03</rscale>
<asrwt>0</asrwt>
<pdfrwt beam="2">  1        4 0.36869903E-01 0.12499750E+03</pdfrwt>
<pdfrwt beam="1">  1       -4 0.25075173E-02 0.12499750E+03</pdfrwt>
<totfact> 0.81481885E+03</totfact>
</mgrwt>
</event>
<event>
 5    1  0.3241863E-002  0.1250014E+03  0.7818608E-02  0.1235067E+00
          4   -1    0    0  501    0  0.00000000000E+00  0.00000000000E+00  0.48147228814E+03  0.48147396310E+03  0.12700000000E+01 0.  1.
         -4   -1    0    0    0  501 -0.00000000000E+00 -0.00000000000E+00 -0.80619203519E+01  0.81613393362E+01  0.12700000000E+01 0.  1.
         25    2    1    2    0    0  0.00000000000E+00  0.00000000000E+00  0.47341036779E+03  0.48963530244E+03  0.12500141226E+03 0.  0.
    9000005    1    3    3    0    0  0.20854765059E+02 -0.44460628187E+02  0.85319407870E+02  0.98448311534E+02  0.10000000000E+01 0.  0.
    9000005    1    3    3    0    0 -0.20854765059E+02  0.44460628187E+02  0.38809095992E+03  0.39118699090E+03  0.10000000000E+01 0.  0.
<mgrwt>
<rscale>  0 0.12500141E+03</rscale>
<asrwt>0</asrwt>
<pdfrwt beam="1">  1        4 0.74080449E-01 0.12500141E+03</pdfrwt>
<pdfrwt beam="2">  1       -4 0.12480717E-02 0.12500141E+03</pdfrwt>
<totfact> 0.56675835E+03</totfact>
</mgrwt>
</event>
<event>
 5    1  0.3241863E-002  0.1249899E+03  0.7818608E-02  0.1235085E+00
         -4   -1    0    0    0  501 -0.00000000000E+00  0.00000000000E+00  0.39291024799E+03  0.39291230049E+03  0.12700000000E+01 0. -1.
          4   -1    0    0  501    0  0.00000000000E+00 -0.00000000000E+00 -0.98975736321E+01  0.99787205493E+01  0.12700000000E+01 0. -1.
         25    2    1    2    0    0  0.00000000000E+00  0.00000000000E+00  0.38301267436E+03  0.40289102104E+03  0.12498986405E+03 0.  0.
    9000005    1    3    3    0    0  0.60997429026E+02 -0.72904107348E+00  0.23515901556E+03  0.24294439785E+03  0.10000000000E+01 0.  0.
    9000005    1    3    3    0    0 -0.60997429026E+02  0.72904107348E+00  0.14785365880E+03  0.15994662319E+03  0.10000000000E+01 0.  0.
<mgrwt>
<rscale>  0 0.12498986E+03</rscale>
<asrwt>0</asrwt>
<pdfrwt beam="2">  1        4 0.15291036E-02 0.12498986E+03</pdfrwt>
<pdfrwt beam="1">  1       -4 0.60454130E-01 0.12498986E+03</pdfrwt>
<totfact> 0.64286961E+03</totfact>
</mgrwt>
</event>
<event>
 5    1  0.3241863E-002  0.1249999E+03  0.7818608E-02  0.1235069E+00
          4   -1    0    0  501    0  0.00000000000E+00  0.00000000000E+00  0.56871495355E+02  0.56885673802E+02  0.12700000000E+01 0. -1.
         -4   -1    0    0    0  501 -0.00000000000E+00 -0.00000000000E+00 -0.68656848842E+02  0.68668593934E+02  0.12700000000E+01 0. -1.
         25    2    1    2    0    0  0.00000000000E+00  0.00000000000E+00 -0.11785353487E+02  0.12555426774E+03  0.12499991836E+03 0.  0.
    9000005    1    3    3    0    0 -0.56976809059E+02 -0.24765232662E+01  0.19769697857E+02  0.60368293759E+02  0.10000000000E+01 0.  0.
    9000005    1    3    3    0    0  0.56976809059E+02  0.24765232662E+01 -0.31555051344E+02  0.65185973977E+02  0.10000000000E+01 0.  0.
<mgrwt>
<rscale>  0 0.12499992E+03</rscale>
<asrwt>0</asrwt>
<pdfrwt beam="1">  1        4 0.87514549E-02 0.12499992E+03</pdfrwt>
<pdfrwt beam="2">  1       -4 0.10564586E-01 0.12499992E+03</pdfrwt>
<totfact> 0.10440775E+04</totfact>
</mgrwt>
</event>
<event>
 5    1  0.3241863E-002  0.1250005E+03  0.7818608E-02  0.1235069E+00
         -4   -1    0    0    0  501 -0.00000000000E+00  0.00000000000E+00  0.80966917288E+02  0.80976876916E+02  0.12700000000E+01 0.  1.
          4   -1    0    0  501    0  0.00000000000E+00 -0.00000000000E+00 -0.48224074177E+02  0.48240794254E+02  0.12700000000E+01 0.  1.
         25    2    1    2    0    0  0.00000000000E+00  0.00000000000E+00  0.32742843111E+02  0.12921767117E+03  0.12500045107E+03 0.  0.
    9000005    1    3    3    0    0 -0.13899458318E+02 -0.50648236361E+02 -0.18636121585E+02  0.55738171980E+02  0.10000000000E+01 0.  0.
    9000005    1    3    3    0    0  0.13899458318E+02  0.50648236361E+02  0.51378964696E+02  0.73479499190E+02  0.10000000000E+01 0.  0.
<mgrwt>
<rscale>  0 0.12500045E+03</rscale>
<asrwt>0</asrwt>
<pdfrwt beam="2">  1        4 0.74211406E-02 0.12500045E+03</pdfrwt>
<pdfrwt beam="1">  1       -4 0.12458501E-01 0.12500045E+03</pdfrwt>
<totfact> 0.10361166E+04</totfact>
</mgrwt>
</event>
<event>
 5    1  0.3241863E-002  0.1249986E+03  0.7818608E-02  0.1235071E+00
          4   -1    0    0  501    0  0.00000000000E+00  0.00000000000E+00  0.31394549001E+03  0.31394805876E+03  0.12700000000E+01 0.  1.
         -4   -1    0    0    0  501 -0.00000000000E+00 -0.00000000000E+00 -0.12407134913E+02  0.12471964430E+02  0.12700000000E+01 0.  1.
         25    2    1    2    0    0  0.00000000000E+00  0.00000000000E+00  0.30153835510E+03  0.32642002319E+03  0.12499860776E+03 0.  0.
    9000005    1    3    3    0    0  0.56892113098E+02 -0.18377020270E+02  0.19826026058E+03  0.20708104291E+03  0.10000000000E+01 0.  0.
    9000005    1    3    3    0    0 -0.56892113098E+02  0.18377020270E+02  0.10327809451E+03  0.11933898028E+03  0.10000000000E+01 0.  0.
<mgrwt>
<rscale>  0 0.12499861E+03</rscale>
<asrwt>0</asrwt>
<pdfrwt beam="1">  1        4 0.48304492E-01 0.12499861E+03</pdfrwt>
<pdfrwt beam="2">  1       -4 0.19139744E-02 0.12499861E+03</pdfrwt>
<totfact> 0.72401230E+03</totfact>
</mgrwt>
</event>
<event>
 5    1  0.3241863E-002  0.1249747E+03  0.7818608E-02  0.1235109E+00
         -4   -1    0    0    0  501 -0.00000000000E+00  0.00000000000E+00  0.17418310007E+03  0.17418772990E+03  0.12700000000E+01 0.  1.
          4   -1    0    0  501    0  0.00000000000E+00 -0.00000000000E+00 -0.22394133720E+02  0.22430116475E+02  0.12700000000E+01 0.  1.
         25    2    1    2    0    0  0.00000000000E+00  0.00000000000E+00  0.15178896635E+03  0.19661784638E+03  0.12497474629E+03 0.  0.
    9000005    1    3    3    0    0  0.19689651478E+02  0.50615669019E+01  0.16884170271E+03  0.17006417145E+03  0.10000000000E+01 0.  0.
    9000005    1    3    3    0    0 -0.19689651478E+02 -0.50615669019E+01 -0.17052736366E+02  0.26553674932E+02  0.10000000000E+01 0.  0.
<mgrwt>
<rscale>  0 0.12497475E+03</rscale>
<asrwt>0</asrwt>
<pdfrwt beam="2">  1        4 0.34483755E-02 0.12497475E+03</pdfrwt>
<pdfrwt beam="1">  1       -4 0.26800523E-01 0.12497475E+03</pdfrwt>
<totfact> 0.90759709E+03</totfact>
</mgrwt>
</event>
<event>
 5    1  0.3241863E-002  0.1249997E+03  0.7818608E-02  0.1235070E+00
          4   -1    0    0  501    0  0.00000000000E+00  0.00000000000E+00  0.62746176335E+01  0.64018533603E+01  0.12700000000E+01 0.  1.
         -4   -1    0    0    0  501 -0.00000000000E+00 -0.00000000000E+00 -0.61616850915E+03  0.61616981796E+03  0.12700000000E+01 0.  1.
         25    2    1    2    0    0  0.00000000000E+00  0.00000000000E+00 -0.60989389152E+03  0.62257167132E+03  0.12499970810E+03 0.  0.
    9000005    1    3    3    0    0 -0.29824227069E+02 -0.34050269925E+02 -0.51953597819E+03  0.52150507000E+03  0.10000000000E+01 0.  0.
    9000005    1    3    3    0    0  0.29824227069E+02  0.34050269925E+02 -0.90357913328E+02  0.10106660132E+03  0.10000000000E+01 0.  0.
<mgrwt>
<rscale>  0 0.12499971E+03</rscale>
<asrwt>0</asrwt>
<pdfrwt beam="1">  1        4 0.97521432E-03 0.12499971E+03</pdfrwt>
<pdfrwt beam="2">  1       -4 0.94804996E-01 0.12499971E+03</pdfrwt>
<totfact> 0.47473451E+03</totfact>
</mgrwt>
</event>
<event>
 5    1  0.3241863E-002  0.1249982E+03  0.7818608E-02  0.1235072E+00
         -4   -1    0    0    0  501 -0.00000000000E+00  0.00000000000E+00  0.12556450538E+03  0.12557092781E+03  0.12700000000E+01 0. -1.
          4   -1    0    0  501    0  0.00000000000E+00 -0.00000000000E+00 -0.31088452545E+02  0.31114382232E+02  0.12700000000E+01 0. -1.
         25    2    1    2    0    0  0.00000000000E+00  0.00000000000E+00  0.94476052837E+02  0.15668531005E+03  0.12499824728E+03 0.  0.
    9000005    1    3    3    0    0  0.61448240899E+02  0.11163632081E+02  0.49934498596E+02  0.79968538444E+02  0.10000000000E+01 0.  0.
    9000005    1    3    3    0    0 -0.61448240899E+02 -0.11163632081E+02  0.44541554241E+02  0.76716771601E+02  0.10000000000E+01 0.  0.
<mgrwt>
<rscale>  0 0.12499825E+03</rscale>
<asrwt>0</asrwt>
<pdfrwt beam="2">  1        4 0.47853275E-02 0.12499825E+03</pdfrwt>
<pdfrwt beam="1">  1       -4 0.19320105E-01 0.12499825E+03</pdfrwt>
<totfact> 0.97989525E+03</totfact>
</mgrwt>
</event>
<event>
 5    1  0.3241863E-002  0.1249886E+03  0.7818608E-02  0.1235087E+00
         -4   -1    0    0    0  501 -0.00000000000E+00  0.00000000000E+00  0.10078324547E+02  0.10158027647E+02  0.12700000000E+01 0.  1.
          4   -1    0    0  501    0  0.00000000000E+00 -0.00000000000E+00 -0.38591178093E+03  0.38591387065E+03  0.12700000000E+01 0.  1.
         25    2    1    2    0    0  0.00000000000E+00  0.00000000000E+00 -0.37583345638E+03  0.39607189829E+03  0.12498864622E+03 0.  0.
    9000005    1    3    3    0    0 -0.48993985963E+02 -0.38372814463E+02 -0.17008729832E+03  0.18111756568E+03  0.10000000000E+01 0.  0.
    9000005    1    3    3    0    0  0.48993985963E+02  0.38372814463E+02 -0.20574615806E+03  0.21495433261E+03  0.10000000000E+01 0.  0.
<mgrwt>
<rscale>  0 0.12498865E+03</rscale>
<asrwt>0</asrwt>
<pdfrwt beam="2">  1        4 0.59377324E-01 0.12498865E+03</pdfrwt>
<pdfrwt beam="1">  1       -4 0.15568035E-02 0.12498865E+03</pdfrwt>
<totfact> 0.64952920E+03</totfact>
</mgrwt>
</event>
<event>
 5    1  0.3241863E-002  0.1249982E+03  0.7818608E-02  0.1235072E+00
          4   -1    0    0  501    0  0.00000000000E+00  0.00000000000E+00  0.11449573195E+02  0.11519792808E+02  0.12700000000E+01 0.  1.
         -4   -1    0    0    0  501 -0.00000000000E+00 -0.00000000000E+00 -0.34004569700E+03  0.34004806858E+03  0.12700000000E+01 0.  1.
         25    2    1    2    0    0  0.00000000000E+00  0.00000000000E+00 -0.32859612380E+03  0.35156786139E+03  0.12499819432E+03 0.  0.
    9000005    1    3    3    0    0 -0.41194351768E+02  0.43070227425E+02 -0.21715054295E+03  0.22518298651E+03  0.10000000000E+01 0.  0.
    9000005    1    3    3    0    0  0.41194351768E+02 -0.43070227425E+02 -0.11144558085E+03  0.12638487489E+03  0.10000000000E+01 0.  0.
<mgrwt>
<rscale>  0 0.12499819E+03</rscale>
<asrwt>0</asrwt>
<pdfrwt beam="1">  1        4 0.17670570E-02 0.12499819E+03</pdfrwt>
<pdfrwt beam="2">  1       -4 0.52320299E-01 0.12499819E+03</pdfrwt>
<totfact> 0.69555198E+03</totfact>
</mgrwt>
</event>
<event>
 5    1  0.3241863E-002  0.1249968E+03  0.7818608E-02  0.1235074E+00
          4   -1    0    0  501    0  0.00000000000E+00  0.00000000000E+00  0.62032320560E+01  0.63319023951E+01  0.12700000000E+01 0. -1.
         -4   -1    0    0    0  501 -0.00000000000E+00 -0.00000000000E+00 -0.62308668836E+03  0.62308798264E+03  0.12700000000E+01 0. -1.
         25    2    1    2    0    0  0.00000000000E+00  0.00000000000E+00 -0.61688345630E+03  0.62941988503E+03  0.12499677203E+03 0.  0.
    9000005    1    3    3    0    0  0.35233536118E+01  0.14271641697E+02 -0.61428104118E+03  0.61445772136E+03  0.10000000000E+01 0.  0.
    9000005    1    3    3    0    0 -0.35233536118E+01 -0.14271641697E+02 -0.26024151162E+01  0.14962163675E+02  0.10000000000E+01 0.  0.
<mgrwt>
<rscale>  0 0.12499677E+03</rscale>
<asrwt>0</asrwt>
<pdfrwt beam="1">  1        4 0.96434117E-03 0.12499677E+03</pdfrwt>
<pdfrwt beam="2">  1       -4 0.95869439E-01 0.12499677E+03</pdfrwt>
<totfact> 0.47065035E+03</totfact>
</mgrwt>
</event>
<event>
 5    1  0.3241863E-002  0.1249980E+03  0.7818608E-02  0.1235072E+00
          4   -1    0    0  501    0  0.00000000000E+00  0.00000000000E+00  0.99826393849E+02  0.99834472047E+02  0.12700000000E+01 0. -1.
         -4   -1    0    0    0  501 -0.00000000000E+00 -0.00000000000E+00 -0.39109202798E+02  0.39129817831E+02  0.12700000000E+01 0. -1.
         25    2    1    2    0    0  0.00000000000E+00  0.00000000000E+00  0.60717191052E+02  0.13896428988E+03  0.12499798627E+03 0.  0.
    9000005    1    3    3    0    0  0.14435083551E+02 -0.44377032692E+02 -0.15847642417E+02  0.49293411708E+02  0.10000000000E+01 0.  0.
    9000005    1    3    3    0    0 -0.14435083551E+02  0.44377032692E+02  0.76564833468E+02  0.89670878170E+02  0.10000000000E+01 0.  0.
<mgrwt>
<rscale>  0 0.12499799E+03</rscale>
<asrwt>0</asrwt>
<pdfrwt beam="1">  1        4 0.15360114E-01 0.12499799E+03</pdfrwt>
<pdfrwt beam="2">  1       -4 0.60190077E-02 0.12499799E+03</pdfrwt>
<totfact> 0.10155557E+04</totfact>
</mgrwt>
</event>
<event>
 5    1  0.3241863E-002  0.1249991E+03  0.7818608E-02  0.1235071E+00
          4   -1    0    0  501    0  0.00000000000E+00  0.00000000000E+00  0.93834985164E+02  0.93843579113E+02  0.12700000000E+01 0.  1.
         -4   -1    0    0    0  501 -0.00000000000E+00 -0.00000000000E+00 -0.41608120167E+02  0.41627497689E+02  0.12700000000E+01 0.  1.
         25    2    1    2    0    0  0.00000000000E+00  0.00000000000E+00  0.52226864997E+02  0.13547107680E+03  0.12499906889E+03 0.  0.
    9000005    1    3    3    0    0  0.47192590379E+02 -0.36730606127E+02  0.64580795158E+01  0.60157998671E+02  0.10000000000E+01 0.  0.
    9000005    1    3    3    0    0 -0.47192590379E+02  0.36730606127E+02  0.45768785481E+02  0.75313078131E+02  0.10000000000E+01 0.  0.
<mgrwt>
<rscale>  0 0.12499907E+03</rscale>
<asrwt>0</asrwt>
<pdfrwt beam="1">  1        4 0.14438303E-01 0.12499907E+03</pdfrwt>
<pdfrwt beam="2">  1       -4 0.64034009E-02 0.12499907E+03</pdfrwt>
<totfact> 0.10228366E+04</totfact>
</mgrwt>
</event>
<event>
 5    1  0.3241863E-002  0.1249995E+03  0.7818608E-02  0.1235070E+00
          4   -1    0    0  501    0  0.00000000000E+00  0.00000000000E+00  0.67187614932E+02  0.67199616816E+02  0.12700000000E+01 0.  1.
         -4   -1    0    0    0  501 -0.00000000000E+00 -0.00000000000E+00 -0.58114869652E+02  0.58128744823E+02  0.12700000000E+01 0.  1.
         25    2    1    2    0    0  0.00000000000E+00  0.00000000000E+00  0.90727452799E+01  0.12532836164E+03  0.12499953410E+03 0.  0.
    9000005    1    3    3    0    0  0.54869748430E+02 -0.14871371812E+02  0.30554084759E+02  0.64547649747E+02  0.10000000000E+01 0.  0.
    9000005    1    3    3    0    0 -0.54869748430E+02  0.14871371812E+02 -0.21481339479E+02  0.60780711893E+02  0.10000000000E+01 0.  0.
<mgrwt>
<rscale>  0 0.12499953E+03</rscale>
<asrwt>0</asrwt>
<pdfrwt beam="1">  1        4 0.10338547E-01 0.12499953E+03</pdfrwt>
<pdfrwt beam="2">  1       -4 0.89427398E-02 0.12499953E+03</pdfrwt>
<totfact> 0.10445845E+04</totfact>
</mgrwt>
</event>
<event>
 5    1  0.3241863E-002  0.1249993E+03  0.7818608E-02  0.1235070E+00
          4   -1    0    0  501    0  0.00000000000E+00  0.00000000000E+00  0.41638852705E+01  0.43532563152E+01  0.12700000000E+01 0. -1.
         -4   -1    0    0    0  501 -0.00000000000E+00 -0.00000000000E+00 -0.91706726611E+03  0.91706814549E+03  0.12700000000E+01 0. -1.
         25    2    1    2    0    0  0.00000000000E+00  0.00000000000E+00 -0.91290338084E+03  0.92142140181E+03  0.12499926782E+03 0.  0.
    9000005    1    3    3    0    0 -0.12530016668E+02  0.54486686516E+02 -0.25065797063E+03  0.25681942793E+03  0.10000000000E+01 0.  0.
    9000005    1    3    3    0    0  0.12530016668E+02 -0.54486686516E+02 -0.66224541022E+03  0.66460197387E+03  0.10000000000E+01 0.  0.
<mgrwt>
<rscale>  0 0.12499927E+03</rscale>
<asrwt>0</asrwt>
<pdfrwt beam="1">  1        4 0.65523311E-03 0.12499927E+03</pdfrwt>
<pdfrwt beam="2">  1       -4 0.14110175E+00 0.12499927E+03</pdfrwt>
<totfact> 0.33353396E+03</totfact>
</mgrwt>
</event>
<event>
 5    1  0.3241863E-002  0.1250012E+03  0.7818608E-02  0.1235067E+00
         -4   -1    0    0    0  501 -0.00000000000E+00  0.00000000000E+00  0.14656095827E+03  0.14656646066E+03  0.12700000000E+01 0. -1.
          4   -1    0    0  501    0  0.00000000000E+00 -0.00000000000E+00 -0.26632088846E+02  0.26662352790E+02  0.12700000000E+01 0. -1.
         25    2    1    2    0    0  0.00000000000E+00  0.00000000000E+00  0.11992886943E+03  0.17322881345E+03  0.12500115234E+03 0.  0.
    9000005    1    3    3    0    0  0.32312095036E+02  0.48718489050E+02  0.90570600081E+02  0.10780350764E+03  0.10000000000E+01 0.  0.
    9000005    1    3    3    0    0 -0.32312095036E+02 -0.48718489050E+02  0.29358269347E+02  0.65425305808E+02  0.10000000000E+01 0.  0.
<mgrwt>
<rscale>  0 0.12500115E+03</rscale>
<asrwt>0</asrwt>
<pdfrwt beam="2">  1        4 0.40999957E-02 0.12500115E+03</pdfrwt>
<pdfrwt beam="1">  1       -4 0.22550591E-01 0.12500115E+03</pdfrwt>
<totfact> 0.94847781E+03</totfact>
</mgrwt>
</event>
<event>
 5    1  0.3241863E-002  0.1250003E+03  0.7818608E-02  0.1235069E+00
         -4   -1    0    0    0  501 -0.00000000000E+00  0.00000000000E+00  0.14107286164E+03  0.14107857807E+03  0.12700000000E+01 0. -1.
          4   -1    0    0  501    0  0.00000000000E+00 -0.00000000000E+00 -0.27668901410E+02  0.27698032516E+02  0.12700000000E+01 0. -1.
         25    2    1    2    0    0  0.00000000000E+00  0.00000000000E+00  0.11340396023E+03  0.16877661058E+03  0.12500034434E+03 0.  0.
    9000005    1    3    3    0    0  0.22152244025E+02  0.34127043756E+02  0.12074652263E+03  0.12742095494E+03  0.10000000000E+01 0.  0.
    9000005    1    3    3    0    0 -0.22152244025E+02 -0.34127043756E+02 -0.73425624065E+01  0.41355655642E+02  0.10000000000E+01 0.  0.
<mgrwt>
<rscale>  0 0.12500034E+03</rscale>
<asrwt>0</asrwt>
<pdfrwt beam="2">  1        4 0.42594346E-02 0.12500034E+03</pdfrwt>
<pdfrwt beam="1">  1       -4 0.21706198E-01 0.12500034E+03</pdfrwt>
<totfact> 0.95676164E+03</totfact>
</mgrwt>
</event>
<event>
 5    1  0.3241863E-002  0.1250016E+03  0.7818608E-02  0.1235067E+00
         -4   -1    0    0    0  501 -0.00000000000E+00  0.00000000000E+00  0.79372279618E+02  0.79382439316E+02  0.12700000000E+01 0.  1.
          4   -1    0    0  501    0  0.00000000000E+00 -0.00000000000E+00 -0.49194022507E+02  0.49210413029E+02  0.12700000000E+01 0.  1.
         25    2    1    2    0    0  0.00000000000E+00  0.00000000000E+00  0.30178257111E+02  0.12859285234E+03  0.12500157788E+03 0.  0.
    9000005    1    3    3    0    0  0.41369481546E+02  0.71496519001E+01  0.62709399131E+02  0.75471983312E+02  0.10000000000E+01 0.  0.
    9000005    1    3    3    0    0 -0.41369481546E+02 -0.71496519001E+01 -0.32531142020E+02  0.53120869033E+02  0.10000000000E+01 0.  0.
<mgrwt>
<rscale>  0 0.12500158E+03</rscale>
<asrwt>0</asrwt>
<pdfrwt beam="2">  1        4 0.75703536E-02 0.12500158E+03</pdfrwt>
<pdfrwt beam="1">  1       -4 0.12213162E-01 0.12500158E+03</pdfrwt>
<totfact> 0.10374335E+04</totfact>
</mgrwt>
</event>
<event>
 5    1  0.3241863E-002  0.1249988E+03  0.7818608E-02  0.1235071E+00
         -4   -1    0    0    0  501 -0.00000000000E+00  0.00000000000E+00  0.14386831618E+02  0.14442777572E+02  0.12700000000E+01 0. -1.
          4   -1    0    0  501    0  0.00000000000E+00 -0.00000000000E+00 -0.27092601938E+03  0.27092899601E+03  0.12700000000E+01 0. -1.
         25    2    1    2    0    0  0.00000000000E+00  0.00000000000E+00 -0.25653918776E+03  0.28537177358E+03  0.12499877719E+03 0.  0.
    9000005    1    3    3    0    0 -0.46904709772E+02  0.18908404054E+02 -0.21207746123E+03  0.21802621197E+03  0.10000000000E+01 0.  0.
    9000005    1    3    3    0    0  0.46904709772E+02 -0.18908404054E+02 -0.44461726530E+02  0.67345561610E+02  0.10000000000E+01 0.  0.
<mgrwt>
<rscale>  0 0.12499878E+03</rscale>
<asrwt>0</asrwt>
<pdfrwt beam="2">  1        4 0.41685455E-01 0.12499878E+03</pdfrwt>
<pdfrwt beam="1">  1       -4 0.22178914E-02 0.12499878E+03</pdfrwt>
<totfact> 0.77473303E+03</totfact>
</mgrwt>
</event>
<event>
 5    1  0.3241863E-002  0.1250060E+03  0.7818608E-02  0.1235060E+00
         -4   -1    0    0    0  501 -0.00000000000E+00  0.00000000000E+00  0.30197678256E+02  0.30224372153E+02  0.12700000000E+01 0.  1.
          4   -1    0    0  501    0  0.00000000000E+00 -0.00000000000E+00 -0.12928135859E+03  0.12928759638E+03  0.12700000000E+01 0.  1.
         25    2    1    2    0    0  0.00000000000E+00  0.00000000000E+00 -0.99083680332E+02  0.15951196854E+03  0.12500596945E+03 0.  0.
    9000005    1    3    3    0    0 -0.41772246872E+02  0.14371228406E+02  0.68665524849E+01  0.44716913553E+02  0.10000000000E+01 0.  0.
    9000005    1    3    3    0    0  0.41772246872E+02 -0.14371228406E+02 -0.10595023282E+03  0.11479505498E+03  0.10000000000E+01 0.  0.
<mgrwt>
<rscale>  0 0.12500597E+03</rscale>
<asrwt>0</asrwt>
<pdfrwt beam="2">  1        4 0.19891973E-01 0.12500597E+03</pdfrwt>
<pdfrwt beam="1">  1       -4 0.46483300E-02 0.12500597E+03</pdfrwt>
<totfact> 0.97423883E+03</totfact>
</mgrwt>
</event>
<event>
 5    1  0.3241863E-002  0.1250000E+03  0.7818608E-02  0.1235069E+00
          4   -1    0    0  501    0  0.00000000000E+00  0.00000000000E+00  0.21029659767E+02  0.21067973085E+02  0.12700000000E+01 0.  1.
         -4   -1    0    0    0  501 -0.00000000000E+00 -0.00000000000E+00 -0.18553987354E+03  0.18554421999E+03  0.12700000000E+01 0.  1.
         25    2    1    2    0    0  0.00000000000E+00  0.00000000000E+00 -0.16451021377E+03  0.20661219308E+03  0.12499995157E+03 0.  0.
    9000005    1    3    3    0    0  0.56698700809E+02 -0.13129084829E+02 -0.44631011036E+02  0.73348774277E+02  0.10000000000E+01 0.  0.
    9000005    1    3    3    0    0 -0.56698700809E+02  0.13129084829E+02 -0.11987920273E+03  0.13326341880E+03  0.10000000000E+01 0.  0.
<mgrwt>
<rscale>  0 0.12499995E+03</rscale>
<asrwt>0</asrwt>
<pdfrwt beam="1">  1        4 0.32386139E-02 0.12499995E+03</pdfrwt>
<pdfrwt beam="2">  1       -4 0.28547876E-01 0.12499995E+03</pdfrwt>
<totfact> 0.89032257E+03</totfact>
</mgrwt>
</event>
<event>
 5    1  0.3241863E-002  0.1249988E+03  0.7818608E-02  0.1235071E+00
         -4   -1    0    0    0  501 -0.00000000000E+00  0.00000000000E+00  0.76304580159E+02  0.76315148255E+02  0.12700000000E+01 0.  1.
          4   -1    0    0  501    0  0.00000000000E+00 -0.00000000000E+00 -0.51169880288E+02  0.51185638110E+02  0.12700000000E+01 0.  1.
         25    2    1    2    0    0  0.00000000000E+00  0.00000000000E+00  0.25134699871E+02  0.12750078636E+03  0.12499878954E+03 0.  0.
    9000005    1    3    3    0    0  0.40646035046E+02 -0.46906169833E+02  0.51495518649E+01  0.62288095313E+02  0.10000000000E+01 0.  0.
    9000005    1    3    3    0    0 -0.40646035046E+02  0.46906169833E+02  0.19985148006E+02  0.65212691051E+02  0.10000000000E+01 0.  0.
<mgrwt>
<rscale>  0 0.12499879E+03</rscale>
<asrwt>0</asrwt>
<pdfrwt beam="2">  1        4 0.78743144E-02 0.12499879E+03</pdfrwt>
<pdfrwt beam="1">  1       -4 0.11741191E-01 0.12499879E+03</pdfrwt>
<totfact> 0.10398568E+04</totfact>
</mgrwt>
</event>
<event>
 5    1  0.3241863E-002  0.1250020E+03  0.7818608E-02  0.1235066E+00
          4   -1    0    0  501    0  0.00000000000E+00  0.00000000000E+00  0.60334483176E+02  0.60347848016E+02  0.12700000000E+01 0.  1.
         -4   -1    0    0    0  501 -0.00000000000E+00 -0.00000000000E+00 -0.64718594331E+02  0.64731054002E+02  0.12700000000E+01 0.  1.
         25    2    1    2    0    0  0.00000000000E+00  0.00000000000E+00 -0.43841111551E+01  0.12507890202E+03  0.12500204518E+03 0.  0.
    9000005    1    3    3    0    0 -0.42785652831E+02 -0.32767851368E+01  0.43267457285E+02  0.60946060323E+02  0.10000000000E+01 0.  0.
    9000005    1    3    3    0    0  0.42785652831E+02  0.32767851368E+01 -0.47651568440E+02  0.64132841694E+02  0.10000000000E+01 0.  0.
<mgrwt>
<rscale>  0 0.12500205E+03</rscale>
<asrwt>0</asrwt>
<pdfrwt beam="1">  1        4 0.92842147E-02 0.12500205E+03</pdfrwt>
<pdfrwt beam="2">  1       -4 0.99586933E-02 0.12500205E+03</pdfrwt>
<totfact> 0.10450666E+04</totfact>
</mgrwt>
</event>
<event>
 5    1  0.3241863E-002  0.1250001E+03  0.7818608E-02  0.1235069E+00
          4   -1    0    0  501    0  0.00000000000E+00  0.00000000000E+00  0.15169640104E+02  0.15222709380E+02  0.12700000000E+01 0. -1.
         -4   -1    0    0    0  501 -0.00000000000E+00 -0.00000000000E+00 -0.25700074006E+03  0.25700387797E+03  0.12700000000E+01 0. -1.
         25    2    1    2    0    0  0.00000000000E+00  0.00000000000E+00 -0.24183109996E+03  0.27222658735E+03  0.12500013582E+03 0.  0.
    9000005    1    3    3    0    0  0.42778960078E+02 -0.27828556974E+02 -0.19946148769E+03  0.20588917670E+03  0.10000000000E+01 0.  0.
    9000005    1    3    3    0    0 -0.42778960078E+02  0.27828556974E+02 -0.42369612262E+02  0.66337410651E+02  0.10000000000E+01 0.  0.
<mgrwt>
<rscale>  0 0.12500014E+03</rscale>
<asrwt>0</asrwt>
<pdfrwt beam="1">  1        4 0.23381146E-02 0.12500014E+03</pdfrwt>
<pdfrwt beam="2">  1       -4 0.39542896E-01 0.12500014E+03</pdfrwt>
<totfact> 0.79219985E+03</totfact>
</mgrwt>
</event>
<event>
 5    1  0.3241863E-002  0.1249983E+03  0.7818608E-02  0.1235072E+00
          4   -1    0    0  501    0  0.00000000000E+00  0.00000000000E+00  0.71619848202E+02  0.71631107464E+02  0.12700000000E+01 0.  1.
         -4   -1    0    0    0  501 -0.00000000000E+00 -0.00000000000E+00 -0.54516997353E+02  0.54531787981E+02  0.12700000000E+01 0.  1.
         25    2    1    2    0    0  0.00000000000E+00  0.00000000000E+00  0.17102850849E+02  0.12616289545E+03  0.12499827471E+03 0.  0.
    9000005    1    3    3    0    0 -0.11372433021E+02  0.18056046305E+02  0.67833569631E+02  0.71117833276E+02  0.10000000000E+01 0.  0.
    9000005    1    3    3    0    0  0.11372433021E+02 -0.18056046305E+02 -0.50730718782E+02  0.55045062169E+02  0.10000000000E+01 0.  0.
<mgrwt>
<rscale>  0 0.12499827E+03</rscale>
<asrwt>0</asrwt>
<pdfrwt beam="1">  1        4 0.11020442E-01 0.12499827E+03</pdfrwt>
<pdfrwt beam="2">  1       -4 0.83892342E-02 0.12499827E+03</pdfrwt>
<totfact> 0.10427796E+04</totfact>
</mgrwt>
</event>
<event>
 5    1  0.3241863E-002  0.1250023E+03  0.7818608E-02  0.1235066E+00
          4   -1    0    0  501    0  0.00000000000E+00  0.00000000000E+00  0.68880983335E+01  0.70041986446E+01  0.12700000000E+01 0. -1.
         -4   -1    0    0    0  501 -0.00000000000E+00 -0.00000000000E+00 -0.56226598307E+03  0.56226741735E+03  0.12700000000E+01 0. -1.
         25    2    1    2    0    0  0.00000000000E+00  0.00000000000E+00 -0.55537788473E+03  0.56927161599E+03  0.12500231169E+03 0.  0.
    9000005    1    3    3    0    0  0.32551370470E+02  0.49044187036E+02 -0.37326737177E+03  0.37788153545E+03  0.10000000000E+01 0.  0.
    9000005    1    3    3    0    0 -0.32551370470E+02 -0.49044187036E+02 -0.18211051296E+03  0.19139008055E+03  0.10000000000E+01 0.  0.
<mgrwt>
<rscale>  0 0.12500231E+03</rscale>
<asrwt>0</asrwt>
<pdfrwt beam="1">  1        4 0.10687490E-02 0.12500231E+03</pdfrwt>
<pdfrwt beam="2">  1       -4 0.86511464E-01 0.12500231E+03</pdfrwt>
<totfact> 0.50863991E+03</totfact>
</mgrwt>
</event>
<event>
 5    1  0.3241863E-002  0.1250006E+03  0.7818608E-02  0.1235068E+00
         -4   -1    0    0    0  501 -0.00000000000E+00  0.00000000000E+00  0.15364345073E+02  0.15416744129E+02  0.12700000000E+01 0.  1.
          4   -1    0    0  501    0  0.00000000000E+00 -0.00000000000E+00 -0.25375668732E+03  0.25375986535E+03  0.12700000000E+01 0.  1.
         25    2    1    2    0    0  0.00000000000E+00  0.00000000000E+00 -0.23839234225E+03  0.26917660948E+03  0.12500055298E+03 0.  0.
    9000005    1    3    3    0    0 -0.54785797516E+02  0.28575339598E+02 -0.13931072426E+03  0.15240246565E+03  0.10000000000E+01 0.  0.
    9000005    1    3    3    0    0  0.54785797516E+02 -0.28575339598E+02 -0.99081617989E+02  0.11677414382E+03  0.10000000000E+01 0.  0.
<mgrwt>
<rscale>  0 0.12500055E+03</rscale>
<asrwt>0</asrwt>
<pdfrwt beam="2">  1        4 0.39043762E-01 0.12500055E+03</pdfrwt>
<pdfrwt beam="1">  1       -4 0.23680207E-02 0.12500055E+03</pdfrwt>
<totfact> 0.79634278E+03</totfact>
</mgrwt>
</event>
<event>
 5    1  0.3241863E-002  0.1249973E+03  0.7818608E-02  0.1235073E+00
          4   -1    0    0  501    0  0.00000000000E+00  0.00000000000E+00  0.80990330584E+03  0.80990430157E+03  0.12700000000E+01 0. -1.
         -4   -1    0    0    0  501 -0.00000000000E+00 -0.00000000000E+00 -0.47382760563E+01  0.49055234160E+01  0.12700000000E+01 0. -1.
         25    2    1    2    0    0  0.00000000000E+00  0.00000000000E+00  0.80516502978E+03  0.81480982499E+03  0.12499730284E+03 0.  0.
    9000005    1    3    3    0    0  0.55644033082E+01 -0.44009799660E+02  0.11567021627E+03  0.12388875648E+03  0.10000000000E+01 0.  0.
    9000005    1    3    3    0    0 -0.55644033082E+01  0.44009799660E+02  0.68949481351E+03  0.69092106850E+03  0.10000000000E+01 0.  0.
<mgrwt>
<rscale>  0 0.12499730E+03</rscale>
<asrwt>0</asrwt>
<pdfrwt beam="1">  1        4 0.12461336E+00 0.12499730E+03</pdfrwt>
<pdfrwt beam="2">  1       -4 0.74190788E-03 0.12499730E+03</pdfrwt>
<totfact> 0.37614311E+03</totfact>
</mgrwt>
</event>
<event>
 5    1  0.3241863E-002  0.1250015E+03  0.7818608E-02  0.1235067E+00
          4   -1    0    0  501    0  0.00000000000E+00  0.00000000000E+00  0.41850461914E+02  0.41869727279E+02  0.12700000000E+01 0. -1.
         -4   -1    0    0    0  501 -0.00000000000E+00 -0.00000000000E+00 -0.93295492846E+02  0.93304136486E+02  0.12700000000E+01 0. -1.
         25    2    1    2    0    0  0.00000000000E+00  0.00000000000E+00 -0.51445030932E+02  0.13517386376E+03  0.12500152894E+03 0.  0.
    9000005    1    3    3    0    0 -0.19593409867E+02  0.28831031822E+02  0.30365611106E+02  0.46240679537E+02  0.10000000000E+01 0.  0.
    9000005    1    3    3    0    0  0.19593409867E+02 -0.28831031822E+02 -0.81810642039E+02  0.88933184228E+02  0.10000000000E+01 0.  0.
<mgrwt>
<rscale>  0 0.12500153E+03</rscale>
<asrwt>0</asrwt>
<pdfrwt beam="1">  1        4 0.64406795E-02 0.12500153E+03</pdfrwt>
<pdfrwt beam="2">  1       -4 0.14355300E-01 0.12500153E+03</pdfrwt>
<totfact> 0.10234055E+04</totfact>
</mgrwt>
</event>
<event>
 5    1  0.3241863E-002  0.1250002E+03  0.7818608E-02  0.1235069E+00
          4   -1    0    0  501    0  0.00000000000E+00  0.00000000000E+00  0.22976441651E+03  0.22976792638E+03  0.12700000000E+01 0. -1.
         -4   -1    0    0    0  501 -0.00000000000E+00 -0.00000000000E+00 -0.16973797350E+02  0.17021242507E+02  0.12700000000E+01 0. -1.
         25    2    1    2    0    0  0.00000000000E+00  0.00000000000E+00  0.21279061916E+03  0.24678916889E+03  0.12500018511E+03 0.  0.
    9000005    1    3    3    0    0 -0.10512806986E+02  0.60539315596E+02  0.83907772879E+02  0.10400501042E+03  0.10000000000E+01 0.  0.
    9000005    1    3    3    0    0  0.10512806986E+02 -0.60539315596E+02  0.12888284628E+03  0.14278415847E+03  0.10000000000E+01 0.  0.
<mgrwt>
<rscale>  0 0.12500019E+03</rscale>
<asrwt>0</asrwt>
<pdfrwt beam="1">  1        4 0.35352288E-01 0.12500019E+03</pdfrwt>
<pdfrwt beam="2">  1       -4 0.26152733E-02 0.12500019E+03</pdfrwt>
<totfact> 0.82796179E+03</totfact>
</mgrwt>
</event>
<event>
 5    1  0.3241863E-002  0.1250005E+03  0.7818608E-02  0.1235068E+00
          4   -1    0    0  501    0  0.00000000000E+00  0.00000000000E+00  0.26127258502E+03  0.26127567162E+03  0.12700000000E+01 0.  1.
         -4   -1    0    0    0  501 -0.00000000000E+00 -0.00000000000E+00 -0.14920829989E+02  0.14974781052E+02  0.12700000000E+01 0.  1.
         25    2    1    2    0    0  0.00000000000E+00  0.00000000000E+00  0.24635175503E+03  0.27625045267E+03  0.12500050159E+03 0.  0.
    9000005    1    3    3    0    0 -0.36604540015E+02  0.25636624843E+02  0.21971376236E+03  0.22421477706E+03  0.10000000000E+01 0.  0.
    9000005    1    3    3    0    0  0.36604540015E+02 -0.25636624843E+02  0.26637992672E+02  0.52035675614E+02  0.10000000000E+01 0.  0.
<mgrwt>
<rscale>  0 0.12500050E+03</rscale>
<asrwt>0</asrwt>
<pdfrwt beam="1">  1        4 0.40200171E-01 0.12500050E+03</pdfrwt>
<pdfrwt beam="2">  1       -4 0.22998998E-02 0.12500050E+03</pdfrwt>
<totfact> 0.78677029E+03</totfact>
</mgrwt>
</event>
<event>
 5    1  0.3241863E-002  0.1250006E+03  0.7818608E-02  0.1235068E+00
         -4   -1    0    0    0  501 -0.00000000000E+00  0.00000000000E+00  0.97098800365E+02  0.97107105468E+02  0.12700000000E+01 0.  1.
          4   -1    0    0  501    0  0.00000000000E+00 -0.00000000000E+00 -0.40209997672E+02  0.40230048630E+02  0.12700000000E+01 0.  1.
         25    2    1    2    0    0  0.00000000000E+00  0.00000000000E+00  0.56888802694E+02  0.13733715410E+03  0.12500063209E+03 0.  0.
    9000005    1    3    3    0    0 -0.52915450131E+02 -0.27175356229E+02  0.74038201293E+01  0.59952993263E+02  0.10000000000E+01 0.  0.
    9000005    1    3    3    0    0  0.52915450131E+02  0.27175356229E+02  0.49484982564E+02  0.77384160835E+02  0.10000000000E+01 0.  0.
<mgrwt>
<rscale>  0 0.12500063E+03</rscale>
<asrwt>0</asrwt>
<pdfrwt beam="2">  1        4 0.61883348E-02 0.12500063E+03</pdfrwt>
<pdfrwt beam="1">  1       -4 0.14940458E-01 0.12500063E+03</pdfrwt>
<totfact> 0.10188896E+04</totfact>
</mgrwt>
</event>
<event>
 5    1  0.3241863E-002  0.1249987E+03  0.7818608E-02  0.1235071E+00
          4   -1    0    0  501    0  0.00000000000E+00  0.00000000000E+00  0.48172115879E+02  0.48188853983E+02  0.12700000000E+01 0.  1.
         -4   -1    0    0    0  501 -0.00000000000E+00 -0.00000000000E+00 -0.81051939918E+02  0.81061889100E+02  0.12700000000E+01 0.  1.
         25    2    1    2    0    0  0.00000000000E+00  0.00000000000E+00 -0.32879824039E+02  0.12925074308E+03  0.12499868703E+03 0.  0.
    9000005    1    3    3    0    0 -0.58640510702E+02 -0.15143262114E+02 -0.51672275623E+00  0.60574704995E+02  0.10000000000E+01 0.  0.
    9000005    1    3    3    0    0  0.58640510702E+02  0.15143262114E+02 -0.32363101283E+02  0.68676038088E+02  0.10000000000E+01 0.  0.
<mgrwt>
<rscale>  0 0.12499869E+03</rscale>
<asrwt>0</asrwt>
<pdfrwt beam="1">  1        4 0.74131476E-02 0.12499869E+03</pdfrwt>
<pdfrwt beam="2">  1       -4 0.12471582E-01 0.12499869E+03</pdfrwt>
<totfact> 0.10360869E+04</totfact>
</mgrwt>
</event>
<event>
 5    1  0.3241863E-002  0.1250001E+03  0.7818608E-02  0.1235069E+00
         -4   -1    0    0    0  501 -0.00000000000E+00  0.00000000000E+00  0.26718662306E+03  0.26718964134E+03  0.12700000000E+01 0.  1.
          4   -1    0    0  501    0  0.00000000000E+00 -0.00000000000E+00 -0.14589268711E+02  0.14644441318E+02  0.12700000000E+01 0.  1.
         25    2    1    2    0    0  0.00000000000E+00  0.00000000000E+00  0.25259735434E+03  0.28183408266E+03  0.12500010690E+03 0.  0.
    9000005    1    3    3    0    0  0.18310035226E+02  0.10944875098E+02  0.25873460831E+03  0.25961441643E+03  0.10000000000E+01 0.  0.
    9000005    1    3    3    0    0 -0.18310035226E+02 -0.10944875098E+02 -0.61372539685E+01  0.22219666225E+02  0.10000000000E+01 0.  0.
<mgrwt>
<rscale>  0 0.12500011E+03</rscale>
<asrwt>0</asrwt>
<pdfrwt beam="2">  1        4 0.22489792E-02 0.12500011E+03</pdfrwt>
<pdfrwt beam="1">  1       -4 0.41110108E-01 0.12500011E+03</pdfrwt>
<totfact> 0.77935362E+03</totfact>
</mgrwt>
</event>
<event>
 5    1  0.3241863E-002  0.1250044E+03  0.7818608E-02  0.1235062E+00
          4   -1    0    0  501    0  0.00000000000E+00  0.00000000000E+00  0.66682880327E+01  0.67881488852E+01  0.12700000000E+01 0.  1.
         -4   -1    0    0    0  501 -0.00000000000E+00 -0.00000000000E+00 -0.58049744599E+03  0.58049883523E+03  0.12700000000E+01 0.  1.
         25    2    1    2    0    0  0.00000000000E+00  0.00000000000E+00 -0.57382915796E+03  0.58728698412E+03  0.12500439667E+03 0.  0.
    9000005    1    3    3    0    0  0.13018283984E+02 -0.25981187792E+02 -0.26983227550E+02  0.39668531685E+02  0.10000000000E+01 0.  0.
    9000005    1    3    3    0    0 -0.13018283984E+02  0.25981187792E+02 -0.54684593041E+03  0.54761845243E+03  0.10000000000E+01 0.  0.
<mgrwt>
<rscale>  0 0.12500440E+03</rscale>
<asrwt>0</asrwt>
<pdfrwt beam="1">  1        4 0.10352179E-02 0.12500440E+03</pdfrwt>
<pdfrwt beam="2">  1       -4 0.89316587E-01 0.12500440E+03</pdfrwt>
<totfact> 0.49675278E+03</totfact>
</mgrwt>
</event>
<event>
 5    1  0.3241863E-002  0.1249868E+03  0.7818608E-02  0.1235090E+00
         -4   -1    0    0    0  501 -0.00000000000E+00  0.00000000000E+00  0.58499806718E+03  0.58499944573E+03  0.12700000000E+01 0. -1.
          4   -1    0    0  501    0  0.00000000000E+00 -0.00000000000E+00 -0.66141644450E+01  0.67349885898E+01  0.12700000000E+01 0. -1.
         25    2    1    2    0    0  0.00000000000E+00  0.00000000000E+00  0.57838390274E+03  0.59173443432E+03  0.12498680657E+03 0.  0.
    9000005    1    3    3    0    0 -0.13190838103E+02  0.27223425903E+02  0.54804203946E+03  0.54887720862E+03  0.10000000000E+01 0.  0.
    9000005    1    3    3    0    0  0.13190838103E+02 -0.27223425903E+02  0.30341863281E+02  0.42857225705E+02  0.10000000000E+01 0.  0.
<mgrwt>
<rscale>  0 0.12498681E+03</rscale>
<asrwt>0</asrwt>
<pdfrwt beam="2">  1        4 0.10269637E-02 0.12498681E+03</pdfrwt>
<pdfrwt beam="1">  1       -4 0.90009127E-01 0.12498681E+03</pdfrwt>
<totfact> 0.49407833E+03</totfact>
</mgrwt>
</event>
<event>
 5    1  0.3241863E-002  0.1249976E+03  0.7818608E-02  0.1235073E+00
          4   -1    0    0  501    0  0.00000000000E+00  0.00000000000E+00  0.32164923840E+02  0.32189986418E+02  0.12700000000E+01 0.  1.
         -4   -1    0    0    0  501 -0.00000000000E+00 -0.00000000000E+00 -0.12136413321E+03  0.12137077791E+03  0.12700000000E+01 0.  1.
         25    2    1    2    0    0  0.00000000000E+00  0.00000000000E+00 -0.89199209371E+02  0.15356076433E+03  0.12499763753E+03 0.  0.
    9000005    1    3    3    0    0 -0.13836778719E+02 -0.46861951395E+02 -0.92457942129E+02  0.10457996938E+03  0.10000000000E+01 0.  0.
    9000005    1    3    3    0    0  0.13836778719E+02  0.46861951395E+02  0.32587327580E+01  0.48980794941E+02  0.10000000000E+01 0.  0.
<mgrwt>
<rscale>  0 0.12499764E+03</rscale>
<asrwt>0</asrwt>
<pdfrwt beam="1">  1        4 0.49508889E-02 0.12499764E+03</pdfrwt>
<pdfrwt beam="2">  1       -4 0.18673844E-01 0.12499764E+03</pdfrwt>
<totfact> 0.98603831E+03</totfact>
</mgrwt>
</event>
<event>
 5    1  0.3241863E-002  0.1249935E+03  0.7818608E-02  0.1235079E+00
          4   -1    0    0  501    0  0.00000000000E+00  0.00000000000E+00  0.49354205693E+02  0.49370543035E+02  0.12700000000E+01 0.  1.
         -4   -1    0    0    0  501 -0.00000000000E+00 -0.00000000000E+00 -0.79104518329E+02  0.79114712413E+02  0.12700000000E+01 0.  1.
         25    2    1    2    0    0  0.00000000000E+00  0.00000000000E+00 -0.29750312636E+02  0.12848525545E+03  0.12499351889E+03 0.  0.
    9000005    1    3    3    0    0  0.35332216183E+02 -0.51492639195E+02 -0.17170826082E+02  0.64774182049E+02  0.10000000000E+01 0.  0.
    9000005    1    3    3    0    0 -0.35332216183E+02  0.51492639195E+02 -0.12579486554E+02  0.63711073399E+02  0.10000000000E+01 0.  0.
<mgrwt>
<rscale>  0 0.12499352E+03</rscale>
<asrwt>0</asrwt>
<pdfrwt beam="1">  1        4 0.75949956E-02 0.12499352E+03</pdfrwt>
<pdfrwt beam="2">  1       -4 0.12171967E-01 0.12499352E+03</pdfrwt>
<totfact> 0.10378540E+04</totfact>
</mgrwt>
</event>
<event>
 5    1  0.3241863E-002  0.1249966E+03  0.7818608E-02  0.1235075E+00
          4   -1    0    0  501    0  0.00000000000E+00  0.00000000000E+00  0.22524473817E+02  0.22560248685E+02  0.12700000000E+01 0. -1.
         -4   -1    0    0    0  501 -0.00000000000E+00 -0.00000000000E+00 -0.17323745994E+03  0.17324211504E+03  0.12700000000E+01 0. -1.
         25    2    1    2    0    0  0.00000000000E+00  0.00000000000E+00 -0.15071298612E+03  0.19580236373E+03  0.12499664578E+03 0.  0.
    9000005    1    3    3    0    0 -0.59137763073E+02 -0.19964588883E+02 -0.70610211091E+02  0.94247873933E+02  0.10000000000E+01 0.  0.
    9000005    1    3    3    0    0  0.59137763073E+02  0.19964588883E+02 -0.80102775028E+02  0.10155448980E+03  0.10000000000E+01 0.  0.
<mgrwt>
<rscale>  0 0.12499665E+03</rscale>
<asrwt>0</asrwt>
<pdfrwt beam="1">  1        4 0.34684138E-02 0.12499665E+03</pdfrwt>
<pdfrwt beam="2">  1       -4 0.26655026E-01 0.12499665E+03</pdfrwt>
<totfact> 0.90854232E+03</totfact>
</mgrwt>
</event>
<event>
 5    1  0.3241863E-002  0.1250058E+03  0.7818608E-02  0.1235060E+00
         -4   -1    0    0    0  501 -0.00000000000E+00  0.00000000000E+00  0.80845920620E+01  0.81837356268E+01  0.12700000000E+01 0. -1.
          4   -1    0    0  501    0  0.00000000000E+00 -0.00000000000E+00 -0.48017235189E+03  0.48017403139E+03  0.12700000000E+01 0. -1.
         25    2    1    2    0    0  0.00000000000E+00  0.00000000000E+00 -0.47208775983E+03  0.48835776702E+03  0.12500582236E+03 0.  0.
    9000005    1    3    3    0    0  0.52972926580E+02  0.32053492025E+02 -0.26920618841E+03  0.27623636470E+03  0.10000000000E+01 0.  0.
    9000005    1    3    3    0    0 -0.52972926580E+02 -0.32053492025E+02 -0.20288157142E+03  0.21212140232E+03  0.10000000000E+01 0.  0.
<mgrwt>
<rscale>  0 0.12500582E+03</rscale>
<asrwt>0</asrwt>
<pdfrwt beam="2">  1        4 0.73880403E-01 0.12500582E+03</pdfrwt>
<pdfrwt beam="1">  1       -4 0.12515394E-02 0.12500582E+03</pdfrwt>
<totfact> 0.56771850E+03</totfact>
</mgrwt>
</event>
<event>
 5    1  0.3241863E-002  0.1250020E+03  0.7818608E-02  0.1235066E+00
          4   -1    0    0  501    0  0.00000000000E+00  0.00000000000E+00  0.12318373344E+02  0.12383667544E+02  0.12700000000E+01 0. -1.
         -4   -1    0    0    0  501 -0.00000000000E+00 -0.00000000000E+00 -0.31621317637E+03  0.31621572669E+03  0.12700000000E+01 0. -1.
         25    2    1    2    0    0  0.00000000000E+00  0.00000000000E+00 -0.30389480302E+03  0.32859939424E+03  0.12500204234E+03 0.  0.
    9000005    1    3    3    0    0 -0.30427978366E+02  0.19150620124E+02 -0.28631674676E+03  0.28856695513E+03  0.10000000000E+01 0.  0.
    9000005    1    3    3    0    0  0.30427978366E+02 -0.19150620124E+02 -0.17578056258E+02  0.40032439101E+02  0.10000000000E+01 0.  0.
<mgrwt>
<rscale>  0 0.12500204E+03</rscale>
<asrwt>0</asrwt>
<pdfrwt beam="1">  1        4 0.19003534E-02 0.12500204E+03</pdfrwt>
<pdfrwt beam="2">  1       -4 0.48653394E-01 0.12500204E+03</pdfrwt>
<totfact> 0.72141619E+03</totfact>
</mgrwt>
</event>
<event>
 5    1  0.3241863E-002  0.1249981E+03  0.7818608E-02  0.1235072E+00
          4   -1    0    0  501    0  0.00000000000E+00  0.00000000000E+00  0.12962688787E+02  0.13024753379E+02  0.12700000000E+01 0. -1.
         -4   -1    0    0    0  501 -0.00000000000E+00 -0.00000000000E+00 -0.30055361119E+03  0.30055629440E+03  0.12700000000E+01 0. -1.
         25    2    1    2    0    0  0.00000000000E+00  0.00000000000E+00 -0.28759092241E+03  0.31358104778E+03  0.12499813948E+03 0.  0.
    9000005    1    3    3    0    0  0.42102517604E+02  0.45847869575E+02 -0.15764662941E+03  0.16949368394E+03  0.10000000000E+01 0.  0.
    9000005    1    3    3    0    0 -0.42102517604E+02 -0.45847869575E+02 -0.12994429300E+03  0.14408736383E+03  0.10000000000E+01 0.  0.
<mgrwt>
<rscale>  0 0.12499814E+03</rscale>
<asrwt>0</asrwt>
<pdfrwt beam="1">  1        4 0.19992406E-02 0.12499814E+03</pdfrwt>
<pdfrwt beam="2">  1       -4 0.46243992E-01 0.12499814E+03</pdfrwt>
<totfact> 0.73929187E+03</totfact>
</mgrwt>
</event>
<event>
 5    1  0.3241863E-002  0.1250004E+03  0.7818608E-02  0.1235069E+00
          4   -1    0    0  501    0  0.00000000000E+00  0.00000000000E+00  0.68216006371E+02  0.68227827352E+02  0.12700000000E+01 0.  1.
         -4   -1    0    0    0  501 -0.00000000000E+00 -0.00000000000E+00 -0.57239467731E+02  0.57253555052E+02  0.12700000000E+01 0.  1.
         25    2    1    2    0    0  0.00000000000E+00  0.00000000000E+00  0.10976538640E+02  0.12548138240E+03  0.12500037172E+03 0.  0.
    9000005    1    3    3    0    0  0.42662519141E+02  0.45250000582E+02 -0.66885887664E+00  0.62202093729E+02  0.10000000000E+01 0.  0.
    9000005    1    3    3    0    0 -0.42662519141E+02 -0.45250000582E+02  0.11645397517E+02  0.63279288676E+02  0.10000000000E+01 0.  0.
<mgrwt>
<rscale>  0 0.12500037E+03</rscale>
<asrwt>0</asrwt>
<pdfrwt beam="1">  1        4 0.10496763E-01 0.12500037E+03</pdfrwt>
<pdfrwt beam="2">  1       -4 0.88080649E-02 0.12500037E+03</pdfrwt>
<totfact> 0.10442278E+04</totfact>
</mgrwt>
</event>
<event>
 5    1  0.3241863E-002  0.1250005E+03  0.7818608E-02  0.1235069E+00
          4   -1    0    0  501    0  0.00000000000E+00  0.00000000000E+00  0.19299605421E+03  0.19300023275E+03  0.12700000000E+01 0.  1.
         -4   -1    0    0    0  501 -0.00000000000E+00 -0.00000000000E+00 -0.20215878041E+02  0.20255730669E+02  0.12700000000E+01 0.  1.
         25    2    1    2    0    0  0.00000000000E+00  0.00000000000E+00  0.17278017617E+03  0.21325596342E+03  0.12500046662E+03 0.  0.
    9000005    1    3    3    0    0  0.35914470984E+02 -0.47919016182E+02  0.11687040742E+03  0.13132316425E+03  0.10000000000E+01 0.  0.
    9000005    1    3    3    0    0 -0.35914470984E+02  0.47919016182E+02  0.55909768750E+02  0.81932799168E+02  0.10000000000E+01 0.  0.
<mgrwt>
<rscale>  0 0.12500047E+03</rscale>
<asrwt>0</asrwt>
<pdfrwt beam="1">  1        4 0.29695086E-01 0.12500047E+03</pdfrwt>
<pdfrwt beam="2">  1       -4 0.31135223E-02 0.12500047E+03</pdfrwt>
<totfact> 0.87945969E+03</totfact>
</mgrwt>
</event>
<event>
 5    1  0.3241863E-002  0.1249983E+03  0.7818608E-02  0.1235072E+00
         -4   -1    0    0    0  501 -0.00000000000E+00  0.00000000000E+00  0.38056270819E+03  0.38056482728E+03  0.12700000000E+01 0. -1.
          4   -1    0    0  501    0  0.00000000000E+00 -0.00000000000E+00 -0.10222693061E+02  0.10301279213E+02  0.12700000000E+01 0. -1.
         25    2    1    2    0    0  0.00000000000E+00  0.00000000000E+00  0.37034001513E+03  0.39086610650E+03  0.12499834560E+03 0.  0.
    9000005    1    3    3    0    0 -0.61342809723E+02  0.30613360449E+01  0.22120954587E+03  0.22957999753E+03  0.10000000000E+01 0.  0.
    9000005    1    3    3    0    0  0.61342809723E+02 -0.30613360449E+01  0.14913046926E+03  0.16128610897E+03  0.10000000000E+01 0.  0.
<mgrwt>
<rscale>  0 0.12499835E+03</rscale>
<asrwt>0</asrwt>
<pdfrwt beam="2">  1        4 0.15789300E-02 0.12499835E+03</pdfrwt>
<pdfrwt beam="1">  1       -4 0.58554321E-01 0.12499835E+03</pdfrwt>
<totfact> 0.65453329E+03</totfact>
</mgrwt>
</event>
<event>
 5    1  0.3241863E-002  0.1249993E+03  0.7818608E-02  0.1235070E+00
          4   -1    0    0  501    0  0.00000000000E+00  0.00000000000E+00  0.11037241446E+02  0.11110067449E+02  0.12700000000E+01 0. -1.
         -4   -1    0    0    0  501 -0.00000000000E+00 -0.00000000000E+00 -0.35267386541E+03  0.35267615208E+03  0.12700000000E+01 0. -1.
         25    2    1    2    0    0  0.00000000000E+00  0.00000000000E+00 -0.34163662396E+03  0.36378621952E+03  0.12499932273E+03 0.  0.
    9000005    1    3    3    0    0  0.58431816258E+02 -0.14026684884E+01 -0.23517246819E+03  0.24232897975E+03  0.10000000000E+01 0.  0.
    9000005    1    3    3    0    0 -0.58431816258E+02  0.14026684884E+01 -0.10646415577E+03  0.12145723978E+03  0.10000000000E+01 0.  0.
<mgrwt>
<rscale>  0 0.12499932E+03</rscale>
<asrwt>0</asrwt>
<pdfrwt beam="1">  1        4 0.17038153E-02 0.12499932E+03</pdfrwt>
<pdfrwt beam="2">  1       -4 0.54263287E-01 0.12499932E+03</pdfrwt>
<totfact> 0.68235090E+03</totfact>
</mgrwt>
</event>
<event>
 5    1  0.3241863E-002  0.1249980E+03  0.7818608E-02  0.1235072E+00
          4   -1    0    0  501    0  0.00000000000E+00  0.00000000000E+00  0.14296945316E+02  0.14353241633E+02  0.12700000000E+01 0.  1.
         -4   -1    0    0    0  501 -0.00000000000E+00 -0.00000000000E+00 -0.27261927647E+03  0.27262223461E+03  0.12700000000E+01 0.  1.
         25    2    1    2    0    0  0.00000000000E+00  0.00000000000E+00 -0.25832233116E+03  0.28697547624E+03  0.12499798875E+03 0.  0.
    9000005    1    3    3    0    0  0.11252663647E+02  0.40636745561E+02 -0.23274442268E+02  0.48173303725E+02  0.10000000000E+01 0.  0.
    9000005    1    3    3    0    0 -0.11252663647E+02 -0.40636745561E+02 -0.23504788889E+03  0.23880217252E+03  0.10000000000E+01 0.  0.
<mgrwt>
<rscale>  0 0.12499799E+03</rscale>
<asrwt>0</asrwt>
<pdfrwt beam="1">  1        4 0.22040883E-02 0.12499799E+03</pdfrwt>
<pdfrwt beam="2">  1       -4 0.41945981E-01 0.12499799E+03</pdfrwt>
<totfact> 0.77265661E+03</totfact>
</mgrwt>
</event>
<event>
 5    1  0.3241863E-002  0.1250014E+03  0.7818608E-02  0.1235067E+00
         -4   -1    0    0    0  501 -0.00000000000E+00  0.00000000000E+00  0.26149173619E+02  0.26179995816E+02  0.12700000000E+01 0.  1.
          4   -1    0    0  501    0  0.00000000000E+00 -0.00000000000E+00 -0.14926504992E+03  0.14927045263E+03  0.12700000000E+01 0.  1.
         25    2    1    2    0    0  0.00000000000E+00  0.00000000000E+00 -0.12311587630E+03  0.17545044844E+03  0.12500136344E+03 0.  0.
    9000005    1    3    3    0    0  0.33762168065E+02  0.20450602161E+02 -0.12955920597E+03  0.13544260398E+03  0.10000000000E+01 0.  0.
    9000005    1    3    3    0    0 -0.33762168065E+02 -0.20450602161E+02  0.64433296715E+01  0.40007844461E+02  0.10000000000E+01 0.  0.
<mgrwt>
<rscale>  0 0.12500136E+03</rscale>
<asrwt>0</asrwt>
<pdfrwt beam="2">  1        4 0.22966640E-01 0.12500136E+03</pdfrwt>
<pdfrwt beam="1">  1       -4 0.40257364E-02 0.12500136E+03</pdfrwt>
<totfact> 0.94439518E+03</totfact>
</mgrwt>
</event>
<event>
 5    1  0.3241863E-002  0.1249986E+03  0.7818608E-02  0.1235071E+00
         -4   -1    0    0    0  501 -0.00000000000E+00  0.00000000000E+00  0.76707011524E+03  0.76707116658E+03  0.12700000000E+01 0.  1.
          4   -1    0    0  501    0  0.00000000000E+00 -0.00000000000E+00 -0.50120627667E+01  0.51704616020E+01  0.12700000000E+01 0.  1.
         25    2    1    2    0    0  0.00000000000E+00  0.00000000000E+00  0.76205805247E+03  0.77224162818E+03  0.12499862781E+03 0.  0.
    9000005    1    3    3    0    0 -0.55295787245E+02 -0.16080964725E+02  0.53095762912E+03  0.53407230357E+03  0.10000000000E+01 0.  0.
    9000005    1    3    3    0    0  0.55295787245E+02  0.16080964725E+02  0.23110042335E+03  0.23816932461E+03  0.10000000000E+01 0.  0.
<mgrwt>
<rscale>  0 0.12499863E+03</rscale>
<asrwt>0</asrwt>
<pdfrwt beam="2">  1        4 0.78335225E-03 0.12499863E+03</pdfrwt>
<pdfrwt beam="1">  1       -4 0.11802301E+00 0.12499863E+03</pdfrwt>
<totfact> 0.39533418E+03</totfact>
</mgrwt>
</event>
<event>
 5    1  0.3241863E-002  0.1250027E+03  0.7818608E-02  0.1235065E+00
          4   -1    0    0  501    0  0.00000000000E+00  0.00000000000E+00  0.42990330105E+02  0.43009084884E+02  0.12700000000E+01 0.  1.
         -4   -1    0    0    0  501 -0.00000000000E+00 -0.00000000000E+00 -0.90824375586E+02  0.90833254376E+02  0.12700000000E+01 0.  1.
         25    2    1    2    0    0  0.00000000000E+00  0.00000000000E+00 -0.47834045481E+02  0.13384233926E+03  0.12500270346E+03 0.  0.
    9000005    1    3    3    0    0  0.31218664598E+02 -0.17980741670E+02 -0.78591777552E+02  0.86461434114E+02  0.10000000000E+01 0.  0.
    9000005    1    3    3    0    0 -0.31218664598E+02  0.17980741670E+02  0.30757732070E+02  0.47380905146E+02  0.10000000000E+01 0.  0.
<mgrwt>
<rscale>  0 0.12500270E+03</rscale>
<asrwt>0</asrwt>
<pdfrwt beam="1">  1        4 0.66160226E-02 0.12500270E+03</pdfrwt>
<pdfrwt beam="2">  1       -4 0.13975106E-01 0.12500270E+03</pdfrwt>
<totfact> 0.10261904E+04</totfact>
</mgrwt>
</event>
<event>
 5    1  0.3241863E-002  0.1250055E+03  0.7818608E-02  0.1235061E+00
         -4   -1    0    0    0  501 -0.00000000000E+00  0.00000000000E+00  0.18862826513E+02  0.18905531573E+02  0.12700000000E+01 0.  1.
          4   -1    0    0  501    0  0.00000000000E+00 -0.00000000000E+00 -0.20682664622E+03  0.20683054534E+03  0.12700000000E+01 0.  1.
         25    2    1    2    0    0  0.00000000000E+00  0.00000000000E+00 -0.18796381971E+03  0.22573607692E+03  0.12500551549E+03 0.  0.
    9000005    1    3    3    0    0  0.58723348252E+02 -0.19176120450E+02 -0.11105988902E+03  0.12708837151E+03  0.10000000000E+01 0.  0.
    9000005    1    3    3    0    0 -0.58723348252E+02  0.19176120450E+02 -0.76903930688E+02  0.98647705401E+02  0.10000000000E+01 0.  0.
<mgrwt>
<rscale>  0 0.12500552E+03</rscale>
<asrwt>0</asrwt>
<pdfrwt beam="2">  1        4 0.31823067E-01 0.12500552E+03</pdfrwt>
<pdfrwt beam="1">  1       -4 0.29055584E-02 0.12500552E+03</pdfrwt>
<totfact> 0.85958074E+03</totfact>
</mgrwt>
</event>
<event>
 5    1  0.3241863E-002  0.1249991E+03  0.7818608E-02  0.1235071E+00
          4   -1    0    0  501    0  0.00000000000E+00  0.00000000000E+00  0.20987792577E+03  0.20988176821E+03  0.12700000000E+01 0. -1.
         -4   -1    0    0    0  501 -0.00000000000E+00 -0.00000000000E+00 -0.18586056510E+02  0.18629396034E+02  0.12700000000E+01 0. -1.
         25    2    1    2    0    0  0.00000000000E+00  0.00000000000E+00  0.19129186926E+03  0.22851116424E+03  0.12499909175E+03 0.  0.
    9000005    1    3    3    0    0  0.43774111454E+02  0.24595104268E+02  0.16365777010E+03  0.17118982944E+03  0.10000000000E+01 0.  0.
    9000005    1    3    3    0    0 -0.43774111454E+02 -0.24595104268E+02  0.27634099158E+02  0.57321334805E+02  0.10000000000E+01 0.  0.
<mgrwt>
<rscale>  0 0.12499909E+03</rscale>
<asrwt>0</asrwt>
<pdfrwt beam="1">  1        4 0.32292540E-01 0.12499909E+03</pdfrwt>
<pdfrwt beam="2">  1       -4 0.28630228E-02 0.12499909E+03</pdfrwt>
<totfact> 0.85540468E+03</totfact>
</mgrwt>
</event>
<event>
 5    1  0.3241863E-002  0.1250008E+03  0.7818608E-02  0.1235068E+00
          4   -1    0    0  501    0  0.00000000000E+00  0.00000000000E+00  0.80045437782E+02  0.80055512051E+02  0.12700000000E+01 0. -1.
         -4   -1    0    0    0  501 -0.00000000000E+00 -0.00000000000E+00 -0.48779589139E+02  0.48796118868E+02  0.12700000000E+01 0. -1.
         25    2    1    2    0    0  0.00000000000E+00  0.00000000000E+00  0.31265848644E+02  0.12885163092E+03  0.12500075799E+03 0.  0.
    9000005    1    3    3    0    0  0.17569109380E+02 -0.22702289605E+02  0.72851799927E+02  0.78309975803E+02  0.10000000000E+01 0.  0.
    9000005    1    3    3    0    0 -0.17569109380E+02  0.22702289605E+02 -0.41585951283E+02  0.50541655116E+02  0.10000000000E+01 0.  0.
<mgrwt>
<rscale>  0 0.12500076E+03</rscale>
<asrwt>0</asrwt>
<pdfrwt beam="1">  1        4 0.12316729E-01 0.12500076E+03</pdfrwt>
<pdfrwt beam="2">  1       -4 0.75065987E-02 0.12500076E+03</pdfrwt>
<totfact> 0.10368959E+04</totfact>
</mgrwt>
</event>
<event>
 5    1  0.3241863E-002  0.1250015E+03  0.7818608E-02  0.1235067E+00
         -4   -1    0    0    0  501 -0.00000000000E+00  0.00000000000E+00  0.28677783006E+03  0.28678064215E+03  0.12700000000E+01 0.  1.
          4   -1    0    0  501    0  0.00000000000E+00 -0.00000000000E+00 -0.13589002743E+02  0.13648219501E+02  0.12700000000E+01 0.  1.
         25    2    1    2    0    0  0.00000000000E+00  0.00000000000E+00  0.27318882731E+03  0.30042886165E+03  0.12500146217E+03 0.  0.
    9000005    1    3    3    0    0 -0.60342070190E+02 -0.64289576899E+00  0.17562752734E+03  0.18570839267E+03  0.10000000000E+01 0.  0.
    9000005    1    3    3    0    0  0.60342070190E+02  0.64289576899E+00  0.97561299975E+02  0.11472046898E+03  0.10000000000E+01 0.  0.
<mgrwt>
<rscale>  0 0.12500146E+03</rscale>
<asrwt>0</asrwt>
<pdfrwt beam="2">  1        4 0.20953873E-02 0.12500146E+03</pdfrwt>
<pdfrwt beam="1">  1       -4 0.44124436E-01 0.12500146E+03</pdfrwt>
<totfact> 0.75542622E+03</totfact>
</mgrwt>
</event>
<event>
 5    1  0.3241863E-002  0.1250002E+03  0.7818608E-02  0.1235069E+00
         -4   -1    0    0    0  501 -0.00000000000E+00  0.00000000000E+00  0.62669162292E+01  0.63943052026E+01  0.12700000000E+01 0. -1.
          4   -1    0    0  501    0  0.00000000000E+00 -0.00000000000E+00 -0.61691542283E+03  0.61691673006E+03  0.12700000000E+01 0. -1.
         25    2    1    2    0    0  0.00000000000E+00  0.00000000000E+00 -0.61064850660E+03  0.62331103526E+03  0.12500019226E+03 0.  0.
    9000005    1    3    3    0    0  0.10780811211E+02 -0.52359449441E+02 -0.46671408292E+03  0.46976672193E+03  0.10000000000E+01 0.  0.
    9000005    1    3    3    0    0 -0.10780811211E+02  0.52359449441E+02 -0.14393442368E+03  0.15354431333E+03  0.10000000000E+01 0.  0.
<mgrwt>
<rscale>  0 0.12500019E+03</rscale>
<asrwt>0</asrwt>
<pdfrwt beam="2">  1        4 0.94919918E-01 0.12500019E+03</pdfrwt>
<pdfrwt beam="1">  1       -4 0.97404115E-03 0.12500019E+03</pdfrwt>
<totfact> 0.47428272E+03</totfact>
</mgrwt>
</event>
<event>
 5    1  0.3241863E-002  0.1250111E+03  0.7818608E-02  0.1235052E+00
          4   -1    0    0  501    0  0.00000000000E+00  0.00000000000E+00  0.38868791831E+01  0.40890988963E+01  0.12700000000E+01 0. -1.
         -4   -1    0    0    0  501 -0.00000000000E+00 -0.00000000000E+00 -0.97947529033E+03  0.97947611368E+03  0.12700000000E+01 0. -1.
         25    2    1    2    0    0  0.00000000000E+00  0.00000000000E+00 -0.97558841115E+03  0.98356521258E+03  0.12501111720E+03 0.  0.
    9000005    1    3    3    0    0  0.68143816870E+01  0.41670408519E+02 -0.85031951192E+03  0.85136780013E+03  0.10000000000E+01 0.  0.
    9000005    1    3    3    0    0 -0.68143816870E+01 -0.41670408519E+02 -0.12526889922E+03  0.13219741244E+03  0.10000000000E+01 0.  0.
<mgrwt>
<rscale>  0 0.12501112E+03</rscale>
<asrwt>0</asrwt>
<pdfrwt beam="1">  1        4 0.61360089E-03 0.12501112E+03</pdfrwt>
<pdfrwt beam="2">  1       -4 0.15070393E+00 0.12501112E+03</pdfrwt>
<totfact> 0.31145918E+03</totfact>
</mgrwt>
</event>
<event>
 5    1  0.3241863E-002  0.1249970E+03  0.7818608E-02  0.1235074E+00
         -4   -1    0    0    0  501 -0.00000000000E+00  0.00000000000E+00  0.33187737341E+03  0.33187980336E+03  0.12700000000E+01 0.  1.
          4   -1    0    0  501    0  0.00000000000E+00 -0.00000000000E+00 -0.11732862981E+02  0.11801397110E+02  0.12700000000E+01 0.  1.
         25    2    1    2    0    0  0.00000000000E+00  0.00000000000E+00  0.32014451043E+03  0.34368120047E+03  0.12499703997E+03 0.  0.
    9000005    1    3    3    0    0 -0.57125968493E+01 -0.45165453048E+02  0.42371407543E+02  0.62200386566E+02  0.10000000000E+01 0.  0.
    9000005    1    3    3    0    0  0.57125968493E+01  0.45165453048E+02  0.27777310288E+03  0.28148081391E+03  0.10000000000E+01 0.  0.
<mgrwt>
<rscale>  0 0.12499704E+03</rscale>
<asrwt>0</asrwt>
<pdfrwt beam="2">  1        4 0.18105144E-02 0.12499704E+03</pdfrwt>
<pdfrwt beam="1">  1       -4 0.51063522E-01 0.12499704E+03</pdfrwt>
<totfact> 0.70429950E+03</totfact>
</mgrwt>
</event>
<event>
 5    1  0.3241863E-002  0.1249994E+03  0.7818608E-02  0.1235070E+00
          4   -1    0    0  501    0  0.00000000000E+00  0.00000000000E+00  0.61444806365E+03  0.61444937613E+03  0.12700000000E+01 0. -1.
         -4   -1    0    0    0  501 -0.00000000000E+00 -0.00000000000E+00 -0.62925062840E+01  0.64193874578E+01  0.12700000000E+01 0. -1.
         25    2    1    2    0    0  0.00000000000E+00  0.00000000000E+00  0.60815555737E+03  0.62086876359E+03  0.12499935856E+03 0.  0.
    9000005    1    3    3    0    0  0.21583337268E+02  0.58613978100E+02  0.29443233423E+03  0.30098644209E+03  0.10000000000E+01 0.  0.
    9000005    1    3    3    0    0 -0.21583337268E+02 -0.58613978100E+02  0.31372322313E+03  0.31988232150E+03  0.10000000000E+01 0.  0.
<mgrwt>
<rscale>  0 0.12499936E+03</rscale>
<asrwt>0</asrwt>
<pdfrwt beam="1">  1        4 0.94540354E-01 0.12499936E+03</pdfrwt>
<pdfrwt beam="2">  1       -4 0.97793872E-03 0.12499936E+03</pdfrwt>
<totfact> 0.47576925E+03</totfact>
</mgrwt>
</event>
<event>
 5    1  0.3241863E-002  0.1250011E+03  0.7818608E-02  0.1235068E+00
          4   -1    0    0  501    0  0.00000000000E+00  0.00000000000E+00  0.74533552699E+01  0.75607806991E+01  0.12700000000E+01 0.  1.
         -4   -1    0    0    0  501 -0.00000000000E+00 -0.00000000000E+00 -0.52024362032E+03  0.52024517045E+03  0.12700000000E+01 0.  1.
         25    2    1    2    0    0  0.00000000000E+00  0.00000000000E+00 -0.51279026505E+03  0.52780595115E+03  0.12500106458E+03 0.  0.
    9000005    1    3    3    0    0 -0.41895759341E+02 -0.46319345262E+02 -0.26543162627E+03  0.27268238781E+03  0.10000000000E+01 0.  0.
    9000005    1    3    3    0    0  0.41895759341E+02  0.46319345262E+02 -0.24735863878E+03  0.25512356335E+03  0.10000000000E+01 0.  0.
<mgrwt>
<rscale>  0 0.12500106E+03</rscale>
<asrwt>0</asrwt>
<pdfrwt beam="1">  1        4 0.11550532E-02 0.12500106E+03</pdfrwt>
<pdfrwt beam="2">  1       -4 0.80045834E-01 0.12500106E+03</pdfrwt>
<totfact> 0.53768469E+03</totfact>
</mgrwt>
</event>
<event>
 5    1  0.3241863E-002  0.1250007E+03  0.7818608E-02  0.1235068E+00
         -4   -1    0    0    0  501 -0.00000000000E+00  0.00000000000E+00  0.36004784817E+03  0.36005008800E+03  0.12700000000E+01 0.  1.
          4   -1    0    0  501    0  0.00000000000E+00 -0.00000000000E+00 -0.10809919121E+02  0.10884266231E+02  0.12700000000E+01 0.  1.
         25    2    1    2    0    0  0.00000000000E+00  0.00000000000E+00  0.34923792905E+03  0.37093435423E+03  0.12500065626E+03 0.  0.
    9000005    1    3    3    0    0 -0.29446636561E+02  0.55055599937E+02  0.18250790189E+03  0.19289468044E+03  0.10000000000E+01 0.  0.
    9000005    1    3    3    0    0  0.29446636561E+02 -0.55055599937E+02  0.16673002716E+03  0.17803967380E+03  0.10000000000E+01 0.  0.
<mgrwt>
<rscale>  0 0.12500066E+03</rscale>
<asrwt>0</asrwt>
<pdfrwt beam="2">  1        4 0.16689560E-02 0.12500066E+03</pdfrwt>
<pdfrwt beam="1">  1       -4 0.55397861E-01 0.12500066E+03</pdfrwt>
<totfact> 0.67480323E+03</totfact>
</mgrwt>
</event>
<event>
 5    1  0.3241863E-002  0.1249984E+03  0.7818608E-02  0.1235072E+00
         -4   -1    0    0    0  501 -0.00000000000E+00  0.00000000000E+00  0.80491422469E+03  0.80491522660E+03  0.12700000000E+01 0.  1.
          4   -1    0    0  501    0  0.00000000000E+00 -0.00000000000E+00 -0.47687637680E+01  0.49349780015E+01  0.12700000000E+01 0.  1.
         25    2    1    2    0    0  0.00000000000E+00  0.00000000000E+00  0.80014546092E+03  0.80985020460E+03  0.12499838101E+03 0.  0.
    9000005    1    3    3    0    0 -0.39505767027E+02 -0.44874417354E+02  0.28224785027E+03  0.28851216256E+03  0.10000000000E+01 0.  0.
    9000005    1    3    3    0    0  0.39505767027E+02  0.44874417354E+02  0.51789761065E+03  0.52133804204E+03  0.10000000000E+01 0.  0.
<mgrwt>
<rscale>  0 0.12499838E+03</rscale>
<asrwt>0</asrwt>
<pdfrwt beam="2">  1        4 0.74651905E-03 0.12499838E+03</pdfrwt>
<pdfrwt beam="1">  1       -4 0.12384577E+00 0.12499838E+03</pdfrwt>
<totfact> 0.37830104E+03</totfact>
</mgrwt>
</event>
<event>
 5    1  0.3241863E-002  0.1249989E+03  0.7818608E-02  0.1235071E+00
          4   -1    0    0  501    0  0.00000000000E+00  0.00000000000E+00  0.24887510534E+02  0.24919893270E+02  0.12700000000E+01 0.  1.
         -4   -1    0    0    0  501 -0.00000000000E+00 -0.00000000000E+00 -0.15681655867E+03  0.15682170122E+03  0.12700000000E+01 0.  1.
         25    2    1    2    0    0  0.00000000000E+00  0.00000000000E+00 -0.13192904814E+03  0.18174159449E+03  0.12499893370E+03 0.  0.
    9000005    1    3    3    0    0 -0.14774568281E+02 -0.52929479813E+02 -0.22702248317E+02  0.59466038878E+02  0.10000000000E+01 0.  0.
    9000005    1    3    3    0    0  0.14774568281E+02  0.52929479813E+02 -0.10922679982E+03  0.12227555561E+03  0.10000000000E+01 0.  0.
<mgrwt>
<rscale>  0 0.12499893E+03</rscale>
<asrwt>0</asrwt>
<pdfrwt beam="1">  1        4 0.38317344E-02 0.12499893E+03</pdfrwt>
<pdfrwt beam="2">  1       -4 0.24128510E-01 0.12499893E+03</pdfrwt>
<totfact> 0.93306677E+03</totfact>
</mgrwt>
</event>
<event>
 5    1  0.3241863E-002  0.1249984E+03  0.7818608E-02  0.1235072E+00
          4   -1    0    0  501    0  0.00000000000E+00  0.00000000000E+00  0.35076391942E+02  0.35099375659E+02  0.12700000000E+01 0.  1.
         -4   -1    0    0    0  501 -0.00000000000E+00 -0.00000000000E+00 -0.11129818106E+03  0.11130542667E+03  0.12700000000E+01 0.  1.
         25    2    1    2    0    0  0.00000000000E+00  0.00000000000E+00 -0.76221789114E+02  0.14640480233E+03  0.12499842003E+03 0.  0.
    9000005    1    3    3    0    0  0.30848536515E+02  0.22538379866E+02 -0.96032184720E+02  0.10335758934E+03  0.10000000000E+01 0.  0.
    9000005    1    3    3    0    0 -0.30848536515E+02 -0.22538379866E+02  0.19810395606E+02  0.43047212990E+02  0.10000000000E+01 0.  0.
<mgrwt>
<rscale>  0 0.12499842E+03</rscale>
<asrwt>0</asrwt>
<pdfrwt beam="1">  1        4 0.53986934E-02 0.12499842E+03</pdfrwt>
<pdfrwt beam="2">  1       -4 0.17125122E-01 0.12499842E+03</pdfrwt>
<totfact> 0.10002880E+04</totfact>
</mgrwt>
</event>
<event>
 5    1  0.3241863E-002  0.1249987E+03  0.7818608E-02  0.1235071E+00
         -4   -1    0    0    0  501 -0.00000000000E+00  0.00000000000E+00  0.16547135867E+03  0.16547623225E+03  0.12700000000E+01 0. -1.
          4   -1    0    0  501    0  0.00000000000E+00 -0.00000000000E+00 -0.23583990142E+02  0.23618160195E+02  0.12700000000E+01 0. -1.
         25    2    1    2    0    0  0.00000000000E+00  0.00000000000E+00  0.14188736853E+03  0.18909439245E+03  0.12499865562E+03 0.  0.
    9000005    1    3    3    0    0 -0.59355698678E+02  0.16352819043E+02  0.87141808766E+02  0.10670149245E+03  0.10000000000E+01 0.  0.
    9000005    1    3    3    0    0  0.59355698678E+02 -0.16352819043E+02  0.54745559765E+02  0.82392899999E+02  0.10000000000E+01 0.  0.
<mgrwt>
<rscale>  0 0.12499866E+03</rscale>
<asrwt>0</asrwt>
<pdfrwt beam="2">  1        4 0.36313097E-02 0.12499866E+03</pdfrwt>
<pdfrwt beam="1">  1       -4 0.25460134E-01 0.12499866E+03</pdfrwt>
<totfact> 0.92007898E+03</totfact>
</mgrwt>
</event>
<event>
 5    1  0.3241863E-002  0.1250055E+03  0.7818608E-02  0.1235061E+00
          4   -1    0    0  501    0  0.00000000000E+00  0.00000000000E+00  0.21222529317E+03  0.21222909310E+03  0.12700000000E+01 0. -1.
         -4   -1    0    0    0  501 -0.00000000000E+00 -0.00000000000E+00 -0.18381898172E+02  0.18425717907E+02  0.12700000000E+01 0. -1.
         25    2    1    2    0    0  0.00000000000E+00  0.00000000000E+00  0.19384339499E+03  0.23065481101E+03  0.12500552012E+03 0.  0.
    9000005    1    3    3    0    0  0.31608648988E+02  0.53653965374E+02  0.10663997034E+03  0.12349468800E+03  0.10000000000E+01 0.  0.
    9000005    1    3    3    0    0 -0.31608648988E+02 -0.53653965374E+02  0.87203424657E+02  0.10716012301E+03  0.10000000000E+01 0.  0.
<mgrwt>
<rscale>  0 0.12500552E+03</rscale>
<asrwt>0</asrwt>
<pdfrwt beam="1">  1        4 0.32653711E-01 0.12500552E+03</pdfrwt>
<pdfrwt beam="2">  1       -4 0.28316471E-02 0.12500552E+03</pdfrwt>
<totfact> 0.85198655E+03</totfact>
</mgrwt>
</event>
<event>
 5    1  0.3241863E-002  0.1250022E+03  0.7818608E-02  0.1235066E+00
          4   -1    0    0  501    0  0.00000000000E+00  0.00000000000E+00  0.34007228990E+02  0.34030934804E+02  0.12700000000E+01 0. -1.
         -4   -1    0    0    0  501 -0.00000000000E+00 -0.00000000000E+00 -0.11480214808E+03  0.11480917256E+03  0.12700000000E+01 0. -1.
         25    2    1    2    0    0  0.00000000000E+00  0.00000000000E+00 -0.80794919092E+02  0.14884010736E+03  0.12500223442E+03 0.  0.
    9000005    1    3    3    0    0  0.49663139400E+02 -0.15383416655E+02  0.88931170803E+00  0.52008343546E+02  0.10000000000E+01 0.  0.
    9000005    1    3    3    0    0 -0.49663139400E+02  0.15383416655E+02 -0.81684230800E+02  0.96831763819E+02  0.10000000000E+01 0.  0.
<mgrwt>
<rscale>  0 0.12500223E+03</rscale>
<asrwt>0</asrwt>
<pdfrwt beam="1">  1        4 0.52342453E-02 0.12500223E+03</pdfrwt>
<pdfrwt beam="2">  1       -4 0.17664233E-01 0.12500223E+03</pdfrwt>
<totfact> 0.99530403E+03</totfact>
</mgrwt>
</event>
<event>
 5    1  0.3241863E-002  0.1250142E+03  0.7818608E-02  0.1235047E+00
          4   -1    0    0  501    0  0.00000000000E+00  0.00000000000E+00  0.19533883565E+03  0.19534296407E+03  0.12700000000E+01 0.  1.
         -4   -1    0    0    0  501 -0.00000000000E+00 -0.00000000000E+00 -0.19977354999E+02  0.20017682502E+02  0.12700000000E+01 0.  1.
         25    2    1    2    0    0  0.00000000000E+00  0.00000000000E+00  0.17536148065E+03  0.21536064657E+03  0.12501423598E+03 0.  0.
    9000005    1    3    3    0    0  0.47979818328E+02  0.21268035338E+02  0.29217145547E+02  0.60075235230E+02  0.10000000000E+01 0.  0.
    9000005    1    3    3    0    0 -0.47979818328E+02 -0.21268035338E+02  0.14614433510E+03  0.15528541134E+03  0.10000000000E+01 0.  0.
<mgrwt>
<rscale>  0 0.12501424E+03</rscale>
<asrwt>0</asrwt>
<pdfrwt beam="1">  1        4 0.30055547E-01 0.12501424E+03</pdfrwt>
<pdfrwt beam="2">  1       -4 0.30768590E-02 0.12501424E+03</pdfrwt>
<totfact> 0.87579969E+03</totfact>
</mgrwt>
</event>
<event>
 5    1  0.3241863E-002  0.1249966E+03  0.7818608E-02  0.1235075E+00
         -4   -1    0    0    0  501 -0.00000000000E+00  0.00000000000E+00  0.17152842457E+02  0.17199793730E+02  0.12700000000E+01 0. -1.
          4   -1    0    0  501    0  0.00000000000E+00 -0.00000000000E+00 -0.22735972199E+03  0.22736326899E+03  0.12700000000E+01 0. -1.
         25    2    1    2    0    0  0.00000000000E+00  0.00000000000E+00 -0.21020687954E+03  0.24456306272E+03  0.12499663772E+03 0.  0.
    9000005    1    3    3    0    0 -0.38656503480E+02  0.12174581157E+02 -0.19816841542E+03  0.20227275288E+03  0.10000000000E+01 0.  0.
    9000005    1    3    3    0    0  0.38656503480E+02 -0.12174581157E+02 -0.12038464112E+02  0.42290309834E+02  0.10000000000E+01 0.  0.
<mgrwt>
<rscale>  0 0.12499664E+03</rscale>
<asrwt>0</asrwt>
<pdfrwt beam="2">  1        4 0.34982301E-01 0.12499664E+03</pdfrwt>
<pdfrwt beam="1">  1       -4 0.26427835E-02 0.12499664E+03</pdfrwt>
<totfact> 0.83128669E+03</totfact>
</mgrwt>
</event>
<event>
 5    1  0.3241863E-002  0.1249956E+03  0.7818608E-02  0.1235076E+00
          4   -1    0    0  501    0  0.00000000000E+00  0.00000000000E+00  0.22118696723E+03  0.22119061321E+03  0.12700000000E+01 0.  1.
         -4   -1    0    0    0  501 -0.00000000000E+00 -0.00000000000E+00 -0.17632523557E+02  0.17678200898E+02  0.12700000000E+01 0.  1.
         25    2    1    2    0    0  0.00000000000E+00  0.00000000000E+00  0.20355444367E+03  0.23886881411E+03  0.12499559518E+03 0.  0.
    9000005    1    3    3    0    0 -0.31365981049E+00 -0.39992323627E+01 -0.17395580869E+02  0.17880113974E+02  0.10000000000E+01 0.  0.
    9000005    1    3    3    0    0  0.31365981049E+00  0.39992323627E+01  0.22095002454E+03  0.22098870014E+03  0.10000000000E+01 0.  0.
<mgrwt>
<rscale>  0 0.12499560E+03</rscale>
<asrwt>0</asrwt>
<pdfrwt beam="1">  1        4 0.34032559E-01 0.12499560E+03</pdfrwt>
<pdfrwt beam="2">  1       -4 0.27164900E-02 0.12499560E+03</pdfrwt>
<totfact> 0.83974371E+03</totfact>
</mgrwt>
</event>
<event>
 5    1  0.3241863E-002  0.1250041E+03  0.7818608E-02  0.1235063E+00
          4   -1    0    0  501    0  0.00000000000E+00  0.00000000000E+00  0.35164572788E+02  0.35187498908E+02  0.12700000000E+01 0. -1.
         -4   -1    0    0    0  501 -0.00000000000E+00 -0.00000000000E+00 -0.11102939952E+03  0.11103666267E+03  0.12700000000E+01 0. -1.
         25    2    1    2    0    0  0.00000000000E+00  0.00000000000E+00 -0.75864826730E+02  0.14622416158E+03  0.12500413391E+03 0.  0.
    9000005    1    3    3    0    0  0.31103481902E+02  0.54126862339E+02 -0.34549301688E+02  0.71356836114E+02  0.10000000000E+01 0.  0.
    9000005    1    3    3    0    0 -0.31103481902E+02 -0.54126862339E+02 -0.41315525043E+02  0.74867325467E+02  0.10000000000E+01 0.  0.
<mgrwt>
<rscale>  0 0.12500413E+03</rscale>
<asrwt>0</asrwt>
<pdfrwt beam="1">  1        4 0.54122566E-02 0.12500413E+03</pdfrwt>
<pdfrwt beam="2">  1       -4 0.17083768E-01 0.12500413E+03</pdfrwt>
<totfact> 0.10005244E+04</totfact>
</mgrwt>
</event>
<event>
 5    1  0.3241863E-002  0.1250012E+03  0.7818608E-02  0.1235067E+00
         -4   -1    0    0    0  501 -0.00000000000E+00  0.00000000000E+00  0.22648183595E+03  0.22648539669E+03  0.12700000000E+01 0.  1.
          4   -1    0    0  501    0  0.00000000000E+00 -0.00000000000E+00 -0.17220768383E+02  0.17267534963E+02  0.12700000000E+01 0.  1.
         25    2    1    2    0    0  0.00000000000E+00  0.00000000000E+00  0.20926106756E+03  0.24375293165E+03  0.12500118916E+03 0.  0.
    9000005    1    3    3    0    0  0.61372227200E+02 -0.10618086090E+02  0.11457943876E+03  0.13041756711E+03  0.10000000000E+01 0.  0.
    9000005    1    3    3    0    0 -0.61372227200E+02  0.10618086090E+02  0.94681628800E+02  0.11333536454E+03  0.10000000000E+01 0.  0.
<mgrwt>
<rscale>  0 0.12500119E+03</rscale>
<asrwt>0</asrwt>
<pdfrwt beam="2">  1        4 0.26532206E-02 0.12500119E+03</pdfrwt>
<pdfrwt beam="1">  1       -4 0.34847228E-01 0.12500119E+03</pdfrwt>
<totfact> 0.83239386E+03</totfact>
</mgrwt>
</event>
<event>
 5    1  0.3241863E-002  0.1249980E+03  0.7818608E-02  0.1235072E+00
          4   -1    0    0  501    0  0.00000000000E+00  0.00000000000E+00  0.50105136971E+02  0.50121229543E+02  0.12700000000E+01 0. -1.
         -4   -1    0    0    0  501 -0.00000000000E+00 -0.00000000000E+00 -0.77924771558E+02  0.77935119955E+02  0.12700000000E+01 0. -1.
         25    2    1    2    0    0  0.00000000000E+00  0.00000000000E+00 -0.27819634588E+02  0.12805634950E+03  0.12499798630E+03 0.  0.
    9000005    1    3    3    0    0  0.54615529226E+02 -0.22216466082E+02 -0.35121405850E+02  0.68636291761E+02  0.10000000000E+01 0.  0.
    9000005    1    3    3    0    0 -0.54615529226E+02  0.22216466082E+02  0.73017712628E+01  0.59420057737E+02  0.10000000000E+01 0.  0.
<mgrwt>
<rscale>  0 0.12499799E+03</rscale>
<asrwt>0</asrwt>
<pdfrwt beam="1">  1        4 0.77105165E-02 0.12499799E+03</pdfrwt>
<pdfrwt beam="2">  1       -4 0.11990460E-01 0.12499799E+03</pdfrwt>
<totfact> 0.10386743E+04</totfact>
</mgrwt>
</event>
<event>
 5    1  0.3241863E-002  0.1250018E+03  0.7818608E-02  0.1235066E+00
          4   -1    0    0  501    0  0.00000000000E+00  0.00000000000E+00  0.32124064986E+04  0.32124067496E+04  0.12700000000E+01 0.  1.
         -4   -1    0    0    0  501 -0.00000000000E+00 -0.00000000000E+00 -0.88411210184E+00  0.15474347187E+01  0.12700000000E+01 0.  1.
         25    2    1    2    0    0  0.00000000000E+00  0.00000000000E+00  0.32115223865E+04  0.32139541844E+04  0.12500184076E+03 0.  0.
    9000005    1    3    3    0    0  0.55388578956E+02 -0.25988389932E+02  0.12784356537E+04  0.12798992194E+04  0.10000000000E+01 0.  0.
    9000005    1    3    3    0    0 -0.55388578956E+02  0.25988389932E+02  0.19330867328E+04  0.19340549650E+04  0.10000000000E+01 0.  0.
<mgrwt>
<rscale>  0 0.12500184E+03</rscale>
<asrwt>0</asrwt>
<pdfrwt beam="1">  1        4 0.49426674E+00 0.12500184E+03</pdfrwt>
<pdfrwt beam="2">  1       -4 0.18706163E-03 0.12500184E+03</pdfrwt>
<totfact> 0.11398471E+02</totfact>
</mgrwt>
</event>
<event>
 5    1  0.3241863E-002  0.1250053E+03  0.7818608E-02  0.1235061E+00
         -4   -1    0    0    0  501 -0.00000000000E+00  0.00000000000E+00  0.58904798067E+03  0.58904934974E+03  0.12700000000E+01 0. -1.
          4   -1    0    0  501    0  0.00000000000E+00 -0.00000000000E+00 -0.65698409355E+01  0.66914654537E+01  0.12700000000E+01 0. -1.
         25    2    1    2    0    0  0.00000000000E+00  0.00000000000E+00  0.58247813973E+03  0.59574081519E+03  0.12500534237E+03 0.  0.
    9000005    1    3    3    0    0  0.31362686594E+02 -0.38230330081E+02  0.10911563520E+03  0.11980149454E+03  0.10000000000E+01 0.  0.
    9000005    1    3    3    0    0 -0.31362686594E+02  0.38230330081E+02  0.47336250453E+03  0.47593932066E+03  0.10000000000E+01 0.  0.
<mgrwt>
<rscale>  0 0.12500534E+03</rscale>
<asrwt>0</asrwt>
<pdfrwt beam="2">  1        4 0.10202053E-02 0.12500534E+03</pdfrwt>
<pdfrwt beam="1">  1       -4 0.90632273E-01 0.12500534E+03</pdfrwt>
<totfact> 0.49131795E+03</totfact>
</mgrwt>
</event>
<event>
 5    1  0.3241863E-002  0.1249963E+03  0.7818608E-02  0.1235075E+00
          4   -1    0    0  501    0  0.00000000000E+00  0.00000000000E+00  0.50787227336E+03  0.50787386125E+03  0.12700000000E+01 0. -1.
         -4   -1    0    0    0  501 -0.00000000000E+00 -0.00000000000E+00 -0.76369071181E+01  0.77417859910E+01  0.12700000000E+01 0. -1.
         25    2    1    2    0    0  0.00000000000E+00  0.00000000000E+00  0.50023536624E+03  0.51561564724E+03  0.12499629614E+03 0.  0.
    9000005    1    3    3    0    0  0.47974550967E+02 -0.16933578765E+02  0.39980148864E+03  0.40302671618E+03  0.10000000000E+01 0.  0.
    9000005    1    3    3    0    0 -0.47974550967E+02  0.16933578765E+02  0.10043387759E+03  0.11258893107E+03  0.10000000000E+01 0.  0.
<mgrwt>
<rscale>  0 0.12499630E+03</rscale>
<asrwt>0</asrwt>
<pdfrwt beam="1">  1        4 0.78142411E-01 0.12499630E+03</pdfrwt>
<pdfrwt beam="2">  1       -4 0.11830981E-02 0.12499630E+03</pdfrwt>
<totfact> 0.54677255E+03</totfact>
</mgrwt>
</event>
<event>
 5    1  0.3241863E-002  0.1249968E+03  0.7818608E-02  0.1235074E+00
         -4   -1    0    0    0  501 -0.00000000000E+00  0.00000000000E+00  0.12650700160E+01  0.17925685888E+01  0.12700000000E+01 0.  1.
          4   -1    0    0  501    0  0.00000000000E+00 -0.00000000000E+00 -0.25544170502E+04  0.25544173659E+04  0.12700000000E+01 0.  1.
         25    2    1    2    0    0  0.00000000000E+00  0.00000000000E+00 -0.25531519802E+04  0.25562099345E+04  0.12499678117E+03 0.  0.
    9000005    1    3    3    0    0 -0.26249186807E+02 -0.28758018988E+01 -0.24348159390E+04  0.24349593316E+04  0.10000000000E+01 0.  0.
    9000005    1    3    3    0    0  0.26249186807E+02  0.28758018988E+01 -0.11833604121E+03  0.12125060286E+03  0.10000000000E+01 0.  0.
<mgrwt>
<rscale>  0 0.12499678E+03</rscale>
<asrwt>0</asrwt>
<pdfrwt beam="2">  1        4 0.39302442E+00 0.12499678E+03</pdfrwt>
<pdfrwt beam="1">  1       -4 0.23522930E-03 0.12499678E+03</pdfrwt>
<totfact> 0.42431016E+02</totfact>
</mgrwt>
</event>
<event>
 5    1  0.3241863E-002  0.1250008E+03  0.7818608E-02  0.1235068E+00
         -4   -1    0    0    0  501 -0.00000000000E+00  0.00000000000E+00  0.38188358463E+02  0.38209470319E+02  0.12700000000E+01 0. -1.
          4   -1    0    0  501    0  0.00000000000E+00 -0.00000000000E+00 -0.10223702833E+03  0.10224491607E+03  0.12700000000E+01 0. -1.
         25    2    1    2    0    0  0.00000000000E+00  0.00000000000E+00 -0.64048669871E+02  0.14045438639E+03  0.12500081017E+03 0.  0.
    9000005    1    3    3    0    0 -0.68773303823E+00 -0.61032954360E+02 -0.16957406009E+02  0.63356515949E+02  0.10000000000E+01 0.  0.
    9000005    1    3    3    0    0  0.68773303823E+00  0.61032954360E+02 -0.47091263862E+02  0.77097870442E+02  0.10000000000E+01 0.  0.
<mgrwt>
<rscale>  0 0.12500081E+03</rscale>
<asrwt>0</asrwt>
<pdfrwt beam="2">  1        4 0.15731004E-01 0.12500081E+03</pdfrwt>
<pdfrwt beam="1">  1       -4 0.58773629E-02 0.12500081E+03</pdfrwt>
<totfact> 0.10123992E+04</totfact>
</mgrwt>
</event>
<event>
 5    1  0.3241863E-002  0.1249988E+03  0.7818608E-02  0.1235071E+00
          4   -1    0    0  501    0  0.00000000000E+00  0.00000000000E+00  0.81312427107E+02  0.81322344421E+02  0.12700000000E+01 0.  1.
         -4   -1    0    0    0  501 -0.00000000000E+00 -0.00000000000E+00 -0.48017867486E+02  0.48034659340E+02  0.12700000000E+01 0.  1.
         25    2    1    2    0    0  0.00000000000E+00  0.00000000000E+00  0.33294559622E+02  0.12935700376E+03  0.12499882688E+03 0.  0.
    9000005    1    3    3    0    0 -0.17934691560E+01  0.43688683140E+02 -0.29555264241E+02  0.52786657504E+02  0.10000000000E+01 0.  0.
    9000005    1    3    3    0    0  0.17934691560E+01 -0.43688683140E+02  0.62849823863E+02  0.76570346256E+02  0.10000000000E+01 0.  0.
<mgrwt>
<rscale>  0 0.12499883E+03</rscale>
<asrwt>0</asrwt>
<pdfrwt beam="1">  1        4 0.12511659E-01 0.12499883E+03</pdfrwt>
<pdfrwt beam="2">  1       -4 0.73894189E-02 0.12499883E+03</pdfrwt>
<totfact> 0.10358556E+04</totfact>
</mgrwt>
</event>
<event>
 5    1  0.3241863E-002  0.1249953E+03  0.7818608E-02  0.1235077E+00
          4   -1    0    0  501    0  0.00000000000E+00  0.00000000000E+00  0.18168105477E+03  0.18168549354E+03  0.12700000000E+01 0.  1.
         -4   -1    0    0    0  501 -0.00000000000E+00 -0.00000000000E+00 -0.21475511463E+02  0.21513030763E+02  0.12700000000E+01 0.  1.
         25    2    1    2    0    0  0.00000000000E+00  0.00000000000E+00  0.16020554331E+03  0.20319852430E+03  0.12499529660E+03 0.  0.
    9000005    1    3    3    0    0 -0.61274633160E+02 -0.12045345334E+02  0.83840008330E+02  0.10454576993E+03  0.10000000000E+01 0.  0.
    9000005    1    3    3    0    0  0.61274633160E+02  0.12045345334E+02  0.76365534979E+02  0.98652754375E+02  0.10000000000E+01 0.  0.
<mgrwt>
<rscale>  0 0.12499530E+03</rscale>
<asrwt>0</asrwt>
<pdfrwt beam="1">  1        4 0.27954159E-01 0.12499530E+03</pdfrwt>
<pdfrwt beam="2">  1       -4 0.33071524E-02 0.12499530E+03</pdfrwt>
<totfact> 0.89608267E+03</totfact>
</mgrwt>
</event>
<event>
 5    1  0.3241863E-002  0.1249985E+03  0.7818608E-02  0.1235072E+00
          4   -1    0    0  501    0  0.00000000000E+00  0.00000000000E+00  0.17068992572E+02  0.17116173854E+02  0.12700000000E+01 0. -1.
         -4   -1    0    0    0  501 -0.00000000000E+00 -0.00000000000E+00 -0.22848042183E+03  0.22848395143E+03  0.12700000000E+01 0. -1.
         25    2    1    2    0    0  0.00000000000E+00  0.00000000000E+00 -0.21141142926E+03  0.24560012528E+03  0.12499851646E+03 0.  0.
    9000005    1    3    3    0    0  0.42077852919E+02  0.46097016272E+02 -0.99593669509E+02  0.11753884303E+03  0.10000000000E+01 0.  0.
    9000005    1    3    3    0    0 -0.42077852919E+02 -0.46097016272E+02 -0.11181775975E+03  0.12806128225E+03  0.10000000000E+01 0.  0.
<mgrwt>
<rscale>  0 0.12499852E+03</rscale>
<asrwt>0</asrwt>
<pdfrwt beam="1">  1        4 0.26298998E-02 0.12499852E+03</pdfrwt>
<pdfrwt beam="2">  1       -4 0.35154733E-01 0.12499852E+03</pdfrwt>
<totfact> 0.82973078E+03</totfact>
</mgrwt>
</event>
<event>
 5    1  0.3241863E-002  0.1249944E+03  0.7818608E-02  0.1235078E+00
         -4   -1    0    0    0  501 -0.00000000000E+00  0.00000000000E+00  0.15920192085E+03  0.15920698635E+03  0.12700000000E+01 0. -1.
          4   -1    0    0  501    0  0.00000000000E+00 -0.00000000000E+00 -0.24512362473E+02  0.24545240150E+02  0.12700000000E+01 0. -1.
         25    2    1    2    0    0  0.00000000000E+00  0.00000000000E+00  0.13468955838E+03  0.18375222650E+03  0.12499441431E+03 0.  0.
    9000005    1    3    3    0    0 -0.11986047133E+02  0.61328798571E+02  0.67170576412E+02  0.91748423395E+02  0.10000000000E+01 0.  0.
    9000005    1    3    3    0    0  0.11986047133E+02 -0.61328798571E+02  0.67518981967E+02  0.92003803105E+02  0.10000000000E+01 0.  0.
<mgrwt>
<rscale>  0 0.12499441E+03</rscale>
<asrwt>0</asrwt>
<pdfrwt beam="2">  1        4 0.37740514E-02 0.12499441E+03</pdfrwt>
<pdfrwt beam="1">  1       -4 0.24495522E-01 0.12499441E+03</pdfrwt>
<totfact> 0.92957554E+03</totfact>
</mgrwt>
</event>
<event>
 5    1  0.3241863E-002  0.1249963E+03  0.7818608E-02  0.1235075E+00
         -4   -1    0    0    0  501 -0.00000000000E+00  0.00000000000E+00  0.24468788164E+04  0.24468791459E+04  0.12700000000E+01 0. -1.
          4   -1    0    0  501    0  0.00000000000E+00 -0.00000000000E+00 -0.13433489332E+01  0.18486444645E+01  0.12700000000E+01 0. -1.
         25    2    1    2    0    0  0.00000000000E+00  0.00000000000E+00  0.24455354674E+04  0.24487277904E+04  0.12499627623E+03 0.  0.
    9000005    1    3    3    0    0 -0.20583575289E+02 -0.22608176327E+02  0.15509886770E+03  0.15808691271E+03  0.10000000000E+01 0.  0.
    9000005    1    3    3    0    0  0.20583575289E+02  0.22608176327E+02  0.22904365997E+04  0.22906408777E+04  0.10000000000E+01 0.  0.
<mgrwt>
<rscale>  0 0.12499628E+03</rscale>
<asrwt>0</asrwt>
<pdfrwt beam="2">  1        4 0.24556250E-03 0.12499628E+03</pdfrwt>
<pdfrwt beam="1">  1       -4 0.37648302E+00 0.12499628E+03</pdfrwt>
<totfact> 0.50851552E+02</totfact>
</mgrwt>
</event>
<event>
 5    1  0.3241863E-002  0.1249979E+03  0.7818608E-02  0.1235073E+00
          4   -1    0    0  501    0  0.00000000000E+00  0.00000000000E+00  0.13184375315E+02  0.13245401181E+02  0.12700000000E+01 0. -1.
         -4   -1    0    0    0  501 -0.00000000000E+00 -0.00000000000E+00 -0.29552227255E+03  0.29552500144E+03  0.12700000000E+01 0. -1.
         25    2    1    2    0    0  0.00000000000E+00  0.00000000000E+00 -0.28233789724E+03  0.30877040262E+03  0.12499789325E+03 0.  0.
    9000005    1    3    3    0    0  0.21831477295E+01 -0.15135952746E+02  0.85029452127E+01  0.17526074199E+02  0.10000000000E+01 0.  0.
    9000005    1    3    3    0    0 -0.21831477295E+01  0.15135952746E+02 -0.29084084245E+03  0.29124432842E+03  0.10000000000E+01 0.  0.
<mgrwt>
<rscale>  0 0.12499789E+03</rscale>
<asrwt>0</asrwt>
<pdfrwt beam="1">  1        4 0.20332699E-02 0.12499789E+03</pdfrwt>
<pdfrwt beam="2">  1       -4 0.45469864E-01 0.12499789E+03</pdfrwt>
<totfact> 0.74515188E+03</totfact>
</mgrwt>
</event>
<event>
 5    1  0.3241863E-002  0.1249987E+03  0.7818608E-02  0.1235071E+00
          4   -1    0    0  501    0  0.00000000000E+00  0.00000000000E+00  0.94774581180E+01  0.95621709031E+01  0.12700000000E+01 0.  1.
         -4   -1    0    0    0  501 -0.00000000000E+00 -0.00000000000E+00 -0.41023440688E+03  0.41023637270E+03  0.12700000000E+01 0.  1.
         25    2    1    2    0    0  0.00000000000E+00  0.00000000000E+00 -0.40075694876E+03  0.41979854360E+03  0.12499874092E+03 0.  0.
    9000005    1    3    3    0    0  0.97487351196E+01 -0.59945642400E+02 -0.24981160012E+03  0.25709016596E+03  0.10000000000E+01 0.  0.
    9000005    1    3    3    0    0 -0.97487351196E+01  0.59945642400E+02 -0.15094534864E+03  0.16270837764E+03  0.10000000000E+01 0.  0.
<mgrwt>
<rscale>  0 0.12499874E+03</rscale>
<asrwt>0</asrwt>
<pdfrwt beam="1">  1        4 0.14647384E-02 0.12499874E+03</pdfrwt>
<pdfrwt beam="2">  1       -4 0.63119639E-01 0.12499874E+03</pdfrwt>
<totfact> 0.62673450E+03</totfact>
</mgrwt>
</event>
<event>
 5    1  0.3241863E-002  0.1249952E+03  0.7818608E-02  0.1235077E+00
         -4   -1    0    0    0  501 -0.00000000000E+00  0.00000000000E+00  0.45962310322E+02  0.45979852872E+02  0.12700000000E+01 0. -1.
          4   -1    0    0  501    0  0.00000000000E+00 -0.00000000000E+00 -0.84943088593E+02  0.84952582066E+02  0.12700000000E+01 0. -1.
         25    2    1    2    0    0  0.00000000000E+00  0.00000000000E+00 -0.38980778271E+02  0.13093243494E+03  0.12499520569E+03 0.  0.
    9000005    1    3    3    0    0  0.58195092574E+02 -0.79225570973E+01  0.28661751954E+01  0.58810293920E+02  0.10000000000E+01 0.  0.
    9000005    1    3    3    0    0 -0.58195092574E+02  0.79225570973E+01 -0.41846953466E+02  0.72122141019E+02  0.10000000000E+01 0.  0.
<mgrwt>
<rscale>  0 0.12499521E+03</rscale>
<asrwt>0</asrwt>
<pdfrwt beam="2">  1        4 0.13070247E-01 0.12499521E+03</pdfrwt>
<pdfrwt beam="1">  1       -4 0.70732044E-02 0.12499521E+03</pdfrwt>
<totfact> 0.10325655E+04</totfact>
</mgrwt>
</event>
<event>
 4    1  0.3241863E-002  0.1248822E+03  0.7818608E-02  0.1235253E+00
         -4   -1    0    0    0  501 -0.00000000000E+00  0.00000000000E+00  0.66339051928E+02  0.66351207304E+02  0.12700000000E+01 0. -1.
          4   -1    0    0  501    0  0.00000000000E+00 -0.00000000000E+00 -0.58747809491E+02  0.58761535208E+02  0.12700000000E+01 0. -1.
    9000005    1    1    2    0    0 -0.22541831905E+02 -0.45499417326E+02  0.40188444333E+02  0.64764513590E+02  0.10000000000E+01 0.  0.
    9000005    1    1    2    0    0  0.22541831905E+02  0.45499417326E+02 -0.32597201895E+02  0.60348228922E+02  0.10000000000E+01 0.  0.
<mgrwt>
<rscale>  0 0.12488223E+03</rscale>
<asrwt>0</asrwt>
<pdfrwt beam="2">  1        4 0.90401155E-02 0.12488223E+03</pdfrwt>
<pdfrwt beam="1">  1       -4 0.10207999E-01 0.12488223E+03</pdfrwt>
<totfact> 0.10478278E+04</totfact>
</mgrwt>
</event>
<event>
 5    1  0.3241863E-002  0.1249836E+03  0.7818608E-02  0.1235095E+00
          4   -1    0    0  501    0  0.00000000000E+00  0.00000000000E+00  0.30121314020E+02  0.30148075532E+02  0.12700000000E+01 0. -1.
         -4   -1    0    0    0  501 -0.00000000000E+00 -0.00000000000E+00 -0.12956251985E+03  0.12956874411E+03  0.12700000000E+01 0. -1.
         25    2    1    2    0    0  0.00000000000E+00  0.00000000000E+00 -0.99441205834E+02  0.15971681964E+03  0.12498363517E+03 0.  0.
    9000005    1    3    3    0    0 -0.35424571594E+02  0.94607191625E+01 -0.11437564029E+03  0.12011324894E+03  0.10000000000E+01 0.  0.
    9000005    1    3    3    0    0  0.35424571594E+02 -0.94607191625E+01  0.14934434458E+02  0.39603570701E+02  0.10000000000E+01 0.  0.
<mgrwt>
<rscale>  0 0.12498364E+03</rscale>
<asrwt>0</asrwt>
<pdfrwt beam="1">  1        4 0.46365857E-02 0.12498364E+03</pdfrwt>
<pdfrwt beam="2">  1       -4 0.19935232E-01 0.12498364E+03</pdfrwt>
<totfact> 0.97433244E+03</totfact>
</mgrwt>
</event>
<event>
 5    1  0.3241863E-002  0.1249935E+03  0.7818608E-02  0.1235079E+00
          4   -1    0    0  501    0  0.00000000000E+00  0.00000000000E+00  0.10511085109E+02  0.10587530881E+02  0.12700000000E+01 0.  1.
         -4   -1    0    0    0  501 -0.00000000000E+00 -0.00000000000E+00 -0.37016912204E+03  0.37017130064E+03  0.12700000000E+01 0.  1.
         25    2    1    2    0    0  0.00000000000E+00  0.00000000000E+00 -0.35965803693E+03  0.38075883152E+03  0.12499353682E+03 0.  0.
    9000005    1    3    3    0    0  0.29398520419E+02  0.47629270338E+02 -0.95188503381E+02  0.11042948688E+03  0.10000000000E+01 0.  0.
    9000005    1    3    3    0    0 -0.29398520419E+02 -0.47629270338E+02 -0.26446953355E+03  0.27032934464E+03  0.10000000000E+01 0.  0.
<mgrwt>
<rscale>  0 0.12499354E+03</rscale>
<asrwt>0</asrwt>
<pdfrwt beam="1">  1        4 0.16231383E-02 0.12499354E+03</pdfrwt>
<pdfrwt beam="2">  1       -4 0.56955134E-01 0.12499354E+03</pdfrwt>
<totfact> 0.66477680E+03</totfact>
</mgrwt>
</event>
<event>
 5    1  0.3241863E-002  0.1250067E+03  0.7818608E-02  0.1235059E+00
          4   -1    0    0  501    0  0.00000000000E+00  0.00000000000E+00  0.59743244674E+01  0.61078189922E+01  0.12700000000E+01 0. -1.
         -4   -1    0    0    0  501 -0.00000000000E+00 -0.00000000000E+00 -0.64655073790E+03  0.64655198521E+03  0.12700000000E+01 0. -1.
         25    2    1    2    0    0  0.00000000000E+00  0.00000000000E+00 -0.64057641343E+03  0.65265980420E+03  0.12500671412E+03 0.  0.
    9000005    1    3    3    0    0  0.71648080908E+00 -0.62436231822E+02 -0.33397604139E+03  0.33976431922E+03  0.10000000000E+01 0.  0.
    9000005    1    3    3    0    0 -0.71648080908E+00  0.62436231822E+02 -0.30660037204E+03  0.31289548498E+03  0.10000000000E+01 0.  0.
<mgrwt>
<rscale>  0 0.12500671E+03</rscale>
<asrwt>0</asrwt>
<pdfrwt beam="1">  1        4 0.92949211E-03 0.12500671E+03</pdfrwt>
<pdfrwt beam="2">  1       -4 0.99479654E-01 0.12500671E+03</pdfrwt>
<totfact> 0.45696883E+03</totfact>
</mgrwt>
</event>
<event>
 5    1  0.3241863E-002  0.1250005E+03  0.7818608E-02  0.1235068E+00
          4   -1    0    0  501    0  0.00000000000E+00  0.00000000000E+00  0.65477299756E+03  0.65477422921E+03  0.12700000000E+01 0.  1.
         -4   -1    0    0    0  501 -0.00000000000E+00 -0.00000000000E+00 -0.58970203305E+01  0.60322258560E+01  0.12700000000E+01 0.  1.
         25    2    1    2    0    0  0.00000000000E+00  0.00000000000E+00  0.64887597723E+03  0.66080645506E+03  0.12500054891E+03 0.  0.
    9000005    1    3    3    0    0  0.60578003760E+02 -0.75213638661E+01  0.39516930512E+03  0.39985753108E+03  0.10000000000E+01 0.  0.
    9000005    1    3    3    0    0 -0.60578003760E+02  0.75213638661E+01  0.25370667211E+03  0.26094892398E+03  0.10000000000E+01 0.  0.
<mgrwt>
<rscale>  0 0.12500055E+03</rscale>
<asrwt>0</asrwt>
<pdfrwt beam="1">  1        4 0.10074481E+00 0.12500055E+03</pdfrwt>
<pdfrwt beam="2">  1       -4 0.91772898E-03 0.12500055E+03</pdfrwt>
<totfact> 0.45237297E+03</totfact>
</mgrwt>
</event>
<event>
 5    1  0.3241863E-002  0.1250007E+03  0.7818608E-02  0.1235068E+00
         -4   -1    0    0    0  501 -0.00000000000E+00  0.00000000000E+00  0.15366694294E+03  0.15367219089E+03  0.12700000000E+01 0.  1.
          4   -1    0    0  501    0  0.00000000000E+00 -0.00000000000E+00 -0.25398957128E+02  0.25430688610E+02  0.12700000000E+01 0.  1.
         25    2    1    2    0    0  0.00000000000E+00  0.00000000000E+00  0.12826798581E+03  0.17910287950E+03  0.12500066104E+03 0.  0.
    9000005    1    3    3    0    0 -0.35345681671E+02  0.12462367157E+02  0.13578427205E+03  0.14086517080E+03  0.10000000000E+01 0.  0.
    9000005    1    3    3    0    0  0.35345681671E+02 -0.12462367157E+02 -0.75162862371E+01  0.38237708702E+02  0.10000000000E+01 0.  0.
<mgrwt>
<rscale>  0 0.12500066E+03</rscale>
<asrwt>0</asrwt>
<pdfrwt beam="2">  1        4 0.39103765E-02 0.12500066E+03</pdfrwt>
<pdfrwt beam="1">  1       -4 0.23643912E-01 0.12500066E+03</pdfrwt>
<totfact> 0.93777347E+03</totfact>
</mgrwt>
</event>
<event>
 5    1  0.3241863E-002  0.1250027E+03  0.7818608E-02  0.1235065E+00
          4   -1    0    0  501    0  0.00000000000E+00  0.00000000000E+00  0.36968913281E+02  0.36990721123E+02  0.12700000000E+01 0. -1.
         -4   -1    0    0    0  501 -0.00000000000E+00 -0.00000000000E+00 -0.10561094329E+03  0.10561857906E+03  0.12700000000E+01 0. -1.
         25    2    1    2    0    0  0.00000000000E+00  0.00000000000E+00 -0.68642030005E+02  0.14260930018E+03  0.12500273683E+03 0.  0.
    9000005    1    3    3    0    0  0.54328749052E+02  0.29666504482E+02 -0.44115497440E+02  0.76019021147E+02  0.10000000000E+01 0.  0.
    9000005    1    3    3    0    0 -0.54328749052E+02 -0.29666504482E+02 -0.24526532565E+02  0.66590279031E+02  0.10000000000E+01 0.  0.
<mgrwt>
<rscale>  0 0.12500274E+03</rscale>
<asrwt>0</asrwt>
<pdfrwt beam="1">  1        4 0.56897900E-02 0.12500274E+03</pdfrwt>
<pdfrwt beam="2">  1       -4 0.16250102E-01 0.12500274E+03</pdfrwt>
<totfact> 0.10079169E+04</totfact>
</mgrwt>
</event>
<event>
 5    1  0.3241863E-002  0.1250020E+03  0.7818608E-02  0.1235066E+00
         -4   -1    0    0    0  501 -0.00000000000E+00  0.00000000000E+00  0.32524958510E+03  0.32525206457E+03  0.12700000000E+01 0.  1.
          4   -1    0    0  501    0  0.00000000000E+00 -0.00000000000E+00 -0.11974293338E+02  0.12041453440E+02  0.12700000000E+01 0.  1.
         25    2    1    2    0    0  0.00000000000E+00  0.00000000000E+00  0.31327529176E+03  0.33729351801E+03  0.12500203544E+03 0.  0.
    9000005    1    3    3    0    0  0.31439701513E+02  0.48901173185E+02  0.21849874272E+03  0.22610280878E+03  0.10000000000E+01 0.  0.
    9000005    1    3    3    0    0 -0.31439701513E+02 -0.48901173185E+02  0.94776549042E+02  0.11119070923E+03  0.10000000000E+01 0.  0.
<mgrwt>
<rscale>  0 0.12500204E+03</rscale>
<asrwt>0</asrwt>
<pdfrwt beam="2">  1        4 0.18475559E-02 0.12500204E+03</pdfrwt>
<pdfrwt beam="1">  1       -4 0.50043753E-01 0.12500204E+03</pdfrwt>
<totfact> 0.71142215E+03</totfact>
</mgrwt>
</event>
<event>
 5    1  0.3241863E-002  0.1250123E+03  0.7818608E-02  0.1235050E+00
         -4   -1    0    0    0  501 -0.00000000000E+00  0.00000000000E+00  0.61545630150E+03  0.61545761183E+03  0.12700000000E+01 0. -1.
          4   -1    0    0  501    0  0.00000000000E+00 -0.00000000000E+00 -0.62833166931E+01  0.64103797599E+01  0.12700000000E+01 0. -1.
         25    2    1    2    0    0  0.00000000000E+00  0.00000000000E+00  0.60917298481E+03  0.62186799159E+03  0.12501229356E+03 0.  0.
    9000005    1    3    3    0    0 -0.19739746652E+02  0.64917873063E+01  0.11379730748E+02  0.23712848251E+02  0.10000000000E+01 0.  0.
    9000005    1    3    3    0    0  0.19739746652E+02 -0.64917873063E+01  0.59779325406E+03  0.59815514334E+03  0.10000000000E+01 0.  0.
<mgrwt>
<rscale>  0 0.12501229E+03</rscale>
<asrwt>0</asrwt>
<pdfrwt beam="2">  1        4 0.97653921E-03 0.12501229E+03</pdfrwt>
<pdfrwt beam="1">  1       -4 0.94695437E-01 0.12501229E+03</pdfrwt>
<totfact> 0.47502916E+03</totfact>
</mgrwt>
</event>
<event>
 5    1  0.3241863E-002  0.1250031E+03  0.7818608E-02  0.1235064E+00
          4   -1    0    0  501    0  0.00000000000E+00  0.00000000000E+00  0.61891490598E+03  0.61891620898E+03  0.12700000000E+01 0.  1.
         -4   -1    0    0    0  501 -0.00000000000E+00 -0.00000000000E+00 -0.62465573512E+01  0.63743532018E+01  0.12700000000E+01 0.  1.
         25    2    1    2    0    0  0.00000000000E+00  0.00000000000E+00  0.61266834863E+03  0.62529056219E+03  0.12500312695E+03 0.  0.
    9000005    1    3    3    0    0  0.47837819971E+02 -0.38737165135E+02  0.25236128813E+03  0.25976190007E+03  0.10000000000E+01 0.  0.
    9000005    1    3    3    0    0 -0.47837819971E+02  0.38737165135E+02  0.36030706050E+03  0.36552866211E+03  0.10000000000E+01 0.  0.
<mgrwt>
<rscale>  0 0.12500313E+03</rscale>
<asrwt>0</asrwt>
<pdfrwt beam="1">  1        4 0.95227591E-01 0.12500313E+03</pdfrwt>
<pdfrwt beam="2">  1       -4 0.97093969E-03 0.12500313E+03</pdfrwt>
<totfact> 0.47305910E+03</totfact>
</mgrwt>
</event>
<event>
 5    1  0.3241863E-002  0.1250020E+03  0.7818608E-02  0.1235066E+00
          4   -1    0    0  501    0  0.00000000000E+00  0.00000000000E+00  0.21951890278E+02  0.21988596744E+02  0.12700000000E+01 0. -1.
         -4   -1    0    0    0  501 -0.00000000000E+00 -0.00000000000E+00 -0.17776393717E+03  0.17776847375E+03  0.12700000000E+01 0. -1.
         25    2    1    2    0    0  0.00000000000E+00  0.00000000000E+00 -0.15581204689E+03  0.19975707049E+03  0.12500197300E+03 0.  0.
    9000005    1    3    3    0    0  0.31712922291E+02  0.41013906864E+02 -0.22145873100E+02  0.56385190359E+02  0.10000000000E+01 0.  0.
    9000005    1    3    3    0    0 -0.31712922291E+02 -0.41013906864E+02 -0.13366617379E+03  0.14337188013E+03  0.10000000000E+01 0.  0.
<mgrwt>
<rscale>  0 0.12500197E+03</rscale>
<asrwt>0</asrwt>
<pdfrwt beam="1">  1        4 0.33803865E-02 0.12500197E+03</pdfrwt>
<pdfrwt beam="2">  1       -4 0.27351470E-01 0.12500197E+03</pdfrwt>
<totfact> 0.90172514E+03</totfact>
</mgrwt>
</event>
<event>
 5    1  0.3241863E-002  0.1250019E+03  0.7818608E-02  0.1235066E+00
         -4   -1    0    0    0  501 -0.00000000000E+00  0.00000000000E+00  0.10927249572E+03  0.10927987564E+03  0.12700000000E+01 0. -1.
          4   -1    0    0  501    0  0.00000000000E+00 -0.00000000000E+00 -0.35728989598E+02  0.35751553780E+02  0.12700000000E+01 0. -1.
         25    2    1    2    0    0  0.00000000000E+00  0.00000000000E+00  0.73543506119E+02  0.14503142942E+03  0.12500187290E+03 0.  0.
    9000005    1    3    3    0    0 -0.38196480783E+02 -0.40460180348E+00 -0.20612726533E+02  0.43416809440E+02  0.10000000000E+01 0.  0.
    9000005    1    3    3    0    0  0.38196480783E+02  0.40460180348E+00  0.94156232652E+02  0.10161461998E+03  0.10000000000E+01 0.  0.
<mgrwt>
<rscale>  0 0.12500187E+03</rscale>
<asrwt>0</asrwt>
<pdfrwt beam="2">  1        4 0.54990711E-02 0.12500187E+03</pdfrwt>
<pdfrwt beam="1">  1       -4 0.16813456E-01 0.12500187E+03</pdfrwt>
<totfact> 0.10029927E+04</totfact>
</mgrwt>
</event>
<event>
 5    1  0.3241863E-002  0.1250013E+03  0.7818608E-02  0.1235067E+00
         -4   -1    0    0    0  501 -0.00000000000E+00  0.00000000000E+00  0.17590769124E+03  0.17591227568E+03  0.12700000000E+01 0. -1.
          4   -1    0    0  501    0  0.00000000000E+00 -0.00000000000E+00 -0.22183688963E+02  0.22220012511E+02  0.12700000000E+01 0. -1.
         25    2    1    2    0    0  0.00000000000E+00  0.00000000000E+00  0.15372400227E+03  0.19813228820E+03  0.12500133899E+03 0.  0.
    9000005    1    3    3    0    0  0.51823526248E+02 -0.10044865085E+02  0.23845828003E+02  0.57932725644E+02  0.10000000000E+01 0.  0.
    9000005    1    3    3    0    0 -0.51823526248E+02  0.10044865085E+02  0.12987817427E+03  0.14019956255E+03  0.10000000000E+01 0.  0.
<mgrwt>
<rscale>  0 0.12500134E+03</rscale>
<asrwt>0</asrwt>
<pdfrwt beam="2">  1        4 0.34160219E-02 0.12500134E+03</pdfrwt>
<pdfrwt beam="1">  1       -4 0.27065870E-01 0.12500134E+03</pdfrwt>
<totfact> 0.90448548E+03</totfact>
</mgrwt>
</event>
<event>
 5    1  0.3241863E-002  0.1249988E+03  0.7818608E-02  0.1235071E+00
         -4   -1    0    0    0  501 -0.00000000000E+00  0.00000000000E+00  0.49268777840E+01  0.50879293135E+01  0.12700000000E+01 0. -1.
          4   -1    0    0  501    0  0.00000000000E+00 -0.00000000000E+00 -0.77991778577E+03  0.77991881979E+03  0.12700000000E+01 0. -1.
         25    2    1    2    0    0  0.00000000000E+00  0.00000000000E+00 -0.77499090798E+03  0.78500674910E+03  0.12499875469E+03 0.  0.
    9000005    1    3    3    0    0  0.40499735197E+02 -0.40192830219E+02 -0.54754358274E+03  0.55050946146E+03  0.10000000000E+01 0.  0.
    9000005    1    3    3    0    0 -0.40499735197E+02  0.40192830219E+02 -0.22744732524E+03  0.23449728764E+03  0.10000000000E+01 0.  0.
<mgrwt>
<rscale>  0 0.12499875E+03</rscale>
<asrwt>0</asrwt>
<pdfrwt beam="2">  1        4 0.11999972E+00 0.12499875E+03</pdfrwt>
<pdfrwt beam="1">  1       -4 0.77044994E-03 0.12499875E+03</pdfrwt>
<totfact> 0.38943980E+03</totfact>
</mgrwt>
</event>
<event>
 5    1  0.3241863E-002  0.1249963E+03  0.7818608E-02  0.1235075E+00
         -4   -1    0    0    0  501 -0.00000000000E+00  0.00000000000E+00  0.64855607946E+03  0.64855732291E+03  0.12700000000E+01 0. -1.
          4   -1    0    0  501    0  0.00000000000E+00 -0.00000000000E+00 -0.59544260696E+01  0.60883569062E+01  0.12700000000E+01 0. -1.
         25    2    1    2    0    0  0.00000000000E+00  0.00000000000E+00  0.64260165339E+03  0.65464567982E+03  0.12499632461E+03 0.  0.
    9000005    1    3    3    0    0  0.31133353772E+02 -0.26755599988E+02  0.56805986731E+03  0.56954206227E+03  0.10000000000E+01 0.  0.
    9000005    1    3    3    0    0 -0.31133353772E+02  0.26755599988E+02  0.74541786084E+02  0.85103617552E+02  0.10000000000E+01 0.  0.
<mgrwt>
<rscale>  0 0.12499632E+03</rscale>
<asrwt>0</asrwt>
<pdfrwt beam="2">  1        4 0.92646285E-03 0.12499632E+03</pdfrwt>
<pdfrwt beam="1">  1       -4 0.99788334E-01 0.12499632E+03</pdfrwt>
<totfact> 0.45593831E+03</totfact>
</mgrwt>
</event>
<event>
 5    1  0.3241863E-002  0.1250007E+03  0.7818608E-02  0.1235068E+00
         -4   -1    0    0    0  501 -0.00000000000E+00  0.00000000000E+00  0.76562866146E+01  0.77609036023E+01  0.12700000000E+01 0. -1.
          4   -1    0    0  501    0  0.00000000000E+00 -0.00000000000E+00 -0.50663941693E+03  0.50664100869E+03  0.12700000000E+01 0. -1.
         25    2    1    2    0    0  0.00000000000E+00  0.00000000000E+00 -0.49898313032E+03  0.51440191229E+03  0.12500065212E+03 0.  0.
    9000005    1    3    3    0    0 -0.28014774570E+02  0.30150979471E+02 -0.55973219986E+02  0.69483167119E+02  0.10000000000E+01 0.  0.
    9000005    1    3    3    0    0  0.28014774570E+02 -0.30150979471E+02 -0.44300991033E+03  0.44491874517E+03  0.10000000000E+01 0.  0.
<mgrwt>
<rscale>  0 0.12500065E+03</rscale>
<asrwt>0</asrwt>
<pdfrwt beam="2">  1        4 0.77952670E-01 0.12500065E+03</pdfrwt>
<pdfrwt beam="1">  1       -4 0.11860605E-02 0.12500065E+03</pdfrwt>
<totfact> 0.54763243E+03</totfact>
</mgrwt>
</event>
<event>
 5    1  0.3241863E-002  0.1249980E+03  0.7818608E-02  0.1235072E+00
         -4   -1    0    0    0  501 -0.00000000000E+00  0.00000000000E+00  0.56201470824E+01  0.57618532806E+01  0.12700000000E+01 0.  1.
          4   -1    0    0  501    0  0.00000000000E+00 -0.00000000000E+00 -0.68622696609E+03  0.68622814128E+03  0.12700000000E+01 0.  1.
         25    2    1    2    0    0  0.00000000000E+00  0.00000000000E+00 -0.68060681900E+03  0.69198999456E+03  0.12499804197E+03 0.  0.
    9000005    1    3    3    0    0 -0.63576284564E+01 -0.42623732553E+02 -0.59082992230E+03  0.59240037061E+03  0.10000000000E+01 0.  0.
    9000005    1    3    3    0    0  0.63576284564E+01  0.42623732553E+02 -0.89776896705E+02  0.99589623949E+02  0.10000000000E+01 0.  0.
<mgrwt>
<rscale>  0 0.12499804E+03</rscale>
<asrwt>0</asrwt>
<pdfrwt beam="2">  1        4 0.10558430E+00 0.12499804E+03</pdfrwt>
<pdfrwt beam="1">  1       -4 0.87562943E-03 0.12499804E+03</pdfrwt>
<totfact> 0.43514799E+03</totfact>
</mgrwt>
</event>
<event>
 5    1  0.3241863E-002  0.1249842E+03  0.7818608E-02  0.1235094E+00
         -4   -1    0    0    0  501 -0.00000000000E+00  0.00000000000E+00  0.21387039689E+02  0.21424713922E+02  0.12700000000E+01 0.  1.
          4   -1    0    0  501    0  0.00000000000E+00 -0.00000000000E+00 -0.18239896299E+03  0.18240338429E+03  0.12700000000E+01 0.  1.
         25    2    1    2    0    0  0.00000000000E+00  0.00000000000E+00 -0.16101192330E+03  0.20382809821E+03  0.12498421570E+03 0.  0.
    9000005    1    3    3    0    0 -0.24125092505E+02  0.39741433978E+02 -0.14858922573E+03  0.15569572783E+03  0.10000000000E+01 0.  0.
    9000005    1    3    3    0    0  0.24125092505E+02 -0.39741433978E+02 -0.12422697572E+02  0.48132370376E+02  0.10000000000E+01 0.  0.
<mgrwt>
<rscale>  0 0.12498422E+03</rscale>
<asrwt>0</asrwt>
<pdfrwt beam="2">  1        4 0.28064616E-01 0.12498422E+03</pdfrwt>
<pdfrwt beam="1">  1       -4 0.32935520E-02 0.12498422E+03</pdfrwt>
<totfact> 0.89525465E+03</totfact>
</mgrwt>
</event>
<event>
 5    1  0.3241863E-002  0.1250014E+03  0.7818608E-02  0.1235067E+00
         -4   -1    0    0    0  501 -0.00000000000E+00  0.00000000000E+00  0.65799991015E+02  0.65812245954E+02  0.12700000000E+01 0.  1.
          4   -1    0    0  501    0  0.00000000000E+00 -0.00000000000E+00 -0.59342270665E+02  0.59355858917E+02  0.12700000000E+01 0.  1.
         25    2    1    2    0    0  0.00000000000E+00  0.00000000000E+00  0.64577203496E+01  0.12516810487E+03  0.12500140929E+03 0.  0.
    9000005    1    3    3    0    0  0.31760906098E+02 -0.28875981002E+02 -0.42249331322E+02  0.60237724327E+02  0.10000000000E+01 0.  0.
    9000005    1    3    3    0    0 -0.31760906098E+02  0.28875981002E+02  0.48707051671E+02  0.64930380544E+02  0.10000000000E+01 0.  0.
<mgrwt>
<rscale>  0 0.12500141E+03</rscale>
<asrwt>0</asrwt>
<pdfrwt beam="2">  1        4 0.91315681E-02 0.12500141E+03</pdfrwt>
<pdfrwt beam="1">  1       -4 0.10125063E-01 0.12500141E+03</pdfrwt>
<totfact> 0.10448880E+04</totfact>
</mgrwt>
</event>
<event>
 5    1  0.3241863E-002  0.1249998E+03  0.7818608E-02  0.1235070E+00
         -4   -1    0    0    0  501 -0.00000000000E+00  0.00000000000E+00  0.72978846148E+02  0.72989895774E+02  0.12700000000E+01 0. -1.
          4   -1    0    0  501    0  0.00000000000E+00 -0.00000000000E+00 -0.53502933706E+02  0.53518004589E+02  0.12700000000E+01 0. -1.
         25    2    1    2    0    0  0.00000000000E+00  0.00000000000E+00  0.19475912442E+02  0.12650790036E+03  0.12499975075E+03 0.  0.
    9000005    1    3    3    0    0 -0.24713910799E+02 -0.47348049636E+02 -0.23097582869E+02  0.58198913441E+02  0.10000000000E+01 0.  0.
    9000005    1    3    3    0    0  0.24713910799E+02  0.47348049636E+02  0.42573495311E+02  0.68308986922E+02  0.10000000000E+01 0.  0.
<mgrwt>
<rscale>  0 0.12499975E+03</rscale>
<asrwt>0</asrwt>
<pdfrwt beam="2">  1        4 0.82332298E-02 0.12499975E+03</pdfrwt>
<pdfrwt beam="1">  1       -4 0.11229524E-01 0.12499975E+03</pdfrwt>
<totfact> 0.10419914E+04</totfact>
</mgrwt>
</event>
<event>
 5    1  0.3241863E-002  0.1250005E+03  0.7818608E-02  0.1235068E+00
         -4   -1    0    0    0  501 -0.00000000000E+00  0.00000000000E+00  0.38726003627E+02  0.38746822540E+02  0.12700000000E+01 0.  1.
          4   -1    0    0  501    0  0.00000000000E+00 -0.00000000000E+00 -0.10081787309E+03  0.10082587185E+03  0.12700000000E+01 0.  1.
         25    2    1    2    0    0  0.00000000000E+00  0.00000000000E+00 -0.62091869459E+02  0.13957269439E+03  0.12500054706E+03 0.  0.
    9000005    1    3    3    0    0  0.35682315584E+02  0.42033011561E+02  0.17989320869E+01  0.55174612486E+02  0.10000000000E+01 0.  0.
    9000005    1    3    3    0    0 -0.35682315584E+02 -0.42033011561E+02 -0.63890801546E+02  0.84398081901E+02  0.10000000000E+01 0.  0.
<mgrwt>
<rscale>  0 0.12500055E+03</rscale>
<asrwt>0</asrwt>
<pdfrwt beam="2">  1        4 0.15512659E-01 0.12500055E+03</pdfrwt>
<pdfrwt beam="1">  1       -4 0.59600635E-02 0.12500055E+03</pdfrwt>
<totfact> 0.10142325E+04</totfact>
</mgrwt>
</event>
<event>
 5    1  0.3241863E-002  0.1250023E+03  0.7818608E-02  0.1235066E+00
         -4   -1    0    0    0  501 -0.00000000000E+00  0.00000000000E+00  0.23081425876E+03  0.23081775267E+03  0.12700000000E+01 0. -1.
          4   -1    0    0  501    0  0.00000000000E+00 -0.00000000000E+00 -0.16896950578E+02  0.16944610908E+02  0.12700000000E+01 0. -1.
         25    2    1    2    0    0  0.00000000000E+00  0.00000000000E+00  0.21391730818E+03  0.24776236358E+03  0.12500229624E+03 0.  0.
    9000005    1    3    3    0    0  0.45385560053E+02 -0.13636702511E+02  0.26213388251E+02  0.54165952777E+02  0.10000000000E+01 0.  0.
    9000005    1    3    3    0    0 -0.45385560053E+02  0.13636702511E+02  0.18770391993E+03  0.19359641080E+03  0.10000000000E+01 0.  0.
<mgrwt>
<rscale>  0 0.12500230E+03</rscale>
<asrwt>0</asrwt>
<pdfrwt beam="2">  1        4 0.26034659E-02 0.12500230E+03</pdfrwt>
<pdfrwt beam="1">  1       -4 0.35513820E-01 0.12500230E+03</pdfrwt>
<totfact> 0.82650486E+03</totfact>
</mgrwt>
</event>
<event>
 5    1  0.3241863E-002  0.1250001E+03  0.7818608E-02  0.1235069E+00
         -4   -1    0    0    0  501 -0.00000000000E+00  0.00000000000E+00  0.60087988198E+03  0.60088122409E+03  0.12700000000E+01 0. -1.
          4   -1    0    0  501    0  0.00000000000E+00 -0.00000000000E+00 -0.64375076095E+01  0.65615854961E+01  0.12700000000E+01 0. -1.
         25    2    1    2    0    0  0.00000000000E+00  0.00000000000E+00  0.59444237437E+03  0.60744280959E+03  0.12500012190E+03 0.  0.
    9000005    1    3    3    0    0  0.22802439104E+02 -0.43459050764E+02  0.48521793616E+03  0.48769466462E+03  0.10000000000E+01 0.  0.
    9000005    1    3    3    0    0 -0.22802439104E+02  0.43459050764E+02  0.10922443820E+03  0.11974814497E+03  0.10000000000E+01 0.  0.
<mgrwt>
<rscale>  0 0.12500012E+03</rscale>
<asrwt>0</asrwt>
<pdfrwt beam="2">  1        4 0.10000338E-02 0.12500012E+03</pdfrwt>
<pdfrwt beam="1">  1       -4 0.92452674E-01 0.12500012E+03</pdfrwt>
<totfact> 0.48401027E+03</totfact>
</mgrwt>
</event>
<event>
 5    1  0.3241863E-002  0.1249995E+03  0.7818608E-02  0.1235070E+00
          4   -1    0    0  501    0  0.00000000000E+00  0.00000000000E+00  0.12697667815E+03  0.12698302916E+03  0.12700000000E+01 0. -1.
         -4   -1    0    0    0  501 -0.00000000000E+00 -0.00000000000E+00 -0.30743061595E+02  0.30769282349E+02  0.12700000000E+01 0. -1.
         25    2    1    2    0    0  0.00000000000E+00  0.00000000000E+00  0.96233616554E+02  0.15775231151E+03  0.12499953132E+03 0.  0.
    9000005    1    3    3    0    0  0.27148946158E+02 -0.13079096999E+02 -0.20973547866E+02  0.36728977197E+02  0.10000000000E+01 0.  0.
    9000005    1    3    3    0    0 -0.27148946158E+02  0.13079096999E+02  0.11720716442E+03  0.12102333431E+03  0.10000000000E+01 0.  0.
<mgrwt>
<rscale>  0 0.12499953E+03</rscale>
<asrwt>0</asrwt>
<pdfrwt beam="1">  1        4 0.19537379E-01 0.12499953E+03</pdfrwt>
<pdfrwt beam="2">  1       -4 0.47322073E-02 0.12499953E+03</pdfrwt>
<totfact> 0.97778910E+03</totfact>
</mgrwt>
</event>
<event>
 5    1  0.3241863E-002  0.1249958E+03  0.7818608E-02  0.1235076E+00
          4   -1    0    0  501    0  0.00000000000E+00  0.00000000000E+00  0.15297497277E+02  0.15350124525E+02  0.12700000000E+01 0. -1.
         -4   -1    0    0    0  501 -0.00000000000E+00 -0.00000000000E+00 -0.25484250634E+03  0.25484567082E+03  0.12700000000E+01 0. -1.
         25    2    1    2    0    0  0.00000000000E+00  0.00000000000E+00 -0.23954500906E+03  0.27019579535E+03  0.12499582576E+03 0.  0.
    9000005    1    3    3    0    0  0.15159868926E+02  0.60449926374E+02 -0.10987279238E+03  0.12632120063E+03  0.10000000000E+01 0.  0.
    9000005    1    3    3    0    0 -0.15159868926E+02 -0.60449926374E+02 -0.12967221669E+03  0.14387459472E+03  0.10000000000E+01 0.  0.
<mgrwt>
<rscale>  0 0.12499583E+03</rscale>
<asrwt>0</asrwt>
<pdfrwt beam="1">  1        4 0.23577530E-02 0.12499583E+03</pdfrwt>
<pdfrwt beam="2">  1       -4 0.39210828E-01 0.12499583E+03</pdfrwt>
<totfact> 0.79503564E+03</totfact>
</mgrwt>
</event>
<event>
 5    1  0.3241863E-002  0.1250015E+03  0.7818608E-02  0.1235067E+00
         -4   -1    0    0    0  501 -0.00000000000E+00  0.00000000000E+00  0.50743842538E+02  0.50759732619E+02  0.12700000000E+01 0. -1.
          4   -1    0    0  501    0  0.00000000000E+00 -0.00000000000E+00 -0.76948469630E+02  0.76958949307E+02  0.12700000000E+01 0. -1.
         25    2    1    2    0    0  0.00000000000E+00  0.00000000000E+00 -0.26204627092E+02  0.12771868193E+03  0.12500151692E+03 0.  0.
    9000005    1    3    3    0    0  0.18300197886E+02  0.58394022015E+02 -0.26050014431E+02  0.66515880071E+02  0.10000000000E+01 0.  0.
    9000005    1    3    3    0    0 -0.18300197886E+02 -0.58394022015E+02 -0.15461266046E+00  0.61202801855E+02  0.10000000000E+01 0.  0.
<mgrwt>
<rscale>  0 0.12500152E+03</rscale>
<asrwt>0</asrwt>
<pdfrwt beam="2">  1        4 0.11840255E-01 0.12500152E+03</pdfrwt>
<pdfrwt beam="1">  1       -4 0.78087735E-02 0.12500152E+03</pdfrwt>
<totfact> 0.10393212E+04</totfact>
</mgrwt>
</event>
<event>
 5    1  0.3241863E-002  0.1250002E+03  0.7818608E-02  0.1235069E+00
         -4   -1    0    0    0  501 -0.00000000000E+00  0.00000000000E+00  0.72409557287E+02  0.72420693772E+02  0.12700000000E+01 0.  1.
          4   -1    0    0  501    0  0.00000000000E+00 -0.00000000000E+00 -0.53923991702E+02  0.53938944938E+02  0.12700000000E+01 0.  1.
         25    2    1    2    0    0  0.00000000000E+00  0.00000000000E+00  0.18485565585E+02  0.12635963871E+03  0.12500016864E+03 0.  0.
    9000005    1    3    3    0    0 -0.94508951087E+01  0.57803520661E+02 -0.12781648502E+02  0.59957793134E+02  0.10000000000E+01 0.  0.
    9000005    1    3    3    0    0  0.94508951087E+01 -0.57803520661E+02  0.31267214087E+02  0.66401845576E+02  0.10000000000E+01 0.  0.
<mgrwt>
<rscale>  0 0.12500017E+03</rscale>
<asrwt>0</asrwt>
<pdfrwt beam="2">  1        4 0.82980056E-02 0.12500017E+03</pdfrwt>
<pdfrwt beam="1">  1       -4 0.11141939E-01 0.12500017E+03</pdfrwt>
<totfact> 0.10423051E+04</totfact>
</mgrwt>
</event>
<event>
 5    1  0.3241863E-002  0.1249977E+03  0.7818608E-02  0.1235073E+00
         -4   -1    0    0    0  501 -0.00000000000E+00  0.00000000000E+00  0.33471358459E+03  0.33471599395E+03  0.12700000000E+01 0. -1.
          4   -1    0    0  501    0  0.00000000000E+00 -0.00000000000E+00 -0.11632980868E+02  0.11702099977E+02  0.12700000000E+01 0. -1.
         25    2    1    2    0    0  0.00000000000E+00  0.00000000000E+00  0.32308060372E+03  0.34641809393E+03  0.12499767719E+03 0.  0.
    9000005    1    3    3    0    0 -0.34061876909E+02  0.48858656371E+02  0.10912316315E+03  0.12432314546E+03  0.10000000000E+01 0.  0.
    9000005    1    3    3    0    0  0.34061876909E+02 -0.48858656371E+02  0.21395744057E+03  0.22209494847E+03  0.10000000000E+01 0.  0.
<mgrwt>
<rscale>  0 0.12499768E+03</rscale>
<asrwt>0</asrwt>
<pdfrwt beam="2">  1        4 0.17951915E-02 0.12499768E+03</pdfrwt>
<pdfrwt beam="1">  1       -4 0.51499901E-01 0.12499768E+03</pdfrwt>
<totfact> 0.70124018E+03</totfact>
</mgrwt>
</event>
<event>
 5    1  0.3241863E-002  0.1250000E+03  0.7818608E-02  0.1235069E+00
         -4   -1    0    0    0  501 -0.00000000000E+00  0.00000000000E+00  0.39802631605E+03  0.39802834217E+03  0.12700000000E+01 0. -1.
          4   -1    0    0  501    0  0.00000000000E+00 -0.00000000000E+00 -0.97709020377E+01  0.98530922370E+01  0.12700000000E+01 0. -1.
         25    2    1    2    0    0  0.00000000000E+00  0.00000000000E+00  0.38825541402E+03  0.40788143441E+03  0.12499999209E+03 0.  0.
    9000005    1    3    3    0    0 -0.24871524851E+02  0.44621628276E+02  0.76677469598E+02  0.92141829818E+02  0.10000000000E+01 0.  0.
    9000005    1    3    3    0    0  0.24871524851E+02 -0.44621628276E+02  0.31157794442E+03  0.31573960459E+03  0.10000000000E+01 0.  0.
<mgrwt>
<rscale>  0 0.12499999E+03</rscale>
<asrwt>0</asrwt>
<pdfrwt beam="2">  1        4 0.15096938E-02 0.12499999E+03</pdfrwt>
<pdfrwt beam="1">  1       -4 0.61241298E-01 0.12499999E+03</pdfrwt>
<totfact> 0.63793410E+03</totfact>
</mgrwt>
</event>
<event>
 5    1  0.3241863E-002  0.1250004E+03  0.7818608E-02  0.1235069E+00
          4   -1    0    0  501    0  0.00000000000E+00  0.00000000000E+00  0.26150045726E+03  0.26150354118E+03  0.12700000000E+01 0.  1.
         -4   -1    0    0    0  501 -0.00000000000E+00 -0.00000000000E+00 -0.14907761987E+02  0.14961760172E+02  0.12700000000E+01 0.  1.
         25    2    1    2    0    0  0.00000000000E+00  0.00000000000E+00  0.24659269527E+03  0.27646530135E+03  0.12500042195E+03 0.  0.
    9000005    1    3    3    0    0 -0.26909356932E+02 -0.56141413603E+02  0.11132351935E+03  0.12755350945E+03  0.10000000000E+01 0.  0.
    9000005    1    3    3    0    0  0.26909356932E+02  0.56141413603E+02  0.13526917593E+03  0.14891179190E+03  0.10000000000E+01 0.  0.
<mgrwt>
<rscale>  0 0.12500042E+03</rscale>
<asrwt>0</asrwt>
<pdfrwt beam="1">  1        4 0.40235231E-01 0.12500042E+03</pdfrwt>
<pdfrwt beam="2">  1       -4 0.22978928E-02 0.12500042E+03</pdfrwt>
<totfact> 0.78648387E+03</totfact>
</mgrwt>
</event>
<event>
 5    1  0.3241863E-002  0.1250010E+03  0.7818608E-02  0.1235068E+00
          4   -1    0    0  501    0  0.00000000000E+00  0.00000000000E+00  0.90077048542E+01  0.90967932119E+01  0.12700000000E+01 0. -1.
         -4   -1    0    0    0  501 -0.00000000000E+00 -0.00000000000E+00 -0.43143957024E+03  0.43144143944E+03  0.12700000000E+01 0. -1.
         25    2    1    2    0    0  0.00000000000E+00  0.00000000000E+00 -0.42243186538E+03  0.44053823265E+03  0.12500101415E+03 0.  0.
    9000005    1    3    3    0    0 -0.57269878781E+02  0.22850497441E+02 -0.17539132308E+03  0.18591691817E+03  0.10000000000E+01 0.  0.
    9000005    1    3    3    0    0  0.57269878781E+02 -0.22850497441E+02 -0.24704054230E+03  0.25462131448E+03  0.10000000000E+01 0.  0.
<mgrwt>
<rscale>  0 0.12500101E+03</rscale>
<asrwt>0</asrwt>
<pdfrwt beam="1">  1        4 0.13927978E-02 0.12500101E+03</pdfrwt>
<pdfrwt beam="2">  1       -4 0.66382299E-01 0.12500101E+03</pdfrwt>
<totfact> 0.60790892E+03</totfact>
</mgrwt>
</event>
<event>
 5    1  0.3241863E-002  0.1249794E+03  0.7818608E-02  0.1235101E+00
          4   -1    0    0  501    0  0.00000000000E+00  0.00000000000E+00  0.70685534864E+02  0.70696942925E+02  0.12700000000E+01 0.  1.
         -4   -1    0    0    0  501 -0.00000000000E+00 -0.00000000000E+00 -0.55221015609E+02  0.55235617720E+02  0.12700000000E+01 0.  1.
         25    2    1    2    0    0  0.00000000000E+00  0.00000000000E+00  0.15464519255E+02  0.12593256064E+03  0.12497943221E+03 0.  0.
    9000005    1    3    3    0    0  0.39599190519E+02 -0.47001893886E+02  0.19073795084E+02  0.64359020949E+02  0.10000000000E+01 0.  0.
    9000005    1    3    3    0    0 -0.39599190519E+02  0.47001893886E+02 -0.36092758296E+01  0.61573539696E+02  0.10000000000E+01 0.  0.
<mgrwt>
<rscale>  0 0.12497943E+03</rscale>
<asrwt>0</asrwt>
<pdfrwt beam="1">  1        4 0.10876698E-01 0.12497943E+03</pdfrwt>
<pdfrwt beam="2">  1       -4 0.84975417E-02 0.12497943E+03</pdfrwt>
<totfact> 0.10437279E+04</totfact>
</mgrwt>
</event>
<event>
 4    1  0.3241863E-002  0.1250706E+03  0.7818608E-02  0.1234959E+00
          4   -1    0    0  501    0  0.00000000000E+00  0.00000000000E+00  0.87700568204E+02  0.87709763216E+02  0.12700000000E+01 0. -1.
         -4   -1    0    0    0  501 -0.00000000000E+00 -0.00000000000E+00 -0.44570493292E+02  0.44588583430E+02  0.12700000000E+01 0. -1.
    9000005    1    1    2    0    0  0.25268554855E+02 -0.47095546675E+02  0.55893068781E+02  0.77340322723E+02  0.10000000000E+01 0.  0.
    9000005    1    1    2    0    0 -0.25268554855E+02  0.47095546675E+02 -0.12762993868E+02  0.54958023923E+02  0.10000000000E+01 0.  0.
<mgrwt>
<rscale>  0 0.12507058E+03</rscale>
<asrwt>0</asrwt>
<pdfrwt beam="1">  1        4 0.13494494E-01 0.12507058E+03</pdfrwt>
<pdfrwt beam="2">  1       -4 0.68590979E-02 0.12507058E+03</pdfrwt>
<totfact> 0.10278961E+04</totfact>
</mgrwt>
</event>
<event>
 5    1  0.3241863E-002  0.1250014E+03  0.7818608E-02  0.1235067E+00
          4   -1    0    0  501    0  0.00000000000E+00  0.00000000000E+00  0.64341194747E+03  0.64341320087E+03  0.12700000000E+01 0.  1.
         -4   -1    0    0    0  501 -0.00000000000E+00 -0.00000000000E+00 -0.60035955509E+01  0.61364533355E+01  0.12700000000E+01 0.  1.
         25    2    1    2    0    0  0.00000000000E+00  0.00000000000E+00  0.63740835192E+03  0.64954965420E+03  0.12500138469E+03 0.  0.
    9000005    1    3    3    0    0  0.46632993531E+02 -0.18731410179E+02  0.12568028402E+03  0.13535891402E+03  0.10000000000E+01 0.  0.
    9000005    1    3    3    0    0 -0.46632993531E+02  0.18731410179E+02  0.51172806790E+03  0.51419074018E+03  0.10000000000E+01 0.  0.
<mgrwt>
<rscale>  0 0.12500138E+03</rscale>
<asrwt>0</asrwt>
<pdfrwt beam="1">  1        4 0.98996731E-01 0.12500138E+03</pdfrwt>
<pdfrwt beam="2">  1       -4 0.93394669E-03 0.12500138E+03</pdfrwt>
<totfact> 0.45880619E+03</totfact>
</mgrwt>
</event>
<event>
 5    1  0.3241863E-002  0.1250038E+03  0.7818608E-02  0.1235063E+00
         -4   -1    0    0    0  501 -0.00000000000E+00  0.00000000000E+00  0.74357603395E+02  0.74368448166E+02  0.12700000000E+01 0.  1.
          4   -1    0    0  501    0  0.00000000000E+00 -0.00000000000E+00 -0.52514117801E+02  0.52529472379E+02  0.12700000000E+01 0.  1.
         25    2    1    2    0    0  0.00000000000E+00  0.00000000000E+00  0.21843485593E+02  0.12689792054E+03  0.12500377745E+03 0.  0.
    9000005    1    3    3    0    0  0.33666940538E+02 -0.10468603083E+02 -0.41458872382E+02  0.54432459387E+02  0.10000000000E+01 0.  0.
    9000005    1    3    3    0    0 -0.33666940538E+02  0.10468603083E+02  0.63302357975E+02  0.72465461158E+02  0.10000000000E+01 0.  0.
<mgrwt>
<rscale>  0 0.12500378E+03</rscale>
<asrwt>0</asrwt>
<pdfrwt beam="2">  1        4 0.80811104E-02 0.12500378E+03</pdfrwt>
<pdfrwt beam="1">  1       -4 0.11441647E-01 0.12500378E+03</pdfrwt>
<totfact> 0.10410476E+04</totfact>
</mgrwt>
</event>
<event>
 5    1  0.3241863E-002  0.1250021E+03  0.7818608E-02  0.1235066E+00
          4   -1    0    0  501    0  0.00000000000E+00  0.00000000000E+00  0.62999245521E+02  0.63012045168E+02  0.12700000000E+01 0.  1.
         -4   -1    0    0    0  501 -0.00000000000E+00 -0.00000000000E+00 -0.61981175989E+02  0.61994185832E+02  0.12700000000E+01 0.  1.
         25    2    1    2    0    0  0.00000000000E+00  0.00000000000E+00  0.10180695326E+01  0.12500623100E+03  0.12500208528E+03 0.  0.
    9000005    1    3    3    0    0  0.30004008005E+02  0.25386037591E+02  0.49097567550E+02  0.62898827813E+02  0.10000000000E+01 0.  0.
    9000005    1    3    3    0    0 -0.30004008005E+02 -0.25386037591E+02 -0.48079498018E+02  0.62107403186E+02  0.10000000000E+01 0.  0.
<mgrwt>
<rscale>  0 0.12500209E+03</rscale>
<asrwt>0</asrwt>
<pdfrwt beam="1">  1        4 0.96941770E-02 0.12500209E+03</pdfrwt>
<pdfrwt beam="2">  1       -4 0.95375509E-02 0.12500209E+03</pdfrwt>
<totfact> 0.10452235E+04</totfact>
</mgrwt>
</event>
<event>
 5    1  0.3241863E-002  0.1250028E+03  0.7818608E-02  0.1235065E+00
         -4   -1    0    0    0  501 -0.00000000000E+00  0.00000000000E+00  0.12905671678E+03  0.12906296543E+03  0.12700000000E+01 0. -1.
          4   -1    0    0  501    0  0.00000000000E+00 -0.00000000000E+00 -0.30248739168E+02  0.30275388044E+02  0.12700000000E+01 0. -1.
         25    2    1    2    0    0  0.00000000000E+00  0.00000000000E+00  0.98807977609E+02  0.15933835347E+03  0.12500277776E+03 0.  0.
    9000005    1    3    3    0    0 -0.48798065882E+02 -0.25952890444E+02  0.86580481853E+02  0.10272284845E+03  0.10000000000E+01 0.  0.
    9000005    1    3    3    0    0  0.48798065882E+02  0.25952890444E+02  0.12227495756E+02  0.56615505020E+02  0.10000000000E+01 0.  0.
<mgrwt>
<rscale>  0 0.12500278E+03</rscale>
<asrwt>0</asrwt>
<pdfrwt beam="2">  1        4 0.46561827E-02 0.12500278E+03</pdfrwt>
<pdfrwt beam="1">  1       -4 0.19857410E-01 0.12500278E+03</pdfrwt>
<totfact> 0.97464411E+03</totfact>
</mgrwt>
</event>
<event>
 5    1  0.3241863E-002  0.1249995E+03  0.7818608E-02  0.1235070E+00
          4   -1    0    0  501    0  0.00000000000E+00  0.00000000000E+00  0.14864890232E+03  0.14865432742E+03  0.12700000000E+01 0. -1.
         -4   -1    0    0    0  501 -0.00000000000E+00 -0.00000000000E+00 -0.26256891500E+02  0.26287587398E+02  0.12700000000E+01 0. -1.
         25    2    1    2    0    0  0.00000000000E+00  0.00000000000E+00  0.12239201082E+03  0.17494191482E+03  0.12499947699E+03 0.  0.
    9000005    1    3    3    0    0  0.61715638944E+02  0.26692821280E+01  0.74419422244E+02  0.96722259922E+02  0.10000000000E+01 0.  0.
    9000005    1    3    3    0    0 -0.61715638944E+02 -0.26692821280E+01  0.47972588573E+02  0.78219654893E+02  0.10000000000E+01 0.  0.
<mgrwt>
<rscale>  0 0.12499948E+03</rscale>
<asrwt>0</asrwt>
<pdfrwt beam="1">  1        4 0.22871840E-01 0.12499948E+03</pdfrwt>
<pdfrwt beam="2">  1       -4 0.40423003E-02 0.12499948E+03</pdfrwt>
<totfact> 0.94536589E+03</totfact>
</mgrwt>
</event>
<event>
 5    1  0.3241863E-002  0.1249989E+03  0.7818608E-02  0.1235071E+00
          4   -1    0    0  501    0  0.00000000000E+00  0.00000000000E+00  0.28862577617E+02  0.28890505130E+02  0.12700000000E+01 0. -1.
         -4   -1    0    0    0  501 -0.00000000000E+00 -0.00000000000E+00 -0.13524082183E+03  0.13524678476E+03  0.12700000000E+01 0. -1.
         25    2    1    2    0    0  0.00000000000E+00  0.00000000000E+00 -0.10637824421E+03  0.16413728989E+03  0.12499887636E+03 0.  0.
    9000005    1    3    3    0    0  0.31379351135E+02 -0.53915054920E+02 -0.58046378088E+02  0.85216658195E+02  0.10000000000E+01 0.  0.
    9000005    1    3    3    0    0 -0.31379351135E+02  0.53915054920E+02 -0.48331866121E+02  0.78920631697E+02  0.10000000000E+01 0.  0.
<mgrwt>
<rscale>  0 0.12499888E+03</rscale>
<asrwt>0</asrwt>
<pdfrwt beam="1">  1        4 0.44430036E-02 0.12499888E+03</pdfrwt>
<pdfrwt beam="2">  1       -4 0.20808887E-01 0.12499888E+03</pdfrwt>
<totfact> 0.96553463E+03</totfact>
</mgrwt>
</event>
<event>
 5    1  0.3241863E-002  0.1250013E+03  0.7818608E-02  0.1235067E+00
          4   -1    0    0  501    0  0.00000000000E+00  0.00000000000E+00  0.26921251346E+02  0.26951190586E+02  0.12700000000E+01 0.  1.
         -4   -1    0    0    0  501 -0.00000000000E+00 -0.00000000000E+00 -0.14498874297E+03  0.14499430502E+03  0.12700000000E+01 0.  1.
         25    2    1    2    0    0  0.00000000000E+00  0.00000000000E+00 -0.11806749162E+03  0.17194549560E+03  0.12500128351E+03 0.  0.
    9000005    1    3    3    0    0 -0.54869165825E+02  0.27355034590E+02 -0.75677725189E+02  0.97401444371E+02  0.10000000000E+01 0.  0.
    9000005    1    3    3    0    0  0.54869165825E+02 -0.27355034590E+02 -0.42389766433E+02  0.74544051231E+02  0.10000000000E+01 0.  0.
<mgrwt>
<rscale>  0 0.12500128E+03</rscale>
<asrwt>0</asrwt>
<pdfrwt beam="1">  1        4 0.41444619E-02 0.12500128E+03</pdfrwt>
<pdfrwt beam="2">  1       -4 0.22308691E-01 0.12500128E+03</pdfrwt>
<totfact> 0.95084523E+03</totfact>
</mgrwt>
</event>
<event>
 5    1  0.3241863E-002  0.1249937E+03  0.7818608E-02  0.1235079E+00
         -4   -1    0    0    0  501 -0.00000000000E+00  0.00000000000E+00  0.15455581375E+02  0.15507672154E+02  0.12700000000E+01 0. -1.
          4   -1    0    0  501    0  0.00000000000E+00 -0.00000000000E+00 -0.25223627253E+03  0.25223946971E+03  0.12700000000E+01 0. -1.
         25    2    1    2    0    0  0.00000000000E+00  0.00000000000E+00 -0.23678069115E+03  0.26774714186E+03  0.12499374493E+03 0.  0.
    9000005    1    3    3    0    0 -0.27304130866E+02  0.36995941721E+02 -0.20903478455E+03  0.21403447483E+03  0.10000000000E+01 0.  0.
    9000005    1    3    3    0    0  0.27304130866E+02 -0.36995941721E+02 -0.27745906609E+02  0.53712667032E+02  0.10000000000E+01 0.  0.
<mgrwt>
<rscale>  0 0.12499374E+03</rscale>
<asrwt>0</asrwt>
<pdfrwt beam="2">  1        4 0.38809830E-01 0.12499374E+03</pdfrwt>
<pdfrwt beam="1">  1       -4 0.23820349E-02 0.12499374E+03</pdfrwt>
<totfact> 0.79842116E+03</totfact>
</mgrwt>
</event>
<event>
 4    1  0.3241863E-002  0.1244932E+03  0.7818608E-02  0.1235863E+00
          4   -1    0    0  501    0  0.00000000000E+00  0.00000000000E+00  0.61751116768E+02  0.61764175070E+02  0.12700000000E+01 0.  1.
         -4   -1    0    0    0  501 -0.00000000000E+00 -0.00000000000E+00 -0.62719984835E+02  0.62732841460E+02  0.12700000000E+01 0.  1.
    9000005    1    1    2    0    0 -0.31122310652E+02 -0.40763378649E+02  0.34778381431E+02  0.61974083891E+02  0.10000000000E+01 0.  0.
    9000005    1    1    2    0    0  0.31122310652E+02  0.40763378649E+02 -0.35747249498E+02  0.62522932639E+02  0.10000000000E+01 0.  0.
<mgrwt>
<rscale>  0 0.12449325E+03</rscale>
<asrwt>0</asrwt>
<pdfrwt beam="1">  1        4 0.95021653E-02 0.12449325E+03</pdfrwt>
<pdfrwt beam="2">  1       -4 0.96512219E-02 0.12449325E+03</pdfrwt>
<totfact> 0.10584554E+04</totfact>
</mgrwt>
</event>
<event>
 5    1  0.3241863E-002  0.1250503E+03  0.7818608E-02  0.1234991E+00
          4   -1    0    0  501    0  0.00000000000E+00  0.00000000000E+00  0.73475966366E+02  0.73486941244E+02  0.12700000000E+01 0.  1.
         -4   -1    0    0    0  501 -0.00000000000E+00 -0.00000000000E+00 -0.53183941817E+02  0.53199103068E+02  0.12700000000E+01 0.  1.
         25    2    1    2    0    0  0.00000000000E+00  0.00000000000E+00  0.20292024549E+02  0.12668604431E+03  0.12505034012E+03 0.  0.
    9000005    1    3    3    0    0  0.18350577281E+02 -0.54731059196E+00  0.70688509119E+02  0.73040458356E+02  0.10000000000E+01 0.  0.
    9000005    1    3    3    0    0 -0.18350577281E+02  0.54731059196E+00 -0.50396484570E+02  0.53645585955E+02  0.10000000000E+01 0.  0.
<mgrwt>
<rscale>  0 0.12505034E+03</rscale>
<asrwt>0</asrwt>
<pdfrwt beam="1">  1        4 0.11306005E-01 0.12505034E+03</pdfrwt>
<pdfrwt beam="2">  1       -4 0.81841553E-02 0.12505034E+03</pdfrwt>
<totfact> 0.10404147E+04</totfact>
</mgrwt>
</event>
<event>
 5    1  0.3241863E-002  0.1249993E+03  0.7818608E-02  0.1235070E+00
         -4   -1    0    0    0  501 -0.00000000000E+00  0.00000000000E+00  0.14639434130E+02  0.14694418384E+02  0.12700000000E+01 0. -1.
          4   -1    0    0  501    0  0.00000000000E+00 -0.00000000000E+00 -0.26627085064E+03  0.26627387930E+03  0.12700000000E+01 0. -1.
         25    2    1    2    0    0  0.00000000000E+00  0.00000000000E+00 -0.25163141651E+03  0.28096829769E+03  0.12499925813E+03 0.  0.
    9000005    1    3    3    0    0 -0.54914096217E+02 -0.28032946329E+02 -0.10291506385E+03  0.11997464070E+03  0.10000000000E+01 0.  0.
    9000005    1    3    3    0    0  0.54914096217E+02  0.28032946329E+02 -0.14871635266E+03  0.16099365699E+03  0.10000000000E+01 0.  0.
<mgrwt>
<rscale>  0 0.12499926E+03</rscale>
<asrwt>0</asrwt>
<pdfrwt beam="2">  1        4 0.40969205E-01 0.12499926E+03</pdfrwt>
<pdfrwt beam="1">  1       -4 0.22566834E-02 0.12499926E+03</pdfrwt>
<totfact> 0.78051180E+03</totfact>
</mgrwt>
</event>
<event>
 5    1  0.3241863E-002  0.1249991E+03  0.7818608E-02  0.1235071E+00
          4   -1    0    0  501    0  0.00000000000E+00  0.00000000000E+00  0.50455213719E+01  0.52029016822E+01  0.12700000000E+01 0. -1.
         -4   -1    0    0    0  501 -0.00000000000E+00 -0.00000000000E+00 -0.76214314472E+03  0.76214420285E+03  0.12700000000E+01 0. -1.
         25    2    1    2    0    0  0.00000000000E+00  0.00000000000E+00 -0.75709762334E+03  0.76734710453E+03  0.12499907024E+03 0.  0.
    9000005    1    3    3    0    0 -0.39798782101E+02 -0.31150085999E+02 -0.15291714649E+03  0.16105565686E+03  0.10000000000E+01 0.  0.
    9000005    1    3    3    0    0  0.39798782101E+02  0.31150085999E+02 -0.60418047685E+03  0.60629144767E+03  0.10000000000E+01 0.  0.
<mgrwt>
<rscale>  0 0.12499907E+03</rscale>
<asrwt>0</asrwt>
<pdfrwt beam="1">  1        4 0.78842223E-03 0.12499907E+03</pdfrwt>
<pdfrwt beam="2">  1       -4 0.11726489E+00 0.12499907E+03</pdfrwt>
<totfact> 0.39758682E+03</totfact>
</mgrwt>
</event>
<event>
 5    1  0.3241863E-002  0.1250001E+03  0.7818608E-02  0.1235069E+00
          4   -1    0    0  501    0  0.00000000000E+00  0.00000000000E+00  0.18993638083E+02  0.19036049685E+02  0.12700000000E+01 0.  1.
         -4   -1    0    0    0  501 -0.00000000000E+00 -0.00000000000E+00 -0.20538751264E+03  0.20539143909E+03  0.12700000000E+01 0.  1.
         25    2    1    2    0    0  0.00000000000E+00  0.00000000000E+00 -0.18639387456E+03  0.22442748877E+03  0.12500008497E+03 0.  0.
    9000005    1    3    3    0    0  0.33374786193E+01 -0.31933193134E+02 -0.18945528803E+03  0.19215924060E+03  0.10000000000E+01 0.  0.
    9000005    1    3    3    0    0 -0.33374786193E+01  0.31933193134E+02  0.30614134697E+01  0.32268248166E+02  0.10000000000E+01 0.  0.
<mgrwt>
<rscale>  0 0.12500008E+03</rscale>
<asrwt>0</asrwt>
<pdfrwt beam="1">  1        4 0.29256628E-02 0.12500008E+03</pdfrwt>
<pdfrwt beam="2">  1       -4 0.31601642E-01 0.12500008E+03</pdfrwt>
<totfact> 0.86172407E+03</totfact>
</mgrwt>
</event>
<event>
 5    1  0.3241863E-002  0.1249977E+03  0.7818608E-02  0.1235073E+00
         -4   -1    0    0    0  501 -0.00000000000E+00  0.00000000000E+00  0.10604218571E+03  0.10604979043E+03  0.12700000000E+01 0. -1.
          4   -1    0    0  501    0  0.00000000000E+00 -0.00000000000E+00 -0.36815499209E+02  0.36837397872E+02  0.12700000000E+01 0. -1.
         25    2    1    2    0    0  0.00000000000E+00  0.00000000000E+00  0.69226686502E+02  0.14288718830E+03  0.12499765781E+03 0.  0.
    9000005    1    3    3    0    0 -0.35242204708E+02  0.44031505337E+02  0.38484224062E+01  0.56538454259E+02  0.10000000000E+01 0.  0.
    9000005    1    3    3    0    0  0.35242204708E+02 -0.44031505337E+02  0.65378264096E+02  0.86348734045E+02  0.10000000000E+01 0.  0.
<mgrwt>
<rscale>  0 0.12499766E+03</rscale>
<asrwt>0</asrwt>
<pdfrwt beam="2">  1        4 0.56661925E-02 0.12499766E+03</pdfrwt>
<pdfrwt beam="1">  1       -4 0.16316452E-01 0.12499766E+03</pdfrwt>
<totfact> 0.10074625E+04</totfact>
</mgrwt>
</event>
<event>
 5    1  0.3241863E-002  0.1249941E+03  0.7818608E-02  0.1235079E+00
          4   -1    0    0  501    0  0.00000000000E+00  0.00000000000E+00  0.16963066714E+03  0.16963542122E+03  0.12700000000E+01 0. -1.
         -4   -1    0    0    0  501 -0.00000000000E+00 -0.00000000000E+00 -0.23003187231E+02  0.23038218742E+02  0.12700000000E+01 0. -1.
         25    2    1    2    0    0  0.00000000000E+00  0.00000000000E+00  0.14662747991E+03  0.19267363996E+03  0.12499405455E+03 0.  0.
    9000005    1    3    3    0    0 -0.29955448651E+02  0.73905476634E+01  0.15707813805E+03  0.16008276157E+03  0.10000000000E+01 0.  0.
    9000005    1    3    3    0    0  0.29955448651E+02 -0.73905476634E+01 -0.10450658147E+02  0.32590878392E+02  0.10000000000E+01 0.  0.
<mgrwt>
<rscale>  0 0.12499405E+03</rscale>
<asrwt>0</asrwt>
<pdfrwt beam="1">  1        4 0.26100085E-01 0.12499405E+03</pdfrwt>
<pdfrwt beam="2">  1       -4 0.35420125E-02 0.12499405E+03</pdfrwt>
<totfact> 0.91396349E+03</totfact>
</mgrwt>
</event>
<event>
 5    1  0.3241863E-002  0.1249955E+03  0.7818608E-02  0.1235076E+00
          4   -1    0    0  501    0  0.00000000000E+00  0.00000000000E+00  0.90832849020E+02  0.90841726983E+02  0.12700000000E+01 0.  1.
         -4   -1    0    0    0  501 -0.00000000000E+00 -0.00000000000E+00 -0.42981361207E+02  0.43000119897E+02  0.12700000000E+01 0.  1.
         25    2    1    2    0    0  0.00000000000E+00  0.00000000000E+00  0.47851487814E+02  0.13384184688E+03  0.12499550028E+03 0.  0.
    9000005    1    3    3    0    0  0.35510974954E+02  0.50906687167E+02  0.31680437178E+02  0.69693401699E+02  0.10000000000E+01 0.  0.
    9000005    1    3    3    0    0 -0.35510974954E+02 -0.50906687167E+02  0.16171050635E+02  0.64148445181E+02  0.10000000000E+01 0.  0.
<mgrwt>
<rscale>  0 0.12499550E+03</rscale>
<asrwt>0</asrwt>
<pdfrwt beam="1">  1        4 0.13976410E-01 0.12499550E+03</pdfrwt>
<pdfrwt beam="2">  1       -4 0.66146430E-02 0.12499550E+03</pdfrwt>
<totfact> 0.10263581E+04</totfact>
</mgrwt>
</event>
<event>
 5    1  0.3241863E-002  0.1249989E+03  0.7818608E-02  0.1235071E+00
          4   -1    0    0  501    0  0.00000000000E+00  0.00000000000E+00  0.44927788571E+01  0.46688287459E+01  0.12700000000E+01 0.  1.
         -4   -1    0    0    0  501 -0.00000000000E+00 -0.00000000000E+00 -0.85255152927E+03  0.85255247519E+03  0.12700000000E+01 0.  1.
         25    2    1    2    0    0  0.00000000000E+00  0.00000000000E+00 -0.84805875041E+03  0.85722130394E+03  0.12499887911E+03 0.  0.
    9000005    1    3    3    0    0 -0.51554480979E+02  0.13067862631E+01 -0.66606399317E+03  0.66805824237E+03  0.10000000000E+01 0.  0.
    9000005    1    3    3    0    0  0.51554480979E+02 -0.13067862631E+01 -0.18199475725E+03  0.18916306158E+03  0.10000000000E+01 0.  0.
<mgrwt>
<rscale>  0 0.12499888E+03</rscale>
<asrwt>0</asrwt>
<pdfrwt beam="1">  1        4 0.70481249E-03 0.12499888E+03</pdfrwt>
<pdfrwt beam="2">  1       -4 0.13117526E+00 0.12499888E+03</pdfrwt>
<totfact> 0.35834538E+03</totfact>
</mgrwt>
</event>
<event>
 5    1  0.3241863E-002  0.1250002E+03  0.7818608E-02  0.1235069E+00
          4   -1    0    0  501    0  0.00000000000E+00  0.00000000000E+00  0.15084901149E+01  0.19719133923E+01  0.12700000000E+01 0.  1.
         -4   -1    0    0    0  501 -0.00000000000E+00 -0.00000000000E+00 -0.22442538668E+04  0.22442542261E+04  0.12700000000E+01 0.  1.
         25    2    1    2    0    0  0.00000000000E+00  0.00000000000E+00 -0.22427453767E+04  0.22462261395E+04  0.12500018110E+03 0.  0.
    9000005    1    3    3    0    0  0.50150355220E+02  0.76348119087E+01 -0.46555860757E+03  0.46831524165E+03  0.10000000000E+01 0.  0.
    9000005    1    3    3    0    0 -0.50150355220E+02 -0.76348119087E+01 -0.17771867691E+04  0.17779108979E+04  0.10000000000E+01 0.  0.
<mgrwt>
<rscale>  0 0.12500018E+03</rscale>
<asrwt>0</asrwt>
<pdfrwt beam="1">  1        4 0.26775278E-03 0.12500018E+03</pdfrwt>
<pdfrwt beam="2">  1       -4 0.34530318E+00 0.12500018E+03</pdfrwt>
<totfact> 0.69801416E+02</totfact>
</mgrwt>
</event>
<event>
 5    1  0.3241863E-002  0.1250003E+03  0.7818608E-02  0.1235069E+00
         -4   -1    0    0    0  501 -0.00000000000E+00  0.00000000000E+00  0.18163091748E+03  0.18163535748E+03  0.12700000000E+01 0.  1.
          4   -1    0    0  501    0  0.00000000000E+00 -0.00000000000E+00 -0.21483155858E+02  0.21520661831E+02  0.12700000000E+01 0.  1.
         25    2    1    2    0    0  0.00000000000E+00  0.00000000000E+00  0.16014776162E+03  0.20315601931E+03  0.12500025051E+03 0.  0.
    9000005    1    3    3    0    0  0.11339687759E+02  0.47547518690E+02  0.14335229791E+03  0.15146034586E+03  0.10000000000E+01 0.  0.
    9000005    1    3    3    0    0 -0.11339687759E+02 -0.47547518690E+02  0.16795463718E+02  0.51695673451E+02  0.10000000000E+01 0.  0.
<mgrwt>
<rscale>  0 0.12500025E+03</rscale>
<asrwt>0</asrwt>
<pdfrwt beam="2">  1        4 0.33083275E-02 0.12500025E+03</pdfrwt>
<pdfrwt beam="1">  1       -4 0.27946445E-01 0.12500025E+03</pdfrwt>
<totfact> 0.89605432E+03</totfact>
</mgrwt>
</event>
<event>
 5    1  0.3241863E-002  0.1250026E+03  0.7818608E-02  0.1235065E+00
         -4   -1    0    0    0  501 -0.00000000000E+00  0.00000000000E+00  0.59748550222E+02  0.59762046096E+02  0.12700000000E+01 0.  1.
          4   -1    0    0  501    0  0.00000000000E+00 -0.00000000000E+00 -0.65353778764E+02  0.65366117360E+02  0.12700000000E+01 0.  1.
         25    2    1    2    0    0  0.00000000000E+00  0.00000000000E+00 -0.56052285422E+01  0.12512816346E+03  0.12500255479E+03 0.  0.
    9000005    1    3    3    0    0 -0.37435775439E+02  0.14490748567E+02  0.45141135507E+02  0.60416398367E+02  0.10000000000E+01 0.  0.
    9000005    1    3    3    0    0  0.37435775439E+02 -0.14490748567E+02 -0.50746364050E+02  0.64711765090E+02  0.10000000000E+01 0.  0.
<mgrwt>
<rscale>  0 0.12500255E+03</rscale>
<asrwt>0</asrwt>
<pdfrwt beam="2">  1        4 0.10056415E-01 0.12500255E+03</pdfrwt>
<pdfrwt beam="1">  1       -4 0.91940719E-02 0.12500255E+03</pdfrwt>
<totfact> 0.10449476E+04</totfact>
</mgrwt>
</event>
<event>
 5    1  0.3241863E-002  0.1249996E+03  0.7818608E-02  0.1235070E+00
          4   -1    0    0  501    0  0.00000000000E+00  0.00000000000E+00  0.24024881039E+03  0.24025216709E+03  0.12700000000E+01 0.  1.
         -4   -1    0    0    0  501 -0.00000000000E+00 -0.00000000000E+00 -0.16230807546E+02  0.16280418103E+02  0.12700000000E+01 0.  1.
         25    2    1    2    0    0  0.00000000000E+00  0.00000000000E+00  0.22401800284E+03  0.25653258520E+03  0.12499960668E+03 0.  0.
    9000005    1    3    3    0    0  0.13169702205E+02 -0.15184718955E+02 -0.94257222793E+01  0.22222983292E+02  0.10000000000E+01 0.  0.
    9000005    1    3    3    0    0 -0.13169702205E+02  0.15184718955E+02  0.23344372512E+03  0.23430960190E+03  0.10000000000E+01 0.  0.
<mgrwt>
<rscale>  0 0.12499961E+03</rscale>
<asrwt>0</asrwt>
<pdfrwt beam="1">  1        4 0.36965433E-01 0.12499961E+03</pdfrwt>
<pdfrwt beam="2">  1       -4 0.25011215E-02 0.12499961E+03</pdfrwt>
<totfact> 0.81395848E+03</totfact>
</mgrwt>
</event>
<event>
 5    1  0.3241863E-002  0.1249993E+03  0.7818608E-02  0.1235070E+00
          4   -1    0    0  501    0  0.00000000000E+00  0.00000000000E+00  0.39981848031E+02  0.40002013349E+02  0.12700000000E+01 0.  1.
         -4   -1    0    0    0  501 -0.00000000000E+00 -0.00000000000E+00 -0.97650604722E+02  0.97658862898E+02  0.12700000000E+01 0.  1.
         25    2    1    2    0    0  0.00000000000E+00  0.00000000000E+00 -0.57668756691E+02  0.13766087625E+03  0.12499932540E+03 0.  0.
    9000005    1    3    3    0    0 -0.26129204351E+02 -0.50296537757E+02  0.15140965606E+00  0.56687740784E+02  0.10000000000E+01 0.  0.
    9000005    1    3    3    0    0  0.26129204351E+02  0.50296537757E+02 -0.57820166347E+02  0.80973135463E+02  0.10000000000E+01 0.  0.
<mgrwt>
<rscale>  0 0.12499933E+03</rscale>
<asrwt>0</asrwt>
<pdfrwt beam="1">  1        4 0.61532400E-02 0.12499933E+03</pdfrwt>
<pdfrwt beam="2">  1       -4 0.15025356E-01 0.12499933E+03</pdfrwt>
<totfact> 0.10182441E+04</totfact>
</mgrwt>
</event>
<event>
 5    1  0.3241863E-002  0.1249712E+03  0.7818608E-02  0.1235114E+00
          4   -1    0    0  501    0  0.00000000000E+00  0.00000000000E+00  0.12242211815E+02  0.12307910063E+02  0.12700000000E+01 0.  1.
         -4   -1    0    0    0  501 -0.00000000000E+00 -0.00000000000E+00 -0.31801285751E+03  0.31801539341E+03  0.12700000000E+01 0.  1.
         25    2    1    2    0    0  0.00000000000E+00  0.00000000000E+00 -0.30577064570E+03  0.33032330347E+03  0.12497118486E+03 0.  0.
    9000005    1    3    3    0    0 -0.38099504679E+02  0.12669049890E+02 -0.26360090464E+02  0.48040935161E+02  0.10000000000E+01 0.  0.
    9000005    1    3    3    0    0  0.38099504679E+02 -0.12669049890E+02 -0.27941055523E+03  0.28228236831E+03  0.10000000000E+01 0.  0.
<mgrwt>
<rscale>  0 0.12497118E+03</rscale>
<asrwt>0</asrwt>
<pdfrwt beam="1">  1        4 0.18886662E-02 0.12497118E+03</pdfrwt>
<pdfrwt beam="2">  1       -4 0.48930298E-01 0.12497118E+03</pdfrwt>
<totfact> 0.71990847E+03</totfact>
</mgrwt>
</event>
<event>
 5    1  0.3241863E-002  0.1250010E+03  0.7818608E-02  0.1235068E+00
         -4   -1    0    0    0  501 -0.00000000000E+00  0.00000000000E+00  0.64904317482E+01  0.66135167859E+01  0.12700000000E+01 0.  1.
          4   -1    0    0  501    0  0.00000000000E+00 -0.00000000000E+00 -0.59607965549E+03  0.59608100841E+03  0.12700000000E+01 0.  1.
         25    2    1    2    0    0  0.00000000000E+00  0.00000000000E+00 -0.58958922374E+03  0.60269452520E+03  0.12500095180E+03 0.  0.
    9000005    1    3    3    0    0 -0.31590085193E+02 -0.33529601768E+02 -0.91195036370E+02  0.10217486156E+03  0.10000000000E+01 0.  0.
    9000005    1    3    3    0    0  0.31590085193E+02  0.33529601768E+02 -0.49839418737E+03  0.50051966363E+03  0.10000000000E+01 0.  0.
<mgrwt>
<rscale>  0 0.12500095E+03</rscale>
<asrwt>0</asrwt>
<pdfrwt beam="2">  1        4 0.91714092E-01 0.12500095E+03</pdfrwt>
<pdfrwt beam="1">  1       -4 0.10081006E-02 0.12500095E+03</pdfrwt>
<totfact> 0.48696965E+03</totfact>
</mgrwt>
</event>
<event>
 5    1  0.3241863E-002  0.1250014E+03  0.7818608E-02  0.1235067E+00
         -4   -1    0    0    0  501 -0.00000000000E+00  0.00000000000E+00  0.77925185900E+02  0.77935534242E+02  0.12700000000E+01 0.  1.
          4   -1    0    0  501    0  0.00000000000E+00 -0.00000000000E+00 -0.50107601127E+02  0.50123692907E+02  0.12700000000E+01 0.  1.
         25    2    1    2    0    0  0.00000000000E+00  0.00000000000E+00  0.27817584773E+02  0.12805922715E+03  0.12500139053E+03 0.  0.
    9000005    1    3    3    0    0 -0.13351882429E+02  0.28773267772E+01 -0.48564813777E+02  0.50458823916E+02  0.10000000000E+01 0.  0.
    9000005    1    3    3    0    0  0.13351882429E+02 -0.28773267772E+01  0.76382398550E+02  0.77600403234E+02  0.10000000000E+01 0.  0.
<mgrwt>
<rscale>  0 0.12500139E+03</rscale>
<asrwt>0</asrwt>
<pdfrwt beam="2">  1        4 0.77108956E-02 0.12500139E+03</pdfrwt>
<pdfrwt beam="1">  1       -4 0.11990524E-01 0.12500139E+03</pdfrwt>
<totfact> 0.10385883E+04</totfact>
</mgrwt>
</event>
<event>
 5    1  0.3241863E-002  0.1249979E+03  0.7818608E-02  0.1235073E+00
          4   -1    0    0  501    0  0.00000000000E+00  0.00000000000E+00  0.18984000002E+03  0.18984424802E+03  0.12700000000E+01 0. -1.
         -4   -1    0    0    0  501 -0.00000000000E+00 -0.00000000000E+00 -0.20551766540E+02  0.20590969086E+02  0.12700000000E+01 0. -1.
         25    2    1    2    0    0  0.00000000000E+00  0.00000000000E+00  0.16928823348E+03  0.21043521711E+03  0.12499789840E+03 0.  0.
    9000005    1    3    3    0    0 -0.49006528867E+02  0.16586492104E+02  0.14364789088E+03  0.15268421053E+03  0.10000000000E+01 0.  0.
    9000005    1    3    3    0    0  0.49006528867E+02 -0.16586492104E+02  0.25640342601E+02  0.57751006576E+02  0.10000000000E+01 0.  0.
<mgrwt>
<rscale>  0 0.12499790E+03</rscale>
<asrwt>0</asrwt>
<pdfrwt beam="1">  1        4 0.29209496E-01 0.12499790E+03</pdfrwt>
<pdfrwt beam="2">  1       -4 0.31651526E-02 0.12499790E+03</pdfrwt>
<totfact> 0.88409007E+03</totfact>
</mgrwt>
</event>
<event>
 5    1  0.3241863E-002  0.1250014E+03  0.7818608E-02  0.1235067E+00
          4   -1    0    0  501    0  0.00000000000E+00  0.00000000000E+00  0.68488735168E+02  0.68500509085E+02  0.12700000000E+01 0.  1.
         -4   -1    0    0    0  501 -0.00000000000E+00 -0.00000000000E+00 -0.57012422261E+02  0.57026565670E+02  0.12700000000E+01 0.  1.
         25    2    1    2    0    0  0.00000000000E+00  0.00000000000E+00  0.11476312907E+02  0.12552707475E+03  0.12500136295E+03 0.  0.
    9000005    1    3    3    0    0  0.25634566962E+02  0.40473064582E+02 -0.34557091525E+02  0.59079544300E+02  0.10000000000E+01 0.  0.
    9000005    1    3    3    0    0 -0.25634566962E+02 -0.40473064582E+02  0.46033404432E+02  0.66447530455E+02  0.10000000000E+01 0.  0.
<mgrwt>
<rscale>  0 0.12500136E+03</rscale>
<asrwt>0</asrwt>
<pdfrwt beam="1">  1        4 0.10538722E-01 0.12500136E+03</pdfrwt>
<pdfrwt beam="2">  1       -4 0.87731355E-02 0.12500136E+03</pdfrwt>
<totfact> 0.10441035E+04</totfact>
</mgrwt>
</event>
<event>
 5    1  0.3241863E-002  0.1249993E+03  0.7818608E-02  0.1235070E+00
         -4   -1    0    0    0  501 -0.00000000000E+00  0.00000000000E+00  0.20878275503E+02  0.20916866113E+02  0.12700000000E+01 0. -1.
          4   -1    0    0  501    0  0.00000000000E+00 -0.00000000000E+00 -0.18688065634E+03  0.18688497161E+03  0.12700000000E+01 0. -1.
         25    2    1    2    0    0  0.00000000000E+00  0.00000000000E+00 -0.16600238084E+03  0.20780183773E+03  0.12499925327E+03 0.  0.
    9000005    1    3    3    0    0 -0.31866791965E+02  0.51416849939E+02 -0.10907627928E+03  0.12473098889E+03  0.10000000000E+01 0.  0.
    9000005    1    3    3    0    0  0.31866791965E+02 -0.51416849939E+02 -0.56926101560E+02  0.83070848838E+02  0.10000000000E+01 0.  0.
<mgrwt>
<rscale>  0 0.12499925E+03</rscale>
<asrwt>0</asrwt>
<pdfrwt beam="2">  1        4 0.28754170E-01 0.12499925E+03</pdfrwt>
<pdfrwt beam="1">  1       -4 0.32153430E-02 0.12499925E+03</pdfrwt>
<totfact> 0.88837616E+03</totfact>
</mgrwt>
</event>
<event>
 5    1  0.3241863E-002  0.1249978E+03  0.7818608E-02  0.1235073E+00
          4   -1    0    0  501    0  0.00000000000E+00  0.00000000000E+00  0.97927705905E+02  0.97935940716E+02  0.12700000000E+01 0. -1.
         -4   -1    0    0    0  501 -0.00000000000E+00 -0.00000000000E+00 -0.39867694644E+02  0.39887917672E+02  0.12700000000E+01 0. -1.
         25    2    1    2    0    0  0.00000000000E+00  0.00000000000E+00  0.58060011262E+02  0.13782385839E+03  0.12499780411E+03 0.  0.
    9000005    1    3    3    0    0 -0.23318049995E+02 -0.43721416244E+02 -0.12953521641E+02  0.51225847156E+02  0.10000000000E+01 0.  0.
    9000005    1    3    3    0    0  0.23318049995E+02  0.43721416244E+02  0.71013532903E+02  0.86598011232E+02  0.10000000000E+01 0.  0.
<mgrwt>
<rscale>  0 0.12499780E+03</rscale>
<asrwt>0</asrwt>
<pdfrwt beam="1">  1        4 0.15067990E-01 0.12499780E+03</pdfrwt>
<pdfrwt beam="2">  1       -4 0.61356806E-02 0.12499780E+03</pdfrwt>
<totfact> 0.10179392E+04</totfact>
</mgrwt>
</event>
<event>
 5    1  0.3241863E-002  0.1250026E+03  0.7818608E-02  0.1235065E+00
         -4   -1    0    0    0  501 -0.00000000000E+00  0.00000000000E+00  0.22113633065E+02  0.22150071497E+02  0.12700000000E+01 0.  1.
          4   -1    0    0  501    0  0.00000000000E+00 -0.00000000000E+00 -0.17646754083E+03  0.17647211074E+03  0.12700000000E+01 0.  1.
         25    2    1    2    0    0  0.00000000000E+00  0.00000000000E+00 -0.15435390777E+03  0.19862218223E+03  0.12500256970E+03 0.  0.
    9000005    1    3    3    0    0  0.30441297569E+02  0.53675659312E+02 -0.61474383720E+02  0.87108259391E+02  0.10000000000E+01 0.  0.
    9000005    1    3    3    0    0 -0.30441297569E+02 -0.53675659312E+02 -0.92879524049E+02  0.11151392284E+03  0.10000000000E+01 0.  0.
<mgrwt>
<rscale>  0 0.12500257E+03</rscale>
<asrwt>0</asrwt>
<pdfrwt beam="2">  1        4 0.27152006E-01 0.12500257E+03</pdfrwt>
<pdfrwt beam="1">  1       -4 0.34052520E-02 0.12500257E+03</pdfrwt>
<totfact> 0.90363152E+03</totfact>
</mgrwt>
</event>
<event>
 5    1  0.3241863E-002  0.1249992E+03  0.7818608E-02  0.1235070E+00
          4   -1    0    0  501    0  0.00000000000E+00  0.00000000000E+00  0.46636093567E+03  0.46636266491E+03  0.12700000000E+01 0.  1.
         -4   -1    0    0    0  501 -0.00000000000E+00 -0.00000000000E+00 -0.83260230048E+01  0.84223250398E+01  0.12700000000E+01 0.  1.
         25    2    1    2    0    0  0.00000000000E+00  0.00000000000E+00  0.45803491267E+03  0.47478498995E+03  0.12499922183E+03 0.  0.
    9000005    1    3    3    0    0  0.54005374057E+02  0.31155886662E+02  0.24510167490E+03  0.25290927373E+03  0.10000000000E+01 0.  0.
    9000005    1    3    3    0    0 -0.54005374057E+02 -0.31155886662E+02  0.21293323777E+03  0.22187571622E+03  0.10000000000E+01 0.  0.
<mgrwt>
<rscale>  0 0.12499922E+03</rscale>
<asrwt>0</asrwt>
<pdfrwt beam="1">  1        4 0.71755375E-01 0.12499922E+03</pdfrwt>
<pdfrwt beam="2">  1       -4 0.12884675E-02 0.12499922E+03</pdfrwt>
<totfact> 0.57876219E+03</totfact>
</mgrwt>
</event>
<event>
 5    1  0.3241863E-002  0.1250069E+03  0.7818608E-02  0.1235058E+00
         -4   -1    0    0    0  501 -0.00000000000E+00  0.00000000000E+00  0.16745052970E+04  0.16745057786E+04  0.12700000000E+01 0. -1.
          4   -1    0    0  501    0  0.00000000000E+00 -0.00000000000E+00 -0.21596859092E+01  0.25054227640E+01  0.12700000000E+01 0. -1.
         25    2    1    2    0    0  0.00000000000E+00  0.00000000000E+00  0.16723456111E+04  0.16770112014E+04  0.12500690614E+03 0.  0.
    9000005    1    3    3    0    0 -0.67977460654E+01  0.61925664003E+02  0.90282485743E+03  0.90497222079E+03  0.10000000000E+01 0.  0.
    9000005    1    3    3    0    0  0.67977460654E+01 -0.61925664003E+02  0.76952075368E+03  0.77203898060E+03  0.10000000000E+01 0.  0.
<mgrwt>
<rscale>  0 0.12500691E+03</rscale>
<asrwt>0</asrwt>
<pdfrwt beam="2">  1        4 0.35889170E-03 0.12500691E+03</pdfrwt>
<pdfrwt beam="1">  1       -4 0.25764273E+00 0.12500691E+03</pdfrwt>
<totfact> 0.14692874E+03</totfact>
</mgrwt>
</event>
<event>
 5    1  0.3241863E-002  0.1249992E+03  0.7818608E-02  0.1235071E+00
          4   -1    0    0  501    0  0.00000000000E+00  0.00000000000E+00  0.46921862845E+01  0.48610196594E+01  0.12700000000E+01 0.  1.
         -4   -1    0    0    0  501 -0.00000000000E+00 -0.00000000000E+00 -0.81760803305E+03  0.81760901940E+03  0.12700000000E+01 0.  1.
         25    2    1    2    0    0  0.00000000000E+00  0.00000000000E+00 -0.81291584676E+03  0.82247003906E+03  0.12499916492E+03 0.  0.
    9000005    1    3    3    0    0 -0.23707658721E+02  0.44318055146E+02 -0.65080307349E+03  0.65274174339E+03  0.10000000000E+01 0.  0.
    9000005    1    3    3    0    0  0.23707658721E+02 -0.44318055146E+02 -0.16211277327E+03  0.16972829567E+03  0.10000000000E+01 0.  0.
<mgrwt>
<rscale>  0 0.12499916E+03</rscale>
<asrwt>0</asrwt>
<pdfrwt beam="1">  1        4 0.73493851E-03 0.12499916E+03</pdfrwt>
<pdfrwt beam="2">  1       -4 0.12579880E+00 0.12499916E+03</pdfrwt>
<totfact> 0.37281785E+03</totfact>
</mgrwt>
</event>
<event>
 5    1  0.3241863E-002  0.1249966E+03  0.7818608E-02  0.1235075E+00
         -4   -1    0    0    0  501 -0.00000000000E+00  0.00000000000E+00  0.14859499070E+03  0.14860041777E+03  0.12700000000E+01 0. -1.
          4   -1    0    0  501    0  0.00000000000E+00 -0.00000000000E+00 -0.26265214976E+02  0.26295901159E+02  0.12700000000E+01 0. -1.
         25    2    1    2    0    0  0.00000000000E+00  0.00000000000E+00  0.12232977573E+03  0.17489631893E+03  0.12499659334E+03 0.  0.
    9000005    1    3    3    0    0  0.18246298337E+02  0.28115561153E+02  0.13496070993E+03  0.13906403348E+03  0.10000000000E+01 0.  0.
    9000005    1    3    3    0    0 -0.18246298337E+02 -0.28115561153E+02 -0.12630934204E+02  0.35832285453E+02  0.10000000000E+01 0.  0.
<mgrwt>
<rscale>  0 0.12499659E+03</rscale>
<asrwt>0</asrwt>
<pdfrwt beam="2">  1        4 0.40435803E-02 0.12499659E+03</pdfrwt>
<pdfrwt beam="1">  1       -4 0.22863545E-01 0.12499659E+03</pdfrwt>
<totfact> 0.94551059E+03</totfact>
</mgrwt>
</event>
<event>
 5    1  0.3241863E-002  0.1250183E+03  0.7818608E-02  0.1235041E+00
          4   -1    0    0  501    0  0.00000000000E+00  0.00000000000E+00  0.33343765863E+01  0.35680480966E+01  0.12700000000E+01 0. -1.
         -4   -1    0    0    0  501 -0.00000000000E+00 -0.00000000000E+00 -0.11319454065E+04  0.11319461189E+04  0.12700000000E+01 0. -1.
         25    2    1    2    0    0  0.00000000000E+00  0.00000000000E+00 -0.11286110299E+04  0.11355141670E+04  0.12501826551E+03 0.  0.
    9000005    1    3    3    0    0 -0.15770887820E+02  0.45262828358E+02 -0.92863135615E+03  0.92986807675E+03  0.10000000000E+01 0.  0.
    9000005    1    3    3    0    0  0.15770887820E+02 -0.45262828358E+02 -0.19997967373E+03  0.20564609026E+03  0.10000000000E+01 0.  0.
<mgrwt>
<rscale>  0 0.12501827E+03</rscale>
<asrwt>0</asrwt>
<pdfrwt beam="1">  1        4 0.53101145E-03 0.12501827E+03</pdfrwt>
<pdfrwt beam="2">  1       -4 0.17416318E+00 0.12501827E+03</pdfrwt>
<totfact> 0.26455116E+03</totfact>
</mgrwt>
</event>
<event>
 5    1  0.3241863E-002  0.1250022E+03  0.7818608E-02  0.1235066E+00
         -4   -1    0    0    0  501 -0.00000000000E+00  0.00000000000E+00  0.61819259395E+02  0.61832303306E+02  0.12700000000E+01 0. -1.
          4   -1    0    0  501    0  0.00000000000E+00 -0.00000000000E+00 -0.63164380031E+02  0.63177146222E+02  0.12700000000E+01 0. -1.
         25    2    1    2    0    0  0.00000000000E+00  0.00000000000E+00 -0.13451206360E+01  0.12500944953E+03  0.12500221247E+03 0.  0.
    9000005    1    3    3    0    0 -0.31100369438E+02 -0.53871331578E+02 -0.66758184239E+01  0.62569320732E+02  0.10000000000E+01 0.  0.
    9000005    1    3    3    0    0  0.31100369438E+02  0.53871331578E+02  0.53306977880E+01  0.62440128796E+02  0.10000000000E+01 0.  0.
<mgrwt>
<rscale>  0 0.12500221E+03</rscale>
<asrwt>0</asrwt>
<pdfrwt beam="2">  1        4 0.97195823E-02 0.12500221E+03</pdfrwt>
<pdfrwt beam="1">  1       -4 0.95126407E-02 0.12500221E+03</pdfrwt>
<totfact> 0.10452135E+04</totfact>
</mgrwt>
</event>
<event>
 5    1  0.3241863E-002  0.1249998E+03  0.7818608E-02  0.1235070E+00
         -4   -1    0    0    0  501 -0.00000000000E+00  0.00000000000E+00  0.70993710822E+03  0.70993824417E+03  0.12700000000E+01 0.  1.
          4   -1    0    0  501    0  0.00000000000E+00 -0.00000000000E+00 -0.54277917826E+01  0.55743899788E+01  0.12700000000E+01 0.  1.
         25    2    1    2    0    0  0.00000000000E+00  0.00000000000E+00  0.70450931644E+03  0.71551263414E+03  0.12499981069E+03 0.  0.
    9000005    1    3    3    0    0 -0.26139235791E+02  0.27686180142E+02  0.68610496903E+02  0.78474100848E+02  0.10000000000E+01 0.  0.
    9000005    1    3    3    0    0  0.26139235791E+02 -0.27686180142E+02  0.63589881954E+03  0.63703853330E+03  0.10000000000E+01 0.  0.
<mgrwt>
<rscale>  0 0.12499981E+03</rscale>
<asrwt>0</asrwt>
<pdfrwt beam="2">  1        4 0.84640909E-03 0.12499981E+03</pdfrwt>
<pdfrwt beam="1">  1       -4 0.10923245E+00 0.12499981E+03</pdfrwt>
<totfact> 0.42280532E+03</totfact>
</mgrwt>
</event>
<event>
 5    1  0.3241863E-002  0.1249996E+03  0.7818608E-02  0.1235070E+00
         -4   -1    0    0    0  501 -0.00000000000E+00  0.00000000000E+00  0.18063184634E+03  0.18063631089E+03  0.12700000000E+01 0.  1.
          4   -1    0    0  501    0  0.00000000000E+00 -0.00000000000E+00 -0.21601957520E+02  0.21639257582E+02  0.12700000000E+01 0.  1.
         25    2    1    2    0    0  0.00000000000E+00  0.00000000000E+00  0.15902988882E+03  0.20227556847E+03  0.12499960025E+03 0.  0.
    9000005    1    3    3    0    0 -0.42968783860E+02  0.78065524075E+01  0.71832076557E+01  0.44270273538E+02  0.10000000000E+01 0.  0.
    9000005    1    3    3    0    0  0.42968783860E+02 -0.78065524075E+01  0.15184668116E+03  0.15800529493E+03  0.10000000000E+01 0.  0.
<mgrwt>
<rscale>  0 0.12499960E+03</rscale>
<asrwt>0</asrwt>
<pdfrwt beam="2">  1        4 0.33265907E-02 0.12499960E+03</pdfrwt>
<pdfrwt beam="1">  1       -4 0.27792728E-01 0.12499960E+03</pdfrwt>
<totfact> 0.89753929E+03</totfact>
</mgrwt>
</event>
<event>
 5    1  0.3241863E-002  0.1250051E+03  0.7818608E-02  0.1235061E+00
         -4   -1    0    0    0  501 -0.00000000000E+00  0.00000000000E+00  0.43644699784E+02  0.43663173490E+02  0.12700000000E+01 0.  1.
          4   -1    0    0  501    0  0.00000000000E+00 -0.00000000000E+00 -0.89466575871E+02  0.89475589398E+02  0.12700000000E+01 0.  1.
         25    2    1    2    0    0  0.00000000000E+00  0.00000000000E+00 -0.45821876087E+02  0.13313876289E+03  0.12500514332E+03 0.  0.
    9000005    1    3    3    0    0 -0.80587335311E+01 -0.49494616633E+02  0.16810625699E+02  0.52898557619E+02  0.10000000000E+01 0.  0.
    9000005    1    3    3    0    0  0.80587335311E+01  0.49494616633E+02 -0.62632501786E+02  0.80240205270E+02  0.10000000000E+01 0.  0.
<mgrwt>
<rscale>  0 0.12500514E+03</rscale>
<asrwt>0</asrwt>
<pdfrwt beam="2">  1        4 0.13766203E-01 0.12500514E+03</pdfrwt>
<pdfrwt beam="1">  1       -4 0.67166836E-02 0.12500514E+03</pdfrwt>
<totfact> 0.10276259E+04</totfact>
</mgrwt>
</event>
<event>
 5    1  0.3241863E-002  0.1249996E+03  0.7818608E-02  0.1235070E+00
          4   -1    0    0  501    0  0.00000000000E+00  0.00000000000E+00  0.20468858611E+02  0.20508219641E+02  0.12700000000E+01 0.  1.
         -4   -1    0    0    0  501 -0.00000000000E+00 -0.00000000000E+00 -0.19061256031E+03  0.19061679110E+03  0.12700000000E+01 0.  1.
         25    2    1    2    0    0  0.00000000000E+00  0.00000000000E+00 -0.17014370170E+03  0.21112501074E+03  0.12499956372E+03 0.  0.
    9000005    1    3    3    0    0  0.46716317770E+02  0.18632167508E+02 -0.14771668697E+03  0.15604740184E+03  0.10000000000E+01 0.  0.
    9000005    1    3    3    0    0 -0.46716317770E+02 -0.18632167508E+02 -0.22427014728E+02  0.55077608895E+02  0.10000000000E+01 0.  0.
<mgrwt>
<rscale>  0 0.12499956E+03</rscale>
<asrwt>0</asrwt>
<pdfrwt beam="1">  1        4 0.31524085E-02 0.12499956E+03</pdfrwt>
<pdfrwt beam="2">  1       -4 0.29328361E-01 0.12499956E+03</pdfrwt>
<totfact> 0.88293343E+03</totfact>
</mgrwt>
</event>
<event>
 5    1  0.3241863E-002  0.1250011E+03  0.7818608E-02  0.1235068E+00
         -4   -1    0    0    0  501 -0.00000000000E+00  0.00000000000E+00  0.77553531412E+02  0.77563929339E+02  0.12700000000E+01 0.  1.
          4   -1    0    0  501    0  0.00000000000E+00 -0.00000000000E+00 -0.50347566901E+02  0.50363582010E+02  0.12700000000E+01 0.  1.
         25    2    1    2    0    0  0.00000000000E+00  0.00000000000E+00  0.27205964511E+02  0.12792751135E+03  0.12500113461E+03 0.  0.
    9000005    1    3    3    0    0  0.76960040156E+01  0.41162590483E+02  0.61075716396E+02  0.74059641279E+02  0.10000000000E+01 0.  0.
    9000005    1    3    3    0    0 -0.76960040156E+01 -0.41162590483E+02 -0.33869751885E+02  0.53867870070E+02  0.10000000000E+01 0.  0.
<mgrwt>
<rscale>  0 0.12500113E+03</rscale>
<asrwt>0</asrwt>
<pdfrwt beam="2">  1        4 0.77478113E-02 0.12500113E+03</pdfrwt>
<pdfrwt beam="1">  1       -4 0.11933344E-01 0.12500113E+03</pdfrwt>
<totfact> 0.10388787E+04</totfact>
</mgrwt>
</event>
<event>
 5    1  0.3241863E-002  0.1250328E+03  0.7818608E-02  0.1235018E+00
          4   -1    0    0  501    0  0.00000000000E+00  0.00000000000E+00  0.15520852186E+02  0.15572724636E+02  0.12700000000E+01 0.  1.
         -4   -1    0    0    0  501 -0.00000000000E+00 -0.00000000000E+00 -0.25133618813E+03  0.25133939676E+03  0.12700000000E+01 0.  1.
         25    2    1    2    0    0  0.00000000000E+00  0.00000000000E+00 -0.23581533595E+03  0.26691212140E+03  0.12503282722E+03 0.  0.
    9000005    1    3    3    0    0 -0.35114219058E+02 -0.23136096086E+02 -0.21663811990E+03  0.22068385150E+03  0.10000000000E+01 0.  0.
    9000005    1    3    3    0    0  0.35114219058E+02  0.23136096086E+02 -0.19177216053E+02  0.46228269898E+02  0.10000000000E+01 0.  0.
<mgrwt>
<rscale>  0 0.12503283E+03</rscale>
<asrwt>0</asrwt>
<pdfrwt beam="1">  1        4 0.23920606E-02 0.12503283E+03</pdfrwt>
<pdfrwt beam="2">  1       -4 0.38671340E-01 0.12503283E+03</pdfrwt>
<totfact> 0.79887363E+03</totfact>
</mgrwt>
</event>
<event>
 5    1  0.3241863E-002  0.1250165E+03  0.7818608E-02  0.1235044E+00
         -4   -1    0    0    0  501 -0.00000000000E+00  0.00000000000E+00  0.58034473338E+02  0.58048367725E+02  0.12700000000E+01 0.  1.
          4   -1    0    0  501    0  0.00000000000E+00 -0.00000000000E+00 -0.67298934284E+02  0.67310916319E+02  0.12700000000E+01 0.  1.
         25    2    1    2    0    0  0.00000000000E+00  0.00000000000E+00 -0.92644609463E+01  0.12535928404E+03  0.12501647835E+03 0.  0.
    9000005    1    3    3    0    0  0.16644764182E+02  0.47193510838E+02  0.32913790543E+02  0.59904868315E+02  0.10000000000E+01 0.  0.
    9000005    1    3    3    0    0 -0.16644764182E+02 -0.47193510838E+02 -0.42178251490E+02  0.65454415730E+02  0.10000000000E+01 0.  0.
<mgrwt>
<rscale>  0 0.12501648E+03</rscale>
<asrwt>0</asrwt>
<pdfrwt beam="2">  1        4 0.10355673E-01 0.12501648E+03</pdfrwt>
<pdfrwt beam="1">  1       -4 0.89303710E-02 0.12501648E+03</pdfrwt>
<totfact> 0.10441175E+04</totfact>
</mgrwt>
</event>
<event>
 5    1  0.3241863E-002  0.1249990E+03  0.7818608E-02  0.1235071E+00
          4   -1    0    0  501    0  0.00000000000E+00  0.00000000000E+00  0.48243528733E+02  0.48260242070E+02  0.12700000000E+01 0. -1.
         -4   -1    0    0    0  501 -0.00000000000E+00 -0.00000000000E+00 -0.80932452072E+02  0.80942415941E+02  0.12700000000E+01 0. -1.
         25    2    1    2    0    0  0.00000000000E+00  0.00000000000E+00 -0.32688923339E+02  0.12920265801E+03  0.12499904451E+03 0.  0.
    9000005    1    3    3    0    0  0.44005127577E+02  0.10192886223E+02 -0.60980538899E+02  0.75894481400E+02  0.10000000000E+01 0.  0.
    9000005    1    3    3    0    0 -0.44005127577E+02 -0.10192886223E+02  0.28291615560E+02  0.53308176611E+02  0.10000000000E+01 0.  0.
<mgrwt>
<rscale>  0 0.12499904E+03</rscale>
<asrwt>0</asrwt>
<pdfrwt beam="1">  1        4 0.74241334E-02 0.12499904E+03</pdfrwt>
<pdfrwt beam="2">  1       -4 0.12453199E-01 0.12499904E+03</pdfrwt>
<totfact> 0.10361818E+04</totfact>
</mgrwt>
</event>
<event>
 5    1  0.3241863E-002  0.1249980E+03  0.7818608E-02  0.1235072E+00
         -4   -1    0    0    0  501 -0.00000000000E+00  0.00000000000E+00  0.45153558192E+03  0.45153736793E+03  0.12700000000E+01 0.  1.
          4   -1    0    0  501    0  0.00000000000E+00 -0.00000000000E+00 -0.86023389488E+01  0.86955813716E+01  0.12700000000E+01 0.  1.
         25    2    1    2    0    0  0.00000000000E+00  0.00000000000E+00  0.44293324297E+03  0.46023294930E+03  0.12499803957E+03 0.  0.
    9000005    1    3    3    0    0 -0.32655585321E+02  0.34104192517E+02  0.37218472455E+03  0.37516923166E+03  0.10000000000E+01 0.  0.
    9000005    1    3    3    0    0  0.32655585321E+02 -0.34104192517E+02  0.70748518421E+02  0.85063717639E+02  0.10000000000E+01 0.  0.
<mgrwt>
<rscale>  0 0.12499804E+03</rscale>
<asrwt>0</asrwt>
<pdfrwt beam="2">  1        4 0.13307465E-02 0.12499804E+03</pdfrwt>
<pdfrwt beam="1">  1       -4 0.69474328E-01 0.12499804E+03</pdfrwt>
<totfact> 0.59090000E+03</totfact>
</mgrwt>
</event>
<event>
 5    1  0.3241863E-002  0.1249985E+03  0.7818608E-02  0.1235072E+00
         -4   -1    0    0    0  501 -0.00000000000E+00  0.00000000000E+00  0.73347965308E+03  0.73348075256E+03  0.12700000000E+01 0.  1.
          4   -1    0    0  501    0  0.00000000000E+00 -0.00000000000E+00 -0.52486782720E+01  0.54001410725E+01  0.12700000000E+01 0.  1.
         25    2    1    2    0    0  0.00000000000E+00  0.00000000000E+00  0.72823097481E+03  0.73888089363E+03  0.12499848924E+03 0.  0.
    9000005    1    3    3    0    0 -0.15774544806E+02 -0.36087437530E+02  0.77318626839E+02  0.86777355731E+02  0.10000000000E+01 0.  0.
    9000005    1    3    3    0    0  0.15774544806E+02  0.36087437530E+02  0.65091234797E+03  0.65210353790E+03  0.10000000000E+01 0.  0.
<mgrwt>
<rscale>  0 0.12499849E+03</rscale>
<asrwt>0</asrwt>
<pdfrwt beam="2">  1        4 0.81922465E-03 0.12499849E+03</pdfrwt>
<pdfrwt beam="1">  1       -4 0.11285474E+00 0.12499849E+03</pdfrwt>
<totfact> 0.41113057E+03</totfact>
</mgrwt>
</event>
<event>
 5    1  0.3241863E-002  0.1250013E+03  0.7818608E-02  0.1235067E+00
          4   -1    0    0  501    0  0.00000000000E+00  0.00000000000E+00  0.16296922837E+04  0.16296927785E+04  0.12700000000E+01 0. -1.
         -4   -1    0    0    0  501 -0.00000000000E+00 -0.00000000000E+00 -0.22282203038E+01  0.25647350199E+01  0.12700000000E+01 0. -1.
         25    2    1    2    0    0  0.00000000000E+00  0.00000000000E+00  0.16274640634E+04  0.16322575136E+04  0.12500125180E+03 0.  0.
    9000005    1    3    3    0    0  0.39444802828E+02  0.46783502627E+02  0.97928456216E+03  0.98119510917E+03  0.10000000000E+01 0.  0.
    9000005    1    3    3    0    0 -0.39444802828E+02 -0.46783502627E+02  0.64817950123E+03  0.65106240439E+03  0.10000000000E+01 0.  0.
<mgrwt>
<rscale>  0 0.12500125E+03</rscale>
<asrwt>0</asrwt>
<pdfrwt beam="1">  1        4 0.25074779E+00 0.12500125E+03</pdfrwt>
<pdfrwt beam="2">  1       -4 0.36872697E-03 0.12500125E+03</pdfrwt>
<totfact> 0.15469619E+03</totfact>
</mgrwt>
</event>
<event>
 5    1  0.3241863E-002  0.1250002E+03  0.7818608E-02  0.1235069E+00
          4   -1    0    0  501    0  0.00000000000E+00  0.00000000000E+00  0.27607694867E+03  0.27607986976E+03  0.12700000000E+01 0. -1.
         -4   -1    0    0    0  501 -0.00000000000E+00 -0.00000000000E+00 -0.14117670080E+02  0.14174678426E+02  0.12700000000E+01 0. -1.
         25    2    1    2    0    0  0.00000000000E+00  0.00000000000E+00  0.26195927859E+03  0.29025454819E+03  0.12500015641E+03 0.  0.
    9000005    1    3    3    0    0  0.90705499871E+01 -0.24480845287E+02 -0.85938363142E+00  0.26140489729E+02  0.10000000000E+01 0.  0.
    9000005    1    3    3    0    0 -0.90705499871E+01  0.24480845287E+02  0.26281866222E+03  0.26411405846E+03  0.10000000000E+01 0.  0.
<mgrwt>
<rscale>  0 0.12500016E+03</rscale>
<asrwt>0</asrwt>
<pdfrwt beam="1">  1        4 0.42477987E-01 0.12500016E+03</pdfrwt>
<pdfrwt beam="2">  1       -4 0.21765592E-02 0.12500016E+03</pdfrwt>
<totfact> 0.76837512E+03</totfact>
</mgrwt>
</event>
<event>
 5    1  0.3241863E-002  0.1250005E+03  0.7818608E-02  0.1235069E+00
         -4   -1    0    0    0  501 -0.00000000000E+00  0.00000000000E+00  0.42667909400E+03  0.42668098406E+03  0.12700000000E+01 0.  1.
          4   -1    0    0  501    0  0.00000000000E+00 -0.00000000000E+00 -0.91091124987E+01  0.91972186292E+01  0.12700000000E+01 0.  1.
         25    2    1    2    0    0  0.00000000000E+00  0.00000000000E+00  0.41756998150E+03  0.43587820269E+03  0.12500047251E+03 0.  0.
    9000005    1    3    3    0    0 -0.12327201146E+02 -0.57874868624E+02  0.27885739076E+03  0.28506824566E+03  0.10000000000E+01 0.  0.
    9000005    1    3    3    0    0  0.12327201146E+02  0.57874868624E+02  0.13871259075E+03  0.15080995703E+03  0.10000000000E+01 0.  0.
<mgrwt>
<rscale>  0 0.12500047E+03</rscale>
<asrwt>0</asrwt>
<pdfrwt beam="2">  1        4 0.14083246E-02 0.12500047E+03</pdfrwt>
<pdfrwt beam="1">  1       -4 0.65649865E-01 0.12500047E+03</pdfrwt>
<totfact> 0.61206117E+03</totfact>
</mgrwt>
</event>
<event>
 5    1  0.3241863E-002  0.1250051E+03  0.7818608E-02  0.1235061E+00
          4   -1    0    0  501    0  0.00000000000E+00  0.00000000000E+00  0.83786930756E+02  0.83796555213E+02  0.12700000000E+01 0. -1.
         -4   -1    0    0    0  501 -0.00000000000E+00 -0.00000000000E+00 -0.46604076975E+02  0.46621378044E+02  0.12700000000E+01 0. -1.
         25    2    1    2    0    0  0.00000000000E+00  0.00000000000E+00  0.37182853781E+02  0.13041793326E+03  0.12500509070E+03 0.  0.
    9000005    1    3    3    0    0 -0.19054180144E+00  0.59736084137E+02  0.37747640904E+02  0.70670506210E+02  0.10000000000E+01 0.  0.
    9000005    1    3    3    0    0  0.19054180144E+00 -0.59736084137E+02 -0.56478712314E+00  0.59747427047E+02  0.10000000000E+01 0.  0.
<mgrwt>
<rscale>  0 0.12500509E+03</rscale>
<asrwt>0</asrwt>
<pdfrwt beam="1">  1        4 0.12892368E-01 0.12500509E+03</pdfrwt>
<pdfrwt beam="2">  1       -4 0.71719293E-02 0.12500509E+03</pdfrwt>
<totfact> 0.10334388E+04</totfact>
</mgrwt>
</event>
<event>
 5    1  0.3241863E-002  0.1249843E+03  0.7818608E-02  0.1235094E+00
          4   -1    0    0  501    0  0.00000000000E+00  0.00000000000E+00  0.33304932419E+02  0.33329137754E+02  0.12700000000E+01 0. -1.
         -4   -1    0    0    0  501 -0.00000000000E+00 -0.00000000000E+00 -0.11718770924E+03  0.11719459074E+03  0.12700000000E+01 0. -1.
         25    2    1    2    0    0  0.00000000000E+00  0.00000000000E+00 -0.83882776825E+02  0.15052372849E+03  0.12498428938E+03 0.  0.
    9000005    1    3    3    0    0  0.60452758217E+02  0.12248429271E+02 -0.29915563529E+02  0.68560199365E+02  0.10000000000E+01 0.  0.
    9000005    1    3    3    0    0 -0.60452758217E+02 -0.12248429271E+02 -0.53967213296E+02  0.81963529125E+02  0.10000000000E+01 0.  0.
<mgrwt>
<rscale>  0 0.12498429E+03</rscale>
<asrwt>0</asrwt>
<pdfrwt beam="1">  1        4 0.51262271E-02 0.12498429E+03</pdfrwt>
<pdfrwt beam="2">  1       -4 0.18031269E-01 0.12498429E+03</pdfrwt>
<totfact> 0.99234484E+03</totfact>
</mgrwt>
</event>
<event>
 5    1  0.3241863E-002  0.1249995E+03  0.7818608E-02  0.1235070E+00
          4   -1    0    0  501    0  0.00000000000E+00  0.00000000000E+00  0.42021792938E+03  0.42021984850E+03  0.12700000000E+01 0. -1.
         -4   -1    0    0    0  501 -0.00000000000E+00 -0.00000000000E+00 -0.92503648609E+01  0.93371382157E+01  0.12700000000E+01 0. -1.
         25    2    1    2    0    0  0.00000000000E+00  0.00000000000E+00  0.41096756452E+03  0.42955698671E+03  0.12499946299E+03 0.  0.
    9000005    1    3    3    0    0 -0.10635814485E+02  0.12763030491E+02  0.41250656755E+03  0.41284220202E+03  0.10000000000E+01 0.  0.
    9000005    1    3    3    0    0  0.10635814485E+02 -0.12763030491E+02 -0.15390030301E+01  0.16714784695E+02  0.10000000000E+01 0.  0.
<mgrwt>
<rscale>  0 0.12499946E+03</rscale>
<asrwt>0</asrwt>
<pdfrwt beam="1">  1        4 0.64655746E-01 0.12499946E+03</pdfrwt>
<pdfrwt beam="2">  1       -4 0.14299553E-02 0.12499946E+03</pdfrwt>
<totfact> 0.61776892E+03</totfact>
</mgrwt>
</event>
<event>
 5    1  0.3241863E-002  0.1250018E+03  0.7818608E-02  0.1235067E+00
         -4   -1    0    0    0  501 -0.00000000000E+00  0.00000000000E+00  0.22426236892E+03  0.22426596490E+03  0.12700000000E+01 0.  1.
          4   -1    0    0  501    0  0.00000000000E+00 -0.00000000000E+00 -0.17391816174E+02  0.17438124034E+02  0.12700000000E+01 0.  1.
         25    2    1    2    0    0  0.00000000000E+00  0.00000000000E+00  0.20687055274E+03  0.24170408893E+03  0.12500176405E+03 0.  0.
    9000005    1    3    3    0    0 -0.46276193309E+02 -0.20281325277E+02  0.17454733326E+03  0.18171568389E+03  0.10000000000E+01 0.  0.
    9000005    1    3    3    0    0  0.46276193309E+02  0.20281325277E+02  0.32323219482E+02  0.59988405045E+02  0.10000000000E+01 0.  0.
<mgrwt>
<rscale>  0 0.12500176E+03</rscale>
<asrwt>0</asrwt>
<pdfrwt beam="2">  1        4 0.26795030E-02 0.12500176E+03</pdfrwt>
<pdfrwt beam="1">  1       -4 0.34505739E-01 0.12500176E+03</pdfrwt>
<totfact> 0.83540943E+03</totfact>
</mgrwt>
</event>
<event>
 5    1  0.3241863E-002  0.1250042E+03  0.7818608E-02  0.1235063E+00
          4   -1    0    0  501    0  0.00000000000E+00  0.00000000000E+00  0.11423148248E+02  0.11493529306E+02  0.12700000000E+01 0. -1.
         -4   -1    0    0    0  501 -0.00000000000E+00 -0.00000000000E+00 -0.34086002001E+03  0.34086238592E+03  0.12700000000E+01 0. -1.
         25    2    1    2    0    0  0.00000000000E+00  0.00000000000E+00 -0.32943687176E+03  0.35235591523E+03  0.12500415403E+03 0.  0.
    9000005    1    3    3    0    0 -0.47685550952E+02  0.35591774697E+02 -0.21855762195E+03  0.22651516573E+03  0.10000000000E+01 0.  0.
    9000005    1    3    3    0    0  0.47685550952E+02 -0.35591774697E+02 -0.11087924981E+03  0.12584074950E+03  0.10000000000E+01 0.  0.
<mgrwt>
<rscale>  0 0.12500415E+03</rscale>
<asrwt>0</asrwt>
<pdfrwt beam="1">  1        4 0.17630036E-02 0.12500415E+03</pdfrwt>
<pdfrwt beam="2">  1       -4 0.52445591E-01 0.12500415E+03</pdfrwt>
<totfact> 0.69459770E+03</totfact>
</mgrwt>
</event>
<event>
 5    1  0.3241863E-002  0.1250220E+03  0.7818608E-02  0.1235035E+00
         -4   -1    0    0    0  501 -0.00000000000E+00  0.00000000000E+00  0.51381436652E+03  0.51381593605E+03  0.12700000000E+01 0.  1.
          4   -1    0    0  501    0  0.00000000000E+00 -0.00000000000E+00 -0.75505165584E+01  0.76565788900E+01  0.12700000000E+01 0.  1.
         25    2    1    2    0    0  0.00000000000E+00  0.00000000000E+00  0.50626384996E+03  0.52147251494E+03  0.12502199032E+03 0.  0.
    9000005    1    3    3    0    0 -0.46581384019E+02  0.14496444169E+02  0.90159142386E+02  0.10251655079E+03  0.10000000000E+01 0.  0.
    9000005    1    3    3    0    0  0.46581384019E+02 -0.14496444169E+02  0.41610470757E+03  0.41895596415E+03  0.10000000000E+01 0.  0.
<mgrwt>
<rscale>  0 0.12502199E+03</rscale>
<asrwt>0</asrwt>
<pdfrwt beam="2">  1        4 0.11698969E-02 0.12502199E+03</pdfrwt>
<pdfrwt beam="1">  1       -4 0.79056668E-01 0.12502199E+03</pdfrwt>
<totfact> 0.54209809E+03</totfact>
</mgrwt>
</event>
<event>
 5    1  0.3241863E-002  0.1249997E+03  0.7818608E-02  0.1235070E+00
         -4   -1    0    0    0  501 -0.00000000000E+00  0.00000000000E+00  0.73054407850E+02  0.73065446049E+02  0.12700000000E+01 0. -1.
          4   -1    0    0  501    0  0.00000000000E+00 -0.00000000000E+00 -0.53447560026E+02  0.53462646518E+02  0.12700000000E+01 0. -1.
         25    2    1    2    0    0  0.00000000000E+00  0.00000000000E+00  0.19606847824E+02  0.12652809257E+03  0.12499971891E+03 0.  0.
    9000005    1    3    3    0    0  0.23372446158E+02  0.24261502072E+02  0.63081007190E+02  0.71519963579E+02  0.10000000000E+01 0.  0.
    9000005    1    3    3    0    0 -0.23372446158E+02 -0.24261502072E+02 -0.43474159365E+02  0.55008128988E+02  0.10000000000E+01 0.  0.
<mgrwt>
<rscale>  0 0.12499972E+03</rscale>
<asrwt>0</asrwt>
<pdfrwt beam="2">  1        4 0.82247112E-02 0.12499972E+03</pdfrwt>
<pdfrwt beam="1">  1       -4 0.11241149E-01 0.12499972E+03</pdfrwt>
<totfact> 0.10419482E+04</totfact>
</mgrwt>
</event>
<event>
 5    1  0.3241863E-002  0.1250023E+03  0.7818608E-02  0.1235066E+00
          4   -1    0    0  501    0  0.00000000000E+00  0.00000000000E+00  0.11649393022E+02  0.11718415328E+02  0.12700000000E+01 0.  1.
         -4   -1    0    0    0  501 -0.00000000000E+00 -0.00000000000E+00 -0.33426961190E+03  0.33427202446E+03  0.12700000000E+01 0.  1.
         25    2    1    2    0    0  0.00000000000E+00  0.00000000000E+00 -0.32262021887E+03  0.34599043979E+03  0.12500231517E+03 0.  0.
    9000005    1    3    3    0    0  0.35022982908E+02 -0.32178410647E+02 -0.27351431327E+03  0.27762049457E+03  0.10000000000E+01 0.  0.
    9000005    1    3    3    0    0 -0.35022982908E+02  0.32178410647E+02 -0.49105905603E+02  0.68369945214E+02  0.10000000000E+01 0.  0.
<mgrwt>
<rscale>  0 0.12500232E+03</rscale>
<asrwt>0</asrwt>
<pdfrwt beam="1">  1        4 0.17977096E-02 0.12500232E+03</pdfrwt>
<pdfrwt beam="2">  1       -4 0.51431582E-01 0.12500232E+03</pdfrwt>
<totfact> 0.70164328E+03</totfact>
</mgrwt>
</event>
<event>
 5    1  0.3241863E-002  0.1250011E+03  0.7818608E-02  0.1235068E+00
         -4   -1    0    0    0  501 -0.00000000000E+00  0.00000000000E+00  0.11195831378E+03  0.11196551668E+03  0.12700000000E+01 0. -1.
          4   -1    0    0  501    0  0.00000000000E+00 -0.00000000000E+00 -0.34870922261E+02  0.34894041315E+02  0.12700000000E+01 0. -1.
         25    2    1    2    0    0  0.00000000000E+00  0.00000000000E+00  0.77087391520E+02  0.14685955799E+03  0.12500105536E+03 0.  0.
    9000005    1    3    3    0    0  0.68626419238E+01  0.50189250235E+02 -0.44515927147E+01  0.50861315074E+02  0.10000000000E+01 0.  0.
    9000005    1    3    3    0    0 -0.68626419238E+01 -0.50189250235E+02  0.81538984235E+02  0.95998242918E+02  0.10000000000E+01 0.  0.
<mgrwt>
<rscale>  0 0.12500106E+03</rscale>
<asrwt>0</asrwt>
<pdfrwt beam="2">  1        4 0.53670897E-02 0.12500106E+03</pdfrwt>
<pdfrwt beam="1">  1       -4 0.17226688E-01 0.12500106E+03</pdfrwt>
<totfact> 0.99931048E+03</totfact>
</mgrwt>
</event>
<event>
 5    1  0.3241863E-002  0.1249985E+03  0.7818608E-02  0.1235072E+00
          4   -1    0    0  501    0  0.00000000000E+00  0.00000000000E+00  0.16210356461E+02  0.16260029415E+02  0.12700000000E+01 0. -1.
         -4   -1    0    0    0  501 -0.00000000000E+00 -0.00000000000E+00 -0.24054663892E+03  0.24054999147E+03  0.12700000000E+01 0. -1.
         25    2    1    2    0    0  0.00000000000E+00  0.00000000000E+00 -0.22433628246E+03  0.25681002088E+03  0.12499847679E+03 0.  0.
    9000005    1    3    3    0    0 -0.37823080072E+02  0.14131365699E+02 -0.14177204106E+02  0.42805069781E+02  0.10000000000E+01 0.  0.
    9000005    1    3    3    0    0  0.37823080072E+02 -0.14131365699E+02 -0.21015907835E+03  0.21400495110E+03  0.10000000000E+01 0.  0.
<mgrwt>
<rscale>  0 0.12499848E+03</rscale>
<asrwt>0</asrwt>
<pdfrwt beam="1">  1        4 0.24979801E-02 0.12499848E+03</pdfrwt>
<pdfrwt beam="2">  1       -4 0.37011252E-01 0.12499848E+03</pdfrwt>
<totfact> 0.81358584E+03</totfact>
</mgrwt>
</event>
<event>
 5    1  0.3241863E-002  0.1249998E+03  0.7818608E-02  0.1235070E+00
          4   -1    0    0  501    0  0.00000000000E+00  0.00000000000E+00  0.99199702836E+03  0.99199784131E+03  0.12700000000E+01 0. -1.
         -4   -1    0    0    0  501 -0.00000000000E+00 -0.00000000000E+00 -0.38345150849E+01  0.40393571192E+01  0.12700000000E+01 0. -1.
         25    2    1    2    0    0  0.00000000000E+00  0.00000000000E+00  0.98816251327E+03  0.99603719843E+03  0.12499979210E+03 0.  0.
    9000005    1    3    3    0    0 -0.25750827070E+02  0.54402424147E+02  0.36015005533E+03  0.36514626001E+03  0.10000000000E+01 0.  0.
    9000005    1    3    3    0    0  0.25750827070E+02 -0.54402424147E+02  0.62801245794E+03  0.63089093842E+03  0.10000000000E+01 0.  0.
<mgrwt>
<rscale>  0 0.12499979E+03</rscale>
<asrwt>0</asrwt>
<pdfrwt beam="1">  1        4 0.15263069E+00 0.12499979E+03</pdfrwt>
<pdfrwt beam="2">  1       -4 0.60574523E-03 0.12499979E+03</pdfrwt>
<totfact> 0.30735838E+03</totfact>
</mgrwt>
</event>
<event>
 5    1  0.3241863E-002  0.1249998E+03  0.7818608E-02  0.1235070E+00
         -4   -1    0    0    0  501 -0.00000000000E+00  0.00000000000E+00  0.12208567902E+03  0.12209228445E+03  0.12700000000E+01 0.  1.
          4   -1    0    0  501    0  0.00000000000E+00 -0.00000000000E+00 -0.31975794900E+02  0.32001005601E+02  0.12700000000E+01 0.  1.
         25    2    1    2    0    0  0.00000000000E+00  0.00000000000E+00  0.90109884121E+02  0.15409329005E+03  0.12499980329E+03 0.  0.
    9000005    1    3    3    0    0 -0.12276766685E+02 -0.45435370683E+02  0.95734927697E+02  0.10668302719E+03  0.10000000000E+01 0.  0.
    9000005    1    3    3    0    0  0.12276766685E+02  0.45435370683E+02 -0.56250435756E+01  0.47410262861E+02  0.10000000000E+01 0.  0.
<mgrwt>
<rscale>  0 0.12499980E+03</rscale>
<asrwt>0</asrwt>
<pdfrwt beam="2">  1        4 0.49218005E-02 0.12499980E+03</pdfrwt>
<pdfrwt beam="1">  1       -4 0.18784860E-01 0.12499980E+03</pdfrwt>
<totfact> 0.98494227E+03</totfact>
</mgrwt>
</event>
<event>
 5    1  0.3241863E-002  0.1250040E+03  0.7818608E-02  0.1235063E+00
         -4   -1    0    0    0  501 -0.00000000000E+00  0.00000000000E+00  0.34344562376E+03  0.34344797187E+03  0.12700000000E+01 0. -1.
          4   -1    0    0  501    0  0.00000000000E+00 -0.00000000000E+00 -0.11336589567E+02  0.11407504680E+02  0.12700000000E+01 0. -1.
         25    2    1    2    0    0  0.00000000000E+00  0.00000000000E+00  0.33210903419E+03  0.35485547654E+03  0.12500399451E+03 0.  0.
    9000005    1    3    3    0    0  0.23548151019E+02 -0.13466718936E+02  0.62341868992E+01  0.27851984159E+02  0.10000000000E+01 0.  0.
    9000005    1    3    3    0    0 -0.23548151019E+02  0.13466718936E+02  0.32587484729E+03  0.32700349239E+03  0.10000000000E+01 0.  0.
<mgrwt>
<rscale>  0 0.12500399E+03</rscale>
<asrwt>0</asrwt>
<pdfrwt beam="2">  1        4 0.17497264E-02 0.12500399E+03</pdfrwt>
<pdfrwt beam="1">  1       -4 0.52843421E-01 0.12500399E+03</pdfrwt>
<totfact> 0.69187562E+03</totfact>
</mgrwt>
</event>
<event>
 5    1  0.3241863E-002  0.1249982E+03  0.7818608E-02  0.1235072E+00
         -4   -1    0    0    0  501 -0.00000000000E+00  0.00000000000E+00  0.21329879757E+03  0.21330257839E+03  0.12700000000E+01 0. -1.
          4   -1    0    0  501    0  0.00000000000E+00 -0.00000000000E+00 -0.18287003452E+02  0.18331050031E+02  0.12700000000E+01 0. -1.
         25    2    1    2    0    0  0.00000000000E+00  0.00000000000E+00  0.19501179412E+03  0.23163362842E+03  0.12499815186E+03 0.  0.
    9000005    1    3    3    0    0  0.36415386435E+02  0.43645312284E+02  0.49391689572E+02  0.75309578756E+02  0.10000000000E+01 0.  0.
    9000005    1    3    3    0    0 -0.36415386435E+02 -0.43645312284E+02  0.14562010455E+03  0.15632404966E+03  0.10000000000E+01 0.  0.
<mgrwt>
<rscale>  0 0.12499815E+03</rscale>
<asrwt>0</asrwt>
<pdfrwt beam="2">  1        4 0.28170639E-02 0.12499815E+03</pdfrwt>
<pdfrwt beam="1">  1       -4 0.32818881E-01 0.12499815E+03</pdfrwt>
<totfact> 0.85062885E+03</totfact>
</mgrwt>
</event>
<event>
 5    1  0.3241863E-002  0.1250039E+03  0.7818608E-02  0.1235063E+00
         -4   -1    0    0    0  501 -0.00000000000E+00  0.00000000000E+00  0.11603078535E+03  0.11603773546E+03  0.12700000000E+01 0. -1.
          4   -1    0    0  501    0  0.00000000000E+00 -0.00000000000E+00 -0.33647814324E+02  0.33671773176E+02  0.12700000000E+01 0. -1.
         25    2    1    2    0    0  0.00000000000E+00  0.00000000000E+00  0.82382971029E+02  0.14970950863E+03  0.12500393217E+03 0.  0.
    9000005    1    3    3    0    0  0.10443803891E+02  0.39040305974E+02  0.98281002561E+02  0.10627028745E+03  0.10000000000E+01 0.  0.
    9000005    1    3    3    0    0 -0.10443803891E+02 -0.39040305974E+02 -0.15898031532E+02  0.43439221182E+02  0.10000000000E+01 0.  0.
<mgrwt>
<rscale>  0 0.12500393E+03</rscale>
<asrwt>0</asrwt>
<pdfrwt beam="2">  1        4 0.51789645E-02 0.12500393E+03</pdfrwt>
<pdfrwt beam="1">  1       -4 0.17853267E-01 0.12500393E+03</pdfrwt>
<totfact> 0.99352842E+03</totfact>
</mgrwt>
</event>
<event>
 5    1  0.3241863E-002  0.1249975E+03  0.7818608E-02  0.1235073E+00
         -4   -1    0    0    0  501 -0.00000000000E+00  0.00000000000E+00  0.47234451115E+02  0.47251521374E+02  0.12700000000E+01 0. -1.
          4   -1    0    0  501    0  0.00000000000E+00 -0.00000000000E+00 -0.82659015057E+02  0.82668770828E+02  0.12700000000E+01 0. -1.
         25    2    1    2    0    0  0.00000000000E+00  0.00000000000E+00 -0.35424563942E+02  0.12992029220E+03  0.12499753036E+03 0.  0.
    9000005    1    3    3    0    0  0.50863754144E+02  0.18187404187E+02 -0.50369296393E+02  0.73864532598E+02  0.10000000000E+01 0.  0.
    9000005    1    3    3    0    0 -0.50863754144E+02 -0.18187404187E+02  0.14944732452E+02  0.56055759604E+02  0.10000000000E+01 0.  0.
<mgrwt>
<rscale>  0 0.12499753E+03</rscale>
<asrwt>0</asrwt>
<pdfrwt beam="2">  1        4 0.12718835E-01 0.12499753E+03</pdfrwt>
<pdfrwt beam="1">  1       -4 0.72689022E-02 0.12499753E+03</pdfrwt>
<totfact> 0.10346790E+04</totfact>
</mgrwt>
</event>
<event>
 5    1  0.3241863E-002  0.1249946E+03  0.7818608E-02  0.1235078E+00
         -4   -1    0    0    0  501 -0.00000000000E+00  0.00000000000E+00  0.80842949085E+02  0.80852923984E+02  0.12700000000E+01 0. -1.
          4   -1    0    0  501    0  0.00000000000E+00 -0.00000000000E+00 -0.48293513369E+02  0.48310209413E+02  0.12700000000E+01 0. -1.
         25    2    1    2    0    0  0.00000000000E+00  0.00000000000E+00  0.32549435716E+02  0.12916313340E+03  0.12499459694E+03 0.  0.
    9000005    1    3    3    0    0  0.57093122287E+02 -0.14709199284E+02 -0.51265304072E+01  0.59188398104E+02  0.10000000000E+01 0.  0.
    9000005    1    3    3    0    0 -0.57093122287E+02  0.14709199284E+02  0.37675966123E+02  0.69974735294E+02  0.10000000000E+01 0.  0.
<mgrwt>
<rscale>  0 0.12499460E+03</rscale>
<asrwt>0</asrwt>
<pdfrwt beam="2">  1        4 0.74318228E-02 0.12499460E+03</pdfrwt>
<pdfrwt beam="1">  1       -4 0.12439428E-01 0.12499460E+03</pdfrwt>
<totfact> 0.10363707E+04</totfact>
</mgrwt>
</event>
<event>
 5    1  0.3241863E-002  0.1249438E+03  0.7818608E-02  0.1235157E+00
          4   -1    0    0  501    0  0.00000000000E+00  0.00000000000E+00  0.89059020220E+02  0.89068074991E+02  0.12700000000E+01 0. -1.
         -4   -1    0    0    0  501 -0.00000000000E+00 -0.00000000000E+00 -0.43801475848E+02  0.43819883461E+02  0.12700000000E+01 0. -1.
         25    2    1    2    0    0  0.00000000000E+00  0.00000000000E+00  0.45257544372E+02  0.13288795845E+03  0.12494384410E+03 0.  0.
    9000005    1    3    3    0    0  0.13374351527E+02 -0.49028948947E+02 -0.15998860332E+02  0.53288597707E+02  0.10000000000E+01 0.  0.
    9000005    1    3    3    0    0 -0.13374351527E+02  0.49028948947E+02  0.61256404704E+02  0.79599360745E+02  0.10000000000E+01 0.  0.
<mgrwt>
<rscale>  0 0.12494384E+03</rscale>
<asrwt>0</asrwt>
<pdfrwt beam="1">  1        4 0.13703500E-01 0.12494384E+03</pdfrwt>
<pdfrwt beam="2">  1       -4 0.67408011E-02 0.12494384E+03</pdfrwt>
<totfact> 0.10295818E+04</totfact>
</mgrwt>
</event>
<event>
 5    1  0.3241863E-002  0.1249856E+03  0.7818608E-02  0.1235092E+00
          4   -1    0    0  501    0  0.00000000000E+00  0.00000000000E+00  0.12696335918E+04  0.12696342270E+04  0.12700000000E+01 0.  1.
         -4   -1    0    0    0  501 -0.00000000000E+00 -0.00000000000E+00 -0.29442141469E+01  0.32064461547E+01  0.12700000000E+01 0.  1.
         25    2    1    2    0    0  0.00000000000E+00  0.00000000000E+00  0.12666893777E+04  0.12728406732E+04  0.12498559811E+03 0.  0.
    9000005    1    3    3    0    0  0.28325435605E+02 -0.18824385072E+02  0.99523586208E+02  0.10517904728E+03  0.10000000000E+01 0.  0.
    9000005    1    3    3    0    0 -0.28325435605E+02  0.18824385072E+02  0.11671657915E+04  0.11676616259E+04  0.10000000000E+01 0.  0.
<mgrwt>
<rscale>  0 0.12498560E+03</rscale>
<asrwt>0</asrwt>
<pdfrwt beam="1">  1        4 0.19534893E+00 0.12498560E+03</pdfrwt>
<pdfrwt beam="2">  1       -4 0.47317545E-03 0.12498560E+03</pdfrwt>
<totfact> 0.22885857E+03</totfact>
</mgrwt>
</event>
<event>
 5    1  0.3241863E-002  0.1250002E+03  0.7818608E-02  0.1235069E+00
          4   -1    0    0  501    0  0.00000000000E+00  0.00000000000E+00  0.30341657347E+02  0.30368224686E+02  0.12700000000E+01 0.  1.
         -4   -1    0    0    0  501 -0.00000000000E+00 -0.00000000000E+00 -0.12865650522E+03  0.12866277330E+03  0.12700000000E+01 0.  1.
         25    2    1    2    0    0  0.00000000000E+00  0.00000000000E+00 -0.98314847869E+02  0.15903099799E+03  0.12500019604E+03 0.  0.
    9000005    1    3    3    0    0 -0.49209450040E+02  0.35236154034E+02 -0.29361598167E+02  0.67277484876E+02  0.10000000000E+01 0.  0.
    9000005    1    3    3    0    0  0.49209450040E+02 -0.35236154034E+02 -0.68953249702E+02  0.91753513114E+02  0.10000000000E+01 0.  0.
<mgrwt>
<rscale>  0 0.12500020E+03</rscale>
<asrwt>0</asrwt>
<pdfrwt beam="1">  1        4 0.46704731E-02 0.12500020E+03</pdfrwt>
<pdfrwt beam="2">  1       -4 0.19795834E-01 0.12500020E+03</pdfrwt>
<totfact> 0.97529497E+03</totfact>
</mgrwt>
</event>
<event>
 5    1  0.3241863E-002  0.1249842E+03  0.7818608E-02  0.1235094E+00
         -4   -1    0    0    0  501 -0.00000000000E+00  0.00000000000E+00  0.17771593087E+03  0.17772046868E+03  0.12700000000E+01 0.  1.
          4   -1    0    0  501    0  0.00000000000E+00 -0.00000000000E+00 -0.21951568322E+02  0.21988275326E+02  0.12700000000E+01 0.  1.
         25    2    1    2    0    0  0.00000000000E+00  0.00000000000E+00  0.15576436255E+03  0.19970874400E+03  0.12498418216E+03 0.  0.
    9000005    1    3    3    0    0  0.63673777250E+01  0.35013990933E+02 -0.41828024058E+01  0.35847160224E+02  0.10000000000E+01 0.  0.
    9000005    1    3    3    0    0 -0.63673777250E+01 -0.35013990933E+02  0.15994716496E+03  0.16386158378E+03  0.10000000000E+01 0.  0.
<mgrwt>
<rscale>  0 0.12498418E+03</rscale>
<asrwt>0</asrwt>
<pdfrwt beam="2">  1        4 0.33803372E-02 0.12498418E+03</pdfrwt>
<pdfrwt beam="1">  1       -4 0.27344084E-01 0.12498418E+03</pdfrwt>
<totfact> 0.90216583E+03</totfact>
</mgrwt>
</event>
<event>
 5    1  0.3241863E-002  0.1249999E+03  0.7818608E-02  0.1235069E+00
          4   -1    0    0  501    0  0.00000000000E+00  0.00000000000E+00  0.62210322445E+02  0.62223284377E+02  0.12700000000E+01 0. -1.
         -4   -1    0    0    0  501 -0.00000000000E+00 -0.00000000000E+00 -0.62765043233E+02  0.62777890631E+02  0.12700000000E+01 0. -1.
         25    2    1    2    0    0  0.00000000000E+00  0.00000000000E+00 -0.55472078799E+00  0.12500117501E+03  0.12499994415E+03 0.  0.
    9000005    1    3    3    0    0 -0.32694489435E+02  0.52670198485E+02 -0.81620471994E+01  0.62535577572E+02  0.10000000000E+01 0.  0.
    9000005    1    3    3    0    0  0.32694489435E+02 -0.52670198485E+02  0.76073264114E+01  0.62465597435E+02  0.10000000000E+01 0.  0.
<mgrwt>
<rscale>  0 0.12499994E+03</rscale>
<asrwt>0</asrwt>
<pdfrwt beam="1">  1        4 0.95728041E-02 0.12499994E+03</pdfrwt>
<pdfrwt beam="2">  1       -4 0.96581459E-02 0.12499994E+03</pdfrwt>
<totfact> 0.10452850E+04</totfact>
</mgrwt>
</event>
<event>
 5    1  0.3241863E-002  0.1249999E+03  0.7818608E-02  0.1235069E+00
          4   -1    0    0  501    0  0.00000000000E+00  0.00000000000E+00  0.23675825123E+02  0.23709862827E+02  0.12700000000E+01 0. -1.
         -4   -1    0    0    0  501 -0.00000000000E+00 -0.00000000000E+00 -0.16483381096E+03  0.16483870339E+03  0.12700000000E+01 0. -1.
         25    2    1    2    0    0  0.00000000000E+00  0.00000000000E+00 -0.14115798584E+03  0.18854856622E+03  0.12499993943E+03 0.  0.
    9000005    1    3    3    0    0 -0.60390655804E+01 -0.38258037028E+02 -0.14455312285E+03  0.14965544773E+03  0.10000000000E+01 0.  0.
    9000005    1    3    3    0    0  0.60390655804E+01  0.38258037028E+02  0.33951370113E+01  0.38893118487E+02  0.10000000000E+01 0.  0.
<mgrwt>
<rscale>  0 0.12499994E+03</rscale>
<asrwt>0</asrwt>
<pdfrwt beam="1">  1        4 0.36454294E-02 0.12499994E+03</pdfrwt>
<pdfrwt beam="2">  1       -4 0.25362042E-01 0.12499994E+03</pdfrwt>
<totfact> 0.92100599E+03</totfact>
</mgrwt>
</event>
<event>
 5    1  0.3241863E-002  0.1250043E+03  0.7818608E-02  0.1235063E+00
         -4   -1    0    0    0  501 -0.00000000000E+00  0.00000000000E+00  0.99430970029E+01  0.10023875399E+02  0.12700000000E+01 0. -1.
          4   -1    0    0  501    0  0.00000000000E+00 -0.00000000000E+00 -0.39121597833E+03  0.39121803972E+03  0.12700000000E+01 0. -1.
         25    2    1    2    0    0  0.00000000000E+00  0.00000000000E+00 -0.38127288133E+03  0.40124191512E+03  0.12500425757E+03 0.  0.
    9000005    1    3    3    0    0  0.18747070942E+02  0.57843436273E+02 -0.23695149518E+03  0.24463100142E+03  0.10000000000E+01 0.  0.
    9000005    1    3    3    0    0 -0.18747070942E+02 -0.57843436273E+02 -0.14432138615E+03  0.15661091369E+03  0.10000000000E+01 0.  0.
<mgrwt>
<rscale>  0 0.12500426E+03</rscale>
<asrwt>0</asrwt>
<pdfrwt beam="2">  1        4 0.60193434E-01 0.12500426E+03</pdfrwt>
<pdfrwt beam="1">  1       -4 0.15360798E-02 0.12500426E+03</pdfrwt>
<totfact> 0.64426131E+03</totfact>
</mgrwt>
</event>
<event>
 5    1  0.3241863E-002  0.1249936E+03  0.7818608E-02  0.1235079E+00
         -4   -1    0    0    0  501 -0.00000000000E+00  0.00000000000E+00  0.33752275462E+03  0.33752514393E+03  0.12700000000E+01 0.  1.
          4   -1    0    0  501    0  0.00000000000E+00 -0.00000000000E+00 -0.11534834172E+02  0.11604537879E+02  0.12700000000E+01 0.  1.
         25    2    1    2    0    0  0.00000000000E+00  0.00000000000E+00  0.32598792045E+03  0.34912968181E+03  0.12499364161E+03 0.  0.
    9000005    1    3    3    0    0 -0.35887933403E+02  0.12206083416E+02  0.30175400241E+03  0.30412729276E+03  0.10000000000E+01 0.  0.
    9000005    1    3    3    0    0  0.35887933403E+02 -0.12206083416E+02  0.24233918043E+02  0.45002389048E+02  0.10000000000E+01 0.  0.
<mgrwt>
<rscale>  0 0.12499364E+03</rscale>
<asrwt>0</asrwt>
<pdfrwt beam="2">  1        4 0.17801355E-02 0.12499364E+03</pdfrwt>
<pdfrwt beam="1">  1       -4 0.51932124E-01 0.12499364E+03</pdfrwt>
<totfact> 0.69830232E+03</totfact>
</mgrwt>
</event>
<event>
 5    1  0.3241863E-002  0.1249590E+03  0.7818608E-02  0.1235133E+00
          4   -1    0    0  501    0  0.00000000000E+00  0.00000000000E+00  0.14311371901E+02  0.14367611691E+02  0.12700000000E+01 0. -1.
         -4   -1    0    0    0  501 -0.00000000000E+00 -0.00000000000E+00 -0.27217553949E+03  0.27217850245E+03  0.12700000000E+01 0. -1.
         25    2    1    2    0    0  0.00000000000E+00  0.00000000000E+00 -0.25786416759E+03  0.28654611414E+03  0.12495897968E+03 0.  0.
    9000005    1    3    3    0    0  0.81746950200E+01  0.46062987172E+02 -0.22387014203E+03  0.22870825285E+03  0.10000000000E+01 0.  0.
    9000005    1    3    3    0    0 -0.81746950200E+01 -0.46062987172E+02 -0.33994025556E+02  0.57837861296E+02  0.10000000000E+01 0.  0.
<mgrwt>
<rscale>  0 0.12495898E+03</rscale>
<asrwt>0</asrwt>
<pdfrwt beam="1">  1        4 0.22063038E-02 0.12495898E+03</pdfrwt>
<pdfrwt beam="2">  1       -4 0.41877710E-01 0.12495898E+03</pdfrwt>
<totfact> 0.77388581E+03</totfact>
</mgrwt>
</event>
<event>
 5    1  0.3241863E-002  0.1250009E+03  0.7818608E-02  0.1235068E+00
         -4   -1    0    0    0  501 -0.00000000000E+00  0.00000000000E+00  0.69048056271E+02  0.69059734830E+02  0.12700000000E+01 0. -1.
          4   -1    0    0  501    0  0.00000000000E+00 -0.00000000000E+00 -0.56550155968E+02  0.56564414963E+02  0.12700000000E+01 0. -1.
         25    2    1    2    0    0  0.00000000000E+00  0.00000000000E+00  0.12497900303E+02  0.12562414979E+03  0.12500091799E+03 0.  0.
    9000005    1    3    3    0    0 -0.23461657650E+02  0.57917193967E+02  0.55698309574E+01  0.62744511741E+02  0.10000000000E+01 0.  0.
    9000005    1    3    3    0    0  0.23461657650E+02 -0.57917193967E+02  0.69280693454E+01  0.62879638052E+02  0.10000000000E+01 0.  0.
<mgrwt>
<rscale>  0 0.12500092E+03</rscale>
<asrwt>0</asrwt>
<pdfrwt beam="2">  1        4 0.87020192E-02 0.12500092E+03</pdfrwt>
<pdfrwt beam="1">  1       -4 0.10624773E-01 0.12500092E+03</pdfrwt>
<totfact> 0.10438998E+04</totfact>
</mgrwt>
</event>
<event>
 5    1  0.3241863E-002  0.1250007E+03  0.7818608E-02  0.1235068E+00
          4   -1    0    0  501    0  0.00000000000E+00  0.00000000000E+00  0.48520398494E+02  0.48537016493E+02  0.12700000000E+01 0. -1.
         -4   -1    0    0    0  501 -0.00000000000E+00 -0.00000000000E+00 -0.80472882929E+02  0.80482903693E+02  0.12700000000E+01 0. -1.
         25    2    1    2    0    0  0.00000000000E+00  0.00000000000E+00 -0.31952484435E+02  0.12901992019E+03  0.12500071417E+03 0.  0.
    9000005    1    3    3    0    0  0.14378480634E+02  0.25626572062E+02  0.40949924353E+02  0.50411885558E+02  0.10000000000E+01 0.  0.
    9000005    1    3    3    0    0 -0.14378480634E+02 -0.25626572062E+02 -0.72902408788E+02  0.78608034628E+02  0.10000000000E+01 0.  0.
<mgrwt>
<rscale>  0 0.12500071E+03</rscale>
<asrwt>0</asrwt>
<pdfrwt beam="1">  1        4 0.74667258E-02 0.12500071E+03</pdfrwt>
<pdfrwt beam="2">  1       -4 0.12382493E-01 0.12500071E+03</pdfrwt>
<totfact> 0.10365352E+04</totfact>
</mgrwt>
</event>
<event>
 5    1  0.3241863E-002  0.1250005E+03  0.7818608E-02  0.1235068E+00
          4   -1    0    0  501    0  0.00000000000E+00  0.00000000000E+00  0.40391056706E+02  0.40411017827E+02  0.12700000000E+01 0. -1.
         -4   -1    0    0    0  501 -0.00000000000E+00 -0.00000000000E+00 -0.96663574841E+02  0.96671917334E+02  0.12700000000E+01 0. -1.
         25    2    1    2    0    0  0.00000000000E+00  0.00000000000E+00 -0.56272518136E+02  0.13708293516E+03  0.12500053926E+03 0.  0.
    9000005    1    3    3    0    0  0.65144697489E+01 -0.61157487466E+02 -0.15993165428E+02  0.63556730011E+02  0.10000000000E+01 0.  0.
    9000005    1    3    3    0    0 -0.65144697489E+01  0.61157487466E+02 -0.40279352707E+02  0.73526205150E+02  0.10000000000E+01 0.  0.
<mgrwt>
<rscale>  0 0.12500054E+03</rscale>
<asrwt>0</asrwt>
<pdfrwt beam="1">  1        4 0.62161860E-02 0.12500054E+03</pdfrwt>
<pdfrwt beam="2">  1       -4 0.14873496E-01 0.12500054E+03</pdfrwt>
<totfact> 0.10194228E+04</totfact>
</mgrwt>
</event>
<event>
 5    1  0.3241863E-002  0.1250014E+03  0.7818608E-02  0.1235067E+00
          4   -1    0    0  501    0  0.00000000000E+00  0.00000000000E+00  0.89334557948E+02  0.89343584794E+02  0.12700000000E+01 0. -1.
         -4   -1    0    0    0  501 -0.00000000000E+00 -0.00000000000E+00 -0.43706613539E+02  0.43725061087E+02  0.12700000000E+01 0. -1.
         25    2    1    2    0    0  0.00000000000E+00  0.00000000000E+00  0.45627944409E+02  0.13306864588E+03  0.12500142081E+03 0.  0.
    9000005    1    3    3    0    0  0.48974606601E+02 -0.18602723582E+02  0.59082757652E+02  0.78970536710E+02  0.10000000000E+01 0.  0.
    9000005    1    3    3    0    0 -0.48974606601E+02  0.18602723582E+02 -0.13454813243E+02  0.54098109171E+02  0.10000000000E+01 0.  0.
<mgrwt>
<rscale>  0 0.12500142E+03</rscale>
<asrwt>0</asrwt>
<pdfrwt beam="1">  1        4 0.13745891E-01 0.12500142E+03</pdfrwt>
<pdfrwt beam="2">  1       -4 0.67262079E-02 0.12500142E+03</pdfrwt>
<totfact> 0.10278612E+04</totfact>
</mgrwt>
</event>
<event>
 5    1  0.3241863E-002  0.1250001E+03  0.7818608E-02  0.1235069E+00
         -4   -1    0    0    0  501 -0.00000000000E+00  0.00000000000E+00  0.83827014677E+03  0.83827110881E+03  0.12700000000E+01 0.  1.
          4   -1    0    0  501    0  0.00000000000E+00 -0.00000000000E+00 -0.45723886940E+01  0.47454861046E+01  0.12700000000E+01 0.  1.
         25    2    1    2    0    0  0.00000000000E+00  0.00000000000E+00  0.83369775807E+03  0.84301659491E+03  0.12500010992E+03 0.  0.
    9000005    1    3    3    0    0 -0.48827892370E+02 -0.36973259515E+02  0.50056082096E+03  0.50429487453E+03  0.10000000000E+01 0.  0.
    9000005    1    3    3    0    0  0.48827892370E+02  0.36973259515E+02  0.33313693711E+03  0.33872172039E+03  0.10000000000E+01 0.  0.
<mgrwt>
<rscale>  0 0.12500011E+03</rscale>
<asrwt>0</asrwt>
<pdfrwt beam="2">  1        4 0.71683404E-03 0.12500011E+03</pdfrwt>
<pdfrwt beam="1">  1       -4 0.12897795E+00 0.12500011E+03</pdfrwt>
<totfact> 0.36414740E+03</totfact>
</mgrwt>
</event>
<event>
 5    1  0.3241863E-002  0.1249840E+03  0.7818608E-02  0.1235094E+00
          4   -1    0    0  501    0  0.00000000000E+00  0.00000000000E+00  0.60807023672E+01  0.62119112420E+01  0.12700000000E+01 0. -1.
         -4   -1    0    0    0  501 -0.00000000000E+00 -0.00000000000E+00 -0.63524970725E+03  0.63525097675E+03  0.12700000000E+01 0. -1.
         25    2    1    2    0    0  0.00000000000E+00  0.00000000000E+00 -0.62916900489E+03  0.64146288800E+03  0.12498399884E+03 0.  0.
    9000005    1    3    3    0    0 -0.52432253533E+02 -0.25663457274E+02 -0.20022430844E+03  0.20856300712E+03  0.10000000000E+01 0.  0.
    9000005    1    3    3    0    0  0.52432253533E+02  0.25663457274E+02 -0.42894469645E+03  0.43289988088E+03  0.10000000000E+01 0.  0.
<mgrwt>
<rscale>  0 0.12498400E+03</rscale>
<asrwt>0</asrwt>
<pdfrwt beam="1">  1        4 0.94568382E-03 0.12498400E+03</pdfrwt>
<pdfrwt beam="2">  1       -4 0.97740863E-01 0.12498400E+03</pdfrwt>
<totfact> 0.46366952E+03</totfact>
</mgrwt>
</event>
<event>
 5    1  0.3241863E-002  0.1249991E+03  0.7818608E-02  0.1235071E+00
          4   -1    0    0  501    0  0.00000000000E+00  0.00000000000E+00  0.19411773565E+03  0.19412189004E+03  0.12700000000E+01 0.  1.
         -4   -1    0    0    0  501 -0.00000000000E+00 -0.00000000000E+00 -0.20098402944E+02  0.20138488049E+02  0.12700000000E+01 0.  1.
         25    2    1    2    0    0  0.00000000000E+00  0.00000000000E+00  0.17401933270E+03  0.21426037809E+03  0.12499912585E+03 0.  0.
    9000005    1    3    3    0    0 -0.62100955081E+02 -0.51115009322E+01  0.78871901711E+02  0.10052080851E+03  0.10000000000E+01 0.  0.
    9000005    1    3    3    0    0  0.62100955081E+02  0.51115009322E+01  0.95147430992E+02  0.11373956958E+03  0.10000000000E+01 0.  0.
<mgrwt>
<rscale>  0 0.12499913E+03</rscale>
<asrwt>0</asrwt>
<pdfrwt beam="1">  1        4 0.29867670E-01 0.12499913E+03</pdfrwt>
<pdfrwt beam="2">  1       -4 0.30954650E-02 0.12499913E+03</pdfrwt>
<totfact> 0.87786512E+03</totfact>
</mgrwt>
</event>
<event>
 5    1  0.3241863E-002  0.1249996E+03  0.7818608E-02  0.1235070E+00
          4   -1    0    0  501    0  0.00000000000E+00  0.00000000000E+00  0.14145962372E+02  0.14202857157E+02  0.12700000000E+01 0.  1.
         -4   -1    0    0    0  501 -0.00000000000E+00 -0.00000000000E+00 -0.27552473111E+03  0.27552765806E+03  0.12700000000E+01 0.  1.
         25    2    1    2    0    0  0.00000000000E+00  0.00000000000E+00 -0.26137876874E+03  0.28973051521E+03  0.12499964279E+03 0.  0.
    9000005    1    3    3    0    0 -0.42863972850E+02 -0.76693485402E+01 -0.26796689552E+02  0.51139042291E+02  0.10000000000E+01 0.  0.
    9000005    1    3    3    0    0  0.42863972850E+02  0.76693485402E+01 -0.23458207919E+03  0.23859147292E+03  0.10000000000E+01 0.  0.
<mgrwt>
<rscale>  0 0.12499964E+03</rscale>
<asrwt>0</asrwt>
<pdfrwt beam="1">  1        4 0.21809038E-02 0.12499964E+03</pdfrwt>
<pdfrwt beam="2">  1       -4 0.42393018E-01 0.12499964E+03</pdfrwt>
<totfact> 0.76905961E+03</totfact>
</mgrwt>
</event>
<event>
 5    1  0.3241863E-002  0.1249999E+03  0.7818608E-02  0.1235069E+00
          4   -1    0    0  501    0  0.00000000000E+00  0.00000000000E+00  0.51208211551E+03  0.51208369036E+03  0.12700000000E+01 0. -1.
         -4   -1    0    0    0  501 -0.00000000000E+00 -0.00000000000E+00 -0.75737043455E+01  0.76794464327E+01  0.12700000000E+01 0. -1.
         25    2    1    2    0    0  0.00000000000E+00  0.00000000000E+00  0.50450841117E+03  0.51976313679E+03  0.12499992570E+03 0.  0.
    9000005    1    3    3    0    0 -0.36162393469E+02 -0.50557599550E+02  0.27902666566E+03  0.28586827338E+03  0.10000000000E+01 0.  0.
    9000005    1    3    3    0    0  0.36162393469E+02  0.50557599550E+02  0.22548174551E+03  0.23389486341E+03  0.10000000000E+01 0.  0.
<mgrwt>
<rscale>  0 0.12499993E+03</rscale>
<asrwt>0</asrwt>
<pdfrwt beam="1">  1        4 0.78790130E-01 0.12499993E+03</pdfrwt>
<pdfrwt beam="2">  1       -4 0.11734403E-02 0.12499993E+03</pdfrwt>
<totfact> 0.54363027E+03</totfact>
</mgrwt>
</event>
<event>
 5    1  0.3241863E-002  0.1249964E+03  0.7818608E-02  0.1235075E+00
         -4   -1    0    0    0  501 -0.00000000000E+00  0.00000000000E+00  0.20797786811E+02  0.20836526492E+02  0.12700000000E+01 0. -1.
          4   -1    0    0  501    0  0.00000000000E+00 -0.00000000000E+00 -0.18759397045E+03  0.18759826932E+03  0.12700000000E+01 0. -1.
         25    2    1    2    0    0  0.00000000000E+00  0.00000000000E+00 -0.16679618364E+03  0.20843479581E+03  0.12499638885E+03 0.  0.
    9000005    1    3    3    0    0  0.39828146320E+02 -0.41442938662E+02 -0.42510494002E+02  0.71497835663E+02  0.10000000000E+01 0.  0.
    9000005    1    3    3    0    0 -0.39828146320E+02  0.41442938662E+02 -0.12428568964E+03  0.13693696014E+03  0.10000000000E+01 0.  0.
<mgrwt>
<rscale>  0 0.12499639E+03</rscale>
<asrwt>0</asrwt>
<pdfrwt beam="2">  1        4 0.28863920E-01 0.12499639E+03</pdfrwt>
<pdfrwt beam="1">  1       -4 0.32029703E-02 0.12499639E+03</pdfrwt>
<totfact> 0.88739304E+03</totfact>
</mgrwt>
</event>
<event>
 5    1  0.3241863E-002  0.1250000E+03  0.7818608E-02  0.1235069E+00
         -4   -1    0    0    0  501 -0.00000000000E+00  0.00000000000E+00  0.16917878368E+04  0.16917883135E+04  0.12700000000E+01 0. -1.
          4   -1    0    0  501    0  0.00000000000E+00 -0.00000000000E+00 -0.21338001634E+01  0.24831438012E+01  0.12700000000E+01 0. -1.
         25    2    1    2    0    0  0.00000000000E+00  0.00000000000E+00  0.16896540366E+04  0.16942714573E+04  0.12500002981E+03 0.  0.
    9000005    1    3    3    0    0 -0.57600497690E+02  0.23048537453E+02  0.94643759401E+03  0.94846938368E+03  0.10000000000E+01 0.  0.
    9000005    1    3    3    0    0  0.57600497690E+02 -0.23048537453E+02  0.74321644263E+03  0.74580207362E+03  0.10000000000E+01 0.  0.
<mgrwt>
<rscale>  0 0.12500003E+03</rscale>
<asrwt>0</asrwt>
<pdfrwt beam="2">  1        4 0.35518499E-03 0.12500003E+03</pdfrwt>
<pdfrwt beam="1">  1       -4 0.26030285E+00 0.12500003E+03</pdfrwt>
<totfact> 0.14403609E+03</totfact>
</mgrwt>
</event>
<event>
 5    1  0.3241863E-002  0.1249973E+03  0.7818608E-02  0.1235073E+00
         -4   -1    0    0    0  501 -0.00000000000E+00  0.00000000000E+00  0.12007298590E+03  0.12007970205E+03  0.12700000000E+01 0. -1.
          4   -1    0    0  501    0  0.00000000000E+00 -0.00000000000E+00 -0.32510891300E+02  0.32535687378E+02  0.12700000000E+01 0. -1.
         25    2    1    2    0    0  0.00000000000E+00  0.00000000000E+00  0.87562094601E+02  0.15261538942E+03  0.12499734668E+03 0.  0.
    9000005    1    3    3    0    0  0.12399426990E+02 -0.60206671102E+02  0.30049026720E+02  0.68429036539E+02  0.10000000000E+01 0.  0.
    9000005    1    3    3    0    0 -0.12399426990E+02  0.60206671102E+02  0.57513067881E+02  0.84186352884E+02  0.10000000000E+01 0.  0.
<mgrwt>
<rscale>  0 0.12499735E+03</rscale>
<asrwt>0</asrwt>
<pdfrwt beam="2">  1        4 0.50040996E-02 0.12499735E+03</pdfrwt>
<pdfrwt beam="1">  1       -4 0.18475191E-01 0.12499735E+03</pdfrwt>
<totfact> 0.98790789E+03</totfact>
</mgrwt>
</event>
<event>
 5    1  0.3241863E-002  0.1250013E+03  0.7818608E-02  0.1235067E+00
          4   -1    0    0  501    0  0.00000000000E+00  0.00000000000E+00  0.26598401585E+02  0.26628703815E+02  0.12700000000E+01 0.  1.
         -4   -1    0    0    0  501 -0.00000000000E+00 -0.00000000000E+00 -0.14674668360E+03  0.14675217902E+03  0.12700000000E+01 0.  1.
         25    2    1    2    0    0  0.00000000000E+00  0.00000000000E+00 -0.12014828201E+03  0.17338088284E+03  0.12500128344E+03 0.  0.
    9000005    1    3    3    0    0 -0.26001442162E+02 -0.31328274649E+02  0.56863478567E+01  0.41120193810E+02  0.10000000000E+01 0.  0.
    9000005    1    3    3    0    0  0.26001442162E+02  0.31328274649E+02 -0.12583462987E+03  0.13226068903E+03  0.10000000000E+01 0.  0.
<mgrwt>
<rscale>  0 0.12500128E+03</rscale>
<asrwt>0</asrwt>
<pdfrwt beam="1">  1        4 0.40948155E-02 0.12500128E+03</pdfrwt>
<pdfrwt beam="2">  1       -4 0.22579166E-01 0.12500128E+03</pdfrwt>
<totfact> 0.94819487E+03</totfact>
</mgrwt>
</event>
<event>
 5    1  0.3241863E-002  0.1249919E+03  0.7818608E-02  0.1235082E+00
          4   -1    0    0  501    0  0.00000000000E+00  0.00000000000E+00  0.18214405834E+02  0.18258627546E+02  0.12700000000E+01 0. -1.
         -4   -1    0    0    0  501 -0.00000000000E+00 -0.00000000000E+00 -0.21412560309E+03  0.21412936931E+03  0.12700000000E+01 0. -1.
         25    2    1    2    0    0  0.00000000000E+00  0.00000000000E+00 -0.19591119726E+03  0.23238799686E+03  0.12499193522E+03 0.  0.
    9000005    1    3    3    0    0 -0.51611661635E+02  0.23803874907E+02 -0.14623667258E+03  0.15689662994E+03  0.10000000000E+01 0.  0.
    9000005    1    3    3    0    0  0.51611661635E+02 -0.23803874907E+02 -0.49674524680E+02  0.75491366920E+02  0.10000000000E+01 0.  0.
<mgrwt>
<rscale>  0 0.12499194E+03</rscale>
<asrwt>0</asrwt>
<pdfrwt beam="1">  1        4 0.28059078E-02 0.12499194E+03</pdfrwt>
<pdfrwt beam="2">  1       -4 0.32946090E-01 0.12499194E+03</pdfrwt>
<totfact> 0.84959546E+03</totfact>
</mgrwt>
</event>
<event>
 5    1  0.3241863E-002  0.1250035E+03  0.7818608E-02  0.1235064E+00
         -4   -1    0    0    0  501 -0.00000000000E+00  0.00000000000E+00  0.92398945527E+02  0.92407673029E+02  0.12700000000E+01 0.  1.
          4   -1    0    0  501    0  0.00000000000E+00 -0.00000000000E+00 -0.42257996727E+02  0.42277076381E+02  0.12700000000E+01 0.  1.
         25    2    1    2    0    0  0.00000000000E+00  0.00000000000E+00  0.50140948801E+02  0.13468474941E+03  0.12500346786E+03 0.  0.
    9000005    1    3    3    0    0 -0.21695085898E+02 -0.45684932669E+02 -0.14483420610E+02  0.52617100810E+02  0.10000000000E+01 0.  0.
    9000005    1    3    3    0    0  0.21695085898E+02  0.45684932669E+02  0.64624369410E+02  0.82067648600E+02  0.10000000000E+01 0.  0.
<mgrwt>
<rscale>  0 0.12500347E+03</rscale>
<asrwt>0</asrwt>
<pdfrwt beam="2">  1        4 0.65033693E-02 0.12500347E+03</pdfrwt>
<pdfrwt beam="1">  1       -4 0.14217361E-01 0.12500347E+03</pdfrwt>
<totfact> 0.10243919E+04</totfact>
</mgrwt>
</event>
<event>
 5    1  0.3241863E-002  0.1250272E+03  0.7818608E-02  0.1235027E+00
         -4   -1    0    0    0  501 -0.00000000000E+00  0.00000000000E+00  0.31818355357E+02  0.31843690703E+02  0.12700000000E+01 0. -1.
          4   -1    0    0  501    0  0.00000000000E+00 -0.00000000000E+00 -0.12274308907E+03  0.12274965912E+03  0.12700000000E+01 0. -1.
         25    2    1    2    0    0  0.00000000000E+00  0.00000000000E+00 -0.90924733709E+02  0.15459334982E+03  0.12502718348E+03 0.  0.
    9000005    1    3    3    0    0 -0.39378520819E+02  0.39815382867E+02 -0.79795877007E+02  0.97490074378E+02  0.10000000000E+01 0.  0.
    9000005    1    3    3    0    0  0.39378520819E+02 -0.39815382867E+02 -0.11128856701E+02  0.57103275443E+02  0.10000000000E+01 0.  0.
<mgrwt>
<rscale>  0 0.12502718E+03</rscale>
<asrwt>0</asrwt>
<pdfrwt beam="2">  1        4 0.18886006E-01 0.12502718E+03</pdfrwt>
<pdfrwt beam="1">  1       -4 0.48975859E-02 0.12502718E+03</pdfrwt>
<totfact> 0.98335256E+03</totfact>
</mgrwt>
</event>
<event>
 5    1  0.3241863E-002  0.1250031E+03  0.7818608E-02  0.1235064E+00
         -4   -1    0    0    0  501 -0.00000000000E+00  0.00000000000E+00  0.10434695474E+02  0.10511696801E+02  0.12700000000E+01 0.  1.
          4   -1    0    0  501    0  0.00000000000E+00 -0.00000000000E+00 -0.37291611600E+03  0.37291827854E+03  0.12700000000E+01 0.  1.
         25    2    1    2    0    0  0.00000000000E+00  0.00000000000E+00 -0.36248142052E+03  0.38342997534E+03  0.12500306303E+03 0.  0.
    9000005    1    3    3    0    0 -0.20997713451E+02  0.43902734164E+02 -0.60982513181E+02  0.78027052688E+02  0.10000000000E+01 0.  0.
    9000005    1    3    3    0    0  0.20997713451E+02 -0.43902734164E+02 -0.30149890734E+03  0.30540292265E+03  0.10000000000E+01 0.  0.
<mgrwt>
<rscale>  0 0.12500306E+03</rscale>
<asrwt>0</asrwt>
<pdfrwt beam="2">  1        4 0.57377790E-01 0.12500306E+03</pdfrwt>
<pdfrwt beam="1">  1       -4 0.16114276E-02 0.12500306E+03</pdfrwt>
<totfact> 0.66192445E+03</totfact>
</mgrwt>
</event>
<event>
 5    1  0.3241863E-002  0.1249975E+03  0.7818608E-02  0.1235073E+00
          4   -1    0    0  501    0  0.00000000000E+00  0.00000000000E+00  0.15531108213E+03  0.15531627452E+03  0.12700000000E+01 0. -1.
         -4   -1    0    0    0  501 -0.00000000000E+00 -0.00000000000E+00 -0.25128462747E+02  0.25160535369E+02  0.12700000000E+01 0. -1.
         25    2    1    2    0    0  0.00000000000E+00  0.00000000000E+00  0.13018261938E+03  0.18047680989E+03  0.12499745805E+03 0.  0.
    9000005    1    3    3    0    0 -0.12884307017E+01  0.15494254947E+01  0.15527123877E+03  0.15528753447E+03  0.10000000000E+01 0.  0.
    9000005    1    3    3    0    0  0.12884307017E+01 -0.15494254947E+01 -0.25088619392E+02  0.25189275417E+02  0.10000000000E+01 0.  0.
<mgrwt>
<rscale>  0 0.12499746E+03</rscale>
<asrwt>0</asrwt>
<pdfrwt beam="1">  1        4 0.23896879E-01 0.12499746E+03</pdfrwt>
<pdfrwt beam="2">  1       -4 0.38687840E-02 0.12499746E+03</pdfrwt>
<totfact> 0.93536577E+03</totfact>
</mgrwt>
</event>
<event>
 5    1  0.3241863E-002  0.1249915E+03  0.7818608E-02  0.1235083E+00
          4   -1    0    0  501    0  0.00000000000E+00  0.00000000000E+00  0.95273212478E+02  0.95281676706E+02  0.12700000000E+01 0.  1.
         -4   -1    0    0    0  501 -0.00000000000E+00 -0.00000000000E+00 -0.40974778446E+02  0.40994455341E+02  0.12700000000E+01 0.  1.
         25    2    1    2    0    0  0.00000000000E+00  0.00000000000E+00  0.54298434032E+02  0.13627613205E+03  0.12499145662E+03 0.  0.
    9000005    1    3    3    0    0 -0.59049906910E+02 -0.72083453432E+01  0.62947309737E+01  0.59828717074E+02  0.10000000000E+01 0.  0.
    9000005    1    3    3    0    0  0.59049906910E+02  0.72083453432E+01  0.48003703058E+02  0.76447414973E+02  0.10000000000E+01 0.  0.
<mgrwt>
<rscale>  0 0.12499146E+03</rscale>
<asrwt>0</asrwt>
<pdfrwt beam="1">  1        4 0.14659582E-01 0.12499146E+03</pdfrwt>
<pdfrwt beam="2">  1       -4 0.63059769E-02 0.12499146E+03</pdfrwt>
<totfact> 0.10213210E+04</totfact>
</mgrwt>
</event>
<event>
 5    1  0.3241863E-002  0.1250072E+03  0.7818608E-02  0.1235058E+00
          4   -1    0    0  501    0  0.00000000000E+00  0.00000000000E+00  0.27983197983E+02  0.28012002237E+02  0.12700000000E+01 0. -1.
         -4   -1    0    0    0  501 -0.00000000000E+00 -0.00000000000E+00 -0.13950533485E+03  0.13951111551E+03  0.12700000000E+01 0. -1.
         25    2    1    2    0    0  0.00000000000E+00  0.00000000000E+00 -0.11152213687E+03  0.16752311775E+03  0.12500723167E+03 0.  0.
    9000005    1    3    3    0    0 -0.20388311995E+02 -0.45870295294E+02 -0.58713561669E+01  0.50549382583E+02  0.10000000000E+01 0.  0.
    9000005    1    3    3    0    0  0.20388311995E+02  0.45870295294E+02 -0.10565078070E+03  0.11697373517E+03  0.10000000000E+01 0.  0.
<mgrwt>
<rscale>  0 0.12500723E+03</rscale>
<asrwt>0</asrwt>
<pdfrwt beam="1">  1        4 0.43077678E-02 0.12500723E+03</pdfrwt>
<pdfrwt beam="2">  1       -4 0.21465019E-01 0.12500723E+03</pdfrwt>
<totfact> 0.95896101E+03</totfact>
</mgrwt>
</event>
<event>
 5    1  0.3241863E-002  0.1250052E+03  0.7818608E-02  0.1235061E+00
         -4   -1    0    0    0  501 -0.00000000000E+00  0.00000000000E+00  0.22548817082E+03  0.22549174726E+03  0.12700000000E+01 0. -1.
          4   -1    0    0  501    0  0.00000000000E+00 -0.00000000000E+00 -0.17297959643E+02  0.17344518091E+02  0.12700000000E+01 0. -1.
         25    2    1    2    0    0  0.00000000000E+00  0.00000000000E+00  0.20819021118E+03  0.24283626535E+03  0.12500515084E+03 0.  0.
    9000005    1    3    3    0    0  0.40979484947E+02 -0.34816517769E+02  0.42233913531E+02  0.68382830800E+02  0.10000000000E+01 0.  0.
    9000005    1    3    3    0    0 -0.40979484947E+02  0.34816517769E+02  0.16595629765E+03  0.17445343455E+03  0.10000000000E+01 0.  0.
<mgrwt>
<rscale>  0 0.12500515E+03</rscale>
<asrwt>0</asrwt>
<pdfrwt beam="2">  1        4 0.26650811E-02 0.12500515E+03</pdfrwt>
<pdfrwt beam="1">  1       -4 0.34694345E-01 0.12500515E+03</pdfrwt>
<totfact> 0.83367188E+03</totfact>
</mgrwt>
</event>
<event>
 5    1  0.3241863E-002  0.1249997E+03  0.7818608E-02  0.1235070E+00
          4   -1    0    0  501    0  0.00000000000E+00  0.00000000000E+00  0.14784241055E+02  0.14838688742E+02  0.12700000000E+01 0.  1.
         -4   -1    0    0    0  501 -0.00000000000E+00 -0.00000000000E+00 -0.26367409945E+03  0.26367715794E+03  0.12700000000E+01 0.  1.
         25    2    1    2    0    0  0.00000000000E+00  0.00000000000E+00 -0.24888985839E+03  0.27851584668E+03  0.12499966097E+03 0.  0.
    9000005    1    3    3    0    0  0.18793565427E+02  0.48741346497E+02 -0.20086409829E+03  0.20754831472E+03  0.10000000000E+01 0.  0.
    9000005    1    3    3    0    0 -0.18793565427E+02 -0.48741346497E+02 -0.48025760103E+02  0.70967531966E+02  0.10000000000E+01 0.  0.
<mgrwt>
<rscale>  0 0.12499966E+03</rscale>
<asrwt>0</asrwt>
<pdfrwt beam="1">  1        4 0.22789224E-02 0.12499966E+03</pdfrwt>
<pdfrwt beam="2">  1       -4 0.40569666E-01 0.12499966E+03</pdfrwt>
<totfact> 0.78375898E+03</totfact>
</mgrwt>
</event>
<event>
 5    1  0.3241863E-002  0.1249963E+03  0.7818608E-02  0.1235075E+00
         -4   -1    0    0    0  501 -0.00000000000E+00  0.00000000000E+00  0.12118570625E+02  0.12184935535E+02  0.12700000000E+01 0.  1.
          4   -1    0    0  501    0  0.00000000000E+00 -0.00000000000E+00 -0.32136923875E+03  0.32137174816E+03  0.12700000000E+01 0.  1.
         25    2    1    2    0    0  0.00000000000E+00  0.00000000000E+00 -0.30925066812E+03  0.33355668369E+03  0.12499634195E+03 0.  0.
    9000005    1    3    3    0    0  0.12832288221E+02  0.53815950461E+02 -0.77090956403E+02  0.94893833858E+02  0.10000000000E+01 0.  0.
    9000005    1    3    3    0    0 -0.12832288221E+02 -0.53815950461E+02 -0.23215971172E+03  0.23866284983E+03  0.10000000000E+01 0.  0.
<mgrwt>
<rscale>  0 0.12499634E+03</rscale>
<asrwt>0</asrwt>
<pdfrwt beam="2">  1        4 0.49446713E-01 0.12499634E+03</pdfrwt>
<pdfrwt beam="1">  1       -4 0.18696937E-02 0.12499634E+03</pdfrwt>
<totfact> 0.71578030E+03</totfact>
</mgrwt>
</event>
<event>
 5    1  0.3241863E-002  0.1250001E+03  0.7818608E-02  0.1235069E+00
          4   -1    0    0  501    0  0.00000000000E+00  0.00000000000E+00  0.21682819461E+03  0.21683191389E+03  0.12700000000E+01 0. -1.
         -4   -1    0    0    0  501 -0.00000000000E+00 -0.00000000000E+00 -0.17989170879E+02  0.18033944907E+02  0.12700000000E+01 0. -1.
         25    2    1    2    0    0  0.00000000000E+00  0.00000000000E+00  0.19883902373E+03  0.23486585879E+03  0.12500005707E+03 0.  0.
    9000005    1    3    3    0    0 -0.28553067766E+02 -0.55306026621E+02  0.88921155525E+02  0.10854494995E+03  0.10000000000E+01 0.  0.
    9000005    1    3    3    0    0  0.28553067766E+02  0.55306026621E+02  0.10991786821E+03  0.12632090884E+03  0.10000000000E+01 0.  0.
<mgrwt>
<rscale>  0 0.12500006E+03</rscale>
<asrwt>0</asrwt>
<pdfrwt beam="1">  1        4 0.33361915E-01 0.12500006E+03</pdfrwt>
<pdfrwt beam="2">  1       -4 0.27712949E-02 0.12500006E+03</pdfrwt>
<totfact> 0.84567888E+03</totfact>
</mgrwt>
</event>
<event>
 5    1  0.3241863E-002  0.1250001E+03  0.7818608E-02  0.1235069E+00
          4   -1    0    0  501    0  0.00000000000E+00  0.00000000000E+00  0.32285226585E+02  0.32310195847E+02  0.12700000000E+01 0.  1.
         -4   -1    0    0    0  501 -0.00000000000E+00 -0.00000000000E+00 -0.12091697257E+03  0.12092364184E+03  0.12700000000E+01 0.  1.
         25    2    1    2    0    0  0.00000000000E+00  0.00000000000E+00 -0.88631745984E+02  0.15323383768E+03  0.12500009046E+03 0.  0.
    9000005    1    3    3    0    0 -0.41981728059E+01  0.84385080781E+01  0.31414933095E+02  0.32813580952E+02  0.10000000000E+01 0.  0.
    9000005    1    3    3    0    0  0.41981728059E+01 -0.84385080781E+01 -0.12004667908E+03  0.12042025673E+03  0.10000000000E+01 0.  0.
<mgrwt>
<rscale>  0 0.12500009E+03</rscale>
<asrwt>0</asrwt>
<pdfrwt beam="1">  1        4 0.49693917E-02 0.12500009E+03</pdfrwt>
<pdfrwt beam="2">  1       -4 0.18605045E-01 0.12500009E+03</pdfrwt>
<totfact> 0.98662742E+03</totfact>
</mgrwt>
</event>
<event>
 5    1  0.3241863E-002  0.1249962E+03  0.7818608E-02  0.1235075E+00
         -4   -1    0    0    0  501 -0.00000000000E+00  0.00000000000E+00  0.15996523515E+02  0.16046858402E+02  0.12700000000E+01 0.  1.
          4   -1    0    0  501    0  0.00000000000E+00 -0.00000000000E+00 -0.24374312199E+03  0.24374643058E+03  0.12700000000E+01 0.  1.
         25    2    1    2    0    0  0.00000000000E+00  0.00000000000E+00 -0.22774659848E+03  0.25979328898E+03  0.12499615946E+03 0.  0.
    9000005    1    3    3    0    0 -0.10871498982E+02  0.47941326828E+02 -0.19405925953E+03  0.20019129980E+03  0.10000000000E+01 0.  0.
    9000005    1    3    3    0    0  0.10871498982E+02 -0.47941326828E+02 -0.33687338949E+02  0.59601989175E+02  0.10000000000E+01 0.  0.
<mgrwt>
<rscale>  0 0.12499616E+03</rscale>
<asrwt>0</asrwt>
<pdfrwt beam="2">  1        4 0.37503065E-01 0.12499616E+03</pdfrwt>
<pdfrwt beam="1">  1       -4 0.24651302E-02 0.12499616E+03</pdfrwt>
<totfact> 0.80941999E+03</totfact>
</mgrwt>
</event>
<event>
 5    1  0.3241863E-002  0.1249984E+03  0.7818608E-02  0.1235072E+00
         -4   -1    0    0    0  501 -0.00000000000E+00  0.00000000000E+00  0.72331052220E+01  0.73437532061E+01  0.12700000000E+01 0.  1.
          4   -1    0    0  501    0  0.00000000000E+00 -0.00000000000E+00 -0.53582669513E+03  0.53582820019E+03  0.12700000000E+01 0.  1.
         25    2    1    2    0    0  0.00000000000E+00  0.00000000000E+00 -0.52859358991E+03  0.54317195340E+03  0.12499835063E+03 0.  0.
    9000005    1    3    3    0    0  0.44999439254E+02  0.27738106706E+02 -0.40912394254E+03  0.41252606276E+03  0.10000000000E+01 0.  0.
    9000005    1    3    3    0    0 -0.44999439254E+02 -0.27738106706E+02 -0.11946964738E+03  0.13064589064E+03  0.10000000000E+01 0.  0.
<mgrwt>
<rscale>  0 0.12499835E+03</rscale>
<asrwt>0</asrwt>
<pdfrwt beam="2">  1        4 0.82443473E-01 0.12499835E+03</pdfrwt>
<pdfrwt beam="1">  1       -4 0.11214130E-02 0.12499835E+03</pdfrwt>
<totfact> 0.52665654E+03</totfact>
</mgrwt>
</event>
<event>
 5    1  0.3241863E-002  0.1250030E+03  0.7818608E-02  0.1235065E+00
          4   -1    0    0  501    0  0.00000000000E+00  0.00000000000E+00  0.15834562471E+03  0.15835071760E+03  0.12700000000E+01 0. -1.
         -4   -1    0    0    0  501 -0.00000000000E+00 -0.00000000000E+00 -0.24648497842E+02  0.24681194175E+02  0.12700000000E+01 0. -1.
         25    2    1    2    0    0  0.00000000000E+00  0.00000000000E+00  0.13369712687E+03  0.18303191177E+03  0.12500303595E+03 0.  0.
    9000005    1    3    3    0    0 -0.25056650464E+02 -0.48422692995E+02  0.22127572029E+02  0.58849149299E+02  0.10000000000E+01 0.  0.
    9000005    1    3    3    0    0  0.25056650464E+02  0.48422692995E+02  0.11156955484E+03  0.12418276248E+03  0.10000000000E+01 0.  0.
<mgrwt>
<rscale>  0 0.12500304E+03</rscale>
<asrwt>0</asrwt>
<pdfrwt beam="1">  1        4 0.24363772E-01 0.12500304E+03</pdfrwt>
<pdfrwt beam="2">  1       -4 0.37949834E-02 0.12500304E+03</pdfrwt>
<totfact> 0.93067745E+03</totfact>
</mgrwt>
</event>
<event>
 5    1  0.3241863E-002  0.1249694E+03  0.7818608E-02  0.1235117E+00
         -4   -1    0    0    0  501 -0.00000000000E+00  0.00000000000E+00  0.71343079445E+03  0.71343192483E+03  0.12700000000E+01 0.  1.
          4   -1    0    0  501    0  0.00000000000E+00 -0.00000000000E+00 -0.53977895426E+01  0.55451809660E+01  0.12700000000E+01 0.  1.
         25    2    1    2    0    0  0.00000000000E+00  0.00000000000E+00  0.70803300491E+03  0.71897710580E+03  0.12496936674E+03 0.  0.
    9000005    1    3    3    0    0 -0.23705537182E+02 -0.55031522893E+02  0.45578759601E+03  0.45971051074E+03  0.10000000000E+01 0.  0.
    9000005    1    3    3    0    0  0.23705537182E+02  0.55031522893E+02  0.25224540889E+03  0.25926659506E+03  0.10000000000E+01 0.  0.
<mgrwt>
<rscale>  0 0.12496937E+03</rscale>
<asrwt>0</asrwt>
<pdfrwt beam="2">  1        4 0.84185387E-03 0.12496937E+03</pdfrwt>
<pdfrwt beam="1">  1       -4 0.10977001E+00 0.12496937E+03</pdfrwt>
<totfact> 0.42131880E+03</totfact>
</mgrwt>
</event>
<event>
 5    1  0.3241863E-002  0.1249984E+03  0.7818608E-02  0.1235072E+00
          4   -1    0    0  501    0  0.00000000000E+00  0.00000000000E+00  0.16713163306E+02  0.16761346238E+02  0.12700000000E+01 0.  1.
         -4   -1    0    0    0  501 -0.00000000000E+00 -0.00000000000E+00 -0.23333080702E+03  0.23333426324E+03  0.12700000000E+01 0.  1.
         25    2    1    2    0    0  0.00000000000E+00  0.00000000000E+00 -0.21661764371E+03  0.25009560948E+03  0.12499844125E+03 0.  0.
    9000005    1    3    3    0    0  0.14859238137E+02  0.52196554293E+01 -0.22930468738E+03  0.22984708267E+03  0.10000000000E+01 0.  0.
    9000005    1    3    3    0    0 -0.14859238137E+02 -0.52196554293E+01  0.12687043666E+02  0.20248526806E+02  0.10000000000E+01 0.  0.
<mgrwt>
<rscale>  0 0.12499844E+03</rscale>
<asrwt>0</asrwt>
<pdfrwt beam="1">  1        4 0.25752283E-02 0.12499844E+03</pdfrwt>
<pdfrwt beam="2">  1       -4 0.35901017E-01 0.12499844E+03</pdfrwt>
<totfact> 0.82319271E+03</totfact>
</mgrwt>
</event>
<event>
 5    1  0.3241863E-002  0.1249990E+03  0.7818608E-02  0.1235071E+00
         -4   -1    0    0    0  501 -0.00000000000E+00  0.00000000000E+00  0.61594805981E+03  0.61594936909E+03  0.12700000000E+01 0.  1.
          4   -1    0    0  501    0  0.00000000000E+00 -0.00000000000E+00 -0.62768320222E+01  0.64040237535E+01  0.12700000000E+01 0.  1.
         25    2    1    2    0    0  0.00000000000E+00  0.00000000000E+00  0.60967122779E+03  0.62235339285E+03  0.12499895837E+03 0.  0.
    9000005    1    3    3    0    0  0.14782632938E+02 -0.29184602957E+02  0.39741009435E+02  0.51484124905E+02  0.10000000000E+01 0.  0.
    9000005    1    3    3    0    0 -0.14782632938E+02  0.29184602957E+02  0.56993021835E+03  0.57086926794E+03  0.10000000000E+01 0.  0.
<mgrwt>
<rscale>  0 0.12499896E+03</rscale>
<asrwt>0</asrwt>
<pdfrwt beam="2">  1        4 0.97555101E-03 0.12499896E+03</pdfrwt>
<pdfrwt beam="1">  1       -4 0.94771140E-01 0.12499896E+03</pdfrwt>
<totfact> 0.47487409E+03</totfact>
</mgrwt>
</event>
<event>
 5    1  0.3241863E-002  0.1249957E+03  0.7818608E-02  0.1235076E+00
         -4   -1    0    0    0  501 -0.00000000000E+00  0.00000000000E+00  0.74089186680E+01  0.75169791691E+01  0.12700000000E+01 0. -1.
          4   -1    0    0  501    0  0.00000000000E+00 -0.00000000000E+00 -0.52327449968E+03  0.52327604084E+03  0.12700000000E+01 0. -1.
         25    2    1    2    0    0  0.00000000000E+00  0.00000000000E+00 -0.51586558101E+03  0.53079302001E+03  0.12499572959E+03 0.  0.
    9000005    1    3    3    0    0  0.12765301512E+02  0.54108550885E+02 -0.13675559826E+03  0.14762717181E+03  0.10000000000E+01 0.  0.
    9000005    1    3    3    0    0 -0.12765301512E+02 -0.54108550885E+02 -0.37910998275E+03  0.38316584820E+03  0.10000000000E+01 0.  0.
<mgrwt>
<rscale>  0 0.12499573E+03</rscale>
<asrwt>0</asrwt>
<pdfrwt beam="2">  1        4 0.80512171E-01 0.12499573E+03</pdfrwt>
<pdfrwt beam="1">  1       -4 0.11482649E-02 0.12499573E+03</pdfrwt>
<totfact> 0.53556968E+03</totfact>
</mgrwt>
</event>
<event>
 5    1  0.3241863E-002  0.1250044E+03  0.7818608E-02  0.1235062E+00
          4   -1    0    0  501    0  0.00000000000E+00  0.00000000000E+00  0.36243336188E+03  0.36243558697E+03  0.12700000000E+01 0. -1.
         -4   -1    0    0    0  501 -0.00000000000E+00 -0.00000000000E+00 -0.10738932906E+02  0.10813768074E+02  0.12700000000E+01 0. -1.
         25    2    1    2    0    0  0.00000000000E+00  0.00000000000E+00  0.35169442897E+03  0.37324935504E+03  0.12500443860E+03 0.  0.
    9000005    1    3    3    0    0 -0.13041874671E+02 -0.18902684842E+02  0.23024496301E+01  0.23102018601E+02  0.10000000000E+01 0.  0.
    9000005    1    3    3    0    0  0.13041874671E+02  0.18902684842E+02  0.34939197934E+03  0.35014733644E+03  0.10000000000E+01 0.  0.
<mgrwt>
<rscale>  0 0.12500444E+03</rscale>
<asrwt>0</asrwt>
<pdfrwt beam="1">  1        4 0.55764903E-01 0.12500444E+03</pdfrwt>
<pdfrwt beam="2">  1       -4 0.16580713E-02 0.12500444E+03</pdfrwt>
<totfact> 0.67233762E+03</totfact>
</mgrwt>
</event>
<event>
 5    1  0.3241863E-002  0.1249980E+03  0.7818608E-02  0.1235072E+00
          4   -1    0    0  501    0  0.00000000000E+00  0.00000000000E+00  0.14633391369E+03  0.14633942461E+03  0.12700000000E+01 0.  1.
         -4   -1    0    0    0  501 -0.00000000000E+00 -0.00000000000E+00 -0.26672125884E+02  0.26702344450E+02  0.12700000000E+01 0.  1.
         25    2    1    2    0    0  0.00000000000E+00  0.00000000000E+00  0.11966178781E+03  0.17304176906E+03  0.12499804150E+03 0.  0.
    9000005    1    3    3    0    0 -0.48334012581E+02  0.39404877798E+02  0.65403924074E+02  0.90374744541E+02  0.10000000000E+01 0.  0.
    9000005    1    3    3    0    0  0.48334012581E+02 -0.39404877798E+02  0.54257863731E+02  0.82667024521E+02  0.10000000000E+01 0.  0.
<mgrwt>
<rscale>  0 0.12499804E+03</rscale>
<asrwt>0</asrwt>
<pdfrwt beam="1">  1        4 0.22515659E-01 0.12499804E+03</pdfrwt>
<pdfrwt beam="2">  1       -4 0.41061523E-02 0.12499804E+03</pdfrwt>
<totfact> 0.94888884E+03</totfact>
</mgrwt>
</event>
<event>
 5    1  0.3241863E-002  0.1250042E+03  0.7818608E-02  0.1235063E+00
         -4   -1    0    0    0  501 -0.00000000000E+00  0.00000000000E+00  0.17432987553E+03  0.17433450147E+03  0.12700000000E+01 0.  1.
          4   -1    0    0  501    0  0.00000000000E+00 -0.00000000000E+00 -0.22385812244E+02  0.22421808353E+02  0.12700000000E+01 0.  1.
         25    2    1    2    0    0  0.00000000000E+00  0.00000000000E+00  0.15194406329E+03  0.19675630983E+03  0.12500418828E+03 0.  0.
    9000005    1    3    3    0    0  0.11320864759E+02  0.12108752122E+02 -0.18870023582E+02  0.25136858333E+02  0.10000000000E+01 0.  0.
    9000005    1    3    3    0    0 -0.11320864759E+02 -0.12108752122E+02  0.17081408687E+03  0.17161945149E+03  0.10000000000E+01 0.  0.
<mgrwt>
<rscale>  0 0.12500419E+03</rscale>
<asrwt>0</asrwt>
<pdfrwt beam="2">  1        4 0.34470958E-02 0.12500419E+03</pdfrwt>
<pdfrwt beam="1">  1       -4 0.26823106E-01 0.12500419E+03</pdfrwt>
<totfact> 0.90676344E+03</totfact>
</mgrwt>
</event>
<event>
 5    1  0.3241863E-002  0.1249985E+03  0.7818608E-02  0.1235072E+00
          4   -1    0    0  501    0  0.00000000000E+00  0.00000000000E+00  0.10658069452E+04  0.10658077019E+04  0.12700000000E+01 0. -1.
         -4   -1    0    0    0  501 -0.00000000000E+00 -0.00000000000E+00 -0.35541735885E+01  0.37742615035E+01  0.12700000000E+01 0. -1.
         25    2    1    2    0    0  0.00000000000E+00  0.00000000000E+00  0.10622527716E+04  0.10695819634E+04  0.12499850219E+03 0.  0.
    9000005    1    3    3    0    0  0.30612539405E+02  0.52852138752E+02  0.41803457418E+03  0.42247411914E+03  0.10000000000E+01 0.  0.
    9000005    1    3    3    0    0 -0.30612539405E+02 -0.52852138752E+02  0.64421819743E+03  0.64710784421E+03  0.10000000000E+01 0.  0.
<mgrwt>
<rscale>  0 0.12499850E+03</rscale>
<asrwt>0</asrwt>
<pdfrwt beam="1">  1        4 0.16398738E+00 0.12499850E+03</pdfrwt>
<pdfrwt beam="2">  1       -4 0.56378365E-03 0.12499850E+03</pdfrwt>
<totfact> 0.28392047E+03</totfact>
</mgrwt>
</event>
<event>
 5    1  0.3241863E-002  0.1250003E+03  0.7818608E-02  0.1235069E+00
         -4   -1    0    0    0  501 -0.00000000000E+00  0.00000000000E+00  0.74309082036E+02  0.74319933888E+02  0.12700000000E+01 0. -1.
          4   -1    0    0  501    0  0.00000000000E+00 -0.00000000000E+00 -0.52545477027E+02  0.52560822444E+02  0.12700000000E+01 0. -1.
         25    2    1    2    0    0  0.00000000000E+00  0.00000000000E+00  0.21763605009E+02  0.12688075633E+03  0.12500028730E+03 0.  0.
    9000005    1    3    3    0    0  0.55403373929E+02 -0.28891099371E+02  0.11916196548E+02  0.63617805729E+02  0.10000000000E+01 0.  0.
    9000005    1    3    3    0    0 -0.55403373929E+02  0.28891099371E+02  0.98474084611E+01  0.63262950603E+02  0.10000000000E+01 0.  0.
<mgrwt>
<rscale>  0 0.12500029E+03</rscale>
<asrwt>0</asrwt>
<pdfrwt beam="2">  1        4 0.80859348E-02 0.12500029E+03</pdfrwt>
<pdfrwt beam="1">  1       -4 0.11434182E-01 0.12500029E+03</pdfrwt>
<totfact> 0.10411670E+04</totfact>
</mgrwt>
</event>
<event>
 5    1  0.3241863E-002  0.1249997E+03  0.7818608E-02  0.1235070E+00
         -4   -1    0    0    0  501 -0.00000000000E+00  0.00000000000E+00  0.17410573932E+03  0.17411037122E+03  0.12700000000E+01 0. -1.
          4   -1    0    0  501    0  0.00000000000E+00 -0.00000000000E+00 -0.22413054064E+02  0.22449006492E+02  0.12700000000E+01 0. -1.
         25    2    1    2    0    0  0.00000000000E+00  0.00000000000E+00  0.15169268526E+03  0.19655937771E+03  0.12499967282E+03 0.  0.
    9000005    1    3    3    0    0 -0.87436317808E+01 -0.60815142555E+02  0.57896860720E+02  0.84427360150E+02  0.10000000000E+01 0.  0.
    9000005    1    3    3    0    0  0.87436317808E+01  0.60815142555E+02  0.93795824538E+02  0.11213201756E+03  0.10000000000E+01 0.  0.
<mgrwt>
<rscale>  0 0.12499967E+03</rscale>
<asrwt>0</asrwt>
<pdfrwt beam="2">  1        4 0.34512839E-02 0.12499967E+03</pdfrwt>
<pdfrwt beam="1">  1       -4 0.26788621E-01 0.12499967E+03</pdfrwt>
<totfact> 0.90719028E+03</totfact>
</mgrwt>
</event>
<event>
 5    1  0.3241863E-002  0.1250050E+03  0.7818608E-02  0.1235061E+00
         -4   -1    0    0    0  501 -0.00000000000E+00  0.00000000000E+00  0.73237259039E+02  0.73248269683E+02  0.12700000000E+01 0.  1.
          4   -1    0    0  501    0  0.00000000000E+00 -0.00000000000E+00 -0.53318591688E+02  0.53333714662E+02  0.12700000000E+01 0.  1.
         25    2    1    2    0    0  0.00000000000E+00  0.00000000000E+00  0.19918667351E+02  0.12658198434E+03  0.12500498171E+03 0.  0.
    9000005    1    3    3    0    0  0.42844613164E+02  0.43958527264E+02 -0.19167239788E+01  0.61422201419E+02  0.10000000000E+01 0.  0.
    9000005    1    3    3    0    0 -0.42844613164E+02 -0.43958527264E+02  0.21835391330E+02  0.65159782925E+02  0.10000000000E+01 0.  0.
<mgrwt>
<rscale>  0 0.12500498E+03</rscale>
<asrwt>0</asrwt>
<pdfrwt beam="2">  1        4 0.82048706E-02 0.12500498E+03</pdfrwt>
<pdfrwt beam="1">  1       -4 0.11269281E-01 0.12500498E+03</pdfrwt>
<totfact> 0.10417069E+04</totfact>
</mgrwt>
</event>
<event>
 5    1  0.3241863E-002  0.1249980E+03  0.7818608E-02  0.1235072E+00
          4   -1    0    0  501    0  0.00000000000E+00  0.00000000000E+00  0.17606557367E+02  0.17652301898E+02  0.12700000000E+01 0. -1.
         -4   -1    0    0    0  501 -0.00000000000E+00 -0.00000000000E+00 -0.22152077366E+03  0.22152441415E+03  0.12700000000E+01 0. -1.
         25    2    1    2    0    0  0.00000000000E+00  0.00000000000E+00 -0.20391421630E+03  0.23917671605E+03  0.12499797555E+03 0.  0.
    9000005    1    3    3    0    0 -0.60837861584E+01 -0.52739318695E+02 -0.38880865719E+02  0.65811624425E+02  0.10000000000E+01 0.  0.
    9000005    1    3    3    0    0  0.60837861584E+01  0.52739318695E+02 -0.16503335058E+03  0.17336509162E+03  0.10000000000E+01 0.  0.
<mgrwt>
<rscale>  0 0.12499798E+03</rscale>
<asrwt>0</asrwt>
<pdfrwt beam="1">  1        4 0.27125001E-02 0.12499798E+03</pdfrwt>
<pdfrwt beam="2">  1       -4 0.34083916E-01 0.12499798E+03</pdfrwt>
<totfact> 0.83923923E+03</totfact>
</mgrwt>
</event>
<event>
 5    1  0.3241863E-002  0.1249983E+03  0.7818608E-02  0.1235072E+00
         -4   -1    0    0    0  501 -0.00000000000E+00  0.00000000000E+00  0.66462808488E+02  0.66474941235E+02  0.12700000000E+01 0. -1.
          4   -1    0    0  501    0  0.00000000000E+00 -0.00000000000E+00 -0.58747487184E+02  0.58761212976E+02  0.12700000000E+01 0. -1.
         25    2    1    2    0    0  0.00000000000E+00  0.00000000000E+00  0.77153213048E+01  0.12523615421E+03  0.12499827254E+03 0.  0.
    9000005    1    3    3    0    0  0.36416841703E+02  0.27959607580E+02  0.46331923664E+02  0.65234754281E+02  0.10000000000E+01 0.  0.
    9000005    1    3    3    0    0 -0.36416841703E+02 -0.27959607580E+02 -0.38616602360E+02  0.60001399929E+02  0.10000000000E+01 0.  0.
<mgrwt>
<rscale>  0 0.12499827E+03</rscale>
<asrwt>0</asrwt>
<pdfrwt beam="2">  1        4 0.90400641E-02 0.12499827E+03</pdfrwt>
<pdfrwt beam="1">  1       -4 0.10227037E-01 0.12499827E+03</pdfrwt>
<totfact> 0.10448143E+04</totfact>
</mgrwt>
</event>
<event>
 5    1  0.3241863E-002  0.1249995E+03  0.7818608E-02  0.1235070E+00
          4   -1    0    0  501    0  0.00000000000E+00  0.00000000000E+00  0.16953874609E+03  0.16954350275E+03  0.12700000000E+01 0. -1.
         -4   -1    0    0    0  501 -0.00000000000E+00 -0.00000000000E+00 -0.23017695064E+02  0.23052704528E+02  0.12700000000E+01 0. -1.
         25    2    1    2    0    0  0.00000000000E+00  0.00000000000E+00  0.14652105103E+03  0.19259620728E+03  0.12499952266E+03 0.  0.
    9000005    1    3    3    0    0 -0.37339243632E+01 -0.60702182511E+02  0.51118181048E+02  0.79452914273E+02  0.10000000000E+01 0.  0.
    9000005    1    3    3    0    0  0.37339243632E+01  0.60702182511E+02  0.95402869978E+02  0.11314329301E+03  0.10000000000E+01 0.  0.
<mgrwt>
<rscale>  0 0.12499952E+03</rscale>
<asrwt>0</asrwt>
<pdfrwt beam="1">  1        4 0.26085942E-01 0.12499952E+03</pdfrwt>
<pdfrwt beam="2">  1       -4 0.35442430E-02 0.12499952E+03</pdfrwt>
<totfact> 0.91398513E+03</totfact>
</mgrwt>
</event>
<event>
 5    1  0.3241863E-002  0.1249960E+03  0.7818608E-02  0.1235076E+00
          4   -1    0    0  501    0  0.00000000000E+00  0.00000000000E+00  0.12018270490E+03  0.12018941491E+03  0.12700000000E+01 0. -1.
         -4   -1    0    0    0  501 -0.00000000000E+00 -0.00000000000E+00 -0.32480485528E+02  0.32505304800E+02  0.12700000000E+01 0. -1.
         25    2    1    2    0    0  0.00000000000E+00  0.00000000000E+00  0.87702219371E+02  0.15269471971E+03  0.12499599252E+03 0.  0.
    9000005    1    3    3    0    0  0.36657722974E+01 -0.56708960867E+02  0.75604533362E+02  0.94585356129E+02  0.10000000000E+01 0.  0.
    9000005    1    3    3    0    0 -0.36657722974E+01  0.56708960867E+02  0.12097686009E+02  0.58109363582E+02  0.10000000000E+01 0.  0.
<mgrwt>
<rscale>  0 0.12499599E+03</rscale>
<asrwt>0</asrwt>
<pdfrwt beam="1">  1        4 0.18492072E-01 0.12499599E+03</pdfrwt>
<pdfrwt beam="2">  1       -4 0.49994231E-02 0.12499599E+03</pdfrwt>
<totfact> 0.98778139E+03</totfact>
</mgrwt>
</event>
<event>
 5    1  0.3241863E-002  0.1250227E+03  0.7818608E-02  0.1235034E+00
          4   -1    0    0  501    0  0.00000000000E+00  0.00000000000E+00  0.84441652686E+02  0.84451202527E+02  0.12700000000E+01 0.  1.
         -4   -1    0    0    0  501 -0.00000000000E+00 -0.00000000000E+00 -0.46255645643E+02  0.46273076987E+02  0.12700000000E+01 0.  1.
         25    2    1    2    0    0  0.00000000000E+00  0.00000000000E+00  0.38186007042E+02  0.13072427951E+03  0.12502266243E+03 0.  0.
    9000005    1    3    3    0    0  0.12417441724E+02  0.32739475715E+02  0.73228678095E+02  0.81175768704E+02  0.10000000000E+01 0.  0.
    9000005    1    3    3    0    0 -0.12417441724E+02 -0.32739475715E+02 -0.35042671053E+02  0.49548510811E+02  0.10000000000E+01 0.  0.
<mgrwt>
<rscale>  0 0.12502266E+03</rscale>
<asrwt>0</asrwt>
<pdfrwt beam="1">  1        4 0.12993099E-01 0.12502266E+03</pdfrwt>
<pdfrwt beam="2">  1       -4 0.71183287E-02 0.12502266E+03</pdfrwt>
<totfact> 0.10323725E+04</totfact>
</mgrwt>
</event>
<event>
 5    1  0.3241863E-002  0.1250000E+03  0.7818608E-02  0.1235069E+00
          4   -1    0    0  501    0  0.00000000000E+00  0.00000000000E+00  0.24229161839E+03  0.24229494679E+03  0.12700000000E+01 0.  1.
         -4   -1    0    0    0  501 -0.00000000000E+00 -0.00000000000E+00 -0.16093644221E+02  0.16143676294E+02  0.12700000000E+01 0.  1.
         25    2    1    2    0    0  0.00000000000E+00  0.00000000000E+00  0.22619797417E+03  0.25843862309E+03  0.12499999354E+03 0.  0.
    9000005    1    3    3    0    0 -0.43420830469E+02 -0.62114922788E+01  0.21070479980E+02  0.48671514067E+02  0.10000000000E+01 0.  0.
    9000005    1    3    3    0    0  0.43420830469E+02  0.62114922788E+01  0.20512749419E+03  0.20976710902E+03  0.10000000000E+01 0.  0.
<mgrwt>
<rscale>  0 0.12499999E+03</rscale>
<asrwt>0</asrwt>
<pdfrwt beam="1">  1        4 0.37279740E-01 0.12499999E+03</pdfrwt>
<pdfrwt beam="2">  1       -4 0.24800498E-02 0.12499999E+03</pdfrwt>
<totfact> 0.81125687E+03</totfact>
</mgrwt>
</event>
<event>
 5    1  0.3241863E-002  0.1250130E+03  0.7818608E-02  0.1235049E+00
         -4   -1    0    0    0  501 -0.00000000000E+00  0.00000000000E+00  0.25128228091E+03  0.25128549023E+03  0.12700000000E+01 0.  1.
          4   -1    0    0  501    0  0.00000000000E+00 -0.00000000000E+00 -0.15519254119E+02  0.15571131892E+02  0.12700000000E+01 0.  1.
         25    2    1    2    0    0  0.00000000000E+00  0.00000000000E+00  0.23576302679E+03  0.26685662212E+03  0.12501300720E+03 0.  0.
    9000005    1    3    3    0    0 -0.41353932697E+02  0.49196691031E+01  0.21735879468E+03  0.22131470019E+03  0.10000000000E+01 0.  0.
    9000005    1    3    3    0    0  0.41353932697E+02 -0.49196691031E+01  0.18404232104E+02  0.45541921928E+02  0.10000000000E+01 0.  0.
<mgrwt>
<rscale>  0 0.12501301E+03</rscale>
<asrwt>0</asrwt>
<pdfrwt beam="2">  1        4 0.23918152E-02 0.12501301E+03</pdfrwt>
<pdfrwt beam="1">  1       -4 0.38663047E-01 0.12501301E+03</pdfrwt>
<totfact> 0.79930226E+03</totfact>
</mgrwt>
</event>
<event>
 5    1  0.3241863E-002  0.1249999E+03  0.7818608E-02  0.1235069E+00
         -4   -1    0    0    0  501 -0.00000000000E+00  0.00000000000E+00  0.85788633283E+02  0.85798033198E+02  0.12700000000E+01 0.  1.
          4   -1    0    0  501    0  0.00000000000E+00 -0.00000000000E+00 -0.45512590038E+02  0.45530305863E+02  0.12700000000E+01 0.  1.
         25    2    1    2    0    0  0.00000000000E+00  0.00000000000E+00  0.40276043245E+02  0.13132833906E+03  0.12499989192E+03 0.  0.
    9000005    1    3    3    0    0  0.41361455817E+02 -0.87981675925E+01  0.68479058118E+02  0.80489497333E+02  0.10000000000E+01 0.  0.
    9000005    1    3    3    0    0 -0.41361455817E+02  0.87981675925E+01 -0.28203014873E+02  0.50838841728E+02  0.10000000000E+01 0.  0.
<mgrwt>
<rscale>  0 0.12499989E+03</rscale>
<asrwt>0</asrwt>
<pdfrwt beam="2">  1        4 0.70040228E-02 0.12499989E+03</pdfrwt>
<pdfrwt beam="1">  1       -4 0.13200337E-01 0.12499989E+03</pdfrwt>
<totfact> 0.10316081E+04</totfact>
</mgrwt>
</event>
<event>
 5    1  0.3241863E-002  0.1250006E+03  0.7818608E-02  0.1235068E+00
         -4   -1    0    0    0  501 -0.00000000000E+00  0.00000000000E+00  0.87576677330E+02  0.87585885348E+02  0.12700000000E+01 0.  1.
          4   -1    0    0  501    0  0.00000000000E+00 -0.00000000000E+00 -0.44583592309E+02  0.44601677134E+02  0.12700000000E+01 0.  1.
         25    2    1    2    0    0  0.00000000000E+00  0.00000000000E+00  0.42993085021E+02  0.13218756248E+03  0.12500058526E+03 0.  0.
    9000005    1    3    3    0    0  0.38039987985E+01 -0.42672778748E+02 -0.26614857857E+02  0.50445883000E+02  0.10000000000E+01 0.  0.
    9000005    1    3    3    0    0 -0.38039987985E+01  0.42672778748E+02  0.69607942878E+02  0.81741679482E+02  0.10000000000E+01 0.  0.
<mgrwt>
<rscale>  0 0.12500059E+03</rscale>
<asrwt>0</asrwt>
<pdfrwt beam="2">  1        4 0.68611137E-02 0.12500059E+03</pdfrwt>
<pdfrwt beam="1">  1       -4 0.13475434E-01 0.12500059E+03</pdfrwt>
<totfact> 0.10297561E+04</totfact>
</mgrwt>
</event>
<event>
 5    1  0.3241863E-002  0.1250025E+03  0.7818608E-02  0.1235065E+00
          4   -1    0    0  501    0  0.00000000000E+00  0.00000000000E+00  0.28361024377E+02  0.28389445287E+02  0.12700000000E+01 0. -1.
         -4   -1    0    0    0  501 -0.00000000000E+00 -0.00000000000E+00 -0.13763825739E+03  0.13764411647E+03  0.12700000000E+01 0. -1.
         25    2    1    2    0    0  0.00000000000E+00  0.00000000000E+00 -0.10927723301E+03  0.16603356175E+03  0.12500251987E+03 0.  0.
    9000005    1    3    3    0    0  0.36441560305E+02  0.50429966744E+02 -0.46866571509E+02  0.77901504403E+02  0.10000000000E+01 0.  0.
    9000005    1    3    3    0    0 -0.36441560305E+02 -0.50429966744E+02 -0.62410661506E+02  0.88132057351E+02  0.10000000000E+01 0.  0.
<mgrwt>
<rscale>  0 0.12500252E+03</rscale>
<asrwt>0</asrwt>
<pdfrwt beam="1">  1        4 0.43658715E-02 0.12500252E+03</pdfrwt>
<pdfrwt beam="2">  1       -4 0.21177753E-01 0.12500252E+03</pdfrwt>
<totfact> 0.96186565E+03</totfact>
</mgrwt>
</event>
<event>
 5    1  0.3241863E-002  0.1250045E+03  0.7818608E-02  0.1235062E+00
         -4   -1    0    0    0  501 -0.00000000000E+00  0.00000000000E+00  0.39733647389E+02  0.39753938608E+02  0.12700000000E+01 0.  1.
          4   -1    0    0  501    0  0.00000000000E+00 -0.00000000000E+00 -0.98268429669E+02  0.98276635929E+02  0.12700000000E+01 0.  1.
         25    2    1    2    0    0  0.00000000000E+00  0.00000000000E+00 -0.58534782280E+02  0.13803057454E+03  0.12500447500E+03 0.  0.
    9000005    1    3    3    0    0  0.12594021552E+02 -0.57969188777E+02 -0.75593411266E+01  0.59809529881E+02  0.10000000000E+01 0.  0.
    9000005    1    3    3    0    0 -0.12594021552E+02  0.57969188777E+02 -0.50975441154E+02  0.78221044656E+02  0.10000000000E+01 0.  0.
<mgrwt>
<rscale>  0 0.12500448E+03</rscale>
<asrwt>0</asrwt>
<pdfrwt beam="2">  1        4 0.15120412E-01 0.12500448E+03</pdfrwt>
<pdfrwt beam="1">  1       -4 0.61150610E-02 0.12500448E+03</pdfrwt>
<totfact> 0.10173541E+04</totfact>
</mgrwt>
</event>
<event>
 5    1  0.3241863E-002  0.1249992E+03  0.7818608E-02  0.1235070E+00
          4   -1    0    0  501    0  0.00000000000E+00  0.00000000000E+00  0.41959681930E+02  0.41978897171E+02  0.12700000000E+01 0.  1.
         -4   -1    0    0    0  501 -0.00000000000E+00 -0.00000000000E+00 -0.93049298059E+02  0.93057964567E+02  0.12700000000E+01 0.  1.
         25    2    1    2    0    0  0.00000000000E+00  0.00000000000E+00 -0.51089616129E+02  0.13503686174E+03  0.12499922060E+03 0.  0.
    9000005    1    3    3    0    0  0.54370688972E+02  0.10755844375E+02  0.56409624735E+01  0.55719659593E+02  0.10000000000E+01 0.  0.
    9000005    1    3    3    0    0 -0.54370688972E+02 -0.10755844375E+02 -0.56730578603E+02  0.79317202145E+02  0.10000000000E+01 0.  0.
<mgrwt>
<rscale>  0 0.12499922E+03</rscale>
<asrwt>0</asrwt>
<pdfrwt beam="1">  1        4 0.64574804E-02 0.12499922E+03</pdfrwt>
<pdfrwt beam="2">  1       -4 0.14317421E-01 0.12499922E+03</pdfrwt>
<totfact> 0.10237474E+04</totfact>
</mgrwt>
</event>
<event>
 5    1  0.3241863E-002  0.1250076E+03  0.7818608E-02  0.1235057E+00
          4   -1    0    0  501    0  0.00000000000E+00  0.00000000000E+00  0.14358520697E+03  0.14359082338E+03  0.12700000000E+01 0. -1.
         -4   -1    0    0    0  501 -0.00000000000E+00 -0.00000000000E+00 -0.27187450426E+02  0.27217096845E+02  0.12700000000E+01 0. -1.
         25    2    1    2    0    0  0.00000000000E+00  0.00000000000E+00  0.11639775654E+03  0.17080792023E+03  0.12500763131E+03 0.  0.
    9000005    1    3    3    0    0 -0.46269834779E+02  0.86614300062E+01  0.20307066635E+01  0.47127929615E+02  0.10000000000E+01 0.  0.
    9000005    1    3    3    0    0  0.46269834779E+02 -0.86614300062E+01  0.11436704988E+03  0.12367999061E+03  0.10000000000E+01 0.  0.
<mgrwt>
<rscale>  0 0.12500763E+03</rscale>
<asrwt>0</asrwt>
<pdfrwt beam="1">  1        4 0.22092744E-01 0.12500763E+03</pdfrwt>
<pdfrwt beam="2">  1       -4 0.41853973E-02 0.12500763E+03</pdfrwt>
<totfact> 0.95281945E+03</totfact>
</mgrwt>
</event>
<event>
 5    1  0.3241863E-002  0.1249999E+03  0.7818608E-02  0.1235069E+00
          4   -1    0    0  501    0  0.00000000000E+00  0.00000000000E+00  0.13176416265E+03  0.13177028291E+03  0.12700000000E+01 0. -1.
         -4   -1    0    0    0  501 -0.00000000000E+00 -0.00000000000E+00 -0.29625294837E+02  0.29652504012E+02  0.12700000000E+01 0. -1.
         25    2    1    2    0    0  0.00000000000E+00  0.00000000000E+00  0.10213886781E+03  0.16142278692E+03  0.12499987128E+03 0.  0.
    9000005    1    3    3    0    0 -0.43089856803E+02  0.37800602108E+02  0.18924078938E+02  0.60371699021E+02  0.10000000000E+01 0.  0.
    9000005    1    3    3    0    0  0.43089856803E+02 -0.37800602108E+02  0.83214788874E+02  0.10105108790E+03  0.10000000000E+01 0.  0.
<mgrwt>
<rscale>  0 0.12499987E+03</rscale>
<asrwt>0</asrwt>
<pdfrwt beam="1">  1        4 0.20273973E-01 0.12499987E+03</pdfrwt>
<pdfrwt beam="2">  1       -4 0.45603015E-02 0.12499987E+03</pdfrwt>
<totfact> 0.97069463E+03</totfact>
</mgrwt>
</event>
<event>
 4    1  0.3241863E-002  0.1251927E+03  0.7818608E-02  0.1234768E+00
          4   -1    0    0  501    0  0.00000000000E+00  0.00000000000E+00  0.26454928681E+01  0.29345412785E+01  0.12700000000E+01 0. -1.
         -4   -1    0    0    0  501 -0.00000000000E+00 -0.00000000000E+00 -0.14041116081E+04  0.14041121825E+04  0.12700000000E+01 0. -1.
    9000005    1    1    2    0    0 -0.36175827177E+00  0.10315413329E+02 -0.69310324122E+01  0.12473084282E+02  0.10000000000E+01 0.  0.
    9000005    1    1    2    0    0  0.36175827177E+00 -0.10315413329E+02 -0.13945350829E+04  0.13945736395E+04  0.10000000000E+01 0.  0.
<mgrwt>
<rscale>  0 0.12519269E+03</rscale>
<asrwt>0</asrwt>
<pdfrwt beam="1">  1        4 0.42927870E-03 0.12519269E+03</pdfrwt>
<pdfrwt beam="2">  1       -4 0.21603888E+00 0.12519269E+03</pdfrwt>
<totfact> 0.19747066E+03</totfact>
</mgrwt>
</event>
<event>
 5    1  0.3241863E-002  0.1249993E+03  0.7818608E-02  0.1235070E+00
         -4   -1    0    0    0  501 -0.00000000000E+00  0.00000000000E+00  0.96390004558E+02  0.96398370726E+02  0.12700000000E+01 0.  1.
          4   -1    0    0  501    0  0.00000000000E+00 -0.00000000000E+00 -0.40504957975E+02  0.40524862992E+02  0.12700000000E+01 0.  1.
         25    2    1    2    0    0  0.00000000000E+00  0.00000000000E+00  0.55885046583E+02  0.13692323372E+03  0.12499933400E+03 0.  0.
    9000005    1    3    3    0    0  0.53517143389E+01 -0.25790568573E+02 -0.34132601781E+02  0.43125732203E+02  0.10000000000E+01 0.  0.
    9000005    1    3    3    0    0 -0.53517143389E+01  0.25790568573E+02  0.90017648364E+02  0.93797501516E+02  0.10000000000E+01 0.  0.
<mgrwt>
<rscale>  0 0.12499933E+03</rscale>
<asrwt>0</asrwt>
<pdfrwt beam="2">  1        4 0.62337067E-02 0.12499933E+03</pdfrwt>
<pdfrwt beam="1">  1       -4 0.14831406E-01 0.12499933E+03</pdfrwt>
<totfact> 0.10197844E+04</totfact>
</mgrwt>
</event>
<event>
 5    1  0.3241863E-002  0.1250008E+03  0.7818608E-02  0.1235068E+00
          4   -1    0    0  501    0  0.00000000000E+00  0.00000000000E+00  0.11661456300E+02  0.11730407625E+02  0.12700000000E+01 0. -1.
         -4   -1    0    0    0  501 -0.00000000000E+00 -0.00000000000E+00 -0.33391757676E+03  0.33391999187E+03  0.12700000000E+01 0. -1.
         25    2    1    2    0    0  0.00000000000E+00  0.00000000000E+00 -0.32225612046E+03  0.34565039949E+03  0.12500076598E+03 0.  0.
    9000005    1    3    3    0    0 -0.27390932005E+02 -0.55570081654E+02 -0.13849390982E+03  0.15172297185E+03  0.10000000000E+01 0.  0.
    9000005    1    3    3    0    0  0.27390932005E+02  0.55570081654E+02 -0.18376221064E+03  0.19392742764E+03  0.10000000000E+01 0.  0.
<mgrwt>
<rscale>  0 0.12500077E+03</rscale>
<asrwt>0</asrwt>
<pdfrwt beam="1">  1        4 0.17995602E-02 0.12500077E+03</pdfrwt>
<pdfrwt beam="2">  1       -4 0.51377418E-01 0.12500077E+03</pdfrwt>
<totfact> 0.70204543E+03</totfact>
</mgrwt>
</event>
<event>
 5    1  0.3241863E-002  0.1250063E+03  0.7818608E-02  0.1235059E+00
          4   -1    0    0  501    0  0.00000000000E+00  0.00000000000E+00  0.43175378679E+01  0.45004481156E+01  0.12700000000E+01 0. -1.
         -4   -1    0    0    0  501 -0.00000000000E+00 -0.00000000000E+00 -0.88587910810E+03  0.88588001844E+03  0.12700000000E+01 0. -1.
         25    2    1    2    0    0  0.00000000000E+00  0.00000000000E+00 -0.88156157023E+03  0.89038046655E+03  0.12500629228E+03 0.  0.
    9000005    1    3    3    0    0  0.30208549518E+02  0.12088071630E+02 -0.82082562433E+03  0.82147086589E+03  0.10000000000E+01 0.  0.
    9000005    1    3    3    0    0 -0.30208549518E+02 -0.12088071630E+02 -0.60735945895E+02  0.68909600662E+02  0.10000000000E+01 0.  0.
<mgrwt>
<rscale>  0 0.12500629E+03</rscale>
<asrwt>0</asrwt>
<pdfrwt beam="1">  1        4 0.67837735E-03 0.12500629E+03</pdfrwt>
<pdfrwt beam="2">  1       -4 0.13630309E+00 0.12500629E+03</pdfrwt>
<totfact> 0.34524674E+03</totfact>
</mgrwt>
</event>
<event>
 5    1  0.3241863E-002  0.1249941E+03  0.7818608E-02  0.1235079E+00
         -4   -1    0    0    0  501 -0.00000000000E+00  0.00000000000E+00  0.63269087605E+03  0.63269215069E+03  0.12700000000E+01 0.  1.
          4   -1    0    0  501    0  0.00000000000E+00 -0.00000000000E+00 -0.61068290454E+01  0.62374883558E+01  0.12700000000E+01 0.  1.
         25    2    1    2    0    0  0.00000000000E+00  0.00000000000E+00  0.62658404701E+03  0.63892963904E+03  0.12499406259E+03 0.  0.
    9000005    1    3    3    0    0  0.33368177779E+02  0.47331827423E+02  0.19328813892E+03  0.20177968635E+03  0.10000000000E+01 0.  0.
    9000005    1    3    3    0    0 -0.33368177779E+02 -0.47331827423E+02  0.43329590809E+03  0.43714995270E+03  0.10000000000E+01 0.  0.
<mgrwt>
<rscale>  0 0.12499406E+03</rscale>
<asrwt>0</asrwt>
<pdfrwt beam="2">  1        4 0.94966119E-03 0.12499406E+03</pdfrwt>
<pdfrwt beam="1">  1       -4 0.97347179E-01 0.12499406E+03</pdfrwt>
<totfact> 0.46505004E+03</totfact>
</mgrwt>
</event>
<event>
 5    1  0.3241863E-002  0.1249938E+03  0.7818608E-02  0.1235079E+00
          4   -1    0    0  501    0  0.00000000000E+00  0.00000000000E+00  0.15671886715E+02  0.15723260896E+02  0.12700000000E+01 0. -1.
         -4   -1    0    0    0  501 -0.00000000000E+00 -0.00000000000E+00 -0.24876669019E+03  0.24876993197E+03  0.12700000000E+01 0. -1.
         25    2    1    2    0    0  0.00000000000E+00  0.00000000000E+00 -0.23309480348E+03  0.26449319286E+03  0.12499384649E+03 0.  0.
    9000005    1    3    3    0    0  0.13850351404E+02  0.30399423207E+02 -0.22829623044E+03  0.23072955164E+03  0.10000000000E+01 0.  0.
    9000005    1    3    3    0    0 -0.13850351404E+02 -0.30399423207E+02 -0.47985730366E+01  0.33763641222E+02  0.10000000000E+01 0.  0.
<mgrwt>
<rscale>  0 0.12499385E+03</rscale>
<asrwt>0</asrwt>
<pdfrwt beam="1">  1        4 0.24152609E-02 0.12499385E+03</pdfrwt>
<pdfrwt beam="2">  1       -4 0.38275997E-01 0.12499385E+03</pdfrwt>
<totfact> 0.80290606E+03</totfact>
</mgrwt>
</event>
<event>
 5    1  0.3241863E-002  0.1250104E+03  0.7818608E-02  0.1235053E+00
          4   -1    0    0  501    0  0.00000000000E+00  0.00000000000E+00  0.21521183636E+03  0.21521558357E+03  0.12700000000E+01 0.  1.
         -4   -1    0    0    0  501 -0.00000000000E+00 -0.00000000000E+00 -0.18127625285E+02  0.18172058180E+02  0.12700000000E+01 0.  1.
         25    2    1    2    0    0  0.00000000000E+00  0.00000000000E+00  0.19708421107E+03  0.23338764175E+03  0.12501041982E+03 0.  0.
    9000005    1    3    3    0    0 -0.12537938196E+02  0.61205647136E+02  0.95549088204E+02  0.11416636717E+03  0.10000000000E+01 0.  0.
    9000005    1    3    3    0    0  0.12537938196E+02 -0.61205647136E+02  0.10153512287E+03  0.11922127458E+03  0.10000000000E+01 0.  0.
<mgrwt>
<rscale>  0 0.12501042E+03</rscale>
<asrwt>0</asrwt>
<pdfrwt beam="1">  1        4 0.33113220E-01 0.12501042E+03</pdfrwt>
<pdfrwt beam="2">  1       -4 0.27925715E-02 0.12501042E+03</pdfrwt>
<totfact> 0.84772416E+03</totfact>
</mgrwt>
</event>
<event>
 5    1  0.3241863E-002  0.1250004E+03  0.7818608E-02  0.1235069E+00
          4   -1    0    0  501    0  0.00000000000E+00  0.00000000000E+00  0.98141620973E+02  0.98149837835E+02  0.12700000000E+01 0. -1.
         -4   -1    0    0    0  501 -0.00000000000E+00 -0.00000000000E+00 -0.39782401957E+02  0.39802668321E+02  0.12700000000E+01 0. -1.
         25    2    1    2    0    0  0.00000000000E+00  0.00000000000E+00  0.58359219016E+02  0.13795250616E+03  0.12500038204E+03 0.  0.
    9000005    1    3    3    0    0 -0.59171605732E+02 -0.18592771149E+02  0.37606488086E+02  0.72541147013E+02  0.10000000000E+01 0.  0.
    9000005    1    3    3    0    0  0.59171605732E+02  0.18592771149E+02  0.20752730930E+02  0.65411359143E+02  0.10000000000E+01 0.  0.
<mgrwt>
<rscale>  0 0.12500038E+03</rscale>
<asrwt>0</asrwt>
<pdfrwt beam="1">  1        4 0.15100902E-01 0.12500038E+03</pdfrwt>
<pdfrwt beam="2">  1       -4 0.61225606E-02 0.12500038E+03</pdfrwt>
<totfact> 0.10176111E+04</totfact>
</mgrwt>
</event>
<event>
 5    1  0.3241863E-002  0.1250006E+03  0.7818608E-02  0.1235068E+00
          4   -1    0    0  501    0  0.00000000000E+00  0.00000000000E+00  0.47153243873E+03  0.47153414900E+03  0.12700000000E+01 0. -1.
         -4   -1    0    0    0  501 -0.00000000000E+00 -0.00000000000E+00 -0.82338328324E+01  0.83312005805E+01  0.12700000000E+01 0. -1.
         25    2    1    2    0    0  0.00000000000E+00  0.00000000000E+00  0.46329860590E+03  0.47986534958E+03  0.12500062201E+03 0.  0.
    9000005    1    3    3    0    0 -0.49522393590E+02 -0.34901719733E+01  0.85940775890E+02  0.99254550162E+02  0.10000000000E+01 0.  0.
    9000005    1    3    3    0    0  0.49522393590E+02  0.34901719733E+01  0.37735783001E+03  0.38061079942E+03  0.10000000000E+01 0.  0.
<mgrwt>
<rscale>  0 0.12500062E+03</rscale>
<asrwt>0</asrwt>
<pdfrwt beam="1">  1        4 0.72551072E-01 0.12500062E+03</pdfrwt>
<pdfrwt beam="2">  1       -4 0.12743649E-02 0.12500062E+03</pdfrwt>
<totfact> 0.57460337E+03</totfact>
</mgrwt>
</event>
<event>
 5    1  0.3241863E-002  0.1250005E+03  0.7818608E-02  0.1235069E+00
         -4   -1    0    0    0  501 -0.00000000000E+00  0.00000000000E+00  0.12858401679E+02  0.12920967214E+02  0.12700000000E+01 0. -1.
          4   -1    0    0  501    0  0.00000000000E+00 -0.00000000000E+00 -0.30299078162E+03  0.30299344325E+03  0.12700000000E+01 0. -1.
         25    2    1    2    0    0  0.00000000000E+00  0.00000000000E+00 -0.29013237995E+03  0.31591441046E+03  0.12500046737E+03 0.  0.
    9000005    1    3    3    0    0 -0.35571283370E+02  0.51346749968E+02 -0.14977694023E+03  0.16228350735E+03  0.10000000000E+01 0.  0.
    9000005    1    3    3    0    0  0.35571283370E+02 -0.51346749968E+02 -0.14035543972E+03  0.15363090311E+03  0.10000000000E+01 0.  0.
<mgrwt>
<rscale>  0 0.12500047E+03</rscale>
<asrwt>0</asrwt>
<pdfrwt beam="2">  1        4 0.46618978E-01 0.12500047E+03</pdfrwt>
<pdfrwt beam="1">  1       -4 0.19832333E-02 0.12500047E+03</pdfrwt>
<totfact> 0.73643940E+03</totfact>
</mgrwt>
</event>
<event>
 5    1  0.3241863E-002  0.1249995E+03  0.7818608E-02  0.1235070E+00
         -4   -1    0    0    0  501 -0.00000000000E+00  0.00000000000E+00  0.57352342152E+02  0.57366401755E+02  0.12700000000E+01 0.  1.
          4   -1    0    0  501    0  0.00000000000E+00 -0.00000000000E+00 -0.68080793123E+02  0.68092637577E+02  0.12700000000E+01 0.  1.
         25    2    1    2    0    0  0.00000000000E+00  0.00000000000E+00 -0.10728450971E+02  0.12545903933E+03  0.12499948356E+03 0.  0.
    9000005    1    3    3    0    0  0.56637667156E+02 -0.20332321601E+02 -0.22278156674E+02  0.64175890390E+02  0.10000000000E+01 0.  0.
    9000005    1    3    3    0    0 -0.56637667156E+02  0.20332321601E+02  0.11549705703E+02  0.61283148943E+02  0.10000000000E+01 0.  0.
<mgrwt>
<rscale>  0 0.12499948E+03</rscale>
<asrwt>0</asrwt>
<pdfrwt beam="2">  1        4 0.10475961E-01 0.12499948E+03</pdfrwt>
<pdfrwt beam="1">  1       -4 0.88254299E-02 0.12499948E+03</pdfrwt>
<totfact> 0.10442981E+04</totfact>
</mgrwt>
</event>
<event>
 5    1  0.3241863E-002  0.1249984E+03  0.7818608E-02  0.1235072E+00
         -4   -1    0    0    0  501 -0.00000000000E+00  0.00000000000E+00  0.35928743167E+02  0.35951181977E+02  0.12700000000E+01 0.  1.
          4   -1    0    0  501    0  0.00000000000E+00 -0.00000000000E+00 -0.10865923568E+03  0.10866665726E+03  0.12700000000E+01 0.  1.
         25    2    1    2    0    0  0.00000000000E+00  0.00000000000E+00 -0.72730492517E+02  0.14461783923E+03  0.12499837952E+03 0.  0.
    9000005    1    3    3    0    0  0.27354906971E+02  0.23140733732E+02 -0.95600625025E+02  0.10209928500E+03  0.10000000000E+01 0.  0.
    9000005    1    3    3    0    0 -0.27354906971E+02 -0.23140733732E+02  0.22870132507E+02  0.42518554231E+02  0.10000000000E+01 0.  0.
<mgrwt>
<rscale>  0 0.12499838E+03</rscale>
<asrwt>0</asrwt>
<pdfrwt beam="2">  1        4 0.16719102E-01 0.12499838E+03</pdfrwt>
<pdfrwt beam="1">  1       -4 0.55297959E-02 0.12499838E+03</pdfrwt>
<totfact> 0.10039125E+04</totfact>
</mgrwt>
</event>
<event>
 5    1  0.3241863E-002  0.1249952E+03  0.7818608E-02  0.1235077E+00
          4   -1    0    0  501    0  0.00000000000E+00  0.00000000000E+00  0.26678917483E+04  0.26678920506E+04  0.12700000000E+01 0.  1.
         -4   -1    0    0    0  501 -0.00000000000E+00 -0.00000000000E+00 -0.11882838119E+01  0.17392292597E+01  0.12700000000E+01 0.  1.
         25    2    1    2    0    0  0.00000000000E+00  0.00000000000E+00  0.26667034645E+04  0.26696312798E+04  0.12499521105E+03 0.  0.
    9000005    1    3    3    0    0  0.33347564853E+02  0.37906770349E+02  0.21198223977E+04  0.21204237739E+04  0.10000000000E+01 0.  0.
    9000005    1    3    3    0    0 -0.33347564853E+02 -0.37906770349E+02  0.54688106680E+03  0.54920750590E+03  0.10000000000E+01 0.  0.
<mgrwt>
<rscale>  0 0.12499521E+03</rscale>
<asrwt>0</asrwt>
<pdfrwt beam="1">  1        4 0.41048147E+00 0.12499521E+03</pdfrwt>
<pdfrwt beam="2">  1       -4 0.22521976E-03 0.12499521E+03</pdfrwt>
<totfact> 0.34702141E+02</totfact>
</mgrwt>
</event>
<event>
 5    1  0.3241863E-002  0.1250029E+03  0.7818608E-02  0.1235065E+00
         -4   -1    0    0    0  501 -0.00000000000E+00  0.00000000000E+00  0.45955803023E+02  0.45973348056E+02  0.12700000000E+01 0. -1.
          4   -1    0    0  501    0  0.00000000000E+00 -0.00000000000E+00 -0.84965540772E+02  0.84975031737E+02  0.12700000000E+01 0. -1.
         25    2    1    2    0    0  0.00000000000E+00  0.00000000000E+00 -0.39009737749E+02  0.13094837979E+03  0.12500287409E+03 0.  0.
    9000005    1    3    3    0    0  0.25560806221E+02  0.56311059728E+02 -0.28941043025E+02  0.68285241698E+02  0.10000000000E+01 0.  0.
    9000005    1    3    3    0    0 -0.25560806221E+02 -0.56311059728E+02 -0.10068694724E+02  0.62663138094E+02  0.10000000000E+01 0.  0.
<mgrwt>
<rscale>  0 0.12500287E+03</rscale>
<asrwt>0</asrwt>
<pdfrwt beam="2">  1        4 0.13073701E-01 0.12500287E+03</pdfrwt>
<pdfrwt beam="1">  1       -4 0.70722033E-02 0.12500287E+03</pdfrwt>
<totfact> 0.10323527E+04</totfact>
</mgrwt>
</event>
<event>
 5    1  0.3241863E-002  0.1249998E+03  0.7818608E-02  0.1235070E+00
          4   -1    0    0  501    0  0.00000000000E+00  0.00000000000E+00  0.64962177366E+01  0.66191951838E+01  0.12700000000E+01 0.  1.
         -4   -1    0    0    0  501 -0.00000000000E+00 -0.00000000000E+00 -0.59554743156E+03  0.59554878569E+03  0.12700000000E+01 0.  1.
         25    2    1    2    0    0  0.00000000000E+00  0.00000000000E+00 -0.58905121382E+03  0.60216798088E+03  0.12499977873E+03 0.  0.
    9000005    1    3    3    0    0  0.41534758423E+02  0.43952795928E+02 -0.37042784268E+03  0.37533288033E+03  0.10000000000E+01 0.  0.
    9000005    1    3    3    0    0 -0.41534758423E+02 -0.43952795928E+02 -0.21862337114E+03  0.22683510054E+03  0.10000000000E+01 0.  0.
<mgrwt>
<rscale>  0 0.12499978E+03</rscale>
<asrwt>0</asrwt>
<pdfrwt beam="1">  1        4 0.10089826E-02 0.12499978E+03</pdfrwt>
<pdfrwt beam="2">  1       -4 0.91632203E-01 0.12499978E+03</pdfrwt>
<totfact> 0.48731300E+03</totfact>
</mgrwt>
</event>
<event>
 5    1  0.3241863E-002  0.1250011E+03  0.7818608E-02  0.1235068E+00
          4   -1    0    0  501    0  0.00000000000E+00  0.00000000000E+00  0.12331008404E+01  0.17701518813E+01  0.12700000000E+01 0.  1.
         -4   -1    0    0    0  501 -0.00000000000E+00 -0.00000000000E+00 -0.26008539587E+04  0.26008542687E+04  0.12700000000E+01 0.  1.
         25    2    1    2    0    0  0.00000000000E+00  0.00000000000E+00 -0.25996208578E+04  0.26026244206E+04  0.12500108143E+03 0.  0.
    9000005    1    3    3    0    0 -0.54389237399E+02 -0.30446019794E+02 -0.12063059038E+04  0.12079155943E+04  0.10000000000E+01 0.  0.
    9000005    1    3    3    0    0  0.54389237399E+02  0.30446019794E+02 -0.13933149540E+04  0.13947088263E+04  0.10000000000E+01 0.  0.
<mgrwt>
<rscale>  0 0.12500108E+03</rscale>
<asrwt>0</asrwt>
<pdfrwt beam="1">  1        4 0.23104537E-03 0.12500108E+03</pdfrwt>
<pdfrwt beam="2">  1       -4 0.40016911E+00 0.12500108E+03</pdfrwt>
<totfact> 0.39123909E+02</totfact>
</mgrwt>
</event>
<event>
 5    1  0.3241863E-002  0.1250111E+03  0.7818608E-02  0.1235052E+00
          4   -1    0    0  501    0  0.00000000000E+00  0.00000000000E+00  0.16785009280E+02  0.16832986560E+02  0.12700000000E+01 0.  1.
         -4   -1    0    0    0  501 -0.00000000000E+00 -0.00000000000E+00 -0.23238179631E+03  0.23238526665E+03  0.12700000000E+01 0.  1.
         25    2    1    2    0    0  0.00000000000E+00  0.00000000000E+00 -0.21559678703E+03  0.24921825321E+03  0.12501105213E+03 0.  0.
    9000005    1    3    3    0    0  0.14340248054E+02  0.36816156162E+02 -0.20433470566E+03  0.20812194504E+03  0.10000000000E+01 0.  0.
    9000005    1    3    3    0    0 -0.14340248054E+02 -0.36816156162E+02 -0.11262081372E+02  0.41096308175E+02  0.10000000000E+01 0.  0.
<mgrwt>
<rscale>  0 0.12501105E+03</rscale>
<asrwt>0</asrwt>
<pdfrwt beam="1">  1        4 0.25862668E-02 0.12501105E+03</pdfrwt>
<pdfrwt beam="2">  1       -4 0.35755001E-01 0.12501105E+03</pdfrwt>
<totfact> 0.82423051E+03</totfact>
</mgrwt>
</event>
<event>
 5    1  0.3241863E-002  0.1249984E+03  0.7818608E-02  0.1235072E+00
         -4   -1    0    0    0  501 -0.00000000000E+00  0.00000000000E+00  0.21408926961E+03  0.21409303647E+03  0.12700000000E+01 0. -1.
          4   -1    0    0  501    0  0.00000000000E+00 -0.00000000000E+00 -0.18219403008E+02  0.18263612621E+02  0.12700000000E+01 0. -1.
         25    2    1    2    0    0  0.00000000000E+00  0.00000000000E+00  0.19586986660E+03  0.23235664909E+03  0.12499843092E+03 0.  0.
    9000005    1    3    3    0    0  0.23630455032E+02 -0.44913771727E+02  0.30155833246E+02  0.59042523443E+02  0.10000000000E+01 0.  0.
    9000005    1    3    3    0    0 -0.23630455032E+02  0.44913771727E+02  0.16571403336E+03  0.17331412564E+03  0.10000000000E+01 0.  0.
<mgrwt>
<rscale>  0 0.12499843E+03</rscale>
<asrwt>0</asrwt>
<pdfrwt beam="2">  1        4 0.28066759E-02 0.12499843E+03</pdfrwt>
<pdfrwt beam="1">  1       -4 0.32940498E-01 0.12499843E+03</pdfrwt>
<totfact> 0.84952016E+03</totfact>
</mgrwt>
</event>
<event>
 5    1  0.3241863E-002  0.1250102E+03  0.7818608E-02  0.1235053E+00
         -4   -1    0    0    0  501 -0.00000000000E+00  0.00000000000E+00  0.12090203647E+02  0.12156723416E+02  0.12700000000E+01 0. -1.
          4   -1    0    0  501    0  0.00000000000E+00 -0.00000000000E+00 -0.32219072788E+03  0.32219323089E+03  0.12700000000E+01 0. -1.
         25    2    1    2    0    0  0.00000000000E+00  0.00000000000E+00 -0.31010052424E+03  0.33434995431E+03  0.12501022684E+03 0.  0.
    9000005    1    3    3    0    0  0.54310103964E+02 -0.25947136697E+02 -0.20004748386E+03  0.20890868123E+03  0.10000000000E+01 0.  0.
    9000005    1    3    3    0    0 -0.54310103964E+02  0.25947136697E+02 -0.11005304038E+03  0.12544127308E+03  0.10000000000E+01 0.  0.
<mgrwt>
<rscale>  0 0.12501023E+03</rscale>
<asrwt>0</asrwt>
<pdfrwt beam="2">  1        4 0.49573107E-01 0.12501023E+03</pdfrwt>
<pdfrwt beam="1">  1       -4 0.18653410E-02 0.12501023E+03</pdfrwt>
<totfact> 0.71465091E+03</totfact>
</mgrwt>
</event>
<event>
 5    1  0.3241863E-002  0.1249964E+03  0.7818608E-02  0.1235075E+00
          4   -1    0    0  501    0  0.00000000000E+00  0.00000000000E+00  0.16813831889E+03  0.16814311517E+03  0.12700000000E+01 0. -1.
         -4   -1    0    0    0  501 -0.00000000000E+00 -0.00000000000E+00 -0.23208524854E+02  0.23243246888E+02  0.12700000000E+01 0. -1.
         25    2    1    2    0    0  0.00000000000E+00  0.00000000000E+00  0.14492979404E+03  0.19138636206E+03  0.12499637748E+03 0.  0.
    9000005    1    3    3    0    0 -0.21267991150E+02  0.58644725851E+02  0.78089038043E+02  0.99952134446E+02  0.10000000000E+01 0.  0.
    9000005    1    3    3    0    0  0.21267991150E+02 -0.58644725851E+02  0.66840755993E+02  0.91434227614E+02  0.10000000000E+01 0.  0.
<mgrwt>
<rscale>  0 0.12499638E+03</rscale>
<asrwt>0</asrwt>
<pdfrwt beam="1">  1        4 0.25870474E-01 0.12499638E+03</pdfrwt>
<pdfrwt beam="2">  1       -4 0.35735821E-02 0.12499638E+03</pdfrwt>
<totfact> 0.91614082E+03</totfact>
</mgrwt>
</event>
<event>
 5    1  0.3241863E-002  0.1250027E+03  0.7818608E-02  0.1235065E+00
          4   -1    0    0  501    0  0.00000000000E+00  0.00000000000E+00  0.73859940108E+02  0.73870857940E+02  0.12700000000E+01 0. -1.
         -4   -1    0    0    0  501 -0.00000000000E+00 -0.00000000000E+00 -0.52867101353E+02  0.52882353441E+02  0.12700000000E+01 0. -1.
         25    2    1    2    0    0  0.00000000000E+00  0.00000000000E+00  0.20992838755E+02  0.12675321138E+03  0.12500270924E+03 0.  0.
    9000005    1    3    3    0    0 -0.10090397208E+02 -0.41512132034E+02  0.56745951417E+02  0.71036442929E+02  0.10000000000E+01 0.  0.
    9000005    1    3    3    0    0  0.10090397208E+02  0.41512132034E+02 -0.35753112662E+02  0.55716768452E+02  0.10000000000E+01 0.  0.
<mgrwt>
<rscale>  0 0.12500271E+03</rscale>
<asrwt>0</asrwt>
<pdfrwt beam="1">  1        4 0.11365081E-01 0.12500271E+03</pdfrwt>
<pdfrwt beam="2">  1       -4 0.81354133E-02 0.12500271E+03</pdfrwt>
<totfact> 0.10413875E+04</totfact>
</mgrwt>
</event>
<event>
 5    1  0.3241863E-002  0.1249987E+03  0.7818608E-02  0.1235071E+00
          4   -1    0    0  501    0  0.00000000000E+00  0.00000000000E+00  0.13666405654E+03  0.13666995738E+03  0.12700000000E+01 0.  1.
         -4   -1    0    0    0  501 -0.00000000000E+00 -0.00000000000E+00 -0.28561631051E+02  0.28589852540E+02  0.12700000000E+01 0.  1.
         25    2    1    2    0    0  0.00000000000E+00  0.00000000000E+00  0.10810242549E+03  0.16525980992E+03  0.12499868150E+03 0.  0.
    9000005    1    3    3    0    0 -0.47098139762E+02  0.17020223648E+02  0.10347068118E+03  0.11495696867E+03  0.10000000000E+01 0.  0.
    9000005    1    3    3    0    0  0.47098139762E+02 -0.17020223648E+02  0.46317443071E+01  0.50302841246E+02  0.10000000000E+01 0.  0.
<mgrwt>
<rscale>  0 0.12499868E+03</rscale>
<asrwt>0</asrwt>
<pdfrwt beam="1">  1        4 0.21027864E-01 0.12499868E+03</pdfrwt>
<pdfrwt beam="2">  1       -4 0.43967218E-02 0.12499868E+03</pdfrwt>
<totfact> 0.96341064E+03</totfact>
</mgrwt>
</event>
<event>
 5    1  0.3241863E-002  0.1250016E+03  0.7818608E-02  0.1235067E+00
         -4   -1    0    0    0  501 -0.00000000000E+00  0.00000000000E+00  0.10193503529E+03  0.10194294639E+03  0.12700000000E+01 0.  1.
          4   -1    0    0  501    0  0.00000000000E+00 -0.00000000000E+00 -0.38302021580E+02  0.38323070820E+02  0.12700000000E+01 0.  1.
         25    2    1    2    0    0  0.00000000000E+00  0.00000000000E+00  0.63633013710E+02  0.14026601721E+03  0.12500158060E+03 0.  0.
    9000005    1    3    3    0    0 -0.51739886546E+02  0.15354512672E+02  0.67168828689E+02  0.86170925878E+02  0.10000000000E+01 0.  0.
    9000005    1    3    3    0    0  0.51739886546E+02 -0.15354512672E+02 -0.35358149794E+01  0.54095091337E+02  0.10000000000E+01 0.  0.
<mgrwt>
<rscale>  0 0.12500158E+03</rscale>
<asrwt>0</asrwt>
<pdfrwt beam="2">  1        4 0.58948464E-02 0.12500158E+03</pdfrwt>
<pdfrwt beam="1">  1       -4 0.15684541E-01 0.12500158E+03</pdfrwt>
<totfact> 0.10127715E+04</totfact>
</mgrwt>
</event>
<event>
 5    1  0.3241863E-002  0.1250077E+03  0.7818608E-02  0.1235057E+00
          4   -1    0    0  501    0  0.00000000000E+00  0.00000000000E+00  0.28819339949E+03  0.28819619778E+03  0.12700000000E+01 0.  1.
         -4   -1    0    0    0  501 -0.00000000000E+00 -0.00000000000E+00 -0.13523324255E+02  0.13582827353E+02  0.12700000000E+01 0.  1.
         25    2    1    2    0    0  0.00000000000E+00  0.00000000000E+00  0.27467007524E+03  0.30177902513E+03  0.12500771886E+03 0.  0.
    9000005    1    3    3    0    0 -0.51105641623E+01 -0.39058311926E+02  0.20206897386E+02  0.44283047530E+02  0.10000000000E+01 0.  0.
    9000005    1    3    3    0    0  0.51105641623E+01  0.39058311926E+02  0.25446317785E+03  0.25749597760E+03  0.10000000000E+01 0.  0.
<mgrwt>
<rscale>  0 0.12500772E+03</rscale>
<asrwt>0</asrwt>
<pdfrwt beam="1">  1        4 0.44342235E-01 0.12500772E+03</pdfrwt>
<pdfrwt beam="2">  1       -4 0.20853040E-02 0.12500772E+03</pdfrwt>
<totfact> 0.75363309E+03</totfact>
</mgrwt>
</event>
<event>
 5    1  0.3241863E-002  0.1249986E+03  0.7818608E-02  0.1235071E+00
         -4   -1    0    0    0  501 -0.00000000000E+00  0.00000000000E+00  0.51383945286E+01  0.52930141065E+01  0.12700000000E+01 0.  1.
          4   -1    0    0  501    0  0.00000000000E+00 -0.00000000000E+00 -0.74876839268E+03  0.74876946971E+03  0.12700000000E+01 0.  1.
         25    2    1    2    0    0  0.00000000000E+00  0.00000000000E+00 -0.74362999815E+03  0.75406248382E+03  0.12499862142E+03 0.  0.
    9000005    1    3    3    0    0  0.11830135239E+02 -0.28274783661E+02 -0.70034063117E+03  0.70101170829E+03  0.10000000000E+01 0.  0.
    9000005    1    3    3    0    0 -0.11830135239E+02  0.28274783661E+02 -0.43289366979E+02  0.53050775529E+02  0.10000000000E+01 0.  0.
<mgrwt>
<rscale>  0 0.12499862E+03</rscale>
<asrwt>0</asrwt>
<pdfrwt beam="2">  1        4 0.11520703E+00 0.12499862E+03</pdfrwt>
<pdfrwt beam="1">  1       -4 0.80249949E-03 0.12499862E+03</pdfrwt>
<totfact> 0.40381820E+03</totfact>
</mgrwt>
</event>
<event>
 4    1  0.3241863E-002  0.1243369E+03  0.7818608E-02  0.1236109E+00
         -4   -1    0    0    0  501 -0.00000000000E+00  0.00000000000E+00  0.14930976479E+02  0.14984891011E+02  0.12700000000E+01 0.  1.
          4   -1    0    0  501    0  0.00000000000E+00 -0.00000000000E+00 -0.25833033827E+03  0.25833346003E+03  0.12700000000E+01 0.  1.
    9000005    1    1    2    0    0 -0.36404227274E+02  0.50297791689E+02 -0.12821406073E+03  0.14246045410E+03  0.10000000000E+01 0.  0.
    9000005    1    1    2    0    0  0.36404227274E+02 -0.50297791689E+02 -0.11518530106E+03  0.13085789694E+03  0.10000000000E+01 0.  0.
<mgrwt>
<rscale>  0 0.12433693E+03</rscale>
<asrwt>0</asrwt>
<pdfrwt beam="2">  1        4 0.39747513E-01 0.12433693E+03</pdfrwt>
<pdfrwt beam="1">  1       -4 0.23014609E-02 0.12433693E+03</pdfrwt>
<totfact> 0.80249871E+03</totfact>
</mgrwt>
</event>
<event>
 5    1  0.3241863E-002  0.1249956E+03  0.7818608E-02  0.1235076E+00
         -4   -1    0    0    0  501 -0.00000000000E+00  0.00000000000E+00  0.12295253700E+02  0.12360670029E+02  0.12700000000E+01 0.  1.
          4   -1    0    0  501    0  0.00000000000E+00 -0.00000000000E+00 -0.31677174250E+03  0.31677428833E+03  0.12700000000E+01 0.  1.
         25    2    1    2    0    0  0.00000000000E+00  0.00000000000E+00 -0.30447648880E+03  0.32913495836E+03  0.12499555425E+03 0.  0.
    9000005    1    3    3    0    0 -0.20282640624E+01 -0.36558055931E+02 -0.18895459361E+02  0.41214605336E+02  0.10000000000E+01 0.  0.
    9000005    1    3    3    0    0  0.20282640624E+01  0.36558055931E+02 -0.28558102944E+03  0.28792035302E+03  0.10000000000E+01 0.  0.
<mgrwt>
<rscale>  0 0.12499555E+03</rscale>
<asrwt>0</asrwt>
<pdfrwt beam="2">  1        4 0.48739336E-01 0.12499555E+03</pdfrwt>
<pdfrwt beam="1">  1       -4 0.18968056E-02 0.12499555E+03</pdfrwt>
<totfact> 0.72089759E+03</totfact>
</mgrwt>
</event>
<event>
 5    1  0.3241863E-002  0.1250214E+03  0.7818608E-02  0.1235036E+00
          4   -1    0    0  501    0  0.00000000000E+00  0.00000000000E+00  0.20787502510E+02  0.20826261321E+02  0.12700000000E+01 0.  1.
         -4   -1    0    0    0  501 -0.00000000000E+00 -0.00000000000E+00 -0.18776163729E+03  0.18776593231E+03  0.12700000000E+01 0.  1.
         25    2    1    2    0    0  0.00000000000E+00  0.00000000000E+00 -0.16697413478E+03  0.20859219363E+03  0.12502136441E+03 0.  0.
    9000005    1    3    3    0    0 -0.43262539673E+02  0.44424879511E+02 -0.70416776087E+02  0.93833574018E+02  0.10000000000E+01 0.  0.
    9000005    1    3    3    0    0  0.43262539673E+02 -0.44424879511E+02 -0.96557358693E+02  0.11475861962E+03  0.10000000000E+01 0.  0.
<mgrwt>
<rscale>  0 0.12502136E+03</rscale>
<asrwt>0</asrwt>
<pdfrwt beam="1">  1        4 0.32013893E-02 0.12502136E+03</pdfrwt>
<pdfrwt beam="2">  1       -4 0.28889716E-01 0.12502136E+03</pdfrwt>
<totfact> 0.88663950E+03</totfact>
</mgrwt>
</event>
<event>
 5    1  0.3241863E-002  0.1250167E+03  0.7818608E-02  0.1235043E+00
         -4   -1    0    0    0  501 -0.00000000000E+00  0.00000000000E+00  0.39586237783E+01  0.41573551951E+01  0.12700000000E+01 0. -1.
          4   -1    0    0  501    0  0.00000000000E+00 -0.00000000000E+00 -0.96266525332E+03  0.96266609105E+03  0.12700000000E+01 0. -1.
         25    2    1    2    0    0  0.00000000000E+00  0.00000000000E+00 -0.95870662954E+03  0.96682344624E+03  0.12501669758E+03 0.  0.
    9000005    1    3    3    0    0  0.17798768108E+02 -0.24502629544E+02 -0.56537980214E+02  0.64146069306E+02  0.10000000000E+01 0.  0.
    9000005    1    3    3    0    0 -0.17798768108E+02  0.24502629544E+02 -0.90216864933E+03  0.90267737694E+03  0.10000000000E+01 0.  0.
<mgrwt>
<rscale>  0 0.12501670E+03</rscale>
<asrwt>0</asrwt>
<pdfrwt beam="2">  1        4 0.14811752E+00 0.12501670E+03</pdfrwt>
<pdfrwt beam="1">  1       -4 0.62437128E-03 0.12501670E+03</pdfrwt>
<totfact> 0.31714588E+03</totfact>
</mgrwt>
</event>
<event>
 5    1  0.3241863E-002  0.1249998E+03  0.7818608E-02  0.1235070E+00
          4   -1    0    0  501    0  0.00000000000E+00  0.00000000000E+00  0.79306389324E+03  0.79306491012E+03  0.12700000000E+01 0.  1.
         -4   -1    0    0    0  501 -0.00000000000E+00 -0.00000000000E+00 -0.48426015371E+01  0.50063649135E+01  0.12700000000E+01 0.  1.
         25    2    1    2    0    0  0.00000000000E+00  0.00000000000E+00  0.78822129170E+03  0.79807127503E+03  0.12499982135E+03 0.  0.
    9000005    1    3    3    0    0 -0.37128255860E+02 -0.16181359639E+02  0.69795860849E+03  0.69913343715E+03  0.10000000000E+01 0.  0.
    9000005    1    3    3    0    0  0.37128255860E+02  0.16181359639E+02  0.90262683214E+02  0.98937837878E+02  0.10000000000E+01 0.  0.
<mgrwt>
<rscale>  0 0.12499982E+03</rscale>
<asrwt>0</asrwt>
<pdfrwt beam="1">  1        4 0.12202243E+00 0.12499982E+03</pdfrwt>
<pdfrwt beam="2">  1       -4 0.75769151E-03 0.12499982E+03</pdfrwt>
<totfact> 0.38351144E+03</totfact>
</mgrwt>
</event>
<event>
 5    1  0.3241863E-002  0.1249990E+03  0.7818608E-02  0.1235071E+00
          4   -1    0    0  501    0  0.00000000000E+00  0.00000000000E+00  0.20480553046E+02  0.20519891644E+02  0.12700000000E+01 0. -1.
         -4   -1    0    0    0  501 -0.00000000000E+00 -0.00000000000E+00 -0.19050224324E+03  0.19050647648E+03  0.12700000000E+01 0. -1.
         25    2    1    2    0    0  0.00000000000E+00  0.00000000000E+00 -0.17002169019E+03  0.21102636812E+03  0.12499901162E+03 0.  0.
    9000005    1    3    3    0    0  0.56991878398E+02  0.25434316272E+02 -0.90405132262E+02  0.10985930360E+03  0.10000000000E+01 0.  0.
    9000005    1    3    3    0    0 -0.56991878398E+02 -0.25434316272E+02 -0.79616557933E+02  0.10116706453E+03  0.10000000000E+01 0.  0.
<mgrwt>
<rscale>  0 0.12499901E+03</rscale>
<asrwt>0</asrwt>
<pdfrwt beam="1">  1        4 0.31542061E-02 0.12499901E+03</pdfrwt>
<pdfrwt beam="2">  1       -4 0.29311388E-01 0.12499901E+03</pdfrwt>
<totfact> 0.88310487E+03</totfact>
</mgrwt>
</event>
<event>
 5    1  0.3241863E-002  0.1249980E+03  0.7818608E-02  0.1235072E+00
          4   -1    0    0  501    0  0.00000000000E+00  0.00000000000E+00  0.10694611603E+04  0.10694619144E+04  0.12700000000E+01 0.  1.
         -4   -1    0    0    0  501 -0.00000000000E+00 -0.00000000000E+00 -0.35412440686E+01  0.37620884564E+01  0.12700000000E+01 0.  1.
         25    2    1    2    0    0  0.00000000000E+00  0.00000000000E+00  0.10659199162E+04  0.10732240028E+04  0.12499796969E+03 0.  0.
    9000005    1    3    3    0    0 -0.14566095435E+02  0.37743955427E+02  0.94188343900E+03  0.94275245424E+03  0.10000000000E+01 0.  0.
    9000005    1    3    3    0    0  0.14566095435E+02 -0.37743955427E+02  0.12403647722E+03  0.13047154858E+03  0.10000000000E+01 0.  0.
<mgrwt>
<rscale>  0 0.12499797E+03</rscale>
<asrwt>0</asrwt>
<pdfrwt beam="1">  1        4 0.16454983E+00 0.12499797E+03</pdfrwt>
<pdfrwt beam="2">  1       -4 0.56185180E-03 0.12499797E+03</pdfrwt>
<totfact> 0.28281758E+03</totfact>
</mgrwt>
</event>
<event>
 5    1  0.3241863E-002  0.1249993E+03  0.7818608E-02  0.1235070E+00
          4   -1    0    0  501    0  0.00000000000E+00  0.00000000000E+00  0.84909203062E+01  0.85853728892E+01  0.12700000000E+01 0.  1.
         -4   -1    0    0    0  501 -0.00000000000E+00 -0.00000000000E+00 -0.45740482528E+03  0.45740658838E+03  0.12700000000E+01 0.  1.
         25    2    1    2    0    0  0.00000000000E+00  0.00000000000E+00 -0.44891390497E+03  0.46599196127E+03  0.12499925554E+03 0.  0.
    9000005    1    3    3    0    0 -0.49838002303E+02 -0.37563792169E+02 -0.21247024000E+03  0.22144856703E+03  0.10000000000E+01 0.  0.
    9000005    1    3    3    0    0  0.49838002303E+02  0.37563792169E+02 -0.23644366498E+03  0.24454339423E+03  0.10000000000E+01 0.  0.
<mgrwt>
<rscale>  0 0.12499926E+03</rscale>
<asrwt>0</asrwt>
<pdfrwt beam="1">  1        4 0.13136970E-02 0.12499926E+03</pdfrwt>
<pdfrwt beam="2">  1       -4 0.70377355E-01 0.12499926E+03</pdfrwt>
<totfact> 0.58603990E+03</totfact>
</mgrwt>
</event>
<event>
 5    1  0.3241863E-002  0.1250087E+03  0.7818608E-02  0.1235056E+00
          4   -1    0    0  501    0  0.00000000000E+00  0.00000000000E+00  0.25209538941E+03  0.25209858837E+03  0.12700000000E+01 0. -1.
         -4   -1    0    0    0  501 -0.00000000000E+00 -0.00000000000E+00 -0.15467956579E+02  0.15520005822E+02  0.12700000000E+01 0. -1.
         25    2    1    2    0    0  0.00000000000E+00  0.00000000000E+00  0.23662743283E+03  0.26761859420E+03  0.12500867967E+03 0.  0.
    9000005    1    3    3    0    0  0.31213997556E+02  0.18476524968E+02  0.22726544404E+03  0.23014403679E+03  0.10000000000E+01 0.  0.
    9000005    1    3    3    0    0 -0.31213997556E+02 -0.18476524968E+02  0.93619887898E+01  0.37474557401E+02  0.10000000000E+01 0.  0.
<mgrwt>
<rscale>  0 0.12500868E+03</rscale>
<asrwt>0</asrwt>
<pdfrwt beam="1">  1        4 0.38788149E-01 0.12500868E+03</pdfrwt>
<pdfrwt beam="2">  1       -4 0.23839359E-02 0.12500868E+03</pdfrwt>
<totfact> 0.79833235E+03</totfact>
</mgrwt>
</event>
<event>
 4    1  0.3241863E-002  0.1245295E+03  0.7818608E-02  0.1235806E+00
          4   -1    0    0  501    0  0.00000000000E+00  0.00000000000E+00  0.27374446574E+03  0.27374741172E+03  0.12700000000E+01 0.  1.
         -4   -1    0    0    0  501 -0.00000000000E+00 -0.00000000000E+00 -0.14130975192E+02  0.14187930077E+02  0.12700000000E+01 0.  1.
    9000005    1    1    2    0    0 -0.96675245989E+01  0.21515802878E+02 -0.34102424092E+01  0.23854151811E+02  0.10000000000E+01 0.  0.
    9000005    1    1    2    0    0  0.96675245989E+01 -0.21515802878E+02  0.26302373296E+03  0.26408118999E+03  0.10000000000E+01 0.  0.
<mgrwt>
<rscale>  0 0.12452950E+03</rscale>
<asrwt>0</asrwt>
<pdfrwt beam="1">  1        4 0.42119139E-01 0.12452950E+03</pdfrwt>
<pdfrwt beam="2">  1       -4 0.21786040E-02 0.12452950E+03</pdfrwt>
<totfact> 0.77949461E+03</totfact>
</mgrwt>
</event>
<event>
 5    1  0.3241863E-002  0.1249996E+03  0.7818608E-02  0.1235070E+00
          4   -1    0    0  501    0  0.00000000000E+00  0.00000000000E+00  0.37590077830E+02  0.37611525511E+02  0.12700000000E+01 0. -1.
         -4   -1    0    0    0  501 -0.00000000000E+00 -0.00000000000E+00 -0.10386139193E+03  0.10386915632E+03  0.12700000000E+01 0. -1.
         25    2    1    2    0    0  0.00000000000E+00  0.00000000000E+00 -0.66271314102E+02  0.14148068183E+03  0.12499958503E+03 0.  0.
    9000005    1    3    3    0    0 -0.51745226826E+02  0.35036688809E+02 -0.32803728868E+02  0.70584861618E+02  0.10000000000E+01 0.  0.
    9000005    1    3    3    0    0  0.51745226826E+02 -0.35036688809E+02 -0.33467585234E+02  0.70895820211E+02  0.10000000000E+01 0.  0.
<mgrwt>
<rscale>  0 0.12499959E+03</rscale>
<asrwt>0</asrwt>
<pdfrwt beam="1">  1        4 0.57853360E-02 0.12499959E+03</pdfrwt>
<pdfrwt beam="2">  1       -4 0.15980923E-01 0.12499959E+03</pdfrwt>
<totfact> 0.10103084E+04</totfact>
</mgrwt>
</event>
<event>
 5    1  0.3241863E-002  0.1249983E+03  0.7818608E-02  0.1235072E+00
          4   -1    0    0  501    0  0.00000000000E+00  0.00000000000E+00  0.29241556370E+03  0.29241832158E+03  0.12700000000E+01 0. -1.
         -4   -1    0    0    0  501 -0.00000000000E+00 -0.00000000000E+00 -0.13325180280E+02  0.13385564220E+02  0.12700000000E+01 0. -1.
         25    2    1    2    0    0  0.00000000000E+00  0.00000000000E+00  0.27909038342E+03  0.30580388580E+03  0.12499829779E+03 0.  0.
    9000005    1    3    3    0    0 -0.49602854281E+02  0.37900781642E+02  0.14656411931E+03  0.15930773199E+03  0.10000000000E+01 0.  0.
    9000005    1    3    3    0    0  0.49602854281E+02 -0.37900781642E+02  0.13252626411E+03  0.14649615381E+03  0.10000000000E+01 0.  0.
<mgrwt>
<rscale>  0 0.12499830E+03</rscale>
<asrwt>0</asrwt>
<pdfrwt beam="1">  1        4 0.44991864E-01 0.12499830E+03</pdfrwt>
<pdfrwt beam="2">  1       -4 0.20548849E-02 0.12499830E+03</pdfrwt>
<totfact> 0.74879359E+03</totfact>
</mgrwt>
</event>
<event>
 5    1  0.3241863E-002  0.1250013E+03  0.7818608E-02  0.1235067E+00
         -4   -1    0    0    0  501 -0.00000000000E+00  0.00000000000E+00  0.50269129347E+01  0.51848581131E+01  0.12700000000E+01 0. -1.
          4   -1    0    0  501    0  0.00000000000E+00 -0.00000000000E+00 -0.76490546964E+03  0.76490652395E+03  0.12700000000E+01 0. -1.
         25    2    1    2    0    0  0.00000000000E+00  0.00000000000E+00 -0.75987855671E+03  0.77009138207E+03  0.12500126316E+03 0.  0.
    9000005    1    3    3    0    0  0.61305133468E+02 -0.11591567208E+02 -0.35803194708E+03  0.36342889119E+03  0.10000000000E+01 0.  0.
    9000005    1    3    3    0    0 -0.61305133468E+02  0.11591567208E+02 -0.40184660962E+03  0.40666249088E+03  0.10000000000E+01 0.  0.
<mgrwt>
<rscale>  0 0.12500126E+03</rscale>
<asrwt>0</asrwt>
<pdfrwt beam="2">  1        4 0.11768990E+00 0.12500126E+03</pdfrwt>
<pdfrwt beam="1">  1       -4 0.78560256E-03 0.12500126E+03</pdfrwt>
<totfact> 0.39630029E+03</totfact>
</mgrwt>
</event>
<event>
 5    1  0.3241863E-002  0.1250021E+03  0.7818608E-02  0.1235066E+00
          4   -1    0    0  501    0  0.00000000000E+00  0.00000000000E+00  0.13584657859E+02  0.13643893475E+02  0.12700000000E+01 0. -1.
         -4   -1    0    0    0  501 -0.00000000000E+00 -0.00000000000E+00 -0.28687219894E+03  0.28687501011E+03  0.12700000000E+01 0. -1.
         25    2    1    2    0    0  0.00000000000E+00  0.00000000000E+00 -0.27328754108E+03  0.30051890359E+03  0.12500212519E+03 0.  0.
    9000005    1    3    3    0    0 -0.39324686016E+02 -0.28989804415E+02 -0.23032831848E+03  0.23545482365E+03  0.10000000000E+01 0.  0.
    9000005    1    3    3    0    0  0.39324686016E+02  0.28989804415E+02 -0.42959222609E+02  0.65064079932E+02  0.10000000000E+01 0.  0.
<mgrwt>
<rscale>  0 0.12500213E+03</rscale>
<asrwt>0</asrwt>
<pdfrwt beam="1">  1        4 0.20947204E-02 0.12500213E+03</pdfrwt>
<pdfrwt beam="2">  1       -4 0.44138953E-01 0.12500213E+03</pdfrwt>
<totfact> 0.75530233E+03</totfact>
</mgrwt>
</event>
<event>
 5    1  0.3241863E-002  0.1250041E+03  0.7818608E-02  0.1235063E+00
          4   -1    0    0  501    0  0.00000000000E+00  0.00000000000E+00  0.19096418373E+03  0.19096840673E+03  0.12700000000E+01 0. -1.
         -4   -1    0    0    0  501 -0.00000000000E+00 -0.00000000000E+00 -0.20432594077E+02  0.20472024832E+02  0.12700000000E+01 0. -1.
         25    2    1    2    0    0  0.00000000000E+00  0.00000000000E+00  0.17053158966E+03  0.21144043156E+03  0.12500413204E+03 0.  0.
    9000005    1    3    3    0    0  0.63853909218E+01  0.51075111157E+02  0.14521318128E+03  0.15406916698E+03  0.10000000000E+01 0.  0.
    9000005    1    3    3    0    0 -0.63853909218E+01 -0.51075111157E+02  0.25318408377E+02  0.57371264581E+02  0.10000000000E+01 0.  0.
<mgrwt>
<rscale>  0 0.12500413E+03</rscale>
<asrwt>0</asrwt>
<pdfrwt beam="1">  1        4 0.29382462E-01 0.12500413E+03</pdfrwt>
<pdfrwt beam="2">  1       -4 0.31468341E-02 0.12500413E+03</pdfrwt>
<totfact> 0.88233029E+03</totfact>
</mgrwt>
</event>
<event>
 4    1  0.3241863E-002  0.1251376E+03  0.7818608E-02  0.1234854E+00
          4   -1    0    0  501    0  0.00000000000E+00  0.00000000000E+00  0.29999142537E+02  0.30026012939E+02  0.12700000000E+01 0.  1.
         -4   -1    0    0    0  501 -0.00000000000E+00 -0.00000000000E+00 -0.13041057064E+03  0.13041675443E+03  0.12700000000E+01 0.  1.
    9000005    1    1    2    0    0  0.45611333421E+02 -0.21349138437E+02 -0.26167824278E+01  0.50438348493E+02  0.10000000000E+01 0.  0.
    9000005    1    1    2    0    0 -0.45611333421E+02  0.21349138437E+02 -0.97794645677E+02  0.11000441887E+03  0.10000000000E+01 0.  0.
<mgrwt>
<rscale>  0 0.12513763E+03</rscale>
<asrwt>0</asrwt>
<pdfrwt beam="1">  1        4 0.46177954E-02 0.12513763E+03</pdfrwt>
<pdfrwt beam="2">  1       -4 0.20065707E-01 0.12513763E+03</pdfrwt>
<totfact> 0.96957243E+03</totfact>
</mgrwt>
</event>
<event>
 5    1  0.3241863E-002  0.1250119E+03  0.7818608E-02  0.1235051E+00
          4   -1    0    0  501    0  0.00000000000E+00  0.00000000000E+00  0.73973212731E+02  0.73984113847E+02  0.12700000000E+01 0. -1.
         -4   -1    0    0    0  501 -0.00000000000E+00 -0.00000000000E+00 -0.52793874128E+02  0.52809147365E+02  0.12700000000E+01 0. -1.
         25    2    1    2    0    0  0.00000000000E+00  0.00000000000E+00  0.21179338603E+02  0.12679326121E+03  0.12501186626E+03 0.  0.
    9000005    1    3    3    0    0 -0.59489388340E+01  0.61887993125E+02  0.17042570958E+02  0.64474512726E+02  0.10000000000E+01 0.  0.
    9000005    1    3    3    0    0  0.59489388340E+01 -0.61887993125E+02  0.41367676442E+01  0.62318748486E+02  0.10000000000E+01 0.  0.
<mgrwt>
<rscale>  0 0.12501187E+03</rscale>
<asrwt>0</asrwt>
<pdfrwt beam="1">  1        4 0.11382508E-01 0.12501187E+03</pdfrwt>
<pdfrwt beam="2">  1       -4 0.81241479E-02 0.12501187E+03</pdfrwt>
<totfact> 0.10410852E+04</totfact>
</mgrwt>
</event>
<event>
 5    1  0.3241863E-002  0.1250015E+03  0.7818608E-02  0.1235067E+00
         -4   -1    0    0    0  501 -0.00000000000E+00  0.00000000000E+00  0.66089813694E+03  0.66089935717E+03  0.12700000000E+01 0.  1.
          4   -1    0    0  501    0  0.00000000000E+00 -0.00000000000E+00 -0.58411984566E+01  0.59776667195E+01  0.12700000000E+01 0.  1.
         25    2    1    2    0    0  0.00000000000E+00  0.00000000000E+00  0.65505693848E+03  0.66687702389E+03  0.12500148935E+03 0.  0.
    9000005    1    3    3    0    0  0.21188452134E+02 -0.51205753764E+02  0.17342650298E+03  0.18206793144E+03  0.10000000000E+01 0.  0.
    9000005    1    3    3    0    0 -0.21188452134E+02  0.51205753764E+02  0.48163043550E+03  0.48480909245E+03  0.10000000000E+01 0.  0.
<mgrwt>
<rscale>  0 0.12500149E+03</rscale>
<asrwt>0</asrwt>
<pdfrwt beam="2">  1        4 0.90923806E-03 0.12500149E+03</pdfrwt>
<pdfrwt beam="1">  1       -4 0.10168715E+00 0.12500149E+03</pdfrwt>
<totfact> 0.44892353E+03</totfact>
</mgrwt>
</event>
<event>
 5    1  0.3241863E-002  0.1249872E+03  0.7818608E-02  0.1235089E+00
          4   -1    0    0  501    0  0.00000000000E+00  0.00000000000E+00  0.59282277778E+03  0.59282413814E+03  0.12700000000E+01 0. -1.
         -4   -1    0    0    0  501 -0.00000000000E+00 -0.00000000000E+00 -0.65252972619E+01  0.66477367845E+01  0.12700000000E+01 0. -1.
         25    2    1    2    0    0  0.00000000000E+00  0.00000000000E+00  0.58629748052E+03  0.59947187492E+03  0.12498717197E+03 0.  0.
    9000005    1    3    3    0    0 -0.25530988103E+02  0.24489280946E+02  0.46111082901E+02  0.58127344694E+02  0.10000000000E+01 0.  0.
    9000005    1    3    3    0    0  0.25530988103E+02 -0.24489280946E+02  0.54018639762E+03  0.54134453023E+03  0.10000000000E+01 0.  0.
<mgrwt>
<rscale>  0 0.12498717E+03</rscale>
<asrwt>0</asrwt>
<pdfrwt beam="1">  1        4 0.91213047E-01 0.12498717E+03</pdfrwt>
<pdfrwt beam="2">  1       -4 0.10134147E-02 0.12498717E+03</pdfrwt>
<totfact> 0.48914713E+03</totfact>
</mgrwt>
</event>
<event>
 5    1  0.3241863E-002  0.1249989E+03  0.7818608E-02  0.1235071E+00
         -4   -1    0    0    0  501 -0.00000000000E+00  0.00000000000E+00  0.18590862232E+01  0.22514665410E+01  0.12700000000E+01 0. -1.
          4   -1    0    0  501    0  0.00000000000E+00 -0.00000000000E+00 -0.19001702140E+04  0.19001706384E+04  0.12700000000E+01 0. -1.
         25    2    1    2    0    0  0.00000000000E+00  0.00000000000E+00 -0.18983111277E+04  0.19024221049E+04  0.12499891024E+03 0.  0.
    9000005    1    3    3    0    0  0.10051239599E+01  0.57146241350E+02 -0.13337242061E+04  0.13349486736E+04  0.10000000000E+01 0.  0.
    9000005    1    3    3    0    0 -0.10051239599E+01 -0.57146241350E+02 -0.56458692165E+03  0.56747343134E+03  0.10000000000E+01 0.  0.
<mgrwt>
<rscale>  0 0.12499891E+03</rscale>
<asrwt>0</asrwt>
<pdfrwt beam="2">  1        4 0.29236269E+00 0.12499891E+03</pdfrwt>
<pdfrwt beam="1">  1       -4 0.31623053E-03 0.12499891E+03</pdfrwt>
<totfact> 0.11189502E+03</totfact>
</mgrwt>
</event>
<event>
 4    1  0.3241863E-002  0.1250965E+03  0.7818608E-02  0.1234918E+00
         -4   -1    0    0    0  501 -0.00000000000E+00  0.00000000000E+00  0.44895704359E+03  0.44895883986E+03  0.12700000000E+01 0. -1.
          4   -1    0    0  501    0  0.00000000000E+00 -0.00000000000E+00 -0.86660696699E+01  0.87586336562E+01  0.12700000000E+01 0. -1.
    9000005    1    1    2    0    0  0.55696439808E+02  0.18265033536E+02  0.14035254158E+03  0.15210371720E+03  0.10000000000E+01 0.  0.
    9000005    1    1    2    0    0 -0.55696439808E+02 -0.18265033536E+02  0.29993843234E+03  0.30561375632E+03  0.10000000000E+01 0.  0.
<mgrwt>
<rscale>  0 0.12509654E+03</rscale>
<asrwt>0</asrwt>
<pdfrwt beam="2">  1        4 0.13404998E-02 0.12509654E+03</pdfrwt>
<pdfrwt beam="1">  1       -4 0.69077580E-01 0.12509654E+03</pdfrwt>
<totfact> 0.59175121E+03</totfact>
</mgrwt>
</event>
<event>
 5    1  0.3241863E-002  0.1249908E+03  0.7818608E-02  0.1235084E+00
         -4   -1    0    0    0  501 -0.00000000000E+00  0.00000000000E+00  0.44280399375E+03  0.44280581498E+03  0.12700000000E+01 0. -1.
          4   -1    0    0  501    0  0.00000000000E+00 -0.00000000000E+00 -0.87727595200E+01  0.88642094738E+01  0.12700000000E+01 0. -1.
         25    2    1    2    0    0  0.00000000000E+00  0.00000000000E+00  0.43403123423E+03  0.45167002445E+03  0.12499079448E+03 0.  0.
    9000005    1    3    3    0    0 -0.26868687653E+02  0.42357197225E+02  0.82356939451E+02  0.96435076650E+02  0.10000000000E+01 0.  0.
    9000005    1    3    3    0    0  0.26868687653E+02 -0.42357197225E+02  0.35167429478E+03  0.35523494780E+03  0.10000000000E+01 0.  0.
<mgrwt>
<rscale>  0 0.12499079E+03</rscale>
<asrwt>0</asrwt>
<pdfrwt beam="2">  1        4 0.13568299E-02 0.12499079E+03</pdfrwt>
<pdfrwt beam="1">  1       -4 0.68130871E-01 0.12499079E+03</pdfrwt>
<totfact> 0.59831519E+03</totfact>
</mgrwt>
</event>
<event>
 5    1  0.3241863E-002  0.1249993E+03  0.7818608E-02  0.1235070E+00
          4   -1    0    0  501    0  0.00000000000E+00  0.00000000000E+00  0.20217829418E+03  0.20218228295E+03  0.12700000000E+01 0.  1.
         -4   -1    0    0    0  501 -0.00000000000E+00 -0.00000000000E+00 -0.19295557964E+02  0.19337307391E+02  0.12700000000E+01 0.  1.
         25    2    1    2    0    0  0.00000000000E+00  0.00000000000E+00  0.18288273622E+03  0.22151959034E+03  0.12499933479E+03 0.  0.
    9000005    1    3    3    0    0  0.59838419701E+02 -0.14356405141E+02  0.11072996056E+03  0.12668412294E+03  0.10000000000E+01 0.  0.
    9000005    1    3    3    0    0 -0.59838419701E+02  0.14356405141E+02  0.72152775661E+02  0.94835467397E+02  0.10000000000E+01 0.  0.
<mgrwt>
<rscale>  0 0.12499933E+03</rscale>
<asrwt>0</asrwt>
<pdfrwt beam="1">  1        4 0.31107871E-01 0.12499933E+03</pdfrwt>
<pdfrwt beam="2">  1       -4 0.29720657E-02 0.12499933E+03</pdfrwt>
<totfact> 0.86629750E+03</totfact>
</mgrwt>
</event>
<event>
 5    1  0.3241863E-002  0.1250024E+03  0.7818608E-02  0.1235066E+00
         -4   -1    0    0    0  501 -0.00000000000E+00  0.00000000000E+00  0.14856535656E+03  0.14857078471E+03  0.12700000000E+01 0.  1.
          4   -1    0    0  501    0  0.00000000000E+00 -0.00000000000E+00 -0.26272907139E+02  0.26303584348E+02  0.12700000000E+01 0.  1.
         25    2    1    2    0    0  0.00000000000E+00  0.00000000000E+00  0.12229244942E+03  0.17487436906E+03  0.12500240705E+03 0.  0.
    9000005    1    3    3    0    0 -0.60448501258E+02  0.16997685377E+01  0.39093504015E+02  0.72015363455E+02  0.10000000000E+01 0.  0.
    9000005    1    3    3    0    0  0.60448501258E+02 -0.16997685377E+01  0.83198945405E+02  0.10285900560E+03  0.10000000000E+01 0.  0.
<mgrwt>
<rscale>  0 0.12500241E+03</rscale>
<asrwt>0</asrwt>
<pdfrwt beam="2">  1        4 0.40447630E-02 0.12500241E+03</pdfrwt>
<pdfrwt beam="1">  1       -4 0.22858986E-01 0.12500241E+03</pdfrwt>
<totfact> 0.94542749E+03</totfact>
</mgrwt>
</event>
<event>
 5    1  0.3241863E-002  0.1250068E+03  0.7818608E-02  0.1235059E+00
          4   -1    0    0  501    0  0.00000000000E+00  0.00000000000E+00  0.42282007154E+02  0.42301075979E+02  0.12700000000E+01 0. -1.
         -4   -1    0    0    0  501 -0.00000000000E+00 -0.00000000000E+00 -0.92351443881E+02  0.92360175871E+02  0.12700000000E+01 0. -1.
         25    2    1    2    0    0  0.00000000000E+00  0.00000000000E+00 -0.50069436727E+02  0.13466125185E+03  0.12500681684E+03 0.  0.
    9000005    1    3    3    0    0  0.53592549887E+02 -0.27464487693E+02 -0.43035010341E+02  0.74023453058E+02  0.10000000000E+01 0.  0.
    9000005    1    3    3    0    0 -0.53592549887E+02  0.27464487693E+02 -0.70344263866E+01  0.60637798791E+02  0.10000000000E+01 0.  0.
<mgrwt>
<rscale>  0 0.12500682E+03</rscale>
<asrwt>0</asrwt>
<pdfrwt beam="1">  1        4 0.65070627E-02 0.12500682E+03</pdfrwt>
<pdfrwt beam="2">  1       -4 0.14210053E-01 0.12500682E+03</pdfrwt>
<totfact> 0.10243641E+04</totfact>
</mgrwt>
</event>
<event>
 5    1  0.3241863E-002  0.1250047E+03  0.7818608E-02  0.1235062E+00
          4   -1    0    0  501    0  0.00000000000E+00  0.00000000000E+00  0.16467508755E+03  0.16467998470E+03  0.12700000000E+01 0. -1.
         -4   -1    0    0    0  501 -0.00000000000E+00 -0.00000000000E+00 -0.23700481153E+02  0.23734483497E+02  0.12700000000E+01 0. -1.
         25    2    1    2    0    0  0.00000000000E+00  0.00000000000E+00  0.14097460640E+03  0.18841446820E+03  0.12500468862E+03 0.  0.
    9000005    1    3    3    0    0  0.15828269584E+02  0.60290206562E+02  0.63729818084E+02  0.89151179680E+02  0.10000000000E+01 0.  0.
    9000005    1    3    3    0    0 -0.15828269584E+02 -0.60290206562E+02  0.77244788317E+02  0.99263288518E+02  0.10000000000E+01 0.  0.
<mgrwt>
<rscale>  0 0.12500469E+03</rscale>
<asrwt>0</asrwt>
<pdfrwt beam="1">  1        4 0.25337620E-01 0.12500469E+03</pdfrwt>
<pdfrwt beam="2">  1       -4 0.36492202E-02 0.12500469E+03</pdfrwt>
<totfact> 0.92114250E+03</totfact>
</mgrwt>
</event>
<event>
 5    1  0.3241863E-002  0.1250013E+03  0.7818608E-02  0.1235067E+00
         -4   -1    0    0    0  501 -0.00000000000E+00  0.00000000000E+00  0.16258569483E+03  0.16259065490E+03  0.12700000000E+01 0. -1.
          4   -1    0    0  501    0  0.00000000000E+00 -0.00000000000E+00 -0.24004182184E+02  0.24037754935E+02  0.12700000000E+01 0. -1.
         25    2    1    2    0    0  0.00000000000E+00  0.00000000000E+00  0.13858151264E+03  0.18662840984E+03  0.12500131085E+03 0.  0.
    9000005    1    3    3    0    0 -0.54456150163E+02 -0.25294908509E+02  0.43429862411E+02  0.74111116818E+02  0.10000000000E+01 0.  0.
    9000005    1    3    3    0    0  0.54456150163E+02  0.25294908509E+02  0.95151650232E+02  0.11251729302E+03  0.10000000000E+01 0.  0.
<mgrwt>
<rscale>  0 0.12500131E+03</rscale>
<asrwt>0</asrwt>
<pdfrwt beam="2">  1        4 0.36959152E-02 0.12500131E+03</pdfrwt>
<pdfrwt beam="1">  1       -4 0.25016148E-01 0.12500131E+03</pdfrwt>
<totfact> 0.92434577E+03</totfact>
</mgrwt>
</event>
<event>
 5    1  0.3241863E-002  0.1249612E+03  0.7818608E-02  0.1235130E+00
         -4   -1    0    0    0  501 -0.00000000000E+00  0.00000000000E+00  0.61475370241E+02  0.61488487104E+02  0.12700000000E+01 0. -1.
          4   -1    0    0  501    0  0.00000000000E+00 -0.00000000000E+00 -0.63476027132E+02  0.63488730657E+02  0.12700000000E+01 0. -1.
         25    2    1    2    0    0  0.00000000000E+00  0.00000000000E+00 -0.20006568905E+01  0.12497721776E+03  0.12496120330E+03 0.  0.
    9000005    1    3    3    0    0 -0.99307991226E+01  0.44334799682E+02 -0.43885076782E+02  0.63175115340E+02  0.10000000000E+01 0.  0.
    9000005    1    3    3    0    0  0.99307991226E+01 -0.44334799682E+02  0.41884419891E+02  0.61802102421E+02  0.10000000000E+01 0.  0.
<mgrwt>
<rscale>  0 0.12496120E+03</rscale>
<asrwt>0</asrwt>
<pdfrwt beam="2">  1        4 0.97675288E-02 0.12496120E+03</pdfrwt>
<pdfrwt beam="1">  1       -4 0.94597355E-02 0.12496120E+03</pdfrwt>
<totfact> 0.10462529E+04</totfact>
</mgrwt>
</event>
<event>
 5    1  0.3241863E-002  0.1250010E+03  0.7818608E-02  0.1235068E+00
         -4   -1    0    0    0  501 -0.00000000000E+00  0.00000000000E+00  0.44855218114E+02  0.44873193468E+02  0.12700000000E+01 0. -1.
          4   -1    0    0  501    0  0.00000000000E+00 -0.00000000000E+00 -0.87047100784E+02  0.87056364815E+02  0.12700000000E+01 0. -1.
         25    2    1    2    0    0  0.00000000000E+00  0.00000000000E+00 -0.42191882670E+02  0.13192955828E+03  0.12500101354E+03 0.  0.
    9000005    1    3    3    0    0  0.55439419146E+01 -0.32242045322E+01 -0.86704030937E+02  0.86946648972E+02  0.10000000000E+01 0.  0.
    9000005    1    3    3    0    0 -0.55439419146E+01  0.32242045322E+01  0.44512148266E+02  0.44982909311E+02  0.10000000000E+01 0.  0.
<mgrwt>
<rscale>  0 0.12500101E+03</rscale>
<asrwt>0</asrwt>
<pdfrwt beam="2">  1        4 0.13393957E-01 0.12500101E+03</pdfrwt>
<pdfrwt beam="1">  1       -4 0.69028981E-02 0.12500101E+03</pdfrwt>
<totfact> 0.10302967E+04</totfact>
</mgrwt>
</event>
<event>
 5    1  0.3241863E-002  0.1250009E+03  0.7818608E-02  0.1235068E+00
          4   -1    0    0  501    0  0.00000000000E+00  0.00000000000E+00  0.25830566817E+02  0.25861768735E+02  0.12700000000E+01 0. -1.
         -4   -1    0    0    0  501 -0.00000000000E+00 -0.00000000000E+00 -0.15110299629E+03  0.15110833328E+03  0.12700000000E+01 0. -1.
         25    2    1    2    0    0  0.00000000000E+00  0.00000000000E+00 -0.12527242947E+03  0.17697010201E+03  0.12500094168E+03 0.  0.
    9000005    1    3    3    0    0  0.81699523560E+01  0.61863041598E+02 -0.57829994605E+02  0.85082855578E+02  0.10000000000E+01 0.  0.
    9000005    1    3    3    0    0 -0.81699523560E+01 -0.61863041598E+02 -0.67442434864E+02  0.91887246437E+02  0.10000000000E+01 0.  0.
<mgrwt>
<rscale>  0 0.12500094E+03</rscale>
<asrwt>0</asrwt>
<pdfrwt beam="1">  1        4 0.39767441E-02 0.12500094E+03</pdfrwt>
<pdfrwt beam="2">  1       -4 0.23249425E-01 0.12500094E+03</pdfrwt>
<totfact> 0.94163266E+03</totfact>
</mgrwt>
</event>
<event>
 5    1  0.3241863E-002  0.1250007E+03  0.7818608E-02  0.1235068E+00
         -4   -1    0    0    0  501 -0.00000000000E+00  0.00000000000E+00  0.32845730445E+03  0.32845975970E+03  0.12700000000E+01 0. -1.
          4   -1    0    0  501    0  0.00000000000E+00 -0.00000000000E+00 -0.11856437820E+02  0.11924261729E+02  0.12700000000E+01 0. -1.
         25    2    1    2    0    0  0.00000000000E+00  0.00000000000E+00  0.31660086663E+03  0.34038402143E+03  0.12500069319E+03 0.  0.
    9000005    1    3    3    0    0 -0.41070216979E+02 -0.22991052919E+02  0.27024232830E+03  0.27431235343E+03  0.10000000000E+01 0.  0.
    9000005    1    3    3    0    0  0.41070216979E+02  0.22991052919E+02  0.46358538322E+02  0.66071668001E+02  0.10000000000E+01 0.  0.
<mgrwt>
<rscale>  0 0.12500069E+03</rscale>
<asrwt>0</asrwt>
<pdfrwt beam="2">  1        4 0.18294737E-02 0.12500069E+03</pdfrwt>
<pdfrwt beam="1">  1       -4 0.50537291E-01 0.12500069E+03</pdfrwt>
<totfact> 0.70794466E+03</totfact>
</mgrwt>
</event>
<event>
 5    1  0.3241863E-002  0.1250047E+03  0.7818608E-02  0.1235062E+00
          4   -1    0    0  501    0  0.00000000000E+00  0.00000000000E+00  0.10860675031E+04  0.10860682457E+04  0.12700000000E+01 0. -1.
         -4   -1    0    0    0  501 -0.00000000000E+00 -0.00000000000E+00 -0.34840914559E+01  0.37083410406E+01  0.12700000000E+01 0. -1.
         25    2    1    2    0    0  0.00000000000E+00  0.00000000000E+00  0.10825834117E+04  0.10897765867E+04  0.12500466276E+03 0.  0.
    9000005    1    3    3    0    0 -0.49961251666E+02 -0.24145713709E+02  0.79190622195E+03  0.79384860428E+03  0.10000000000E+01 0.  0.
    9000005    1    3    3    0    0  0.49961251666E+02  0.24145713709E+02  0.29067718973E+03  0.29592798243E+03  0.10000000000E+01 0.  0.
<mgrwt>
<rscale>  0 0.12500466E+03</rscale>
<asrwt>0</asrwt>
<pdfrwt beam="1">  1        4 0.16710479E+00 0.12500466E+03</pdfrwt>
<pdfrwt beam="2">  1       -4 0.55332059E-03 0.12500466E+03</pdfrwt>
<totfact> 0.27781679E+03</totfact>
</mgrwt>
</event>
<event>
 5    1  0.3241863E-002  0.1250066E+03  0.7818608E-02  0.1235059E+00
          4   -1    0    0  501    0  0.00000000000E+00  0.00000000000E+00  0.10709424098E+02  0.10784464034E+02  0.12700000000E+01 0. -1.
         -4   -1    0    0    0  501 -0.00000000000E+00 -0.00000000000E+00 -0.36343757787E+03  0.36343979681E+03  0.12700000000E+01 0. -1.
         25    2    1    2    0    0  0.00000000000E+00  0.00000000000E+00 -0.35272815377E+03  0.37422426085E+03  0.12500658760E+03 0.  0.
    9000005    1    3    3    0    0 -0.27036679539E+02 -0.34670371377E+02 -0.43403309788E+02  0.61788866250E+02  0.10000000000E+01 0.  0.
    9000005    1    3    3    0    0  0.27036679539E+02  0.34670371377E+02 -0.30932484399E+03  0.31243539460E+03  0.10000000000E+01 0.  0.
<mgrwt>
<rscale>  0 0.12500659E+03</rscale>
<asrwt>0</asrwt>
<pdfrwt beam="1">  1        4 0.16535470E-02 0.12500659E+03</pdfrwt>
<pdfrwt beam="2">  1       -4 0.55919407E-01 0.12500659E+03</pdfrwt>
<totfact> 0.67129533E+03</totfact>
</mgrwt>
</event>
<event>
 5    1  0.3241863E-002  0.1250002E+03  0.7818608E-02  0.1235069E+00
          4   -1    0    0  501    0  0.00000000000E+00  0.00000000000E+00  0.31535697202E+03  0.31535952927E+03  0.12700000000E+01 0.  1.
         -4   -1    0    0    0  501 -0.00000000000E+00 -0.00000000000E+00 -0.12351625207E+02  0.12416744552E+02  0.12700000000E+01 0.  1.
         25    2    1    2    0    0  0.00000000000E+00  0.00000000000E+00  0.30300534682E+03  0.32777627383E+03  0.12500018193E+03 0.  0.
    9000005    1    3    3    0    0  0.42782197022E+02 -0.36645214612E+02  0.22245132293E+03  0.22947500781E+03  0.10000000000E+01 0.  0.
    9000005    1    3    3    0    0 -0.42782197022E+02  0.36645214612E+02  0.80554023883E+02  0.98301266013E+02  0.10000000000E+01 0.  0.
<mgrwt>
<rscale>  0 0.12500018E+03</rscale>
<asrwt>0</asrwt>
<pdfrwt beam="1">  1        4 0.48521664E-01 0.12500018E+03</pdfrwt>
<pdfrwt beam="2">  1       -4 0.19054559E-02 0.12500018E+03</pdfrwt>
<totfact> 0.72240394E+03</totfact>
</mgrwt>
</event>
<event>
 5    1  0.3241863E-002  0.1250066E+03  0.7818608E-02  0.1235059E+00
         -4   -1    0    0    0  501 -0.00000000000E+00  0.00000000000E+00  0.28940773669E+03  0.28941052323E+03  0.12700000000E+01 0.  1.
          4   -1    0    0  501    0  0.00000000000E+00 -0.00000000000E+00 -0.13466085829E+02  0.13525840734E+02  0.12700000000E+01 0.  1.
         25    2    1    2    0    0  0.00000000000E+00  0.00000000000E+00  0.27594165086E+03  0.30293636396E+03  0.12500658355E+03 0.  0.
    9000005    1    3    3    0    0  0.49420507614E+02 -0.37553757304E+02  0.15561154897E+03  0.16753693752E+03  0.10000000000E+01 0.  0.
    9000005    1    3    3    0    0 -0.49420507614E+02  0.37553757304E+02  0.12033010190E+03  0.13539942645E+03  0.10000000000E+01 0.  0.
<mgrwt>
<rscale>  0 0.12500658E+03</rscale>
<asrwt>0</asrwt>
<pdfrwt beam="2">  1        4 0.20765165E-02 0.12500658E+03</pdfrwt>
<pdfrwt beam="1">  1       -4 0.44529075E-01 0.12500658E+03</pdfrwt>
<totfact> 0.75220985E+03</totfact>
</mgrwt>
</event>
<event>
 5    1  0.3241863E-002  0.1249992E+03  0.7818608E-02  0.1235071E+00
         -4   -1    0    0    0  501 -0.00000000000E+00  0.00000000000E+00  0.38790774263E+02  0.38811558432E+02  0.12700000000E+01 0. -1.
          4   -1    0    0  501    0  0.00000000000E+00 -0.00000000000E+00 -0.10064745784E+03  0.10065547014E+03  0.12700000000E+01 0. -1.
         25    2    1    2    0    0  0.00000000000E+00  0.00000000000E+00 -0.61856683579E+02  0.13946702858E+03  0.12499921102E+03 0.  0.
    9000005    1    3    3    0    0  0.50075630853E+02  0.33779114127E+02 -0.48801258131E+02  0.77660544369E+02  0.10000000000E+01 0.  0.
    9000005    1    3    3    0    0 -0.50075630853E+02 -0.33779114127E+02 -0.13055425448E+02  0.61806484208E+02  0.10000000000E+01 0.  0.
<mgrwt>
<rscale>  0 0.12499921E+03</rscale>
<asrwt>0</asrwt>
<pdfrwt beam="2">  1        4 0.15486439E-01 0.12499921E+03</pdfrwt>
<pdfrwt beam="1">  1       -4 0.59700266E-02 0.12499921E+03</pdfrwt>
<totfact> 0.10144824E+04</totfact>
</mgrwt>
</event>
<event>
 5    1  0.3241863E-002  0.1250018E+03  0.7818608E-02  0.1235066E+00
         -4   -1    0    0    0  501 -0.00000000000E+00  0.00000000000E+00  0.24717712409E+02  0.24750317306E+02  0.12700000000E+01 0.  1.
          4   -1    0    0  501    0  0.00000000000E+00 -0.00000000000E+00 -0.15789962265E+03  0.15790472993E+03  0.12700000000E+01 0.  1.
         25    2    1    2    0    0  0.00000000000E+00  0.00000000000E+00 -0.13318191024E+03  0.18265504723E+03  0.12500178024E+03 0.  0.
    9000005    1    3    3    0    0 -0.22629629562E+02 -0.48023029892E+02 -0.18413907082E+02  0.56199497401E+02  0.10000000000E+01 0.  0.
    9000005    1    3    3    0    0  0.22629629562E+02  0.48023029892E+02 -0.11476800316E+03  0.12645554983E+03  0.10000000000E+01 0.  0.
<mgrwt>
<rscale>  0 0.12500178E+03</rscale>
<asrwt>0</asrwt>
<pdfrwt beam="2">  1        4 0.24295150E-01 0.12500178E+03</pdfrwt>
<pdfrwt beam="1">  1       -4 0.38056260E-02 0.12500178E+03</pdfrwt>
<totfact> 0.93137541E+03</totfact>
</mgrwt>
</event>
<event>
 5    1  0.3241863E-002  0.1250120E+03  0.7818608E-02  0.1235050E+00
          4   -1    0    0  501    0  0.00000000000E+00  0.00000000000E+00  0.21693379453E+01  0.25137476248E+01  0.12700000000E+01 0. -1.
         -4   -1    0    0    0  501 -0.00000000000E+00 -0.00000000000E+00 -0.16682139551E+04  0.16682144385E+04  0.12700000000E+01 0. -1.
         25    2    1    2    0    0  0.00000000000E+00  0.00000000000E+00 -0.16660446171E+04  0.16707281861E+04  0.12501202195E+03 0.  0.
    9000005    1    3    3    0    0 -0.36930910446E+02  0.49529530098E+02 -0.95905701507E+03  0.96104548522E+03  0.10000000000E+01 0.  0.
    9000005    1    3    3    0    0  0.36930910446E+02 -0.49529530098E+02 -0.70698760204E+03  0.70968270088E+03  0.10000000000E+01 0.  0.
<mgrwt>
<rscale>  0 0.12501202E+03</rscale>
<asrwt>0</asrwt>
<pdfrwt beam="1">  1        4 0.36027587E-03 0.12501202E+03</pdfrwt>
<pdfrwt beam="2">  1       -4 0.25667388E+00 0.12501202E+03</pdfrwt>
<totfact> 0.14798383E+03</totfact>
</mgrwt>
</event>
<event>
 5    1  0.3241863E-002  0.1250015E+03  0.7818608E-02  0.1235067E+00
          4   -1    0    0  501    0  0.00000000000E+00  0.00000000000E+00  0.13464795120E+03  0.13465394039E+03  0.12700000000E+01 0. -1.
         -4   -1    0    0    0  501 -0.00000000000E+00 -0.00000000000E+00 -0.28990995090E+02  0.29018799016E+02  0.12700000000E+01 0. -1.
         25    2    1    2    0    0  0.00000000000E+00  0.00000000000E+00  0.10565695611E+03  0.16367273940E+03  0.12500149299E+03 0.  0.
    9000005    1    3    3    0    0 -0.19507468807E+02  0.55502474235E+02  0.25229803433E+02  0.64020379307E+02  0.10000000000E+01 0.  0.
    9000005    1    3    3    0    0  0.19507468807E+02 -0.55502474235E+02  0.80427152676E+02  0.99652360097E+02  0.10000000000E+01 0.  0.
<mgrwt>
<rscale>  0 0.12500149E+03</rscale>
<asrwt>0</asrwt>
<pdfrwt beam="1">  1        4 0.20717669E-01 0.12500149E+03</pdfrwt>
<pdfrwt beam="2">  1       -4 0.44627526E-02 0.12500149E+03</pdfrwt>
<totfact> 0.96636105E+03</totfact>
</mgrwt>
</event>
<event>
 5    1  0.3241863E-002  0.1249965E+03  0.7818608E-02  0.1235075E+00
         -4   -1    0    0    0  501 -0.00000000000E+00  0.00000000000E+00  0.60664290621E+02  0.60677582817E+02  0.12700000000E+01 0.  1.
          4   -1    0    0  501    0  0.00000000000E+00 -0.00000000000E+00 -0.64361031796E+02  0.64373560674E+02  0.12700000000E+01 0.  1.
         25    2    1    2    0    0  0.00000000000E+00  0.00000000000E+00 -0.36967411747E+01  0.12505114349E+03  0.12499649032E+03 0.  0.
    9000005    1    3    3    0    0  0.58519129417E+02  0.19555561702E+02 -0.11758364086E+02  0.62818529330E+02  0.10000000000E+01 0.  0.
    9000005    1    3    3    0    0 -0.58519129417E+02 -0.19555561702E+02  0.80616229110E+01  0.62232614160E+02  0.10000000000E+01 0.  0.
<mgrwt>
<rscale>  0 0.12499649E+03</rscale>
<asrwt>0</asrwt>
<pdfrwt beam="2">  1        4 0.99036833E-02 0.12499649E+03</pdfrwt>
<pdfrwt beam="1">  1       -4 0.93349541E-02 0.12499649E+03</pdfrwt>
<totfact> 0.10452581E+04</totfact>
</mgrwt>
</event>
<event>
 5    1  0.3241863E-002  0.1250012E+03  0.7818608E-02  0.1235067E+00
         -4   -1    0    0    0  501 -0.00000000000E+00  0.00000000000E+00  0.38302912328E+02  0.38323961079E+02  0.12700000000E+01 0.  1.
          4   -1    0    0  501    0  0.00000000000E+00 -0.00000000000E+00 -0.10193197102E+03  0.10193988236E+03  0.12700000000E+01 0.  1.
         25    2    1    2    0    0  0.00000000000E+00  0.00000000000E+00 -0.63629058690E+02  0.14026384344E+03  0.12500115466E+03 0.  0.
    9000005    1    3    3    0    0 -0.18606327317E+02 -0.41439244029E+02  0.16343266086E+02  0.48285698797E+02  0.10000000000E+01 0.  0.
    9000005    1    3    3    0    0  0.18606327317E+02  0.41439244029E+02 -0.79972324776E+02  0.91978144643E+02  0.10000000000E+01 0.  0.
<mgrwt>
<rscale>  0 0.12500115E+03</rscale>
<asrwt>0</asrwt>
<pdfrwt beam="2">  1        4 0.15684069E-01 0.12500115E+03</pdfrwt>
<pdfrwt beam="1">  1       -4 0.58949835E-02 0.12500115E+03</pdfrwt>
<totfact> 0.10127857E+04</totfact>
</mgrwt>
</event>
<event>
 5    1  0.3241863E-002  0.1250003E+03  0.7818608E-02  0.1235069E+00
         -4   -1    0    0    0  501 -0.00000000000E+00  0.00000000000E+00  0.86059690377E+01  0.86991725513E+01  0.12700000000E+01 0.  1.
          4   -1    0    0  501    0  0.00000000000E+00 -0.00000000000E+00 -0.45136379944E+03  0.45136558614E+03  0.12700000000E+01 0.  1.
         25    2    1    2    0    0  0.00000000000E+00  0.00000000000E+00 -0.44275783041E+03  0.46006475869E+03  0.12500034320E+03 0.  0.
    9000005    1    3    3    0    0 -0.58845932057E+02  0.25779451164E+01 -0.29821095628E+03  0.30397411726E+03  0.10000000000E+01 0.  0.
    9000005    1    3    3    0    0  0.58845932057E+02 -0.25779451164E+01 -0.14454687413E+03  0.15609064142E+03  0.10000000000E+01 0.  0.
<mgrwt>
<rscale>  0 0.12500034E+03</rscale>
<asrwt>0</asrwt>
<pdfrwt beam="2">  1        4 0.69447873E-01 0.12500034E+03</pdfrwt>
<pdfrwt beam="1">  1       -4 0.13313025E-02 0.12500034E+03</pdfrwt>
<totfact> 0.59101257E+03</totfact>
</mgrwt>
</event>
<event>
 5    1  0.3241863E-002  0.1250011E+03  0.7818608E-02  0.1235068E+00
          4   -1    0    0  501    0  0.00000000000E+00  0.00000000000E+00  0.45282239920E+01  0.47029472166E+01  0.12700000000E+01 0. -1.
         -4   -1    0    0    0  501 -0.00000000000E+00 -0.00000000000E+00 -0.84615650546E+03  0.84615745853E+03  0.12700000000E+01 0. -1.
         25    2    1    2    0    0  0.00000000000E+00  0.00000000000E+00 -0.84162828147E+03  0.85086040575E+03  0.12500106362E+03 0.  0.
    9000005    1    3    3    0    0 -0.62467461410E+02  0.16266605660E+01 -0.42556293000E+03  0.43012746616E+03  0.10000000000E+01 0.  0.
    9000005    1    3    3    0    0  0.62467461410E+02 -0.16266605660E+01 -0.41606535147E+03  0.42073293959E+03  0.10000000000E+01 0.  0.
<mgrwt>
<rscale>  0 0.12500106E+03</rscale>
<asrwt>0</asrwt>
<pdfrwt beam="1">  1        4 0.71016408E-03 0.12500106E+03</pdfrwt>
<pdfrwt beam="2">  1       -4 0.13019131E+00 0.12500106E+03</pdfrwt>
<totfact> 0.36091333E+03</totfact>
</mgrwt>
</event>
<event>
 5    1  0.3241863E-002  0.1249981E+03  0.7818608E-02  0.1235072E+00
         -4   -1    0    0    0  501 -0.00000000000E+00  0.00000000000E+00  0.21355574909E+02  0.21393304553E+02  0.12700000000E+01 0. -1.
          4   -1    0    0  501    0  0.00000000000E+00 -0.00000000000E+00 -0.18270792703E+03  0.18271234085E+03  0.12700000000E+01 0. -1.
         25    2    1    2    0    0  0.00000000000E+00  0.00000000000E+00 -0.16135235212E+03  0.20410564540E+03  0.12499813179E+03 0.  0.
    9000005    1    3    3    0    0  0.42045578579E+02 -0.38816607246E+02 -0.39672822885E+02  0.69638298025E+02  0.10000000000E+01 0.  0.
    9000005    1    3    3    0    0 -0.42045578579E+02  0.38816607246E+02 -0.12167952923E+03  0.13446734738E+03  0.10000000000E+01 0.  0.
<mgrwt>
<rscale>  0 0.12499813E+03</rscale>
<asrwt>0</asrwt>
<pdfrwt beam="2">  1        4 0.28112153E-01 0.12499813E+03</pdfrwt>
<pdfrwt beam="1">  1       -4 0.32887150E-02 0.12499813E+03</pdfrwt>
<totfact> 0.89451384E+03</totfact>
</mgrwt>
</event>
<event>
 5    1  0.3241863E-002  0.1249999E+03  0.7818608E-02  0.1235069E+00
         -4   -1    0    0    0  501 -0.00000000000E+00  0.00000000000E+00  0.72606221653E+02  0.72617327978E+02  0.12700000000E+01 0. -1.
          4   -1    0    0  501    0  0.00000000000E+00 -0.00000000000E+00 -0.53777682871E+02  0.53792676778E+02  0.12700000000E+01 0. -1.
         25    2    1    2    0    0  0.00000000000E+00  0.00000000000E+00  0.18828538782E+02  0.12641000476E+03  0.12499990172E+03 0.  0.
    9000005    1    3    3    0    0 -0.14003209342E+02 -0.53686120413E+02  0.38495486132E+02  0.67536596371E+02  0.10000000000E+01 0.  0.
    9000005    1    3    3    0    0  0.14003209342E+02  0.53686120413E+02 -0.19666947350E+02  0.58873408386E+02  0.10000000000E+01 0.  0.
<mgrwt>
<rscale>  0 0.12499990E+03</rscale>
<asrwt>0</asrwt>
<pdfrwt beam="2">  1        4 0.82754974E-02 0.12499990E+03</pdfrwt>
<pdfrwt beam="1">  1       -4 0.11172196E-01 0.12499990E+03</pdfrwt>
<totfact> 0.10422014E+04</totfact>
</mgrwt>
</event>
<event>
 5    1  0.3241863E-002  0.1249784E+03  0.7818608E-02  0.1235103E+00
         -4   -1    0    0    0  501 -0.00000000000E+00  0.00000000000E+00  0.16211015213E+02  0.16260686156E+02  0.12700000000E+01 0. -1.
          4   -1    0    0  501    0  0.00000000000E+00 -0.00000000000E+00 -0.24045954331E+03  0.24046289708E+03  0.12700000000E+01 0. -1.
         25    2    1    2    0    0  0.00000000000E+00  0.00000000000E+00 -0.22424852810E+03  0.25672358323E+03  0.12497838146E+03 0.  0.
    9000005    1    3    3    0    0 -0.60734735432E+02  0.13732253562E+02 -0.12272175208E+03  0.13761871715E+03  0.10000000000E+01 0.  0.
    9000005    1    3    3    0    0  0.60734735432E+02 -0.13732253562E+02 -0.10152677602E+03  0.11910486608E+03  0.10000000000E+01 0.  0.
<mgrwt>
<rscale>  0 0.12497838E+03</rscale>
<asrwt>0</asrwt>
<pdfrwt beam="2">  1        4 0.36997852E-01 0.12497838E+03</pdfrwt>
<pdfrwt beam="1">  1       -4 0.24980813E-02 0.12497838E+03</pdfrwt>
<totfact> 0.81407249E+03</totfact>
</mgrwt>
</event>
<event>
 5    1  0.3241863E-002  0.1249972E+03  0.7818608E-02  0.1235074E+00
         -4   -1    0    0    0  501 -0.00000000000E+00  0.00000000000E+00  0.86183489022E+02  0.86192845875E+02  0.12700000000E+01 0.  1.
          4   -1    0    0  501    0  0.00000000000E+00 -0.00000000000E+00 -0.45302072312E+02  0.45319870430E+02  0.12700000000E+01 0.  1.
         25    2    1    2    0    0  0.00000000000E+00  0.00000000000E+00  0.40881416710E+02  0.13151271630E+03  0.12499721724E+03 0.  0.
    9000005    1    3    3    0    0 -0.59982162610E+02  0.16776624044E+02  0.15100602216E+02  0.64096358188E+02  0.10000000000E+01 0.  0.
    9000005    1    3    3    0    0  0.59982162610E+02 -0.16776624044E+02  0.25780814495E+02  0.67416358117E+02  0.10000000000E+01 0.  0.
<mgrwt>
<rscale>  0 0.12499722E+03</rscale>
<asrwt>0</asrwt>
<pdfrwt beam="2">  1        4 0.69716384E-02 0.12499722E+03</pdfrwt>
<pdfrwt beam="1">  1       -4 0.13261087E-01 0.12499722E+03</pdfrwt>
<totfact> 0.10312757E+04</totfact>
</mgrwt>
</event>
<event>
 5    1  0.3241863E-002  0.1249997E+03  0.7818608E-02  0.1235070E+00
         -4   -1    0    0    0  501 -0.00000000000E+00  0.00000000000E+00  0.12254823477E+03  0.12255481527E+03  0.12700000000E+01 0.  1.
          4   -1    0    0  501    0  0.00000000000E+00 -0.00000000000E+00 -0.31854945375E+02  0.31880251643E+02  0.12700000000E+01 0.  1.
         25    2    1    2    0    0  0.00000000000E+00  0.00000000000E+00  0.90693289394E+02  0.15443506691E+03  0.12499966860E+03 0.  0.
    9000005    1    3    3    0    0 -0.38311639196E+02 -0.59345067461E+01 -0.15207556789E+02  0.41656570331E+02  0.10000000000E+01 0.  0.
    9000005    1    3    3    0    0  0.38311639196E+02  0.59345067461E+01  0.10590084618E+03  0.11277849658E+03  0.10000000000E+01 0.  0.
<mgrwt>
<rscale>  0 0.12499967E+03</rscale>
<asrwt>0</asrwt>
<pdfrwt beam="2">  1        4 0.49032138E-02 0.12499967E+03</pdfrwt>
<pdfrwt beam="1">  1       -4 0.18856027E-01 0.12499967E+03</pdfrwt>
<totfact> 0.98427251E+03</totfact>
</mgrwt>
</event>
<event>
 5    1  0.3241863E-002  0.1249965E+03  0.7818608E-02  0.1235075E+00
          4   -1    0    0  501    0  0.00000000000E+00  0.00000000000E+00  0.18896483720E+02  0.18939112888E+02  0.12700000000E+01 0.  1.
         -4   -1    0    0    0  501 -0.00000000000E+00 -0.00000000000E+00 -0.20642928697E+03  0.20643319359E+03  0.12700000000E+01 0.  1.
         25    2    1    2    0    0  0.00000000000E+00  0.00000000000E+00 -0.18753280325E+03  0.22537230648E+03  0.12499649689E+03 0.  0.
    9000005    1    3    3    0    0 -0.24561673055E+02  0.34611701716E+02 -0.11066798785E+02  0.43871627668E+02  0.10000000000E+01 0.  0.
    9000005    1    3    3    0    0  0.24561673055E+02 -0.34611701716E+02 -0.17646600446E+03  0.18150067881E+03  0.10000000000E+01 0.  0.
<mgrwt>
<rscale>  0 0.12499650E+03</rscale>
<asrwt>0</asrwt>
<pdfrwt beam="1">  1        4 0.29107312E-02 0.12499650E+03</pdfrwt>
<pdfrwt beam="2">  1       -4 0.31761930E-01 0.12499650E+03</pdfrwt>
<totfact> 0.86032014E+03</totfact>
</mgrwt>
</event>
<event>
 5    1  0.3241863E-002  0.1250006E+03  0.7818608E-02  0.1235068E+00
         -4   -1    0    0    0  501 -0.00000000000E+00  0.00000000000E+00  0.62003115463E+03  0.62003245529E+03  0.12700000000E+01 0. -1.
          4   -1    0    0  501    0  0.00000000000E+00 -0.00000000000E+00 -0.62348194547E+01  0.63628510616E+01  0.12700000000E+01 0. -1.
         25    2    1    2    0    0  0.00000000000E+00  0.00000000000E+00  0.61379633517E+03  0.62639530635E+03  0.12500055497E+03 0.  0.
    9000005    1    3    3    0    0 -0.21882770446E+02  0.74529771034E+01  0.15954881304E+02  0.28106240366E+02  0.10000000000E+01 0.  0.
    9000005    1    3    3    0    0  0.21882770446E+02 -0.74529771034E+01  0.59784145387E+03  0.59828906598E+03  0.10000000000E+01 0.  0.
<mgrwt>
<rscale>  0 0.12500055E+03</rscale>
<asrwt>0</asrwt>
<pdfrwt beam="2">  1        4 0.96915181E-03 0.12500055E+03</pdfrwt>
<pdfrwt beam="1">  1       -4 0.95399340E-01 0.12500055E+03</pdfrwt>
<totfact> 0.47242186E+03</totfact>
</mgrwt>
</event>
<event>
 5    1  0.3241863E-002  0.1249920E+03  0.7818608E-02  0.1235082E+00
         -4   -1    0    0    0  501 -0.00000000000E+00  0.00000000000E+00  0.27459058274E+03  0.27459351964E+03  0.12700000000E+01 0. -1.
          4   -1    0    0  501    0  0.00000000000E+00 -0.00000000000E+00 -0.14192525835E+02  0.14249234701E+02  0.12700000000E+01 0. -1.
         25    2    1    2    0    0  0.00000000000E+00  0.00000000000E+00  0.26039805690E+03  0.28884275434E+03  0.12499195453E+03 0.  0.
    9000005    1    3    3    0    0  0.79258501879E+01 -0.55882748209E+02  0.19216566364E+03  0.20028565334E+03  0.10000000000E+01 0.  0.
    9000005    1    3    3    0    0 -0.79258501879E+01  0.55882748209E+02  0.68232393262E+02  0.88557101008E+02  0.10000000000E+01 0.  0.
<mgrwt>
<rscale>  0 0.12499195E+03</rscale>
<asrwt>0</asrwt>
<pdfrwt beam="2">  1        4 0.21880536E-02 0.12499195E+03</pdfrwt>
<pdfrwt beam="1">  1       -4 0.42249294E-01 0.12499195E+03</pdfrwt>
<totfact> 0.77033807E+03</totfact>
</mgrwt>
</event>
<event>
 5    1  0.3241863E-002  0.1250047E+03  0.7818608E-02  0.1235062E+00
         -4   -1    0    0    0  501 -0.00000000000E+00  0.00000000000E+00  0.34497362376E+04  0.34497364714E+04  0.12700000000E+01 0.  1.
          4   -1    0    0  501    0  0.00000000000E+00 -0.00000000000E+00 -0.77603691647E+00  0.14883323875E+01  0.12700000000E+01 0.  1.
         25    2    1    2    0    0  0.00000000000E+00  0.00000000000E+00  0.34489602007E+04  0.34512248038E+04  0.12500472064E+03 0.  0.
    9000005    1    3    3    0    0 -0.59140710994E+02  0.17485602110E+02  0.14454061488E+04  0.14467215713E+04  0.10000000000E+01 0.  0.
    9000005    1    3    3    0    0  0.59140710994E+02 -0.17485602110E+02  0.20035540520E+04  0.20045032325E+04  0.10000000000E+01 0.  0.
<mgrwt>
<rscale>  0 0.12500472E+03</rscale>
<asrwt>0</asrwt>
<pdfrwt beam="2">  1        4 0.17420179E-03 0.12500472E+03</pdfrwt>
<pdfrwt beam="1">  1       -4 0.53077873E+00 0.12500472E+03</pdfrwt>
<totfact> 0.65141051E+01</totfact>
</mgrwt>
</event>
<event>
 5    1  0.3241863E-002  0.1250122E+03  0.7818608E-02  0.1235050E+00
          4   -1    0    0  501    0  0.00000000000E+00  0.00000000000E+00  0.11742241378E+02  0.11810721086E+02  0.12700000000E+01 0.  1.
         -4   -1    0    0    0  501 -0.00000000000E+00 -0.00000000000E+00 -0.33169412117E+03  0.33169655247E+03  0.12700000000E+01 0.  1.
         25    2    1    2    0    0  0.00000000000E+00  0.00000000000E+00 -0.31995187979E+03  0.34350727355E+03  0.12501216581E+03 0.  0.
    9000005    1    3    3    0    0  0.57865585405E+01 -0.46457250997E+01 -0.33049275984E+03  0.33057757233E+03  0.10000000000E+01 0.  0.
    9000005    1    3    3    0    0 -0.57865585405E+01  0.46457250997E+01  0.10540880050E+02  0.12929701221E+02  0.10000000000E+01 0.  0.
<mgrwt>
<rscale>  0 0.12501217E+03</rscale>
<asrwt>0</asrwt>
<pdfrwt beam="1">  1        4 0.18119536E-02 0.12501217E+03</pdfrwt>
<pdfrwt beam="2">  1       -4 0.51035312E-01 0.12501217E+03</pdfrwt>
<totfact> 0.70425825E+03</totfact>
</mgrwt>
</event>
<event>
 5    1  0.3241863E-002  0.1250015E+03  0.7818608E-02  0.1235067E+00
          4   -1    0    0  501    0  0.00000000000E+00  0.00000000000E+00  0.76356558098E+02  0.76367119001E+02  0.12700000000E+01 0.  1.
         -4   -1    0    0    0  501 -0.00000000000E+00 -0.00000000000E+00 -0.51137262641E+02  0.51153030510E+02  0.12700000000E+01 0.  1.
         25    2    1    2    0    0  0.00000000000E+00  0.00000000000E+00  0.25219295457E+02  0.12752014951E+03  0.12500150266E+03 0.  0.
    9000005    1    3    3    0    0 -0.53998291303E+01  0.13224679939E+01  0.76108791943E+02  0.76318118997E+02  0.10000000000E+01 0.  0.
    9000005    1    3    3    0    0  0.53998291303E+01 -0.13224679939E+01 -0.50889496486E+02  0.51202030514E+02  0.10000000000E+01 0.  0.
<mgrwt>
<rscale>  0 0.12500150E+03</rscale>
<asrwt>0</asrwt>
<pdfrwt beam="1">  1        4 0.11749188E-01 0.12500150E+03</pdfrwt>
<pdfrwt beam="2">  1       -4 0.78692965E-02 0.12500150E+03</pdfrwt>
<totfact> 0.10397511E+04</totfact>
</mgrwt>
</event>
<event>
 5    1  0.3241863E-002  0.1249916E+03  0.7818608E-02  0.1235082E+00
         -4   -1    0    0    0  501 -0.00000000000E+00  0.00000000000E+00  0.32824310205E+02  0.32848869698E+02  0.12700000000E+01 0. -1.
          4   -1    0    0  501    0  0.00000000000E+00 -0.00000000000E+00 -0.11891642485E+03  0.11892320631E+03  0.12700000000E+01 0. -1.
         25    2    1    2    0    0  0.00000000000E+00  0.00000000000E+00 -0.86092114641E+02  0.15177207601E+03  0.12499164313E+03 0.  0.
    9000005    1    3    3    0    0 -0.35078614776E+02  0.47934311670E+02 -0.66607673341E+02  0.89251272247E+02  0.10000000000E+01 0.  0.
    9000005    1    3    3    0    0  0.35078614776E+02 -0.47934311670E+02 -0.19484441300E+02  0.62520803758E+02  0.10000000000E+01 0.  0.
<mgrwt>
<rscale>  0 0.12499164E+03</rscale>
<asrwt>0</asrwt>
<pdfrwt beam="2">  1        4 0.18297245E-01 0.12499164E+03</pdfrwt>
<pdfrwt beam="1">  1       -4 0.50523048E-02 0.12499164E+03</pdfrwt>
<totfact> 0.98970237E+03</totfact>
</mgrwt>
</event>
<event>
 5    1  0.3241863E-002  0.1250053E+03  0.7818608E-02  0.1235061E+00
          4   -1    0    0  501    0  0.00000000000E+00  0.00000000000E+00  0.14942378334E+03  0.14942918031E+03  0.12700000000E+01 0. -1.
         -4   -1    0    0    0  501 -0.00000000000E+00 -0.00000000000E+00 -0.26123000118E+02  0.26153853161E+02  0.12700000000E+01 0. -1.
         25    2    1    2    0    0  0.00000000000E+00  0.00000000000E+00  0.12330078322E+03  0.17558303347E+03  0.12500527388E+03 0.  0.
    9000005    1    3    3    0    0 -0.20211339508E+02 -0.46104787013E+02  0.11366688047E+03  0.12431938443E+03  0.10000000000E+01 0.  0.
    9000005    1    3    3    0    0  0.20211339508E+02  0.46104787013E+02  0.96339027524E+01  0.51263649035E+02  0.10000000000E+01 0.  0.
<mgrwt>
<rscale>  0 0.12500527E+03</rscale>
<asrwt>0</asrwt>
<pdfrwt beam="1">  1        4 0.22991063E-01 0.12500527E+03</pdfrwt>
<pdfrwt beam="2">  1       -4 0.40217115E-02 0.12500527E+03</pdfrwt>
<totfact> 0.94406998E+03</totfact>
</mgrwt>
</event>
<event>
 5    1  0.3241863E-002  0.1250033E+03  0.7818608E-02  0.1235064E+00
          4   -1    0    0  501    0  0.00000000000E+00  0.00000000000E+00  0.41221977048E+03  0.41222172683E+03  0.12700000000E+01 0.  1.
         -4   -1    0    0    0  501 -0.00000000000E+00 -0.00000000000E+00 -0.94320998080E+01  0.95172163361E+01  0.12700000000E+01 0.  1.
         25    2    1    2    0    0  0.00000000000E+00  0.00000000000E+00  0.40278767067E+03  0.42173894317E+03  0.12500331412E+03 0.  0.
    9000005    1    3    3    0    0 -0.81834130047E+01 -0.20710564538E+02  0.43914720048E+01  0.22719611754E+02  0.10000000000E+01 0.  0.
    9000005    1    3    3    0    0  0.81834130047E+01  0.20710564538E+02  0.39839619867E+03  0.39901933142E+03  0.10000000000E+01 0.  0.
<mgrwt>
<rscale>  0 0.12500331E+03</rscale>
<asrwt>0</asrwt>
<pdfrwt beam="1">  1        4 0.63425124E-01 0.12500331E+03</pdfrwt>
<pdfrwt beam="2">  1       -4 0.14577902E-02 0.12500331E+03</pdfrwt>
<totfact> 0.62487441E+03</totfact>
</mgrwt>
</event>
<event>
 5    1  0.3241863E-002  0.1249853E+03  0.7818608E-02  0.1235092E+00
         -4   -1    0    0    0  501 -0.00000000000E+00  0.00000000000E+00  0.34741132260E+03  0.34741364390E+03  0.12700000000E+01 0. -1.
          4   -1    0    0  501    0  0.00000000000E+00 -0.00000000000E+00 -0.11202987665E+02  0.11274743129E+02  0.12700000000E+01 0. -1.
         25    2    1    2    0    0  0.00000000000E+00  0.00000000000E+00  0.33620833493E+03  0.35868838703E+03  0.12498525718E+03 0.  0.
    9000005    1    3    3    0    0 -0.13712633883E+02  0.15402707501E+02 -0.11692625757E+01  0.20679625271E+02  0.10000000000E+01 0.  0.
    9000005    1    3    3    0    0  0.13712633883E+02 -0.15402707501E+02  0.33737759751E+03  0.33800876176E+03  0.10000000000E+01 0.  0.
<mgrwt>
<rscale>  0 0.12498526E+03</rscale>
<asrwt>0</asrwt>
<pdfrwt beam="2">  1        4 0.17292347E-02 0.12498526E+03</pdfrwt>
<pdfrwt beam="1">  1       -4 0.53453596E-01 0.12498526E+03</pdfrwt>
<totfact> 0.68801618E+03</totfact>
</mgrwt>
</event>
<event>
 5    1  0.3241863E-002  0.1250079E+03  0.7818608E-02  0.1235057E+00
          4   -1    0    0  501    0  0.00000000000E+00  0.00000000000E+00  0.34071680055E+03  0.34071916746E+03  0.12700000000E+01 0.  1.
         -4   -1    0    0    0  501 -0.00000000000E+00 -0.00000000000E+00 -0.11428665093E+02  0.11499012385E+02  0.12700000000E+01 0.  1.
         25    2    1    2    0    0  0.00000000000E+00  0.00000000000E+00  0.32928813546E+03  0.35221817985E+03  0.12500788000E+03 0.  0.
    9000005    1    3    3    0    0  0.24191628703E+02 -0.46121863649E+02  0.26197386025E+03  0.26710253586E+03  0.10000000000E+01 0.  0.
    9000005    1    3    3    0    0 -0.24191628703E+02  0.46121863649E+02  0.67314275204E+02  0.85115643991E+02  0.10000000000E+01 0.  0.
<mgrwt>
<rscale>  0 0.12500788E+03</rscale>
<asrwt>0</asrwt>
<pdfrwt beam="1">  1        4 0.52423554E-01 0.12500788E+03</pdfrwt>
<pdfrwt beam="2">  1       -4 0.17638499E-02 0.12500788E+03</pdfrwt>
<totfact> 0.69469107E+03</totfact>
</mgrwt>
</event>
<event>
 5    1  0.3241863E-002  0.1250001E+03  0.7818608E-02  0.1235069E+00
         -4   -1    0    0    0  501 -0.00000000000E+00  0.00000000000E+00  0.45849993845E+03  0.45850169733E+03  0.12700000000E+01 0.  1.
          4   -1    0    0  501    0  0.00000000000E+00 -0.00000000000E+00 -0.84705367951E+01  0.85652141595E+01  0.12700000000E+01 0.  1.
         25    2    1    2    0    0  0.00000000000E+00  0.00000000000E+00  0.45002940165E+03  0.46706691149E+03  0.12500014983E+03 0.  0.
    9000005    1    3    3    0    0  0.35911178180E+02  0.19532222105E+02  0.48401298220E+02  0.63362497489E+02  0.10000000000E+01 0.  0.
    9000005    1    3    3    0    0 -0.35911178180E+02 -0.19532222105E+02  0.40162810343E+03  0.40370441400E+03  0.10000000000E+01 0.  0.
<mgrwt>
<rscale>  0 0.12500015E+03</rscale>
<asrwt>0</asrwt>
<pdfrwt beam="2">  1        4 0.13105773E-02 0.12500015E+03</pdfrwt>
<pdfrwt beam="1">  1       -4 0.70545890E-01 0.12500015E+03</pdfrwt>
<totfact> 0.58513080E+03</totfact>
</mgrwt>
</event>
<event>
 5    1  0.3241863E-002  0.1250002E+03  0.7818608E-02  0.1235069E+00
          4   -1    0    0  501    0  0.00000000000E+00  0.00000000000E+00  0.25943168951E+02  0.25974235604E+02  0.12700000000E+01 0. -1.
         -4   -1    0    0    0  501 -0.00000000000E+00 -0.00000000000E+00 -0.15044624040E+03  0.15045160069E+03  0.12700000000E+01 0. -1.
         25    2    1    2    0    0  0.00000000000E+00  0.00000000000E+00 -0.12450307145E+03  0.17642583629E+03  0.12500024365E+03 0.  0.
    9000005    1    3    3    0    0 -0.51970550952E+02  0.23662203939E+02 -0.26422242166E+02  0.62928315905E+02  0.10000000000E+01 0.  0.
    9000005    1    3    3    0    0  0.51970550952E+02 -0.23662203939E+02 -0.98080829282E+02  0.11349752039E+03  0.10000000000E+01 0.  0.
<mgrwt>
<rscale>  0 0.12500024E+03</rscale>
<asrwt>0</asrwt>
<pdfrwt beam="1">  1        4 0.39940589E-02 0.12500024E+03</pdfrwt>
<pdfrwt beam="2">  1       -4 0.23148377E-01 0.12500024E+03</pdfrwt>
<totfact> 0.94263834E+03</totfact>
</mgrwt>
</event>
<event>
 5    1  0.3241863E-002  0.1249855E+03  0.7818608E-02  0.1235092E+00
          4   -1    0    0  501    0  0.00000000000E+00  0.00000000000E+00  0.21423132020E+02  0.21460742894E+02  0.12700000000E+01 0.  1.
         -4   -1    0    0    0  501 -0.00000000000E+00 -0.00000000000E+00 -0.18209599035E+03  0.18210041900E+03  0.12700000000E+01 0.  1.
         25    2    1    2    0    0  0.00000000000E+00  0.00000000000E+00 -0.16067285833E+03  0.20356116189E+03  0.12498551608E+03 0.  0.
    9000005    1    3    3    0    0 -0.31819947865E+02  0.19299525982E+02  0.14122406776E+01  0.37255539306E+02  0.10000000000E+01 0.  0.
    9000005    1    3    3    0    0  0.31819947865E+02 -0.19299525982E+02 -0.16208509900E+03  0.16630562259E+03  0.10000000000E+01 0.  0.
<mgrwt>
<rscale>  0 0.12498552E+03</rscale>
<asrwt>0</asrwt>
<pdfrwt beam="1">  1        4 0.32991004E-02 0.12498552E+03</pdfrwt>
<pdfrwt beam="2">  1       -4 0.28018001E-01 0.12498552E+03</pdfrwt>
<totfact> 0.89567361E+03</totfact>
</mgrwt>
</event>
<event>
 5    1  0.3241863E-002  0.1250008E+03  0.7818608E-02  0.1235068E+00
          4   -1    0    0  501    0  0.00000000000E+00  0.00000000000E+00  0.18233197192E+03  0.18233639485E+03  0.12700000000E+01 0.  1.
         -4   -1    0    0    0  501 -0.00000000000E+00 -0.00000000000E+00 -0.21400603932E+02  0.21438254329E+02  0.12700000000E+01 0.  1.
         25    2    1    2    0    0  0.00000000000E+00  0.00000000000E+00  0.16093136799E+03  0.20377464917E+03  0.12500080977E+03 0.  0.
    9000005    1    3    3    0    0  0.46901407585E+02  0.38334505233E+02  0.55420993228E+02  0.82108238413E+02  0.10000000000E+01 0.  0.
    9000005    1    3    3    0    0 -0.46901407585E+02 -0.38334505233E+02  0.10551037476E+03  0.12166641076E+03  0.10000000000E+01 0.  0.
<mgrwt>
<rscale>  0 0.12500081E+03</rscale>
<asrwt>0</asrwt>
<pdfrwt beam="1">  1        4 0.28054309E-01 0.12500081E+03</pdfrwt>
<pdfrwt beam="2">  1       -4 0.32956370E-02 0.12500081E+03</pdfrwt>
<totfact> 0.89501141E+03</totfact>
</mgrwt>
</event>
<event>
 5    1  0.3241863E-002  0.1249986E+03  0.7818608E-02  0.1235072E+00
         -4   -1    0    0    0  501 -0.00000000000E+00  0.00000000000E+00  0.31511500201E+02  0.31537082061E+02  0.12700000000E+01 0. -1.
          4   -1    0    0  501    0  0.00000000000E+00 -0.00000000000E+00 -0.12388070740E+03  0.12388721712E+03  0.12700000000E+01 0. -1.
         25    2    1    2    0    0  0.00000000000E+00  0.00000000000E+00 -0.92369207203E+02  0.15542429919E+03  0.12499856934E+03 0.  0.
    9000005    1    3    3    0    0 -0.10265474235E+01 -0.47966668268E+01 -0.12364705259E+03  0.12374835525E+03  0.10000000000E+01 0.  0.
    9000005    1    3    3    0    0  0.10265474235E+01  0.47966668268E+01  0.31277845387E+02  0.31675943938E+02  0.10000000000E+01 0.  0.
<mgrwt>
<rscale>  0 0.12499857E+03</rscale>
<asrwt>0</asrwt>
<pdfrwt beam="2">  1        4 0.19061039E-01 0.12499857E+03</pdfrwt>
<pdfrwt beam="1">  1       -4 0.48503917E-02 0.12499857E+03</pdfrwt>
<totfact> 0.98235429E+03</totfact>
</mgrwt>
</event>
<event>
 5    1  0.3241863E-002  0.1250138E+03  0.7818608E-02  0.1235048E+00
         -4   -1    0    0    0  501 -0.00000000000E+00  0.00000000000E+00  0.14625615277E+04  0.14625620791E+04  0.12700000000E+01 0.  1.
          4   -1    0    0  501    0  0.00000000000E+00 -0.00000000000E+00 -0.25198961232E+01  0.28218392002E+01  0.12700000000E+01 0.  1.
         25    2    1    2    0    0  0.00000000000E+00  0.00000000000E+00  0.14600416316E+04  0.14653839183E+04  0.12501384748E+03 0.  0.
    9000005    1    3    3    0    0 -0.28347038243E+02  0.40673013562E+02  0.28393583307E+03  0.28823324914E+03  0.10000000000E+01 0.  0.
    9000005    1    3    3    0    0  0.28347038243E+02 -0.40673013562E+02  0.11761057985E+04  0.11771506691E+04  0.10000000000E+01 0.  0.
<mgrwt>
<rscale>  0 0.12501385E+03</rscale>
<asrwt>0</asrwt>
<pdfrwt beam="2">  1        4 0.41094533E-03 0.12501385E+03</pdfrwt>
<pdfrwt beam="1">  1       -4 0.22503263E+00 0.12501385E+03</pdfrwt>
<totfact> 0.18614213E+03</totfact>
</mgrwt>
</event>
<event>
 5    1  0.3241863E-002  0.1250063E+03  0.7818608E-02  0.1235059E+00
         -4   -1    0    0    0  501 -0.00000000000E+00  0.00000000000E+00  0.47316972431E+02  0.47334012930E+02  0.12700000000E+01 0. -1.
          4   -1    0    0  501    0  0.00000000000E+00 -0.00000000000E+00 -0.82526485074E+02  0.82536256510E+02  0.12700000000E+01 0. -1.
         25    2    1    2    0    0  0.00000000000E+00  0.00000000000E+00 -0.35209512643E+02  0.12987026944E+03  0.12500630826E+03 0.  0.
    9000005    1    3    3    0    0  0.62453137342E+02 -0.19158680896E+01 -0.18910381769E+02  0.65289106695E+02  0.10000000000E+01 0.  0.
    9000005    1    3    3    0    0 -0.62453137342E+02  0.19158680896E+01 -0.16299130874E+02  0.64581162746E+02  0.10000000000E+01 0.  0.
<mgrwt>
<rscale>  0 0.12500631E+03</rscale>
<asrwt>0</asrwt>
<pdfrwt beam="2">  1        4 0.12698445E-01 0.12500631E+03</pdfrwt>
<pdfrwt beam="1">  1       -4 0.72815967E-02 0.12500631E+03</pdfrwt>
<totfact> 0.10345810E+04</totfact>
</mgrwt>
</event>
<event>
 5    1  0.3241863E-002  0.1249980E+03  0.7818608E-02  0.1235072E+00
          4   -1    0    0  501    0  0.00000000000E+00  0.00000000000E+00  0.12616639841E+03  0.12617279020E+03  0.12700000000E+01 0. -1.
         -4   -1    0    0    0  501 -0.00000000000E+00 -0.00000000000E+00 -0.30939921617E+02  0.30965975678E+02  0.12700000000E+01 0. -1.
         25    2    1    2    0    0  0.00000000000E+00  0.00000000000E+00  0.95226476792E+02  0.15713876588E+03  0.12499803943E+03 0.  0.
    9000005    1    3    3    0    0  0.12885336656E+02  0.58385855886E+02  0.70456619372E+02  0.92412527731E+02  0.10000000000E+01 0.  0.
    9000005    1    3    3    0    0 -0.12885336656E+02 -0.58385855886E+02  0.24769857421E+02  0.64726238149E+02  0.10000000000E+01 0.  0.
<mgrwt>
<rscale>  0 0.12499804E+03</rscale>
<asrwt>0</asrwt>
<pdfrwt beam="1">  1        4 0.19412711E-01 0.12499804E+03</pdfrwt>
<pdfrwt beam="2">  1       -4 0.47624837E-02 0.12499804E+03</pdfrwt>
<totfact> 0.97901577E+03</totfact>
</mgrwt>
</event>
<event>
 5    1  0.3241863E-002  0.1249974E+03  0.7818608E-02  0.1235073E+00
         -4   -1    0    0    0  501 -0.00000000000E+00  0.00000000000E+00  0.60031964933E+02  0.60045397107E+02  0.12700000000E+01 0.  1.
          4   -1    0    0  501    0  0.00000000000E+00 -0.00000000000E+00 -0.65039859501E+02  0.65052257638E+02  0.12700000000E+01 0.  1.
         25    2    1    2    0    0  0.00000000000E+00  0.00000000000E+00 -0.50078945671E+01  0.12509765475E+03  0.12499737683E+03 0.  0.
    9000005    1    3    3    0    0  0.61292174604E+02  0.33439836165E+01  0.92175432152E+01  0.62079594047E+02  0.10000000000E+01 0.  0.
    9000005    1    3    3    0    0 -0.61292174604E+02 -0.33439836165E+01 -0.14225437782E+02  0.63018060699E+02  0.10000000000E+01 0.  0.
<mgrwt>
<rscale>  0 0.12499738E+03</rscale>
<asrwt>0</asrwt>
<pdfrwt beam="2">  1        4 0.10008119E-01 0.12499738E+03</pdfrwt>
<pdfrwt beam="1">  1       -4 0.92376739E-02 0.12499738E+03</pdfrwt>
<totfact> 0.10451362E+04</totfact>
</mgrwt>
</event>
<event>
 5    1  0.3241863E-002  0.1250001E+03  0.7818608E-02  0.1235069E+00
         -4   -1    0    0    0  501 -0.00000000000E+00  0.00000000000E+00  0.27425799044E+03  0.27426093090E+03  0.12700000000E+01 0. -1.
          4   -1    0    0  501    0  0.00000000000E+00 -0.00000000000E+00 -0.14211661576E+02  0.14268294388E+02  0.12700000000E+01 0. -1.
         25    2    1    2    0    0  0.00000000000E+00  0.00000000000E+00  0.26004632886E+03  0.28852922529E+03  0.12500008277E+03 0.  0.
    9000005    1    3    3    0    0  0.50221984676E+02  0.31884377839E+02  0.85840325940E+02  0.10444339545E+03  0.10000000000E+01 0.  0.
    9000005    1    3    3    0    0 -0.50221984676E+02 -0.31884377839E+02  0.17420600292E+03  0.18408582984E+03  0.10000000000E+01 0.  0.
<mgrwt>
<rscale>  0 0.12500008E+03</rscale>
<asrwt>0</asrwt>
<pdfrwt beam="2">  1        4 0.21909920E-02 0.12500008E+03</pdfrwt>
<pdfrwt beam="1">  1       -4 0.42198121E-01 0.12500008E+03</pdfrwt>
<totfact> 0.77060471E+03</totfact>
</mgrwt>
</event>
<event>
 5    1  0.3241863E-002  0.1250005E+03  0.7818608E-02  0.1235068E+00
          4   -1    0    0  501    0  0.00000000000E+00  0.00000000000E+00  0.47186513459E+02  0.47203601053E+02  0.12700000000E+01 0.  1.
         -4   -1    0    0    0  501 -0.00000000000E+00 -0.00000000000E+00 -0.82746927022E+02  0.82756672430E+02  0.12700000000E+01 0.  1.
         25    2    1    2    0    0  0.00000000000E+00  0.00000000000E+00 -0.35560413564E+02  0.12996027348E+03  0.12500051868E+03 0.  0.
    9000005    1    3    3    0    0 -0.61385187907E+02 -0.63166707176E+00 -0.29937865722E+02  0.68306779325E+02  0.10000000000E+01 0.  0.
    9000005    1    3    3    0    0  0.61385187907E+02  0.63166707176E+00 -0.56225478419E+01  0.61653494158E+02  0.10000000000E+01 0.  0.
<mgrwt>
<rscale>  0 0.12500052E+03</rscale>
<asrwt>0</asrwt>
<pdfrwt beam="1">  1        4 0.72615277E-02 0.12500052E+03</pdfrwt>
<pdfrwt beam="2">  1       -4 0.12732361E-01 0.12500052E+03</pdfrwt>
<totfact> 0.10345236E+04</totfact>
</mgrwt>
</event>
<event>
 5    1  0.3241863E-002  0.1249914E+03  0.7818608E-02  0.1235083E+00
          4   -1    0    0  501    0  0.00000000000E+00  0.00000000000E+00  0.45007275793E+03  0.45007454975E+03  0.12700000000E+01 0. -1.
         -4   -1    0    0    0  501 -0.00000000000E+00 -0.00000000000E+00 -0.86296687044E+01  0.87226189845E+01  0.12700000000E+01 0. -1.
         25    2    1    2    0    0  0.00000000000E+00  0.00000000000E+00  0.44144308923E+03  0.45879716873E+03  0.12499136375E+03 0.  0.
    9000005    1    3    3    0    0  0.29005005991E+02 -0.39415796622E+02  0.78094274482E+02  0.92166214541E+02  0.10000000000E+01 0.  0.
    9000005    1    3    3    0    0 -0.29005005991E+02  0.39415796622E+02  0.36334881474E+03  0.36663095419E+03  0.10000000000E+01 0.  0.
<mgrwt>
<rscale>  0 0.12499136E+03</rscale>
<asrwt>0</asrwt>
<pdfrwt beam="1">  1        4 0.69249238E-01 0.12499136E+03</pdfrwt>
<pdfrwt beam="2">  1       -4 0.13349294E-02 0.12499136E+03</pdfrwt>
<totfact> 0.59220468E+03</totfact>
</mgrwt>
</event>
<event>
 5    1  0.3241863E-002  0.1249916E+03  0.7818608E-02  0.1235082E+00
          4   -1    0    0  501    0  0.00000000000E+00  0.00000000000E+00  0.37235150398E+01  0.39341408531E+01  0.12700000000E+01 0.  1.
         -4   -1    0    0    0  501 -0.00000000000E+00 -0.00000000000E+00 -0.10198725731E+04  0.10198733638E+04  0.12700000000E+01 0.  1.
         25    2    1    2    0    0  0.00000000000E+00  0.00000000000E+00 -0.10161490580E+04  0.10238075047E+04  0.12499159356E+03 0.  0.
    9000005    1    3    3    0    0  0.20673936240E+02  0.25356219651E+02 -0.71994532375E+02  0.79085790168E+02  0.10000000000E+01 0.  0.
    9000005    1    3    3    0    0 -0.20673936240E+02 -0.25356219651E+02 -0.94415452567E+03  0.94472171451E+03  0.10000000000E+01 0.  0.
<mgrwt>
<rscale>  0 0.12499159E+03</rscale>
<asrwt>0</asrwt>
<pdfrwt beam="1">  1        4 0.58911209E-03 0.12499159E+03</pdfrwt>
<pdfrwt beam="2">  1       -4 0.15691952E+00 0.12499159E+03</pdfrwt>
<totfact> 0.29832405E+03</totfact>
</mgrwt>
</event>
<event>
 5    1  0.3241863E-002  0.1249997E+03  0.7818608E-02  0.1235070E+00
         -4   -1    0    0    0  501 -0.00000000000E+00  0.00000000000E+00  0.61135771258E+02  0.61148960967E+02  0.12700000000E+01 0.  1.
          4   -1    0    0  501    0  0.00000000000E+00 -0.00000000000E+00 -0.63867938103E+02  0.63880563692E+02  0.12700000000E+01 0.  1.
         25    2    1    2    0    0  0.00000000000E+00  0.00000000000E+00 -0.27321668453E+01  0.12502952466E+03  0.12499966920E+03 0.  0.
    9000005    1    3    3    0    0 -0.32606461953E+02  0.29897479345E+02 -0.45514916153E+02  0.63479510275E+02  0.10000000000E+01 0.  0.
    9000005    1    3    3    0    0  0.32606461953E+02 -0.29897479345E+02  0.42782749308E+02  0.61550014384E+02  0.10000000000E+01 0.  0.
<mgrwt>
<rscale>  0 0.12499967E+03</rscale>
<asrwt>0</asrwt>
<pdfrwt beam="2">  1        4 0.98278224E-02 0.12499967E+03</pdfrwt>
<pdfrwt beam="1">  1       -4 0.94074891E-02 0.12499967E+03</pdfrwt>
<totfact> 0.10452299E+04</totfact>
</mgrwt>
</event>
<event>
 5    1  0.3241863E-002  0.1249980E+03  0.7818608E-02  0.1235072E+00
         -4   -1    0    0    0  501 -0.00000000000E+00  0.00000000000E+00  0.24611498677E+02  0.24644244097E+02  0.12700000000E+01 0. -1.
          4   -1    0    0  501    0  0.00000000000E+00 -0.00000000000E+00 -0.15857068395E+03  0.15857576962E+03  0.12700000000E+01 0. -1.
         25    2    1    2    0    0  0.00000000000E+00  0.00000000000E+00 -0.13395918528E+03  0.18322001371E+03  0.12499804041E+03 0.  0.
    9000005    1    3    3    0    0  0.34577639467E+02  0.30436397826E+02 -0.12887557149E+03  0.13686453299E+03  0.10000000000E+01 0.  0.
    9000005    1    3    3    0    0 -0.34577639467E+02 -0.30436397826E+02 -0.50836137830E+01  0.46355480720E+02  0.10000000000E+01 0.  0.
<mgrwt>
<rscale>  0 0.12499804E+03</rscale>
<asrwt>0</asrwt>
<pdfrwt beam="2">  1        4 0.24398399E-01 0.12499804E+03</pdfrwt>
<pdfrwt beam="1">  1       -4 0.37892946E-02 0.12499804E+03</pdfrwt>
<totfact> 0.93044668E+03</totfact>
</mgrwt>
</event>
<event>
 5    1  0.3241863E-002  0.1250020E+03  0.7818608E-02  0.1235066E+00
          4   -1    0    0  501    0  0.00000000000E+00  0.00000000000E+00  0.60943761360E+02  0.60956992616E+02  0.12700000000E+01 0.  1.
         -4   -1    0    0    0  501 -0.00000000000E+00 -0.00000000000E+00 -0.64071551381E+02  0.64084136854E+02  0.12700000000E+01 0.  1.
         25    2    1    2    0    0  0.00000000000E+00  0.00000000000E+00 -0.31277900205E+01  0.12504112947E+03  0.12500200394E+03 0.  0.
    9000005    1    3    3    0    0  0.39374571307E+02  0.33121564766E+02  0.33915224850E+02  0.61633086851E+02  0.10000000000E+01 0.  0.
    9000005    1    3    3    0    0 -0.39374571307E+02 -0.33121564766E+02 -0.37043014870E+02  0.63408042619E+02  0.10000000000E+01 0.  0.
<mgrwt>
<rscale>  0 0.12500200E+03</rscale>
<asrwt>0</asrwt>
<pdfrwt beam="1">  1        4 0.93779491E-02 0.12500200E+03</pdfrwt>
<pdfrwt beam="2">  1       -4 0.98591477E-02 0.12500200E+03</pdfrwt>
<totfact> 0.10451496E+04</totfact>
</mgrwt>
</event>
<event>
 5    1  0.3241863E-002  0.1250029E+03  0.7818608E-02  0.1235065E+00
          4   -1    0    0  501    0  0.00000000000E+00  0.00000000000E+00  0.59034887344E+02  0.59048546330E+02  0.12700000000E+01 0. -1.
         -4   -1    0    0    0  501 -0.00000000000E+00 -0.00000000000E+00 -0.66144195752E+02  0.66156386931E+02  0.12700000000E+01 0. -1.
         25    2    1    2    0    0  0.00000000000E+00  0.00000000000E+00 -0.71093084088E+01  0.12520493326E+03  0.12500293215E+03 0.  0.
    9000005    1    3    3    0    0  0.31415897946E+02 -0.35604655563E+02  0.37140832845E+02  0.60291720873E+02  0.10000000000E+01 0.  0.
    9000005    1    3    3    0    0 -0.31415897946E+02  0.35604655563E+02 -0.44250141253E+02  0.64913212387E+02  0.10000000000E+01 0.  0.
<mgrwt>
<rscale>  0 0.12500293E+03</rscale>
<asrwt>0</asrwt>
<pdfrwt beam="1">  1        4 0.90842788E-02 0.12500293E+03</pdfrwt>
<pdfrwt beam="2">  1       -4 0.10178019E-01 0.12500293E+03</pdfrwt>
<totfact> 0.10447721E+04</totfact>
</mgrwt>
</event>
<event>
 5    1  0.3241863E-002  0.1249981E+03  0.7818608E-02  0.1235072E+00
          4   -1    0    0  501    0  0.00000000000E+00  0.00000000000E+00  0.44997733748E+03  0.44997912968E+03  0.12700000000E+01 0. -1.
         -4   -1    0    0    0  501 -0.00000000000E+00 -0.00000000000E+00 -0.86324567198E+01  0.87253772995E+01  0.12700000000E+01 0. -1.
         25    2    1    2    0    0  0.00000000000E+00  0.00000000000E+00  0.44134488076E+03  0.45870450698E+03  0.12499808378E+03 0.  0.
    9000005    1    3    3    0    0  0.59363369231E+02 -0.17938113514E+02  0.19240277465E+03  0.20215245043E+03  0.10000000000E+01 0.  0.
    9000005    1    3    3    0    0 -0.59363369231E+02  0.17938113514E+02  0.24894210612E+03  0.25655205655E+03  0.10000000000E+01 0.  0.
<mgrwt>
<rscale>  0 0.12499808E+03</rscale>
<asrwt>0</asrwt>
<pdfrwt beam="1">  1        4 0.69234595E-01 0.12499808E+03</pdfrwt>
<pdfrwt beam="2">  1       -4 0.13353553E-02 0.12499808E+03</pdfrwt>
<totfact> 0.59219555E+03</totfact>
</mgrwt>
</event>
<event>
 5    1  0.3241863E-002  0.1250053E+03  0.7818608E-02  0.1235061E+00
          4   -1    0    0  501    0  0.00000000000E+00  0.00000000000E+00  0.56818375599E+02  0.56832567299E+02  0.12700000000E+01 0.  1.
         -4   -1    0    0    0  501 -0.00000000000E+00 -0.00000000000E+00 -0.68726917973E+02  0.68738651093E+02  0.12700000000E+01 0.  1.
         25    2    1    2    0    0  0.00000000000E+00  0.00000000000E+00 -0.11908542374E+02  0.12557121839E+03  0.12500526992E+03 0.  0.
    9000005    1    3    3    0    0  0.18262617273E+02  0.19790206429E+02 -0.62604664020E+02  0.68158047340E+02  0.10000000000E+01 0.  0.
    9000005    1    3    3    0    0 -0.18262617273E+02 -0.19790206429E+02  0.50696121647E+02  0.57413171051E+02  0.10000000000E+01 0.  0.
<mgrwt>
<rscale>  0 0.12500527E+03</rscale>
<asrwt>0</asrwt>
<pdfrwt beam="1">  1        4 0.87432827E-02 0.12500527E+03</pdfrwt>
<pdfrwt beam="2">  1       -4 0.10575366E-01 0.12500527E+03</pdfrwt>
<totfact> 0.10439141E+04</totfact>
</mgrwt>
</event>
<event>
 5    1  0.3241863E-002  0.1249982E+03  0.7818608E-02  0.1235072E+00
         -4   -1    0    0    0  501 -0.00000000000E+00  0.00000000000E+00  0.58492318474E+03  0.58492456347E+03  0.12700000000E+01 0.  1.
          4   -1    0    0  501    0  0.00000000000E+00 -0.00000000000E+00 -0.66162539662E+01  0.67370406370E+01  0.12700000000E+01 0.  1.
         25    2    1    2    0    0  0.00000000000E+00  0.00000000000E+00  0.57830693077E+03  0.59166160410E+03  0.12499819034E+03 0.  0.
    9000005    1    3    3    0    0 -0.25436395463E+01 -0.62439185462E+02  0.28973151738E+03  0.29639580656E+03  0.10000000000E+01 0.  0.
    9000005    1    3    3    0    0  0.25436395463E+01  0.62439185462E+02  0.28857541339E+03  0.29526579754E+03  0.10000000000E+01 0.  0.
<mgrwt>
<rscale>  0 0.12499819E+03</rscale>
<asrwt>0</asrwt>
<pdfrwt beam="2">  1        4 0.10272826E-02 0.12499819E+03</pdfrwt>
<pdfrwt beam="1">  1       -4 0.89997575E-01 0.12499819E+03</pdfrwt>
<totfact> 0.49400182E+03</totfact>
</mgrwt>
</event>
<event>
 5    1  0.3241863E-002  0.1250007E+03  0.7818608E-02  0.1235068E+00
          4   -1    0    0  501    0  0.00000000000E+00  0.00000000000E+00  0.27763872915E+02  0.27792904477E+02  0.12700000000E+01 0.  1.
         -4   -1    0    0    0  501 -0.00000000000E+00 -0.00000000000E+00 -0.14059148186E+03  0.14059721787E+03  0.12700000000E+01 0.  1.
         25    2    1    2    0    0  0.00000000000E+00  0.00000000000E+00 -0.11282760894E+03  0.16839012234E+03  0.12500065585E+03 0.  0.
    9000005    1    3    3    0    0  0.21736797123E+02 -0.52857707772E+01 -0.13501952610E+03  0.13686380146E+03  0.10000000000E+01 0.  0.
    9000005    1    3    3    0    0 -0.21736797123E+02  0.52857707772E+01  0.22191917150E+02  0.31526320887E+02  0.10000000000E+01 0.  0.
<mgrwt>
<rscale>  0 0.12500066E+03</rscale>
<asrwt>0</asrwt>
<pdfrwt beam="1">  1        4 0.42740396E-02 0.12500066E+03</pdfrwt>
<pdfrwt beam="2">  1       -4 0.21632133E-01 0.12500066E+03</pdfrwt>
<totfact> 0.95747771E+03</totfact>
</mgrwt>
</event>
<event>
 5    1  0.3241863E-002  0.1250009E+03  0.7818608E-02  0.1235068E+00
         -4   -1    0    0    0  501 -0.00000000000E+00  0.00000000000E+00  0.31963693331E+02  0.31988913569E+02  0.12700000000E+01 0.  1.
          4   -1    0    0  501    0  0.00000000000E+00 -0.00000000000E+00 -0.12213394327E+03  0.12214054609E+03  0.12700000000E+01 0.  1.
         25    2    1    2    0    0  0.00000000000E+00  0.00000000000E+00 -0.90170249939E+02  0.15412945966E+03  0.12500086544E+03 0.  0.
    9000005    1    3    3    0    0  0.18756873266E+02 -0.13958123789E+02  0.26373607158E+02  0.35259277772E+02  0.10000000000E+01 0.  0.
    9000005    1    3    3    0    0 -0.18756873266E+02  0.13958123789E+02 -0.11654385710E+03  0.11887018189E+03  0.10000000000E+01 0.  0.
<mgrwt>
<rscale>  0 0.12500087E+03</rscale>
<asrwt>0</asrwt>
<pdfrwt beam="2">  1        4 0.18792285E-01 0.12500087E+03</pdfrwt>
<pdfrwt beam="1">  1       -4 0.49199393E-02 0.12500087E+03</pdfrwt>
<totfact> 0.98484751E+03</totfact>
</mgrwt>
</event>
<event>
 5    1  0.3241863E-002  0.1249944E+03  0.7818608E-02  0.1235078E+00
         -4   -1    0    0    0  501 -0.00000000000E+00  0.00000000000E+00  0.93640346456E+02  0.93648958266E+02  0.12700000000E+01 0. -1.
          4   -1    0    0  501    0  0.00000000000E+00 -0.00000000000E+00 -0.41691511212E+02  0.41710849993E+02  0.12700000000E+01 0. -1.
         25    2    1    2    0    0  0.00000000000E+00  0.00000000000E+00  0.51948835243E+02  0.13535980826E+03  0.12499438471E+03 0.  0.
    9000005    1    3    3    0    0  0.76016553077E+00  0.62451060165E+02  0.28190131166E+02  0.68530258008E+02  0.10000000000E+01 0.  0.
    9000005    1    3    3    0    0 -0.76016553077E+00 -0.62451060165E+02  0.23758704077E+02  0.66829550252E+02  0.10000000000E+01 0.  0.
<mgrwt>
<rscale>  0 0.12499438E+03</rscale>
<asrwt>0</asrwt>
<pdfrwt beam="2">  1        4 0.64162287E-02 0.12499438E+03</pdfrwt>
<pdfrwt beam="1">  1       -4 0.14408357E-01 0.12499438E+03</pdfrwt>
<totfact> 0.10231788E+04</totfact>
</mgrwt>
</event>
<event>
 5    1  0.3241863E-002  0.1249993E+03  0.7818608E-02  0.1235070E+00
         -4   -1    0    0    0  501 -0.00000000000E+00  0.00000000000E+00  0.13593788688E+02  0.13652984688E+02  0.12700000000E+01 0. -1.
          4   -1    0    0  501    0  0.00000000000E+00 -0.00000000000E+00 -0.28666741764E+03  0.28667023082E+03  0.12700000000E+01 0. -1.
         25    2    1    2    0    0  0.00000000000E+00  0.00000000000E+00 -0.27307362895E+03  0.30032321551E+03  0.12499930777E+03 0.  0.
    9000005    1    3    3    0    0  0.58905891472E+02 -0.10704031769E+02 -0.93509063666E+02  0.11103794547E+03  0.10000000000E+01 0.  0.
    9000005    1    3    3    0    0 -0.58905891472E+02  0.10704031769E+02 -0.17956456529E+03  0.18928527004E+03  0.10000000000E+01 0.  0.
<mgrwt>
<rscale>  0 0.12499931E+03</rscale>
<asrwt>0</asrwt>
<pdfrwt beam="2">  1        4 0.44107445E-01 0.12499931E+03</pdfrwt>
<pdfrwt beam="1">  1       -4 0.20961223E-02 0.12499931E+03</pdfrwt>
<totfact> 0.75559476E+03</totfact>
</mgrwt>
</event>
<event>
 5    1  0.3241863E-002  0.1250050E+03  0.7818608E-02  0.1235061E+00
         -4   -1    0    0    0  501 -0.00000000000E+00  0.00000000000E+00  0.20730314422E+03  0.20730703438E+03  0.12700000000E+01 0. -1.
          4   -1    0    0  501    0  0.00000000000E+00 -0.00000000000E+00 -0.18819230813E+02  0.18862034577E+02  0.12700000000E+01 0. -1.
         25    2    1    2    0    0  0.00000000000E+00  0.00000000000E+00  0.18848391340E+03  0.22616906895E+03  0.12500504846E+03 0.  0.
    9000005    1    3    3    0    0  0.56135346051E+02  0.26587831080E+02  0.81775548806E+02  0.10269532716E+03  0.10000000000E+01 0.  0.
    9000005    1    3    3    0    0 -0.56135346051E+02 -0.26587831080E+02  0.10670836460E+03  0.12347374179E+03  0.10000000000E+01 0.  0.
<mgrwt>
<rscale>  0 0.12500505E+03</rscale>
<asrwt>0</asrwt>
<pdfrwt beam="2">  1        4 0.28988583E-02 0.12500505E+03</pdfrwt>
<pdfrwt beam="1">  1       -4 0.31896381E-01 0.12500505E+03</pdfrwt>
<totfact> 0.85891655E+03</totfact>
</mgrwt>
</event>
<event>
 5    1  0.3241863E-002  0.1250032E+03  0.7818608E-02  0.1235064E+00
          4   -1    0    0  501    0  0.00000000000E+00  0.00000000000E+00  0.27428641057E+03  0.27428935073E+03  0.12700000000E+01 0.  1.
         -4   -1    0    0    0  501 -0.00000000000E+00 -0.00000000000E+00 -0.14210886888E+02  0.14267522775E+02  0.12700000000E+01 0.  1.
         25    2    1    2    0    0  0.00000000000E+00  0.00000000000E+00  0.26007552369E+03  0.28855687351E+03  0.12500316487E+03 0.  0.
    9000005    1    3    3    0    0 -0.36686451667E+02 -0.15022309999E+02  0.18518499588E+02  0.43766429608E+02  0.10000000000E+01 0.  0.
    9000005    1    3    3    0    0  0.36686451667E+02  0.15022309999E+02  0.24155702410E+03  0.24479044390E+03  0.10000000000E+01 0.  0.
<mgrwt>
<rscale>  0 0.12500316E+03</rscale>
<asrwt>0</asrwt>
<pdfrwt beam="1">  1        4 0.42202494E-01 0.12500316E+03</pdfrwt>
<pdfrwt beam="2">  1       -4 0.21908730E-02 0.12500316E+03</pdfrwt>
<totfact> 0.77051615E+03</totfact>
</mgrwt>
</event>
<event>
 5    1  0.3241863E-002  0.1250042E+03  0.7818608E-02  0.1235063E+00
          4   -1    0    0  501    0  0.00000000000E+00  0.00000000000E+00  0.76662518975E+01  0.77707347243E+01  0.12700000000E+01 0. -1.
         -4   -1    0    0    0  501 -0.00000000000E+00 -0.00000000000E+00 -0.50601882199E+03  0.50602041570E+03  0.12700000000E+01 0. -1.
         25    2    1    2    0    0  0.00000000000E+00  0.00000000000E+00 -0.49835257009E+03  0.51379115043E+03  0.12500424849E+03 0.  0.
    9000005    1    3    3    0    0  0.58469800196E+00 -0.49110502080E+02 -0.40800903974E+03  0.41095566646E+03  0.10000000000E+01 0.  0.
    9000005    1    3    3    0    0 -0.58469800196E+00  0.49110502080E+02 -0.90343530358E+02  0.10283548397E+03  0.10000000000E+01 0.  0.
<mgrwt>
<rscale>  0 0.12500425E+03</rscale>
<asrwt>0</asrwt>
<pdfrwt beam="1">  1        4 0.11875835E-02 0.12500425E+03</pdfrwt>
<pdfrwt beam="2">  1       -4 0.77857183E-01 0.12500425E+03</pdfrwt>
<totfact> 0.54804891E+03</totfact>
</mgrwt>
</event>
<event>
 5    1  0.3241863E-002  0.1250000E+03  0.7818608E-02  0.1235069E+00
         -4   -1    0    0    0  501 -0.00000000000E+00  0.00000000000E+00  0.30038934699E+02  0.30065769537E+02  0.12700000000E+01 0.  1.
          4   -1    0    0  501    0  0.00000000000E+00 -0.00000000000E+00 -0.12995163156E+03  0.12995783719E+03  0.12700000000E+01 0.  1.
         25    2    1    2    0    0  0.00000000000E+00  0.00000000000E+00 -0.99912696864E+02  0.16002360672E+03  0.12500003086E+03 0.  0.
    9000005    1    3    3    0    0 -0.52454492877E+02 -0.47503667200E+01 -0.93013565796E+02  0.10689510386E+03  0.10000000000E+01 0.  0.
    9000005    1    3    3    0    0  0.52454492877E+02  0.47503667200E+01 -0.68991310680E+01  0.53128502863E+02  0.10000000000E+01 0.  0.
<mgrwt>
<rscale>  0 0.12500003E+03</rscale>
<asrwt>0</asrwt>
<pdfrwt beam="2">  1        4 0.19995100E-01 0.12500003E+03</pdfrwt>
<pdfrwt beam="1">  1       -4 0.46239162E-02 0.12500003E+03</pdfrwt>
<totfact> 0.97338167E+03</totfact>
</mgrwt>
</event>
<event>
 5    1  0.3241863E-002  0.1249997E+03  0.7818608E-02  0.1235070E+00
         -4   -1    0    0    0  501 -0.00000000000E+00  0.00000000000E+00  0.30783084555E+02  0.30809271246E+02  0.12700000000E+01 0. -1.
          4   -1    0    0  501    0  0.00000000000E+00 -0.00000000000E+00 -0.12681207846E+03  0.12681843771E+03  0.12700000000E+01 0. -1.
         25    2    1    2    0    0  0.00000000000E+00  0.00000000000E+00 -0.96028993902E+02  0.15762770895E+03  0.12499970784E+03 0.  0.
    9000005    1    3    3    0    0  0.37070274192E+02  0.45779785450E+02 -0.21706556724E+02  0.62786691179E+02  0.10000000000E+01 0.  0.
    9000005    1    3    3    0    0 -0.37070274192E+02 -0.45779785450E+02 -0.74322437178E+02  0.94841017774E+02  0.10000000000E+01 0.  0.
<mgrwt>
<rscale>  0 0.12499971E+03</rscale>
<asrwt>0</asrwt>
<pdfrwt beam="2">  1        4 0.19512054E-01 0.12499971E+03</pdfrwt>
<pdfrwt beam="1">  1       -4 0.47383628E-02 0.12499971E+03</pdfrwt>
<totfact> 0.97802746E+03</totfact>
</mgrwt>
</event>
<event>
 5    1  0.3241863E-002  0.1250036E+03  0.7818608E-02  0.1235064E+00
         -4   -1    0    0    0  501 -0.00000000000E+00  0.00000000000E+00  0.22519160274E+02  0.22554943570E+02  0.12700000000E+01 0.  1.
          4   -1    0    0  501    0  0.00000000000E+00 -0.00000000000E+00 -0.17329756754E+03  0.17330222104E+03  0.12700000000E+01 0.  1.
         25    2    1    2    0    0  0.00000000000E+00  0.00000000000E+00 -0.15077840727E+03  0.19585716461E+03  0.12500360326E+03 0.  0.
    9000005    1    3    3    0    0 -0.24729195862E+02 -0.55849831558E+02 -0.96100682088E+02  0.11387307808E+03  0.10000000000E+01 0.  0.
    9000005    1    3    3    0    0  0.24729195862E+02  0.55849831558E+02 -0.54677725181E+02  0.81984086529E+02  0.10000000000E+01 0.  0.
<mgrwt>
<rscale>  0 0.12500360E+03</rscale>
<asrwt>0</asrwt>
<pdfrwt beam="2">  1        4 0.26664274E-01 0.12500360E+03</pdfrwt>
<pdfrwt beam="1">  1       -4 0.34675968E-02 0.12500360E+03</pdfrwt>
<totfact> 0.90830730E+03</totfact>
</mgrwt>
</event>
<event>
 5    1  0.3241863E-002  0.1249969E+03  0.7818608E-02  0.1235074E+00
          4   -1    0    0  501    0  0.00000000000E+00  0.00000000000E+00  0.13671958014E+03  0.13672547859E+03  0.12700000000E+01 0.  1.
         -4   -1    0    0    0  501 -0.00000000000E+00 -0.00000000000E+00 -0.28549198289E+02  0.28577432057E+02  0.12700000000E+01 0.  1.
         25    2    1    2    0    0  0.00000000000E+00  0.00000000000E+00  0.10817038185E+03  0.16530291064E+03  0.12499688299E+03 0.  0.
    9000005    1    3    3    0    0  0.30329143798E+02  0.54192015531E+02  0.44882598139E+02  0.76629492538E+02  0.10000000000E+01 0.  0.
    9000005    1    3    3    0    0 -0.30329143798E+02 -0.54192015531E+02  0.63287783716E+02  0.88673418105E+02  0.10000000000E+01 0.  0.
<mgrwt>
<rscale>  0 0.12499688E+03</rscale>
<asrwt>0</asrwt>
<pdfrwt beam="1">  1        4 0.21036407E-01 0.12499688E+03</pdfrwt>
<pdfrwt beam="2">  1       -4 0.43948099E-02 0.12499688E+03</pdfrwt>
<totfact> 0.96336802E+03</totfact>
</mgrwt>
</event>
<event>
 5    1  0.3241863E-002  0.1250003E+03  0.7818608E-02  0.1235069E+00
          4   -1    0    0  501    0  0.00000000000E+00  0.00000000000E+00  0.28819841296E+03  0.28820121120E+03  0.12700000000E+01 0. -1.
         -4   -1    0    0    0  501 -0.00000000000E+00 -0.00000000000E+00 -0.13521473430E+02  0.13580984638E+02  0.12700000000E+01 0. -1.
         25    2    1    2    0    0  0.00000000000E+00  0.00000000000E+00  0.27467693953E+03  0.30178219583E+03  0.12500029044E+03 0.  0.
    9000005    1    3    3    0    0 -0.55772257060E+02  0.33626366154E+01  0.69764589522E+02  0.89386519866E+02  0.10000000000E+01 0.  0.
    9000005    1    3    3    0    0  0.55772257060E+02 -0.33626366154E+01  0.20491235001E+03  0.21239567597E+03  0.10000000000E+01 0.  0.
<mgrwt>
<rscale>  0 0.12500029E+03</rscale>
<asrwt>0</asrwt>
<pdfrwt beam="1">  1        4 0.44343006E-01 0.12500029E+03</pdfrwt>
<pdfrwt beam="2">  1       -4 0.20850199E-02 0.12500029E+03</pdfrwt>
<totfact> 0.75375341E+03</totfact>
</mgrwt>
</event>
<event>
 5    1  0.3241863E-002  0.1250048E+03  0.7818608E-02  0.1235062E+00
         -4   -1    0    0    0  501 -0.00000000000E+00  0.00000000000E+00  0.19563874247E+02  0.19605052296E+02  0.12700000000E+01 0. -1.
          4   -1    0    0  501    0  0.00000000000E+00 -0.00000000000E+00 -0.19942874123E+03  0.19943278499E+03  0.12700000000E+01 0. -1.
         25    2    1    2    0    0  0.00000000000E+00  0.00000000000E+00 -0.17986486698E+03  0.21903783728E+03  0.12500481506E+03 0.  0.
    9000005    1    3    3    0    0 -0.38042635353E+02 -0.49581278189E+02 -0.89800195574E+02  0.10941033030E+03  0.10000000000E+01 0.  0.
    9000005    1    3    3    0    0  0.38042635353E+02  0.49581278189E+02 -0.90064671407E+02  0.10962750698E+03  0.10000000000E+01 0.  0.
<mgrwt>
<rscale>  0 0.12500482E+03</rscale>
<asrwt>0</asrwt>
<pdfrwt beam="2">  1        4 0.30684822E-01 0.12500482E+03</pdfrwt>
<pdfrwt beam="1">  1       -4 0.30133055E-02 0.12500482E+03</pdfrwt>
<totfact> 0.87011470E+03</totfact>
</mgrwt>
</event>
<event>
 5    1  0.3241863E-002  0.1250000E+03  0.7818608E-02  0.1235069E+00
         -4   -1    0    0    0  501 -0.00000000000E+00  0.00000000000E+00  0.10385746260E+03  0.10386522728E+03  0.12700000000E+01 0.  1.
          4   -1    0    0  501    0  0.00000000000E+00 -0.00000000000E+00 -0.37591733016E+02  0.37613179754E+02  0.12700000000E+01 0.  1.
         25    2    1    2    0    0  0.00000000000E+00  0.00000000000E+00  0.66265729580E+02  0.14147840703E+03  0.12499997095E+03 0.  0.
    9000005    1    3    3    0    0  0.34103065816E+02 -0.12070714852E+02 -0.24540682585E+02  0.43726037516E+02  0.10000000000E+01 0.  0.
    9000005    1    3    3    0    0 -0.34103065816E+02  0.12070714852E+02  0.90806412165E+02  0.97752369513E+02  0.10000000000E+01 0.  0.
<mgrwt>
<rscale>  0 0.12499997E+03</rscale>
<asrwt>0</asrwt>
<pdfrwt beam="2">  1        4 0.57855906E-02 0.12499997E+03</pdfrwt>
<pdfrwt beam="1">  1       -4 0.15980318E-01 0.12499997E+03</pdfrwt>
<totfact> 0.10103043E+04</totfact>
</mgrwt>
</event>
<event>
 5    1  0.3241863E-002  0.1249985E+03  0.7818608E-02  0.1235072E+00
         -4   -1    0    0    0  501 -0.00000000000E+00  0.00000000000E+00  0.15531786573E+02  0.15583622626E+02  0.12700000000E+01 0. -1.
          4   -1    0    0  501    0  0.00000000000E+00 -0.00000000000E+00 -0.25102196884E+03  0.25102518149E+03  0.12700000000E+01 0. -1.
         25    2    1    2    0    0  0.00000000000E+00  0.00000000000E+00 -0.23549018227E+03  0.26660880411E+03  0.12499851394E+03 0.  0.
    9000005    1    3    3    0    0  0.13433520538E+02  0.12192532943E+02 -0.24529225559E+03  0.24596424127E+03  0.10000000000E+01 0.  0.
    9000005    1    3    3    0    0 -0.13433520538E+02 -0.12192532943E+02  0.98020733187E+01  0.20644562842E+02  0.10000000000E+01 0.  0.
<mgrwt>
<rscale>  0 0.12499851E+03</rscale>
<asrwt>0</asrwt>
<pdfrwt beam="2">  1        4 0.38622996E-01 0.12499851E+03</pdfrwt>
<pdfrwt beam="1">  1       -4 0.23937403E-02 0.12499851E+03</pdfrwt>
<totfact> 0.79990109E+03</totfact>
</mgrwt>
</event>
<event>
 5    1  0.3241863E-002  0.1250015E+03  0.7818608E-02  0.1235067E+00
          4   -1    0    0  501    0  0.00000000000E+00  0.00000000000E+00  0.24543890912E+03  0.24544219484E+03  0.12700000000E+01 0.  1.
         -4   -1    0    0    0  501 -0.00000000000E+00 -0.00000000000E+00 -0.15887013538E+02  0.15937694286E+02  0.12700000000E+01 0.  1.
         25    2    1    2    0    0  0.00000000000E+00  0.00000000000E+00  0.22955189558E+03  0.26137988913E+03  0.12500149469E+03 0.  0.
    9000005    1    3    3    0    0  0.64709389206E+01  0.26170979223E+01 -0.15079583545E+02  0.16646804256E+02  0.10000000000E+01 0.  0.
    9000005    1    3    3    0    0 -0.64709389206E+01 -0.26170979223E+01  0.24463147913E+03  0.24473308487E+03  0.10000000000E+01 0.  0.
<mgrwt>
<rscale>  0 0.12500149E+03</rscale>
<asrwt>0</asrwt>
<pdfrwt beam="1">  1        4 0.37763984E-01 0.12500149E+03</pdfrwt>
<pdfrwt beam="2">  1       -4 0.24483072E-02 0.12500149E+03</pdfrwt>
<totfact> 0.80710115E+03</totfact>
</mgrwt>
</event>
<event>
 5    1  0.3241863E-002  0.1249964E+03  0.7818608E-02  0.1235075E+00
         -4   -1    0    0    0  501 -0.00000000000E+00  0.00000000000E+00  0.15861351533E+03  0.15861859962E+03  0.12700000000E+01 0. -1.
          4   -1    0    0  501    0  0.00000000000E+00 -0.00000000000E+00 -0.24604201353E+02  0.24636956473E+02  0.12700000000E+01 0. -1.
         25    2    1    2    0    0  0.00000000000E+00  0.00000000000E+00  0.13400931398E+03  0.18325555610E+03  0.12499641037E+03 0.  0.
    9000005    1    3    3    0    0 -0.19361529171E+02  0.31928763935E+02 -0.64565333680E+01  0.37907803965E+02  0.10000000000E+01 0.  0.
    9000005    1    3    3    0    0  0.19361529171E+02 -0.31928763935E+02  0.14046584735E+03  0.14534775213E+03  0.10000000000E+01 0.  0.
<mgrwt>
<rscale>  0 0.12499641E+03</rscale>
<asrwt>0</asrwt>
<pdfrwt beam="2">  1        4 0.37881724E-02 0.12499641E+03</pdfrwt>
<pdfrwt beam="1">  1       -4 0.24404990E-01 0.12499641E+03</pdfrwt>
<totfact> 0.93041739E+03</totfact>
</mgrwt>
</event>
<event>
 5    1  0.3241863E-002  0.1250048E+03  0.7818608E-02  0.1235062E+00
         -4   -1    0    0    0  501 -0.00000000000E+00  0.00000000000E+00  0.20142710316E+03  0.20143110680E+03  0.12700000000E+01 0. -1.
          4   -1    0    0  501    0  0.00000000000E+00 -0.00000000000E+00 -0.19369355738E+02  0.19410946440E+02  0.12700000000E+01 0. -1.
         25    2    1    2    0    0  0.00000000000E+00  0.00000000000E+00  0.18205774742E+03  0.22084205324E+03  0.12500475624E+03 0.  0.
    9000005    1    3    3    0    0 -0.50562469938E+02 -0.20279105493E+02  0.36928922578E+02  0.65822114890E+02  0.10000000000E+01 0.  0.
    9000005    1    3    3    0    0  0.50562469938E+02  0.20279105493E+02  0.14512882484E+03  0.15501993835E+03  0.10000000000E+01 0.  0.
<mgrwt>
<rscale>  0 0.12500476E+03</rscale>
<asrwt>0</asrwt>
<pdfrwt beam="2">  1        4 0.29834082E-02 0.12500476E+03</pdfrwt>
<pdfrwt beam="1">  1       -4 0.30992291E-01 0.12500476E+03</pdfrwt>
<totfact> 0.86726068E+03</totfact>
</mgrwt>
</event>
<event>
 5    1  0.3241863E-002  0.1250005E+03  0.7818608E-02  0.1235069E+00
          4   -1    0    0  501    0  0.00000000000E+00  0.00000000000E+00  0.10754299304E+02  0.10829028282E+02  0.12700000000E+01 0. -1.
         -4   -1    0    0    0  501 -0.00000000000E+00 -0.00000000000E+00 -0.36189618596E+03  0.36189841436E+03  0.12700000000E+01 0. -1.
         25    2    1    2    0    0  0.00000000000E+00  0.00000000000E+00 -0.35114188666E+03  0.37272744264E+03  0.12500048772E+03 0.  0.
    9000005    1    3    3    0    0 -0.41216194066E+00  0.53902676423E+02 -0.26984569776E+03  0.27517879461E+03  0.10000000000E+01 0.  0.
    9000005    1    3    3    0    0  0.41216194066E+00 -0.53902676423E+02 -0.81296188902E+02  0.97548648033E+02  0.10000000000E+01 0.  0.
<mgrwt>
<rscale>  0 0.12500049E+03</rscale>
<asrwt>0</asrwt>
<pdfrwt beam="1">  1        4 0.16604277E-02 0.12500049E+03</pdfrwt>
<pdfrwt beam="2">  1       -4 0.55682247E-01 0.12500049E+03</pdfrwt>
<totfact> 0.67293836E+03</totfact>
</mgrwt>
</event>
<event>
 5    1  0.3241863E-002  0.1249980E+03  0.7818608E-02  0.1235072E+00
          4   -1    0    0  501    0  0.00000000000E+00  0.00000000000E+00  0.10329552271E+02  0.10407331556E+02  0.12700000000E+01 0. -1.
         -4   -1    0    0    0  501 -0.00000000000E+00 -0.00000000000E+00 -0.37665306669E+03  0.37665520778E+03  0.12700000000E+01 0. -1.
         25    2    1    2    0    0  0.00000000000E+00  0.00000000000E+00 -0.36632351442E+03  0.38706253933E+03  0.12499796854E+03 0.  0.
    9000005    1    3    3    0    0 -0.17781431189E+02 -0.53561582307E+02 -0.26625673674E+03  0.27217397424E+03  0.10000000000E+01 0.  0.
    9000005    1    3    3    0    0  0.17781431189E+02  0.53561582307E+02 -0.10006677768E+03  0.11488856509E+03  0.10000000000E+01 0.  0.
<mgrwt>
<rscale>  0 0.12499797E+03</rscale>
<asrwt>0</asrwt>
<pdfrwt beam="1">  1        4 0.15953099E-02 0.12499797E+03</pdfrwt>
<pdfrwt beam="2">  1       -4 0.57952763E-01 0.12499797E+03</pdfrwt>
<totfact> 0.65833785E+03</totfact>
</mgrwt>
</event>
<event>
 5    1  0.3241863E-002  0.1249997E+03  0.7818608E-02  0.1235070E+00
          4   -1    0    0  501    0  0.00000000000E+00  0.00000000000E+00  0.10014313325E+02  0.10094521850E+02  0.12700000000E+01 0.  1.
         -4   -1    0    0    0  501 -0.00000000000E+00 -0.00000000000E+00 -0.38842743135E+03  0.38842950754E+03  0.12700000000E+01 0.  1.
         25    2    1    2    0    0  0.00000000000E+00  0.00000000000E+00 -0.37841311803E+03  0.39852402939E+03  0.12499965642E+03 0.  0.
    9000005    1    3    3    0    0  0.29179716702E+02  0.26668447507E+02 -0.34351570363E+03  0.34578418211E+03  0.10000000000E+01 0.  0.
    9000005    1    3    3    0    0 -0.29179716702E+02 -0.26668447507E+02 -0.34897414404E+02  0.52739847282E+02  0.10000000000E+01 0.  0.
<mgrwt>
<rscale>  0 0.12499966E+03</rscale>
<asrwt>0</asrwt>
<pdfrwt beam="1">  1        4 0.15469935E-02 0.12499966E+03</pdfrwt>
<pdfrwt beam="2">  1       -4 0.59764384E-01 0.12499966E+03</pdfrwt>
<totfact> 0.64697090E+03</totfact>
</mgrwt>
</event>
<event>
 5    1  0.3241863E-002  0.1249949E+03  0.7818608E-02  0.1235077E+00
         -4   -1    0    0    0  501 -0.00000000000E+00  0.00000000000E+00  0.36735080990E+03  0.36735300521E+03  0.12700000000E+01 0.  1.
          4   -1    0    0  501    0  0.00000000000E+00 -0.00000000000E+00 -0.10592549624E+02  0.10668411669E+02  0.12700000000E+01 0.  1.
         25    2    1    2    0    0  0.00000000000E+00  0.00000000000E+00  0.35675826028E+03  0.37802141688E+03  0.12499494126E+03 0.  0.
    9000005    1    3    3    0    0 -0.19843055911E+02  0.34981243270E+00 -0.82308707413E+00  0.19888356115E+02  0.10000000000E+01 0.  0.
    9000005    1    3    3    0    0  0.19843055911E+02 -0.34981243270E+00  0.35758134735E+03  0.35813306076E+03  0.10000000000E+01 0.  0.
<mgrwt>
<rscale>  0 0.12499494E+03</rscale>
<asrwt>0</asrwt>
<pdfrwt beam="2">  1        4 0.16356274E-02 0.12499494E+03</pdfrwt>
<pdfrwt beam="1">  1       -4 0.56521516E-01 0.12499494E+03</pdfrwt>
<totfact> 0.66755472E+03</totfact>
</mgrwt>
</event>
<event>
 5    1  0.3241863E-002  0.1249991E+03  0.7818608E-02  0.1235071E+00
          4   -1    0    0  501    0  0.00000000000E+00  0.00000000000E+00  0.72396013107E+02  0.72407151675E+02  0.12700000000E+01 0.  1.
         -4   -1    0    0    0  501 -0.00000000000E+00 -0.00000000000E+00 -0.53933176159E+02  0.53948126849E+02  0.12700000000E+01 0.  1.
         25    2    1    2    0    0  0.00000000000E+00  0.00000000000E+00  0.18462836948E+02  0.12635527852E+03  0.12499912025E+03 0.  0.
    9000005    1    3    3    0    0 -0.35696192249E+01 -0.32385761947E+02 -0.44672687923E+02  0.55301255000E+02  0.10000000000E+01 0.  0.
    9000005    1    3    3    0    0  0.35696192249E+01  0.32385761947E+02  0.63135524871E+02  0.71054023525E+02  0.10000000000E+01 0.  0.
<mgrwt>
<rscale>  0 0.12499912E+03</rscale>
<asrwt>0</asrwt>
<pdfrwt beam="1">  1        4 0.11139855E-01 0.12499912E+03</pdfrwt>
<pdfrwt beam="2">  1       -4 0.82994186E-02 0.12499912E+03</pdfrwt>
<totfact> 0.10423393E+04</totfact>
</mgrwt>
</event>
<event>
 5    1  0.3241863E-002  0.1250003E+03  0.7818608E-02  0.1235069E+00
         -4   -1    0    0    0  501 -0.00000000000E+00  0.00000000000E+00  0.33563399389E+01  0.35885815841E+01  0.12700000000E+01 0. -1.
          4   -1    0    0  501    0  0.00000000000E+00 -0.00000000000E+00 -0.11246953800E+04  0.11246960970E+04  0.12700000000E+01 0. -1.
         25    2    1    2    0    0  0.00000000000E+00  0.00000000000E+00 -0.11213390401E+04  0.11282846786E+04  0.12500029300E+03 0.  0.
    9000005    1    3    3    0    0 -0.44956031316E+02  0.42646477718E+02 -0.63372171649E+03  0.63674483176E+03  0.10000000000E+01 0.  0.
    9000005    1    3    3    0    0  0.44956031316E+02 -0.42646477718E+02 -0.48761732356E+03  0.49153984686E+03  0.10000000000E+01 0.  0.
<mgrwt>
<rscale>  0 0.12500029E+03</rscale>
<asrwt>0</asrwt>
<pdfrwt beam="2">  1        4 0.17304769E+00 0.12500029E+03</pdfrwt>
<pdfrwt beam="1">  1       -4 0.53428079E-03 0.12500029E+03</pdfrwt>
<totfact> 0.26669849E+03</totfact>
</mgrwt>
</event>
<event>
 5    1  0.3241863E-002  0.1249999E+03  0.7818608E-02  0.1235069E+00
         -4   -1    0    0    0  501 -0.00000000000E+00  0.00000000000E+00  0.10680378182E+03  0.10681133231E+03  0.12700000000E+01 0. -1.
          4   -1    0    0  501    0  0.00000000000E+00 -0.00000000000E+00 -0.36554155900E+02  0.36576211034E+02  0.12700000000E+01 0. -1.
         25    2    1    2    0    0  0.00000000000E+00  0.00000000000E+00  0.70249625919E+02  0.14338754335E+03  0.12499991058E+03 0.  0.
    9000005    1    3    3    0    0  0.12205545920E+02 -0.41507379745E+02 -0.16601774057E+02  0.46351449021E+02  0.10000000000E+01 0.  0.
    9000005    1    3    3    0    0 -0.12205545920E+02  0.41507379745E+02  0.86851399976E+02  0.97036094327E+02  0.10000000000E+01 0.  0.
<mgrwt>
<rscale>  0 0.12499991E+03</rscale>
<asrwt>0</asrwt>
<pdfrwt beam="2">  1        4 0.56259938E-02 0.12499991E+03</pdfrwt>
<pdfrwt beam="1">  1       -4 0.16433628E-01 0.12499991E+03</pdfrwt>
<totfact> 0.10063874E+04</totfact>
</mgrwt>
</event>
<event>
 5    1  0.3241863E-002  0.1250024E+03  0.7818608E-02  0.1235065E+00
         -4   -1    0    0    0  501 -0.00000000000E+00  0.00000000000E+00  0.15359994277E+02  0.15412408124E+02  0.12700000000E+01 0. -1.
          4   -1    0    0  501    0  0.00000000000E+00 -0.00000000000E+00 -0.25383598031E+03  0.25383915735E+03  0.12700000000E+01 0. -1.
         25    2    1    2    0    0  0.00000000000E+00  0.00000000000E+00 -0.23847598604E+03  0.26925156547E+03  0.12500243834E+03 0.  0.
    9000005    1    3    3    0    0  0.21146981632E+01  0.44522416746E+02 -0.21358792173E+03  0.21819147062E+03  0.10000000000E+01 0.  0.
    9000005    1    3    3    0    0 -0.21146981632E+01 -0.44522416746E+02 -0.24888064305E+02  0.51060094850E+02  0.10000000000E+01 0.  0.
<mgrwt>
<rscale>  0 0.12500244E+03</rscale>
<asrwt>0</asrwt>
<pdfrwt beam="2">  1        4 0.39055962E-01 0.12500244E+03</pdfrwt>
<pdfrwt beam="1">  1       -4 0.23673524E-02 0.12500244E+03</pdfrwt>
<totfact> 0.79620696E+03</totfact>
</mgrwt>
</event>
<event>
 5    1  0.3241863E-002  0.1249982E+03  0.7818608E-02  0.1235072E+00
          4   -1    0    0  501    0  0.00000000000E+00  0.00000000000E+00  0.10197605466E+03  0.10198396258E+03  0.12700000000E+01 0.  1.
         -4   -1    0    0    0  501 -0.00000000000E+00 -0.00000000000E+00 -0.38284513040E+02  0.38305571901E+02  0.12700000000E+01 0.  1.
         25    2    1    2    0    0  0.00000000000E+00  0.00000000000E+00  0.63691541622E+02  0.14028953449E+03  0.12499816403E+03 0.  0.
    9000005    1    3    3    0    0  0.31369904889E+02 -0.48113245597E+02  0.42131286874E+01  0.57599529407E+02  0.10000000000E+01 0.  0.
    9000005    1    3    3    0    0 -0.31369904889E+02  0.48113245597E+02  0.59478412934E+02  0.82690005078E+02  0.10000000000E+01 0.  0.
<mgrwt>
<rscale>  0 0.12499816E+03</rscale>
<asrwt>0</asrwt>
<pdfrwt beam="1">  1        4 0.15690852E-01 0.12499816E+03</pdfrwt>
<pdfrwt beam="2">  1       -4 0.58921533E-02 0.12499816E+03</pdfrwt>
<totfact> 0.10128007E+04</totfact>
</mgrwt>
</event>
<event>
 5    1  0.3241863E-002  0.1249977E+03  0.7818608E-02  0.1235073E+00
         -4   -1    0    0    0  501 -0.00000000000E+00  0.00000000000E+00  0.25396999346E+02  0.25428733271E+02  0.12700000000E+01 0. -1.
          4   -1    0    0  501    0  0.00000000000E+00 -0.00000000000E+00 -0.15367147598E+03  0.15367672378E+03  0.12700000000E+01 0. -1.
         25    2    1    2    0    0  0.00000000000E+00  0.00000000000E+00 -0.12827447664E+03  0.17910545705E+03  0.12499769353E+03 0.  0.
    9000005    1    3    3    0    0 -0.43138030555E+02 -0.26355422745E+02 -0.11497876174E+02  0.51852667673E+02  0.10000000000E+01 0.  0.
    9000005    1    3    3    0    0  0.43138030555E+02  0.26355422745E+02 -0.11677660046E+03  0.12725278938E+03  0.10000000000E+01 0.  0.
<mgrwt>
<rscale>  0 0.12499769E+03</rscale>
<asrwt>0</asrwt>
<pdfrwt beam="2">  1        4 0.23644610E-01 0.12499769E+03</pdfrwt>
<pdfrwt beam="1">  1       -4 0.39100755E-02 0.12499769E+03</pdfrwt>
<totfact> 0.93783123E+03</totfact>
</mgrwt>
</event>
<event>
 5    1  0.3241863E-002  0.1249970E+03  0.7818608E-02  0.1235074E+00
         -4   -1    0    0    0  501 -0.00000000000E+00  0.00000000000E+00  0.87650102377E+02  0.87659302682E+02  0.12700000000E+01 0.  1.
          4   -1    0    0  501    0  0.00000000000E+00 -0.00000000000E+00 -0.44543705829E+02  0.44561806842E+02  0.12700000000E+01 0.  1.
         25    2    1    2    0    0  0.00000000000E+00  0.00000000000E+00  0.43106396547E+02  0.13222110952E+03  0.12499704149E+03 0.  0.
    9000005    1    3    3    0    0  0.35401964586E+02 -0.44169103467E+02 -0.64505105463E+01  0.56980855416E+02  0.10000000000E+01 0.  0.
    9000005    1    3    3    0    0 -0.35401964586E+02  0.44169103467E+02  0.49556907093E+02  0.75240254108E+02  0.10000000000E+01 0.  0.
<mgrwt>
<rscale>  0 0.12499704E+03</rscale>
<asrwt>0</asrwt>
<pdfrwt beam="2">  1        4 0.68549780E-02 0.12499704E+03</pdfrwt>
<pdfrwt beam="1">  1       -4 0.13486731E-01 0.12499704E+03</pdfrwt>
<totfact> 0.10297668E+04</totfact>
</mgrwt>
</event>
<event>
 5    1  0.3241863E-002  0.1249996E+03  0.7818608E-02  0.1235070E+00
         -4   -1    0    0    0  501 -0.00000000000E+00  0.00000000000E+00  0.11155054671E+04  0.11155061900E+04  0.12700000000E+01 0.  1.
          4   -1    0    0  501    0  0.00000000000E+00 -0.00000000000E+00 -0.33858565951E+01  0.36162031030E+01  0.12700000000E+01 0.  1.
         25    2    1    2    0    0  0.00000000000E+00  0.00000000000E+00  0.11121196105E+04  0.11191223931E+04  0.12499961110E+03 0.  0.
    9000005    1    3    3    0    0 -0.54367971282E+01  0.61847664344E+02  0.61970387645E+03  0.62280702214E+03  0.10000000000E+01 0.  0.
    9000005    1    3    3    0    0  0.54367971282E+01 -0.61847664344E+02  0.49241573401E+03  0.49631537096E+03  0.10000000000E+01 0.  0.
<mgrwt>
<rscale>  0 0.12499961E+03</rscale>
<asrwt>0</asrwt>
<pdfrwt beam="2">  1        4 0.53867678E-03 0.12499961E+03</pdfrwt>
<pdfrwt beam="1">  1       -4 0.17163362E+00 0.12499961E+03</pdfrwt>
<totfact> 0.26930670E+03</totfact>
</mgrwt>
</event>
<event>
 5    1  0.3241863E-002  0.1250020E+03  0.7818608E-02  0.1235066E+00
         -4   -1    0    0    0  501 -0.00000000000E+00  0.00000000000E+00  0.23925974887E+01  0.27087677536E+01  0.12700000000E+01 0.  1.
          4   -1    0    0  501    0  0.00000000000E+00 -0.00000000000E+00 -0.15311854881E+04  0.15311860148E+04  0.12700000000E+01 0.  1.
         25    2    1    2    0    0  0.00000000000E+00  0.00000000000E+00 -0.15287928906E+04  0.15338947825E+04  0.12500200603E+03 0.  0.
    9000005    1    3    3    0    0 -0.48258964379E+02 -0.26598361407E+02 -0.40266838046E+03  0.40642247120E+03  0.10000000000E+01 0.  0.
    9000005    1    3    3    0    0  0.48258964379E+02  0.26598361407E+02 -0.11261245101E+04  0.11274723113E+04  0.10000000000E+01 0.  0.
<mgrwt>
<rscale>  0 0.12500201E+03</rscale>
<asrwt>0</asrwt>
<pdfrwt beam="2">  1        4 0.23559063E+00 0.12500201E+03</pdfrwt>
<pdfrwt beam="1">  1       -4 0.39245445E-03 0.12500201E+03</pdfrwt>
<totfact> 0.17272994E+03</totfact>
</mgrwt>
</event>
<event>
 5    1  0.3241863E-002  0.1249995E+03  0.7818608E-02  0.1235070E+00
          4   -1    0    0  501    0  0.00000000000E+00  0.00000000000E+00  0.20473093619E+03  0.20473487523E+03  0.12700000000E+01 0. -1.
         -4   -1    0    0    0  501 -0.00000000000E+00 -0.00000000000E+00 -0.19054512068E+02  0.19096788477E+02  0.12700000000E+01 0. -1.
         25    2    1    2    0    0  0.00000000000E+00  0.00000000000E+00  0.18567642412E+03  0.22383166370E+03  0.12499951680E+03 0.  0.
    9000005    1    3    3    0    0 -0.50262608367E+02 -0.32905309177E+02  0.62023731401E+02  0.86354110665E+02  0.10000000000E+01 0.  0.
    9000005    1    3    3    0    0  0.50262608367E+02  0.32905309177E+02  0.12365269272E+03  0.13747755304E+03  0.10000000000E+01 0.  0.
<mgrwt>
<rscale>  0 0.12499952E+03</rscale>
<asrwt>0</asrwt>
<pdfrwt beam="1">  1        4 0.31500623E-01 0.12499952E+03</pdfrwt>
<pdfrwt beam="2">  1       -4 0.29350184E-02 0.12499952E+03</pdfrwt>
<totfact> 0.86266576E+03</totfact>
</mgrwt>
</event>
<event>
 5    1  0.3241863E-002  0.1250100E+03  0.7818608E-02  0.1235054E+00
         -4   -1    0    0    0  501 -0.00000000000E+00  0.00000000000E+00  0.27368383282E+02  0.27397833919E+02  0.12700000000E+01 0. -1.
          4   -1    0    0  501    0  0.00000000000E+00 -0.00000000000E+00 -0.14264224428E+03  0.14264789782E+03  0.12700000000E+01 0. -1.
         25    2    1    2    0    0  0.00000000000E+00  0.00000000000E+00 -0.11527386100E+03  0.17004573174E+03  0.12500995102E+03 0.  0.
    9000005    1    3    3    0    0 -0.48083450441E+02  0.27029900965E+02 -0.17671317526E+02  0.57930209870E+02  0.10000000000E+01 0.  0.
    9000005    1    3    3    0    0  0.48083450441E+02 -0.27029900965E+02 -0.97602543470E+02  0.11211552187E+03  0.10000000000E+01 0.  0.
<mgrwt>
<rscale>  0 0.12500995E+03</rscale>
<asrwt>0</asrwt>
<pdfrwt beam="2">  1        4 0.21947661E-01 0.12500995E+03</pdfrwt>
<pdfrwt beam="1">  1       -4 0.42132209E-02 0.12500995E+03</pdfrwt>
<totfact> 0.95418800E+03</totfact>
</mgrwt>
</event>
<event>
 5    1  0.3241863E-002  0.1250019E+03  0.7818608E-02  0.1235066E+00
         -4   -1    0    0    0  501 -0.00000000000E+00  0.00000000000E+00  0.15487003653E+02  0.15538989096E+02  0.12700000000E+01 0. -1.
          4   -1    0    0  501    0  0.00000000000E+00 -0.00000000000E+00 -0.25175895938E+03  0.25176216262E+03  0.12700000000E+01 0. -1.
         25    2    1    2    0    0  0.00000000000E+00  0.00000000000E+00 -0.23627195573E+03  0.26730115172E+03  0.12500187457E+03 0.  0.
    9000005    1    3    3    0    0  0.36521663947E+02 -0.24020569972E+02 -0.21363666350E+03  0.21806522811E+03  0.10000000000E+01 0.  0.
    9000005    1    3    3    0    0 -0.36521663947E+02  0.24020569972E+02 -0.22635292225E+02  0.49235923606E+02  0.10000000000E+01 0.  0.
<mgrwt>
<rscale>  0 0.12500187E+03</rscale>
<asrwt>0</asrwt>
<pdfrwt beam="2">  1        4 0.38736390E-01 0.12500187E+03</pdfrwt>
<pdfrwt beam="1">  1       -4 0.23868614E-02 0.12500187E+03</pdfrwt>
<totfact> 0.79888912E+03</totfact>
</mgrwt>
</event>
<event>
 5    1  0.3241863E-002  0.1250027E+03  0.7818608E-02  0.1235065E+00
         -4   -1    0    0    0  501 -0.00000000000E+00  0.00000000000E+00  0.15883066587E+02  0.15933759889E+02  0.12700000000E+01 0. -1.
          4   -1    0    0  501    0  0.00000000000E+00 -0.00000000000E+00 -0.24550437288E+03  0.24550765773E+03  0.12700000000E+01 0. -1.
         25    2    1    2    0    0  0.00000000000E+00  0.00000000000E+00 -0.22962130630E+03  0.26144141762E+03  0.12500268214E+03 0.  0.
    9000005    1    3    3    0    0 -0.34660160231E+02  0.25352234281E+02 -0.20976863347E+03  0.21412132560E+03  0.10000000000E+01 0.  0.
    9000005    1    3    3    0    0  0.34660160231E+02 -0.25352234281E+02 -0.19852672828E+02  0.47320092019E+02  0.10000000000E+01 0.  0.
<mgrwt>
<rscale>  0 0.12500268E+03</rscale>
<asrwt>0</asrwt>
<pdfrwt beam="2">  1        4 0.37774053E-01 0.12500268E+03</pdfrwt>
<pdfrwt beam="1">  1       -4 0.24477011E-02 0.12500268E+03</pdfrwt>
<totfact> 0.80699387E+03</totfact>
</mgrwt>
</event>
<event>
 5    1  0.3241863E-002  0.1250067E+03  0.7818608E-02  0.1235059E+00
         -4   -1    0    0    0  501 -0.00000000000E+00  0.00000000000E+00  0.45912067653E+02  0.45929629393E+02  0.12700000000E+01 0. -1.
          4   -1    0    0  501    0  0.00000000000E+00 -0.00000000000E+00 -0.85051621804E+02  0.85061103164E+02  0.12700000000E+01 0. -1.
         25    2    1    2    0    0  0.00000000000E+00  0.00000000000E+00 -0.39139554152E+02  0.13099073256E+03  0.12500666909E+03 0.  0.
    9000005    1    3    3    0    0  0.46958038991E+02  0.35941166460E+02  0.16179864319E+01  0.59164539655E+02  0.10000000000E+01 0.  0.
    9000005    1    3    3    0    0 -0.46958038991E+02 -0.35941166460E+02 -0.40757540584E+02  0.71826192903E+02  0.10000000000E+01 0.  0.
<mgrwt>
<rscale>  0 0.12500667E+03</rscale>
<asrwt>0</asrwt>
<pdfrwt beam="2">  1        4 0.13086945E-01 0.12500667E+03</pdfrwt>
<pdfrwt beam="1">  1       -4 0.70654753E-02 0.12500667E+03</pdfrwt>
<totfact> 0.10321735E+04</totfact>
</mgrwt>
</event>
<event>
 5    1  0.3241863E-002  0.1250005E+03  0.7818608E-02  0.1235069E+00
          4   -1    0    0  501    0  0.00000000000E+00  0.00000000000E+00  0.80045299223E+02  0.80055373510E+02  0.12700000000E+01 0. -1.
         -4   -1    0    0    0  501 -0.00000000000E+00 -0.00000000000E+00 -0.48779462634E+02  0.48795992406E+02  0.12700000000E+01 0. -1.
         25    2    1    2    0    0  0.00000000000E+00  0.00000000000E+00  0.31265836589E+02  0.12885136592E+03  0.12500048784E+03 0.  0.
    9000005    1    3    3    0    0 -0.43306336849E+01  0.38390577069E+01  0.79773528727E+02  0.79989428288E+02  0.10000000000E+01 0.  0.
    9000005    1    3    3    0    0  0.43306336849E+01 -0.38390577069E+01 -0.48507692138E+02  0.48861937628E+02  0.10000000000E+01 0.  0.
<mgrwt>
<rscale>  0 0.12500049E+03</rscale>
<asrwt>0</asrwt>
<pdfrwt beam="1">  1        4 0.12316708E-01 0.12500049E+03</pdfrwt>
<pdfrwt beam="2">  1       -4 0.75065792E-02 0.12500049E+03</pdfrwt>
<totfact> 0.10369028E+04</totfact>
</mgrwt>
</event>
<event>
 5    1  0.3241863E-002  0.1249983E+03  0.7818608E-02  0.1235072E+00
          4   -1    0    0  501    0  0.00000000000E+00  0.00000000000E+00  0.55834234298E+02  0.55848676078E+02  0.12700000000E+01 0.  1.
         -4   -1    0    0    0  501 -0.00000000000E+00 -0.00000000000E+00 -0.69930394712E+02  0.69941925943E+02  0.12700000000E+01 0.  1.
         25    2    1    2    0    0  0.00000000000E+00  0.00000000000E+00 -0.14096160414E+02  0.12579060202E+03  0.12499829526E+03 0.  0.
    9000005    1    3    3    0    0  0.28772208527E+02  0.37210402210E+02  0.34355009134E+02  0.58255649243E+02  0.10000000000E+01 0.  0.
    9000005    1    3    3    0    0 -0.28772208527E+02 -0.37210402210E+02 -0.48451169548E+02  0.67534952778E+02  0.10000000000E+01 0.  0.
<mgrwt>
<rscale>  0 0.12499830E+03</rscale>
<asrwt>0</asrwt>
<pdfrwt beam="1">  1        4 0.85918801E-02 0.12499830E+03</pdfrwt>
<pdfrwt beam="2">  1       -4 0.10760520E-01 0.12499830E+03</pdfrwt>
<totfact> 0.10435953E+04</totfact>
</mgrwt>
</event>
<event>
 5    1  0.3241863E-002  0.1249995E+03  0.7818608E-02  0.1235070E+00
         -4   -1    0    0    0  501 -0.00000000000E+00  0.00000000000E+00  0.15663896986E+04  0.15663902134E+04  0.12700000000E+01 0. -1.
          4   -1    0    0  501    0  0.00000000000E+00 -0.00000000000E+00 -0.23315297678E+01  0.26549823084E+01  0.12700000000E+01 0. -1.
         25    2    1    2    0    0  0.00000000000E+00  0.00000000000E+00  0.15640581688E+04  0.15690451958E+04  0.12499948332E+03 0.  0.
    9000005    1    3    3    0    0 -0.47915363455E+02  0.53809882259E+01  0.12810377449E+04  0.12819452176E+04  0.10000000000E+01 0.  0.
    9000005    1    3    3    0    0  0.47915363455E+02 -0.53809882259E+01  0.28302042396E+03  0.28709997817E+03  0.10000000000E+01 0.  0.
<mgrwt>
<rscale>  0 0.12499948E+03</rscale>
<asrwt>0</asrwt>
<pdfrwt beam="2">  1        4 0.38361730E-03 0.12499948E+03</pdfrwt>
<pdfrwt beam="1">  1       -4 0.24100805E+00 0.12499948E+03</pdfrwt>
<totfact> 0.16612592E+03</totfact>
</mgrwt>
</event>
<event>
 5    1  0.3241863E-002  0.1249999E+03  0.7818608E-02  0.1235069E+00
          4   -1    0    0  501    0  0.00000000000E+00  0.00000000000E+00  0.17915400228E+02  0.17960358163E+02  0.12700000000E+01 0.  1.
         -4   -1    0    0    0  501 -0.00000000000E+00 -0.00000000000E+00 -0.21771823200E+03  0.21772193607E+03  0.12700000000E+01 0.  1.
         25    2    1    2    0    0  0.00000000000E+00  0.00000000000E+00 -0.19980283177E+03  0.23568229423E+03  0.12499988892E+03 0.  0.
    9000005    1    3    3    0    0 -0.36220908547E+02 -0.47491019450E+02 -0.65243197896E+02  0.88459177116E+02  0.10000000000E+01 0.  0.
    9000005    1    3    3    0    0  0.36220908547E+02  0.47491019450E+02 -0.13455963388E+03  0.14722311712E+03  0.10000000000E+01 0.  0.
<mgrwt>
<rscale>  0 0.12499989E+03</rscale>
<asrwt>0</asrwt>
<pdfrwt beam="1">  1        4 0.27599588E-02 0.12499989E+03</pdfrwt>
<pdfrwt beam="2">  1       -4 0.33498854E-01 0.12499989E+03</pdfrwt>
<totfact> 0.84444854E+03</totfact>
</mgrwt>
</event>
<event>
 5    1  0.3241863E-002  0.1250004E+03  0.7818608E-02  0.1235069E+00
         -4   -1    0    0    0  501 -0.00000000000E+00  0.00000000000E+00  0.40587660985E+03  0.40587859678E+03  0.12700000000E+01 0. -1.
          4   -1    0    0  501    0  0.00000000000E+00 -0.00000000000E+00 -0.95803714236E+01  0.96641821493E+01  0.12700000000E+01 0. -1.
         25    2    1    2    0    0  0.00000000000E+00  0.00000000000E+00  0.39629623842E+03  0.41554277893E+03  0.12500037011E+03 0.  0.
    9000005    1    3    3    0    0  0.44205304542E+02  0.27934126847E+02  0.31189901811E+03  0.31625373024E+03  0.10000000000E+01 0.  0.
    9000005    1    3    3    0    0 -0.44205304542E+02 -0.27934126847E+02  0.84397220314E+02  0.99289048686E+02  0.10000000000E+01 0.  0.
<mgrwt>
<rscale>  0 0.12500037E+03</rscale>
<asrwt>0</asrwt>
<pdfrwt beam="2">  1        4 0.14805031E-02 0.12500037E+03</pdfrwt>
<pdfrwt beam="1">  1       -4 0.62449154E-01 0.12500037E+03</pdfrwt>
<totfact> 0.63068161E+03</totfact>
</mgrwt>
</event>
<event>
 5    1  0.3241863E-002  0.1250071E+03  0.7818608E-02  0.1235058E+00
          4   -1    0    0  501    0  0.00000000000E+00  0.00000000000E+00  0.19354834836E+03  0.19355251497E+03  0.12700000000E+01 0.  1.
         -4   -1    0    0    0  501 -0.00000000000E+00 -0.00000000000E+00 -0.20160223918E+02  0.20200186346E+02  0.12700000000E+01 0.  1.
         25    2    1    2    0    0  0.00000000000E+00  0.00000000000E+00  0.17338812444E+03  0.21375270132E+03  0.12500710229E+03 0.  0.
    9000005    1    3    3    0    0  0.26946582967E+02 -0.52140497577E+02  0.12340547067E+03  0.13665525973E+03  0.10000000000E+01 0.  0.
    9000005    1    3    3    0    0 -0.26946582967E+02  0.52140497577E+02  0.49982653766E+02  0.77097441583E+02  0.10000000000E+01 0.  0.
<mgrwt>
<rscale>  0 0.12500710E+03</rscale>
<asrwt>0</asrwt>
<pdfrwt beam="1">  1        4 0.29780064E-01 0.12500710E+03</pdfrwt>
<pdfrwt beam="2">  1       -4 0.31049674E-02 0.12500710E+03</pdfrwt>
<totfact> 0.87852713E+03</totfact>
</mgrwt>
</event>
<event>
 5    1  0.3241863E-002  0.1250016E+03  0.7818608E-02  0.1235067E+00
          4   -1    0    0  501    0  0.00000000000E+00  0.00000000000E+00  0.60580078972E+01  0.61896978669E+01  0.12700000000E+01 0.  1.
         -4   -1    0    0    0  501 -0.00000000000E+00 -0.00000000000E+00 -0.63775860903E+03  0.63775987353E+03  0.12700000000E+01 0.  1.
         25    2    1    2    0    0  0.00000000000E+00  0.00000000000E+00 -0.63170060113E+03  0.64394957140E+03  0.12500160414E+03 0.  0.
    9000005    1    3    3    0    0 -0.28807811080E+02 -0.39043217509E+02 -0.11296321031E+03  0.12294693854E+03  0.10000000000E+01 0.  0.
    9000005    1    3    3    0    0  0.28807811080E+02  0.39043217509E+02 -0.51873739081E+03  0.52100263286E+03  0.10000000000E+01 0.  0.
<mgrwt>
<rscale>  0 0.12500160E+03</rscale>
<asrwt>0</asrwt>
<pdfrwt beam="1">  1        4 0.94222898E-03 0.12500160E+03</pdfrwt>
<pdfrwt beam="2">  1       -4 0.98126884E-01 0.12500160E+03</pdfrwt>
<totfact> 0.46204215E+03</totfact>
</mgrwt>
</event>
<event>
 5    1  0.3241863E-002  0.1250104E+03  0.7818608E-02  0.1235053E+00
         -4   -1    0    0    0  501 -0.00000000000E+00  0.00000000000E+00  0.38516316039E+01  0.40556092036E+01  0.12700000000E+01 0. -1.
          4   -1    0    0  501    0  0.00000000000E+00 -0.00000000000E+00 -0.98797783790E+03  0.98797865416E+03  0.12700000000E+01 0. -1.
         25    2    1    2    0    0  0.00000000000E+00  0.00000000000E+00 -0.98412620630E+03  0.99203426337E+03  0.12501035867E+03 0.  0.
    9000005    1    3    3    0    0  0.22155486413E+02  0.57663925746E+02 -0.56730661382E+03  0.57066083447E+03  0.10000000000E+01 0.  0.
    9000005    1    3    3    0    0 -0.22155486413E+02 -0.57663925746E+02 -0.41681959248E+03  0.42137342890E+03  0.10000000000E+01 0.  0.
<mgrwt>
<rscale>  0 0.12501036E+03</rscale>
<asrwt>0</asrwt>
<pdfrwt beam="2">  1        4 0.15201215E+00 0.12501036E+03</pdfrwt>
<pdfrwt beam="1">  1       -4 0.60831287E-03 0.12501036E+03</pdfrwt>
<totfact> 0.30862029E+03</totfact>
</mgrwt>
</event>
<event>
 5    1  0.3241863E-002  0.1250082E+03  0.7818608E-02  0.1235056E+00
          4   -1    0    0  501    0  0.00000000000E+00  0.00000000000E+00  0.35570734421E+02  0.35593398928E+02  0.12700000000E+01 0.  1.
         -4   -1    0    0    0  501 -0.00000000000E+00 -0.00000000000E+00 -0.10976948369E+03  0.10977683021E+03  0.12700000000E+01 0.  1.
         25    2    1    2    0    0  0.00000000000E+00  0.00000000000E+00 -0.74198749272E+02  0.14537022913E+03  0.12500819623E+03 0.  0.
    9000005    1    3    3    0    0 -0.57027347288E+02  0.91181128662E+01 -0.64875158115E+02  0.86862215384E+02  0.10000000000E+01 0.  0.
    9000005    1    3    3    0    0  0.57027347288E+02 -0.91181128662E+01 -0.93235911569E+01  0.58508013750E+02  0.10000000000E+01 0.  0.
<mgrwt>
<rscale>  0 0.12500820E+03</rscale>
<asrwt>0</asrwt>
<pdfrwt beam="1">  1        4 0.54747293E-02 0.12500820E+03</pdfrwt>
<pdfrwt beam="2">  1       -4 0.16889921E-01 0.12500820E+03</pdfrwt>
<totfact> 0.10021622E+04</totfact>
</mgrwt>
</event>
<event>
 5    1  0.3241863E-002  0.1249992E+03  0.7818608E-02  0.1235071E+00
          4   -1    0    0  501    0  0.00000000000E+00  0.00000000000E+00  0.10822219967E+03  0.10822965122E+03  0.12700000000E+01 0. -1.
         -4   -1    0    0    0  501 -0.00000000000E+00 -0.00000000000E+00 -0.36074395818E+02  0.36096744086E+02  0.12700000000E+01 0. -1.
         25    2    1    2    0    0  0.00000000000E+00  0.00000000000E+00  0.72147803855E+02  0.14432639530E+03  0.12499921112E+03 0.  0.
    9000005    1    3    3    0    0 -0.37292461048E+02 -0.38951401017E+02  0.72536112771E+02  0.90390414028E+02  0.10000000000E+01 0.  0.
    9000005    1    3    3    0    0  0.37292461048E+02  0.38951401017E+02 -0.38830891550E+00  0.53935981274E+02  0.10000000000E+01 0.  0.
<mgrwt>
<rscale>  0 0.12499921E+03</rscale>
<asrwt>0</asrwt>
<pdfrwt beam="1">  1        4 0.16651861E-01 0.12499921E+03</pdfrwt>
<pdfrwt beam="2">  1       -4 0.55521994E-02 0.12499921E+03</pdfrwt>
<totfact> 0.10044871E+04</totfact>
</mgrwt>
</event>
<event>
 5    1  0.3241863E-002  0.1249970E+03  0.7818608E-02  0.1235074E+00
          4   -1    0    0  501    0  0.00000000000E+00  0.00000000000E+00  0.77040529447E+02  0.77050996603E+02  0.12700000000E+01 0. -1.
         -4   -1    0    0    0  501 -0.00000000000E+00 -0.00000000000E+00 -0.50679504018E+02  0.50695414265E+02  0.12700000000E+01 0. -1.
         25    2    1    2    0    0  0.00000000000E+00  0.00000000000E+00  0.26361025429E+02  0.12774641087E+03  0.12499696727E+03 0.  0.
    9000005    1    3    3    0    0 -0.31060298155E+02  0.51071172740E+02 -0.54426466887E+01  0.60030235794E+02  0.10000000000E+01 0.  0.
    9000005    1    3    3    0    0  0.31060298155E+02 -0.51071172740E+02  0.31803672117E+02  0.67716175074E+02  0.10000000000E+01 0.  0.
<mgrwt>
<rscale>  0 0.12499697E+03</rscale>
<asrwt>0</asrwt>
<pdfrwt beam="1">  1        4 0.11854418E-01 0.12499697E+03</pdfrwt>
<pdfrwt beam="2">  1       -4 0.77988758E-02 0.12499697E+03</pdfrwt>
<totfact> 0.10393679E+04</totfact>
</mgrwt>
</event>
<event>
 5    1  0.3241863E-002  0.1249993E+03  0.7818608E-02  0.1235070E+00
          4   -1    0    0  501    0  0.00000000000E+00  0.00000000000E+00  0.45375879672E+03  0.45376057398E+03  0.12700000000E+01 0. -1.
         -4   -1    0    0    0  501 -0.00000000000E+00 -0.00000000000E+00 -0.85599051232E+01  0.86536047818E+01  0.12700000000E+01 0. -1.
         25    2    1    2    0    0  0.00000000000E+00  0.00000000000E+00  0.44519889160E+03  0.46241417877E+03  0.12499927857E+03 0.  0.
    9000005    1    3    3    0    0 -0.38063053916E+02  0.46652415131E+02  0.16070204627E+03  0.17161407747E+03  0.10000000000E+01 0.  0.
    9000005    1    3    3    0    0  0.38063053916E+02 -0.46652415131E+02  0.28449684533E+03  0.29080010130E+03  0.10000000000E+01 0.  0.
<mgrwt>
<rscale>  0 0.12499928E+03</rscale>
<asrwt>0</asrwt>
<pdfrwt beam="1">  1        4 0.69816410E-01 0.12499928E+03</pdfrwt>
<pdfrwt beam="2">  1       -4 0.13242525E-02 0.12499928E+03</pdfrwt>
<totfact> 0.58904165E+03</totfact>
</mgrwt>
</event>
<event>
 5    1  0.3241863E-002  0.1250004E+03  0.7818608E-02  0.1235069E+00
         -4   -1    0    0    0  501 -0.00000000000E+00  0.00000000000E+00  0.22471870873E+02  0.22507729351E+02  0.12700000000E+01 0.  1.
          4   -1    0    0  501    0  0.00000000000E+00 -0.00000000000E+00 -0.17365288868E+03  0.17365753266E+03  0.12700000000E+01 0.  1.
         25    2    1    2    0    0  0.00000000000E+00  0.00000000000E+00 -0.15118101781E+03  0.19616526201E+03  0.12500043949E+03 0.  0.
    9000005    1    3    3    0    0  0.17667724555E+02 -0.59788493136E+02 -0.82334018659E+02  0.10327973195E+03  0.10000000000E+01 0.  0.
    9000005    1    3    3    0    0 -0.17667724555E+02  0.59788493136E+02 -0.68846999152E+02  0.92885530060E+02  0.10000000000E+01 0.  0.
<mgrwt>
<rscale>  0 0.12500044E+03</rscale>
<asrwt>0</asrwt>
<pdfrwt beam="2">  1        4 0.26718944E-01 0.12500044E+03</pdfrwt>
<pdfrwt beam="1">  1       -4 0.34603266E-02 0.12500044E+03</pdfrwt>
<totfact> 0.90784615E+03</totfact>
</mgrwt>
</event>
<event>
 5    1  0.3241863E-002  0.1250008E+03  0.7818608E-02  0.1235068E+00
          4   -1    0    0  501    0  0.00000000000E+00  0.00000000000E+00  0.14468324332E+03  0.14468881712E+03  0.12700000000E+01 0. -1.
         -4   -1    0    0    0  501 -0.00000000000E+00 -0.00000000000E+00 -0.26977955824E+02  0.27007832205E+02  0.12700000000E+01 0. -1.
         25    2    1    2    0    0  0.00000000000E+00  0.00000000000E+00  0.11770528750E+03  0.17169664932E+03  0.12500081873E+03 0.  0.
    9000005    1    3    3    0    0  0.32256806965E+02 -0.19680722821E+02  0.12722067165E+03  0.13271748846E+03  0.10000000000E+01 0.  0.
    9000005    1    3    3    0    0 -0.32256806965E+02  0.19680722821E+02 -0.95153841518E+01  0.38979160867E+02  0.10000000000E+01 0.  0.
<mgrwt>
<rscale>  0 0.12500082E+03</rscale>
<asrwt>0</asrwt>
<pdfrwt beam="1">  1        4 0.22261687E-01 0.12500082E+03</pdfrwt>
<pdfrwt beam="2">  1       -4 0.41531817E-02 0.12500082E+03</pdfrwt>
<totfact> 0.95131599E+03</totfact>
</mgrwt>
</event>
<event>
 5    1  0.3241863E-002  0.1250004E+03  0.7818608E-02  0.1235069E+00
          4   -1    0    0  501    0  0.00000000000E+00  0.00000000000E+00  0.35817251297E+03  0.35817476453E+03  0.12700000000E+01 0. -1.
         -4   -1    0    0    0  501 -0.00000000000E+00 -0.00000000000E+00 -0.10866869840E+02  0.10940829956E+02  0.12700000000E+01 0. -1.
         25    2    1    2    0    0  0.00000000000E+00  0.00000000000E+00  0.34730564313E+03  0.36911559449E+03  0.12500044937E+03 0.  0.
    9000005    1    3    3    0    0 -0.45901598963E+02  0.42100924112E+02  0.18866149606E+03  0.19867965344E+03  0.10000000000E+01 0.  0.
    9000005    1    3    3    0    0  0.45901598963E+02 -0.42100924112E+02  0.15864414707E+03  0.17043594104E+03  0.10000000000E+01 0.  0.
<mgrwt>
<rscale>  0 0.12500045E+03</rscale>
<asrwt>0</asrwt>
<pdfrwt beam="1">  1        4 0.55109328E-01 0.12500045E+03</pdfrwt>
<pdfrwt beam="2">  1       -4 0.16776885E-02 0.12500045E+03</pdfrwt>
<totfact> 0.67670888E+03</totfact>
</mgrwt>
</event>
<event>
 5    1  0.3241863E-002  0.1249661E+03  0.7818608E-02  0.1235122E+00
          4   -1    0    0  501    0  0.00000000000E+00  0.00000000000E+00  0.53118041548E+03  0.53118193370E+03  0.12700000000E+01 0.  1.
         -4   -1    0    0    0  501 -0.00000000000E+00 -0.00000000000E+00 -0.72935198678E+01  0.74032649596E+01  0.12700000000E+01 0.  1.
         25    2    1    2    0    0  0.00000000000E+00  0.00000000000E+00  0.52388689561E+03  0.53858519866E+03  0.12496614270E+03 0.  0.
    9000005    1    3    3    0    0  0.61204932351E+02  0.98743529665E+01  0.29521247098E+03  0.30165369153E+03  0.10000000000E+01 0.  0.
    9000005    1    3    3    0    0 -0.61204932351E+02 -0.98743529665E+01  0.22867442463E+03  0.23693150713E+03  0.10000000000E+01 0.  0.
<mgrwt>
<rscale>  0 0.12496614E+03</rscale>
<asrwt>0</asrwt>
<pdfrwt beam="1">  1        4 0.81728640E-01 0.12496614E+03</pdfrwt>
<pdfrwt beam="2">  1       -4 0.11306385E-02 0.12496614E+03</pdfrwt>
<totfact> 0.53029585E+03</totfact>
</mgrwt>
</event>
<event>
 5    1  0.3241863E-002  0.1249984E+03  0.7818608E-02  0.1235072E+00
         -4   -1    0    0    0  501 -0.00000000000E+00  0.00000000000E+00  0.84562850330E+02  0.84572386486E+02  0.12700000000E+01 0.  1.
          4   -1    0    0  501    0  0.00000000000E+00 -0.00000000000E+00 -0.46171433294E+02  0.46188896419E+02  0.12700000000E+01 0.  1.
         25    2    1    2    0    0  0.00000000000E+00  0.00000000000E+00  0.38391417037E+02  0.13076128291E+03  0.12499844881E+03 0.  0.
    9000005    1    3    3    0    0  0.59811447226E+02  0.18087609488E+02  0.18397500183E+02  0.65146288069E+02  0.10000000000E+01 0.  0.
    9000005    1    3    3    0    0 -0.59811447226E+02 -0.18087609488E+02  0.19993916854E+02  0.65614994836E+02  0.10000000000E+01 0.  0.
<mgrwt>
<rscale>  0 0.12499845E+03</rscale>
<asrwt>0</asrwt>
<pdfrwt beam="2">  1        4 0.71053743E-02 0.12499845E+03</pdfrwt>
<pdfrwt beam="1">  1       -4 0.13011746E-01 0.12499845E+03</pdfrwt>
<totfact> 0.10328571E+04</totfact>
</mgrwt>
</event>
<event>
 5    1  0.3241863E-002  0.1250146E+03  0.7818608E-02  0.1235047E+00
          4   -1    0    0  501    0  0.00000000000E+00  0.00000000000E+00  0.79508814128E+01  0.80516715805E+01  0.12700000000E+01 0. -1.
         -4   -1    0    0    0  501 -0.00000000000E+00 -0.00000000000E+00 -0.48821544435E+03  0.48821709618E+03  0.12700000000E+01 0. -1.
         25    2    1    2    0    0  0.00000000000E+00  0.00000000000E+00 -0.48026456294E+03  0.49626876776E+03  0.12501455692E+03 0.  0.
    9000005    1    3    3    0    0 -0.55536249574E+02  0.17074700466E+02 -0.33155062001E+03  0.33660456628E+03  0.10000000000E+01 0.  0.
    9000005    1    3    3    0    0  0.55536249574E+02 -0.17074700466E+02 -0.14871394293E+03  0.15966420148E+03  0.10000000000E+01 0.  0.
<mgrwt>
<rscale>  0 0.12501456E+03</rscale>
<asrwt>0</asrwt>
<pdfrwt beam="1">  1        4 0.12310931E-02 0.12501456E+03</pdfrwt>
<pdfrwt beam="2">  1       -4 0.75117925E-01 0.12501456E+03</pdfrwt>
<totfact> 0.56137068E+03</totfact>
</mgrwt>
</event>
<event>
 4    1  0.3241863E-002  0.1249273E+03  0.7818608E-02  0.1235183E+00
         -4   -1    0    0    0  501 -0.00000000000E+00  0.00000000000E+00  0.40228538982E+03  0.40228739448E+03  0.12700000000E+01 0.  1.
          4   -1    0    0  501    0  0.00000000000E+00 -0.00000000000E+00 -0.96552393694E+01  0.97384057875E+01  0.12700000000E+01 0.  1.
    9000005    1    1    2    0    0 -0.14112713342E+02 -0.33778380744E+02  0.29423471315E+02  0.46977530244E+02  0.10000000000E+01 0.  0.
    9000005    1    1    2    0    0  0.14112713342E+02  0.33778380744E+02  0.36320667913E+03  0.36504827003E+03  0.10000000000E+01 0.  0.
<mgrwt>
<rscale>  0 0.12492728E+03</rscale>
<asrwt>0</asrwt>
<pdfrwt beam="2">  1        4 0.14919734E-02 0.12492728E+03</pdfrwt>
<pdfrwt beam="1">  1       -4 0.61896599E-01 0.12492728E+03</pdfrwt>
<totfact> 0.63501586E+03</totfact>
</mgrwt>
</event>
<event>
 5    1  0.3241863E-002  0.1249906E+03  0.7818608E-02  0.1235084E+00
          4   -1    0    0  501    0  0.00000000000E+00  0.00000000000E+00  0.42958190986E+01  0.44796162478E+01  0.12700000000E+01 0.  1.
         -4   -1    0    0    0  501 -0.00000000000E+00 -0.00000000000E+00 -0.88995159527E+03  0.88995250144E+03  0.12700000000E+01 0.  1.
         25    2    1    2    0    0  0.00000000000E+00  0.00000000000E+00 -0.88565577617E+03  0.89443211769E+03  0.12499063681E+03 0.  0.
    9000005    1    3    3    0    0  0.14512062917E+01  0.13293530625E+02 -0.87962731096E+03  0.87972952101E+03  0.10000000000E+01 0.  0.
    9000005    1    3    3    0    0 -0.14512062917E+01 -0.13293530625E+02 -0.60284652079E+01  0.14702596673E+02  0.10000000000E+01 0.  0.
<mgrwt>
<rscale>  0 0.12499064E+03</rscale>
<asrwt>0</asrwt>
<pdfrwt beam="1">  1        4 0.67510390E-03 0.12499064E+03</pdfrwt>
<pdfrwt beam="2">  1       -4 0.13692969E+00 0.12499064E+03</pdfrwt>
<totfact> 0.34381076E+03</totfact>
</mgrwt>
</event>
<event>
 5    1  0.3241863E-002  0.1250009E+03  0.7818608E-02  0.1235068E+00
          4   -1    0    0  501    0  0.00000000000E+00  0.00000000000E+00  0.23737236754E+02  0.23771186523E+02  0.12700000000E+01 0.  1.
         -4   -1    0    0    0  501 -0.00000000000E+00 -0.00000000000E+00 -0.16441035863E+03  0.16441526366E+03  0.12700000000E+01 0.  1.
         25    2    1    2    0    0  0.00000000000E+00  0.00000000000E+00 -0.14067312187E+03  0.18818645018E+03  0.12500085126E+03 0.  0.
    9000005    1    3    3    0    0  0.15423723508E+02  0.47657918931E+02 -0.12658870021E+03  0.13614282024E+03  0.10000000000E+01 0.  0.
    9000005    1    3    3    0    0 -0.15423723508E+02 -0.47657918931E+02 -0.14084421667E+02  0.52043629940E+02  0.10000000000E+01 0.  0.
<mgrwt>
<rscale>  0 0.12500085E+03</rscale>
<asrwt>0</asrwt>
<pdfrwt beam="1">  1        4 0.36548715E-02 0.12500085E+03</pdfrwt>
<pdfrwt beam="2">  1       -4 0.25296889E-01 0.12500085E+03</pdfrwt>
<totfact> 0.92162070E+03</totfact>
</mgrwt>
</event>
<event>
 5    1  0.3241863E-002  0.1249919E+03  0.7818608E-02  0.1235082E+00
          4   -1    0    0  501    0  0.00000000000E+00  0.00000000000E+00  0.18417419516E+03  0.18417857384E+03  0.12700000000E+01 0.  1.
         -4   -1    0    0    0  501 -0.00000000000E+00 -0.00000000000E+00 -0.21183141739E+02  0.21221177958E+02  0.12700000000E+01 0.  1.
         25    2    1    2    0    0  0.00000000000E+00  0.00000000000E+00  0.16299105342E+03  0.20539975180E+03  0.12499189792E+03 0.  0.
    9000005    1    3    3    0    0  0.21853699047E+02 -0.58520496905E+02  0.78891567626E+02  0.10063355386E+03  0.10000000000E+01 0.  0.
    9000005    1    3    3    0    0 -0.21853699047E+02  0.58520496905E+02  0.84099485795E+02  0.10476619794E+03  0.10000000000E+01 0.  0.
<mgrwt>
<rscale>  0 0.12499190E+03</rscale>
<asrwt>0</asrwt>
<pdfrwt beam="1">  1        4 0.28337753E-01 0.12499190E+03</pdfrwt>
<pdfrwt beam="2">  1       -4 0.32622077E-02 0.12499190E+03</pdfrwt>
<totfact> 0.89248889E+03</totfact>
</mgrwt>
</event>
<event>
 5    1  0.3241863E-002  0.1250000E+03  0.7818608E-02  0.1235069E+00
          4   -1    0    0  501    0  0.00000000000E+00  0.00000000000E+00  0.10642472256E+02  0.10717980953E+02  0.12700000000E+01 0. -1.
         -4   -1    0    0    0  501 -0.00000000000E+00 -0.00000000000E+00 -0.36566962121E+03  0.36567182661E+03  0.12700000000E+01 0. -1.
         25    2    1    2    0    0  0.00000000000E+00  0.00000000000E+00 -0.35502714895E+03  0.37638980756E+03  0.12500004297E+03 0.  0.
    9000005    1    3    3    0    0 -0.46759349031E+02 -0.34303545491E+02 -0.10740672060E+03  0.12206708641E+03  0.10000000000E+01 0.  0.
    9000005    1    3    3    0    0  0.46759349031E+02  0.34303545491E+02 -0.24762042835E+03  0.25432272115E+03  0.10000000000E+01 0.  0.
<mgrwt>
<rscale>  0 0.12500004E+03</rscale>
<asrwt>0</asrwt>
<pdfrwt beam="1">  1        4 0.16432817E-02 0.12500004E+03</pdfrwt>
<pdfrwt beam="2">  1       -4 0.56262833E-01 0.12500004E+03</pdfrwt>
<totfact> 0.66915641E+03</totfact>
</mgrwt>
</event>
<event>
 5    1  0.3241863E-002  0.1249972E+03  0.7818608E-02  0.1235074E+00
          4   -1    0    0  501    0  0.00000000000E+00  0.00000000000E+00  0.11513974267E+03  0.11514674655E+03  0.12700000000E+01 0. -1.
         -4   -1    0    0    0  501 -0.00000000000E+00 -0.00000000000E+00 -0.33904705217E+02  0.33928482664E+02  0.12700000000E+01 0. -1.
         25    2    1    2    0    0  0.00000000000E+00  0.00000000000E+00  0.81235037449E+02  0.14907522921E+03  0.12499717059E+03 0.  0.
    9000005    1    3    3    0    0 -0.57420402042E+02 -0.12391748559E+02  0.66040806272E+02  0.88391436780E+02  0.10000000000E+01 0.  0.
    9000005    1    3    3    0    0  0.57420402042E+02  0.12391748559E+02  0.15194231177E+02  0.60683792434E+02  0.10000000000E+01 0.  0.
<mgrwt>
<rscale>  0 0.12499717E+03</rscale>
<asrwt>0</asrwt>
<pdfrwt beam="1">  1        4 0.17716174E-01 0.12499717E+03</pdfrwt>
<pdfrwt beam="2">  1       -4 0.52184763E-02 0.12499717E+03</pdfrwt>
<totfact> 0.99494693E+03</totfact>
</mgrwt>
</event>
<event>
 5    1  0.3241863E-002  0.1249979E+03  0.7818608E-02  0.1235073E+00
         -4   -1    0    0    0  501 -0.00000000000E+00  0.00000000000E+00  0.31081686957E+02  0.31107622283E+02  0.12700000000E+01 0. -1.
          4   -1    0    0  501    0  0.00000000000E+00 -0.00000000000E+00 -0.12559118534E+03  0.12559760641E+03  0.12700000000E+01 0. -1.
         25    2    1    2    0    0  0.00000000000E+00  0.00000000000E+00 -0.94509498386E+02  0.15670522869E+03  0.12499793364E+03 0.  0.
    9000005    1    3    3    0    0  0.26249305116E+02  0.13074369898E+01 -0.11833183778E+03  0.12121946726E+03  0.10000000000E+01 0.  0.
    9000005    1    3    3    0    0 -0.26249305116E+02 -0.13074369898E+01  0.23822339391E+02  0.35485761435E+02  0.10000000000E+01 0.  0.
<mgrwt>
<rscale>  0 0.12499793E+03</rscale>
<asrwt>0</asrwt>
<pdfrwt beam="2">  1        4 0.19324209E-01 0.12499793E+03</pdfrwt>
<pdfrwt beam="1">  1       -4 0.47842870E-02 0.12499793E+03</pdfrwt>
<totfact> 0.97986330E+03</totfact>
</mgrwt>
</event>
<event>
 5    1  0.3241863E-002  0.1250004E+03  0.7818608E-02  0.1235069E+00
          4   -1    0    0  501    0  0.00000000000E+00  0.00000000000E+00  0.59852809563E+02  0.59866281934E+02  0.12700000000E+01 0.  1.
         -4   -1    0    0    0  501 -0.00000000000E+00 -0.00000000000E+00 -0.65237737942E+02  0.65250098481E+02  0.12700000000E+01 0.  1.
         25    2    1    2    0    0  0.00000000000E+00  0.00000000000E+00 -0.53849283781E+01  0.12511638041E+03  0.12500044478E+03 0.  0.
    9000005    1    3    3    0    0  0.16678786290E+02  0.19579636705E+02  0.54314145176E+02  0.60104662480E+02  0.10000000000E+01 0.  0.
    9000005    1    3    3    0    0 -0.16678786290E+02 -0.19579636705E+02 -0.59699073554E+02  0.65011717935E+02  0.10000000000E+01 0.  0.
<mgrwt>
<rscale>  0 0.12500044E+03</rscale>
<asrwt>0</asrwt>
<pdfrwt beam="1">  1        4 0.92101117E-02 0.12500044E+03</pdfrwt>
<pdfrwt beam="2">  1       -4 0.10038562E-01 0.12500044E+03</pdfrwt>
<totfact> 0.10450230E+04</totfact>
</mgrwt>
</event>
<event>
 5    1  0.3241863E-002  0.1250009E+03  0.7818608E-02  0.1235068E+00
          4   -1    0    0  501    0  0.00000000000E+00  0.00000000000E+00  0.20758265255E+02  0.20797078554E+02  0.12700000000E+01 0.  1.
         -4   -1    0    0    0  501 -0.00000000000E+00 -0.00000000000E+00 -0.18796394948E+03  0.18796823988E+03  0.12700000000E+01 0.  1.
         25    2    1    2    0    0  0.00000000000E+00  0.00000000000E+00 -0.16720568422E+03  0.20876531843E+03  0.12500086937E+03 0.  0.
    9000005    1    3    3    0    0  0.25721221491E+02  0.30644568977E+02 -0.16377918696E+03  0.16859802171E+03  0.10000000000E+01 0.  0.
    9000005    1    3    3    0    0 -0.25721221491E+02 -0.30644568977E+02 -0.34264972642E+01  0.40167296726E+02  0.10000000000E+01 0.  0.
<mgrwt>
<rscale>  0 0.12500087E+03</rscale>
<asrwt>0</asrwt>
<pdfrwt beam="1">  1        4 0.31968951E-02 0.12500087E+03</pdfrwt>
<pdfrwt beam="2">  1       -4 0.28920845E-01 0.12500087E+03</pdfrwt>
<totfact> 0.88676195E+03</totfact>
</mgrwt>
</event>
<event>
 5    1  0.3241863E-002  0.1249931E+03  0.7818608E-02  0.1235080E+00
          4   -1    0    0  501    0  0.00000000000E+00  0.00000000000E+00  0.42596105652E+03  0.42596294976E+03  0.12700000000E+01 0. -1.
         -4   -1    0    0    0  501 -0.00000000000E+00 -0.00000000000E+00 -0.91235217830E+01  0.92114900925E+01  0.12700000000E+01 0. -1.
         25    2    1    2    0    0  0.00000000000E+00  0.00000000000E+00  0.41683753473E+03  0.43517443985E+03  0.12499305076E+03 0.  0.
    9000005    1    3    3    0    0 -0.21340560652E+00 -0.49012165374E+02  0.34337594680E+03  0.34685772117E+03  0.10000000000E+01 0.  0.
    9000005    1    3    3    0    0  0.21340560652E+00  0.49012165374E+02  0.73461587931E+02  0.88316718678E+02  0.10000000000E+01 0.  0.
<mgrwt>
<rscale>  0 0.12499305E+03</rscale>
<asrwt>0</asrwt>
<pdfrwt beam="1">  1        4 0.65539393E-01 0.12499305E+03</pdfrwt>
<pdfrwt beam="2">  1       -4 0.14105309E-02 0.12499305E+03</pdfrwt>
<totfact> 0.61279124E+03</totfact>
</mgrwt>
</event>
<event>
 5    1  0.3241863E-002  0.1249960E+03  0.7818608E-02  0.1235076E+00
          4   -1    0    0  501    0  0.00000000000E+00  0.00000000000E+00  0.39382418692E+03  0.39382623465E+03  0.12700000000E+01 0.  1.
         -4   -1    0    0    0  501 -0.00000000000E+00 -0.00000000000E+00 -0.98753902593E+01  0.99567179719E+01  0.12700000000E+01 0.  1.
         25    2    1    2    0    0  0.00000000000E+00  0.00000000000E+00  0.38394879666E+03  0.40378295263E+03  0.12499597744E+03 0.  0.
    9000005    1    3    3    0    0  0.37604391355E+02 -0.48136632792E+01  0.35244717896E+03  0.35448169989E+03  0.10000000000E+01 0.  0.
    9000005    1    3    3    0    0 -0.37604391355E+02  0.48136632792E+01  0.31501617702E+02  0.49301252735E+02  0.10000000000E+01 0.  0.
<mgrwt>
<rscale>  0 0.12499598E+03</rscale>
<asrwt>0</asrwt>
<pdfrwt beam="1">  1        4 0.60594749E-01 0.12499598E+03</pdfrwt>
<pdfrwt beam="2">  1       -4 0.15257043E-02 0.12499598E+03</pdfrwt>
<totfact> 0.64192217E+03</totfact>
</mgrwt>
</event>
<event>
 5    1  0.3241863E-002  0.1249991E+03  0.7818608E-02  0.1235071E+00
         -4   -1    0    0    0  501 -0.00000000000E+00  0.00000000000E+00  0.71925277604E+03  0.71925389727E+03  0.12700000000E+01 0.  1.
          4   -1    0    0  501    0  0.00000000000E+00 -0.00000000000E+00 -0.53555186474E+01  0.55040421495E+01  0.12700000000E+01 0.  1.
         25    2    1    2    0    0  0.00000000000E+00  0.00000000000E+00  0.71389725739E+03  0.72475793942E+03  0.12499910657E+03 0.  0.
    9000005    1    3    3    0    0 -0.59934923495E+02  0.41354590494E+01  0.45668565509E+03  0.46062141140E+03  0.10000000000E+01 0.  0.
    9000005    1    3    3    0    0  0.59934923495E+02 -0.41354590494E+01  0.25721160231E+03  0.26413652803E+03  0.10000000000E+01 0.  0.
<mgrwt>
<rscale>  0 0.12499911E+03</rscale>
<asrwt>0</asrwt>
<pdfrwt beam="2">  1        4 0.83543794E-03 0.12499911E+03</pdfrwt>
<pdfrwt beam="1">  1       -4 0.11066567E+00 0.12499911E+03</pdfrwt>
<totfact> 0.41812374E+03</totfact>
</mgrwt>
</event>
<event>
 5    1  0.3241863E-002  0.1249999E+03  0.7818608E-02  0.1235069E+00
          4   -1    0    0  501    0  0.00000000000E+00  0.00000000000E+00  0.19036990993E+02  0.19079306226E+02  0.12700000000E+01 0. -1.
         -4   -1    0    0    0  501 -0.00000000000E+00 -0.00000000000E+00 -0.20492018532E+03  0.20492412072E+03  0.12700000000E+01 0. -1.
         25    2    1    2    0    0  0.00000000000E+00  0.00000000000E+00 -0.18588319433E+03  0.22400342695E+03  0.12499989340E+03 0.  0.
    9000005    1    3    3    0    0  0.24651469631E+02 -0.52753990857E+02 -0.13359202024E+03  0.14573436924E+03  0.10000000000E+01 0.  0.
    9000005    1    3    3    0    0 -0.24651469631E+02  0.52753990857E+02 -0.52291174093E+02  0.78269057707E+02  0.10000000000E+01 0.  0.
<mgrwt>
<rscale>  0 0.12499989E+03</rscale>
<asrwt>0</asrwt>
<pdfrwt beam="1">  1        4 0.29323257E-02 0.12499989E+03</pdfrwt>
<pdfrwt beam="2">  1       -4 0.31529739E-01 0.12499989E+03</pdfrwt>
<totfact> 0.86239003E+03</totfact>
</mgrwt>
</event>
<event>
 5    1  0.3241863E-002  0.1249990E+03  0.7818608E-02  0.1235071E+00
          4   -1    0    0  501    0  0.00000000000E+00  0.00000000000E+00  0.76027640149E+02  0.76038246736E+02  0.12700000000E+01 0. -1.
         -4   -1    0    0    0  501 -0.00000000000E+00 -0.00000000000E+00 -0.51356447701E+02  0.51372148295E+02  0.12700000000E+01 0. -1.
         25    2    1    2    0    0  0.00000000000E+00  0.00000000000E+00  0.24671192449E+02  0.12741039503E+03  0.12499896410E+03 0.  0.
    9000005    1    3    3    0    0  0.39606988839E+02  0.45783230937E+02  0.28138477676E+02  0.66765198463E+02  0.10000000000E+01 0.  0.
    9000005    1    3    3    0    0 -0.39606988839E+02 -0.45783230937E+02 -0.34672852269E+01  0.60645196568E+02  0.10000000000E+01 0.  0.
<mgrwt>
<rscale>  0 0.12499896E+03</rscale>
<asrwt>0</asrwt>
<pdfrwt beam="1">  1        4 0.11698584E-01 0.12499896E+03</pdfrwt>
<pdfrwt beam="2">  1       -4 0.79030156E-02 0.12499896E+03</pdfrwt>
<totfact> 0.10400485E+04</totfact>
</mgrwt>
</event>
<event>
 5    1  0.3241863E-002  0.1249936E+03  0.7818608E-02  0.1235079E+00
         -4   -1    0    0    0  501 -0.00000000000E+00  0.00000000000E+00  0.60077787335E+02  0.60091209266E+02  0.12700000000E+01 0. -1.
          4   -1    0    0  501    0  0.00000000000E+00 -0.00000000000E+00 -0.64986373192E+02  0.64998781532E+02  0.12700000000E+01 0. -1.
         25    2    1    2    0    0  0.00000000000E+00  0.00000000000E+00 -0.49085858574E+01  0.12508999080E+03  0.12499364617E+03 0.  0.
    9000005    1    3    3    0    0  0.57277616675E+02 -0.21604320908E+02  0.10100528949E+02  0.62052338707E+02  0.10000000000E+01 0.  0.
    9000005    1    3    3    0    0 -0.57277616675E+02  0.21604320908E+02 -0.15009114806E+02  0.63037652091E+02  0.10000000000E+01 0.  0.
<mgrwt>
<rscale>  0 0.12499365E+03</rscale>
<asrwt>0</asrwt>
<pdfrwt beam="2">  1        4 0.99998905E-02 0.12499365E+03</pdfrwt>
<pdfrwt beam="1">  1       -4 0.92447235E-02 0.12499365E+03</pdfrwt>
<totfact> 0.10452409E+04</totfact>
</mgrwt>
</event>
<event>
 5    1  0.3241863E-002  0.1250023E+03  0.7818608E-02  0.1235066E+00
          4   -1    0    0  501    0  0.00000000000E+00  0.00000000000E+00  0.54197323180E+03  0.54197471978E+03  0.12700000000E+01 0. -1.
         -4   -1    0    0    0  501 -0.00000000000E+00 -0.00000000000E+00 -0.71502675925E+01  0.72621778169E+01  0.12700000000E+01 0. -1.
         25    2    1    2    0    0  0.00000000000E+00  0.00000000000E+00  0.53482296420E+03  0.54923689760E+03  0.12500226656E+03 0.  0.
    9000005    1    3    3    0    0 -0.32573266476E+02  0.35892476498E+02  0.44073645522E+03  0.44339475698E+03  0.10000000000E+01 0.  0.
    9000005    1    3    3    0    0  0.32573266476E+02 -0.35892476498E+02  0.94086508981E+02  0.10584214062E+03  0.10000000000E+01 0.  0.
<mgrwt>
<rscale>  0 0.12500227E+03</rscale>
<asrwt>0</asrwt>
<pdfrwt beam="1">  1        4 0.83389215E-01 0.12500227E+03</pdfrwt>
<pdfrwt beam="2">  1       -4 0.11087642E-02 0.12500227E+03</pdfrwt>
<totfact> 0.52234561E+03</totfact>
</mgrwt>
</event>
<event>
 5    1  0.3241863E-002  0.1250004E+03  0.7818608E-02  0.1235069E+00
         -4   -1    0    0    0  501 -0.00000000000E+00  0.00000000000E+00  0.20389677072E+02  0.20429190662E+02  0.12700000000E+01 0. -1.
          4   -1    0    0  501    0  0.00000000000E+00 -0.00000000000E+00 -0.19135380630E+03  0.19135802070E+03  0.12700000000E+01 0. -1.
         25    2    1    2    0    0  0.00000000000E+00  0.00000000000E+00 -0.17096412923E+03  0.21178721136E+03  0.12500035765E+03 0.  0.
    9000005    1    3    3    0    0 -0.50039179743E+02 -0.23980780096E+02 -0.36779616696E+02  0.66578806896E+02  0.10000000000E+01 0.  0.
    9000005    1    3    3    0    0  0.50039179743E+02  0.23980780096E+02 -0.13418451253E+03  0.14520840447E+03  0.10000000000E+01 0.  0.
<mgrwt>
<rscale>  0 0.12500036E+03</rscale>
<asrwt>0</asrwt>
<pdfrwt beam="2">  1        4 0.29442410E-01 0.12500036E+03</pdfrwt>
<pdfrwt beam="1">  1       -4 0.31402372E-02 0.12500036E+03</pdfrwt>
<totfact> 0.88184131E+03</totfact>
</mgrwt>
</event>
<event>
 5    1  0.3241863E-002  0.1249976E+03  0.7818608E-02  0.1235073E+00
          4   -1    0    0  501    0  0.00000000000E+00  0.00000000000E+00  0.27080099877E+02  0.27109863691E+02  0.12700000000E+01 0.  1.
         -4   -1    0    0    0  501 -0.00000000000E+00 -0.00000000000E+00 -0.14413076389E+03  0.14413635905E+03  0.12700000000E+01 0.  1.
         25    2    1    2    0    0  0.00000000000E+00  0.00000000000E+00 -0.11705066402E+03  0.17124622274E+03  0.12499764341E+03 0.  0.
    9000005    1    3    3    0    0  0.31924920436E+02  0.53031870732E+02 -0.70272423742E+02  0.93652514098E+02  0.10000000000E+01 0.  0.
    9000005    1    3    3    0    0 -0.31924920436E+02 -0.53031870732E+02 -0.46778240274E+02  0.77593708645E+02  0.10000000000E+01 0.  0.
<mgrwt>
<rscale>  0 0.12499764E+03</rscale>
<asrwt>0</asrwt>
<pdfrwt beam="1">  1        4 0.41688892E-02 0.12499764E+03</pdfrwt>
<pdfrwt beam="2">  1       -4 0.22176683E-01 0.12499764E+03</pdfrwt>
<totfact> 0.95221903E+03</totfact>
</mgrwt>
</event>
<event>
 5    1  0.3241863E-002  0.1249763E+03  0.7818608E-02  0.1235106E+00
          4   -1    0    0  501    0  0.00000000000E+00  0.00000000000E+00  0.86613735466E+02  0.86623045844E+02  0.12700000000E+01 0. -1.
         -4   -1    0    0    0  501 -0.00000000000E+00 -0.00000000000E+00 -0.45061913171E+02  0.45079806106E+02  0.12700000000E+01 0. -1.
         25    2    1    2    0    0  0.00000000000E+00  0.00000000000E+00  0.41551822295E+02  0.13170285195E+03  0.12497634687E+03 0.  0.
    9000005    1    3    3    0    0  0.47041645428E+02  0.55544743244E+01  0.63711934659E+02  0.79397602027E+02  0.10000000000E+01 0.  0.
    9000005    1    3    3    0    0 -0.47041645428E+02 -0.55544743244E+01 -0.22160112364E+02  0.52305249924E+02  0.10000000000E+01 0.  0.
<mgrwt>
<rscale>  0 0.12497635E+03</rscale>
<asrwt>0</asrwt>
<pdfrwt beam="1">  1        4 0.13327282E-01 0.12497635E+03</pdfrwt>
<pdfrwt beam="2">  1       -4 0.69346947E-02 0.12497635E+03</pdfrwt>
<totfact> 0.10313547E+04</totfact>
</mgrwt>
</event>
<event>
 5    1  0.3241863E-002  0.1250006E+03  0.7818608E-02  0.1235068E+00
          4   -1    0    0  501    0  0.00000000000E+00  0.00000000000E+00  0.20570044387E+03  0.20570436434E+03  0.12700000000E+01 0.  1.
         -4   -1    0    0    0  501 -0.00000000000E+00 -0.00000000000E+00 -0.18964830232E+02  0.19007306114E+02  0.12700000000E+01 0.  1.
         25    2    1    2    0    0  0.00000000000E+00  0.00000000000E+00  0.18673561364E+03  0.22471167046E+03  0.12500058175E+03 0.  0.
    9000005    1    3    3    0    0 -0.52001711634E+02 -0.30837304680E+02  0.64934306399E+02  0.88727569111E+02  0.10000000000E+01 0.  0.
    9000005    1    3    3    0    0  0.52001711634E+02  0.30837304680E+02  0.12180130724E+03  0.13598410135E+03  0.10000000000E+01 0.  0.
<mgrwt>
<rscale>  0 0.12500058E+03</rscale>
<asrwt>0</asrwt>
<pdfrwt beam="1">  1        4 0.31649792E-01 0.12500058E+03</pdfrwt>
<pdfrwt beam="2">  1       -4 0.29212351E-02 0.12500058E+03</pdfrwt>
<totfact> 0.86127117E+03</totfact>
</mgrwt>
</event>
<event>
 4    1  0.3241863E-002  0.1249322E+03  0.7818608E-02  0.1235175E+00
          4   -1    0    0  501    0  0.00000000000E+00  0.00000000000E+00  0.59980885202E+01  0.61310656411E+01  0.12700000000E+01 0. -1.
         -4   -1    0    0    0  501 -0.00000000000E+00 -0.00000000000E+00 -0.64327743077E+03  0.64327868443E+03  0.12700000000E+01 0. -1.
    9000005    1    1    2    0    0 -0.29999182313E+02 -0.56706374235E+01 -0.60187193374E+03  0.60264660597E+03  0.10000000000E+01 0.  0.
    9000005    1    1    2    0    0  0.29999182313E+02  0.56706374235E+01 -0.35407408513E+02  0.46763144097E+02  0.10000000000E+01 0.  0.
<mgrwt>
<rscale>  0 0.12493224E+03</rscale>
<asrwt>0</asrwt>
<pdfrwt beam="1">  1        4 0.93310880E-03 0.12493224E+03</pdfrwt>
<pdfrwt beam="2">  1       -4 0.98976030E-01 0.12493224E+03</pdfrwt>
<totfact> 0.45958235E+03</totfact>
</mgrwt>
</event>
<event>
 5    1  0.3241863E-002  0.1250023E+03  0.7818608E-02  0.1235066E+00
          4   -1    0    0  501    0  0.00000000000E+00  0.00000000000E+00  0.11004635585E+03  0.11005368388E+03  0.12700000000E+01 0. -1.
         -4   -1    0    0    0  501 -0.00000000000E+00 -0.00000000000E+00 -0.35477829710E+02  0.35500553530E+02  0.12700000000E+01 0. -1.
         25    2    1    2    0    0  0.00000000000E+00  0.00000000000E+00  0.74568526136E+02  0.14555423741E+03  0.12500228373E+03 0.  0.
    9000005    1    3    3    0    0  0.57598022764E+02  0.64399675426E+01  0.64502326025E+02  0.86721136241E+02  0.10000000000E+01 0.  0.
    9000005    1    3    3    0    0 -0.57598022764E+02 -0.64399675426E+01  0.10066200111E+02  0.58833101167E+02  0.10000000000E+01 0.  0.
<mgrwt>
<rscale>  0 0.12500228E+03</rscale>
<asrwt>0</asrwt>
<pdfrwt beam="1">  1        4 0.16932520E-01 0.12500228E+03</pdfrwt>
<pdfrwt beam="2">  1       -4 0.54604394E-02 0.12500228E+03</pdfrwt>
<totfact> 0.10019225E+04</totfact>
</mgrwt>
</event>
<event>
 5    1  0.3241863E-002  0.1250017E+03  0.7818608E-02  0.1235067E+00
          4   -1    0    0  501    0  0.00000000000E+00  0.00000000000E+00  0.95350219045E+02  0.95358676437E+02  0.12700000000E+01 0. -1.
         -4   -1    0    0    0  501 -0.00000000000E+00 -0.00000000000E+00 -0.40948379353E+02  0.40968068928E+02  0.12700000000E+01 0. -1.
         25    2    1    2    0    0  0.00000000000E+00  0.00000000000E+00  0.54401839691E+02  0.13632674537E+03  0.12500168535E+03 0.  0.
    9000005    1    3    3    0    0  0.14139395532E+02 -0.59915292463E+02  0.38926285050E+02  0.72842435741E+02  0.10000000000E+01 0.  0.
    9000005    1    3    3    0    0 -0.14139395532E+02  0.59915292463E+02  0.15475554641E+02  0.63484309624E+02  0.10000000000E+01 0.  0.
<mgrwt>
<rscale>  0 0.12500169E+03</rscale>
<asrwt>0</asrwt>
<pdfrwt beam="1">  1        4 0.14671429E-01 0.12500169E+03</pdfrwt>
<pdfrwt beam="2">  1       -4 0.63019159E-02 0.12500169E+03</pdfrwt>
<totfact> 0.10209794E+04</totfact>
</mgrwt>
</event>
<event>
 5    1  0.3241863E-002  0.1249669E+03  0.7818608E-02  0.1235121E+00
         -4   -1    0    0    0  501 -0.00000000000E+00  0.00000000000E+00  0.79785360265E+01  0.80789811936E+01  0.12700000000E+01 0. -1.
          4   -1    0    0  501    0  0.00000000000E+00 -0.00000000000E+00 -0.48617371638E+03  0.48617537515E+03  0.12700000000E+01 0. -1.
         25    2    1    2    0    0  0.00000000000E+00  0.00000000000E+00 -0.47819518035E+03  0.49425435634E+03  0.12496694862E+03 0.  0.
    9000005    1    3    3    0    0 -0.51552983695E+02  0.34758791132E+02 -0.26325302385E+03  0.27049776017E+03  0.10000000000E+01 0.  0.
    9000005    1    3    3    0    0  0.51552983695E+02 -0.34758791132E+02 -0.21494215650E+03  0.22375659617E+03  0.10000000000E+01 0.  0.
<mgrwt>
<rscale>  0 0.12496695E+03</rscale>
<asrwt>0</asrwt>
<pdfrwt beam="2">  1        4 0.74803788E-01 0.12496695E+03</pdfrwt>
<pdfrwt beam="1">  1       -4 0.12353216E-02 0.12496695E+03</pdfrwt>
<totfact> 0.56353892E+03</totfact>
</mgrwt>
</event>
<event>
 5    1  0.3241863E-002  0.1249991E+03  0.7818608E-02  0.1235071E+00
          4   -1    0    0  501    0  0.00000000000E+00  0.00000000000E+00  0.36604264269E+02  0.36626289229E+02  0.12700000000E+01 0.  1.
         -4   -1    0    0    0  501 -0.00000000000E+00 -0.00000000000E+00 -0.10665623004E+03  0.10666379098E+03  0.12700000000E+01 0.  1.
         25    2    1    2    0    0  0.00000000000E+00  0.00000000000E+00 -0.70051965773E+02  0.14329008021E+03  0.12499907671E+03 0.  0.
    9000005    1    3    3    0    0 -0.56577980837E+02 -0.14229329442E+02 -0.60700954519E+02  0.84197076027E+02  0.10000000000E+01 0.  0.
    9000005    1    3    3    0    0  0.56577980837E+02  0.14229329442E+02 -0.93510112538E+01  0.59093004184E+02  0.10000000000E+01 0.  0.
<mgrwt>
<rscale>  0 0.12499908E+03</rscale>
<asrwt>0</asrwt>
<pdfrwt beam="1">  1        4 0.56337012E-02 0.12499908E+03</pdfrwt>
<pdfrwt beam="2">  1       -4 0.16410926E-01 0.12499908E+03</pdfrwt>
<totfact> 0.10066056E+04</totfact>
</mgrwt>
</event>
<event>
 5    1  0.3241863E-002  0.1249993E+03  0.7818608E-02  0.1235070E+00
         -4   -1    0    0    0  501 -0.00000000000E+00  0.00000000000E+00  0.66558351662E+02  0.66570466995E+02  0.12700000000E+01 0.  1.
          4   -1    0    0  501    0  0.00000000000E+00 -0.00000000000E+00 -0.58664103090E+02  0.58677848388E+02  0.12700000000E+01 0.  1.
         25    2    1    2    0    0  0.00000000000E+00  0.00000000000E+00  0.78942485715E+01  0.12524831538E+03  0.12499928538E+03 0.  0.
    9000005    1    3    3    0    0  0.22817164547E+02 -0.56407654711E+02  0.18214833504E+02  0.63523434003E+02  0.10000000000E+01 0.  0.
    9000005    1    3    3    0    0 -0.22817164547E+02  0.56407654711E+02 -0.10320584932E+02  0.61724881379E+02  0.10000000000E+01 0.  0.
<mgrwt>
<rscale>  0 0.12499929E+03</rscale>
<asrwt>0</asrwt>
<pdfrwt beam="2">  1        4 0.90272360E-02 0.12499929E+03</pdfrwt>
<pdfrwt beam="1">  1       -4 0.10241736E-01 0.12499929E+03</pdfrwt>
<totfact> 0.10447640E+04</totfact>
</mgrwt>
</event>
<event>
 5    1  0.3241863E-002  0.1249965E+03  0.7818608E-02  0.1235075E+00
          4   -1    0    0  501    0  0.00000000000E+00  0.00000000000E+00  0.50138469366E+02  0.50154551242E+02  0.12700000000E+01 0. -1.
         -4   -1    0    0    0  501 -0.00000000000E+00 -0.00000000000E+00 -0.77871119988E+02  0.77881475513E+02  0.12700000000E+01 0. -1.
         25    2    1    2    0    0  0.00000000000E+00  0.00000000000E+00 -0.27732650622E+02  0.12803602676E+03  0.12499649690E+03 0.  0.
    9000005    1    3    3    0    0  0.40916671823E+02 -0.19440541264E+02  0.30225995673E+02  0.54467600389E+02  0.10000000000E+01 0.  0.
    9000005    1    3    3    0    0 -0.40916671823E+02  0.19440541264E+02 -0.57958646295E+02  0.73568426367E+02  0.10000000000E+01 0.  0.
<mgrwt>
<rscale>  0 0.12499650E+03</rscale>
<asrwt>0</asrwt>
<pdfrwt beam="1">  1        4 0.77156444E-02 0.12499650E+03</pdfrwt>
<pdfrwt beam="2">  1       -4 0.11982206E-01 0.12499650E+03</pdfrwt>
<totfact> 0.10387531E+04</totfact>
</mgrwt>
</event>
<event>
 5    1  0.3241863E-002  0.1250090E+03  0.7818608E-02  0.1235055E+00
         -4   -1    0    0    0  501 -0.00000000000E+00  0.00000000000E+00  0.16259434640E+03  0.16259930622E+03  0.12700000000E+01 0. -1.
          4   -1    0    0  501    0  0.00000000000E+00 -0.00000000000E+00 -0.24005855130E+02  0.24039425545E+02  0.12700000000E+01 0. -1.
         25    2    1    2    0    0  0.00000000000E+00  0.00000000000E+00  0.13858849127E+03  0.18663873176E+03  0.12500898480E+03 0.  0.
    9000005    1    3    3    0    0 -0.91656328369E+01  0.64179801498E+01  0.16109402058E+03  0.16148524007E+03  0.10000000000E+01 0.  0.
    9000005    1    3    3    0    0  0.91656328369E+01 -0.64179801498E+01 -0.22505529310E+02  0.25153491687E+02  0.10000000000E+01 0.  0.
<mgrwt>
<rscale>  0 0.12500898E+03</rscale>
<asrwt>0</asrwt>
<pdfrwt beam="2">  1        4 0.36961723E-02 0.12500898E+03</pdfrwt>
<pdfrwt beam="1">  1       -4 0.25017479E-01 0.12500898E+03</pdfrwt>
<totfact> 0.92416868E+03</totfact>
</mgrwt>
</event>
<event>
 5    1  0.3241863E-002  0.1250007E+03  0.7818608E-02  0.1235068E+00
          4   -1    0    0  501    0  0.00000000000E+00  0.00000000000E+00  0.91227151255E+01  0.92106911392E+01  0.12700000000E+01 0. -1.
         -4   -1    0    0    0  501 -0.00000000000E+00 -0.00000000000E+00 -0.42605063163E+03  0.42605252448E+03  0.12700000000E+01 0. -1.
         25    2    1    2    0    0  0.00000000000E+00  0.00000000000E+00 -0.41692791651E+03  0.43526321562E+03  0.12500071723E+03 0.  0.
    9000005    1    3    3    0    0  0.42373655678E+02  0.30137477846E+02 -0.32916234077E+03  0.33324561639E+03  0.10000000000E+01 0.  0.
    9000005    1    3    3    0    0 -0.42373655678E+02 -0.30137477846E+02 -0.87765575741E+02  0.10201759922E+03  0.10000000000E+01 0.  0.
<mgrwt>
<rscale>  0 0.12500072E+03</rscale>
<asrwt>0</asrwt>
<pdfrwt beam="1">  1        4 0.14104080E-02 0.12500072E+03</pdfrwt>
<pdfrwt beam="2">  1       -4 0.65553149E-01 0.12500072E+03</pdfrwt>
<totfact> 0.61260832E+03</totfact>
</mgrwt>
</event>
<event>
 5    1  0.3241863E-002  0.1249979E+03  0.7818608E-02  0.1235073E+00
          4   -1    0    0  501    0  0.00000000000E+00  0.00000000000E+00  0.47275862507E+03  0.47276033090E+03  0.12700000000E+01 0. -1.
         -4   -1    0    0    0  501 -0.00000000000E+00 -0.00000000000E+00 -0.82118653381E+01  0.83094904977E+01  0.12700000000E+01 0. -1.
         25    2    1    2    0    0  0.00000000000E+00  0.00000000000E+00  0.46454675973E+03  0.48106982140E+03  0.12499792433E+03 0.  0.
    9000005    1    3    3    0    0 -0.37640622726E+02 -0.38771551754E+02  0.11148115414E+03  0.12389147442E+03  0.10000000000E+01 0.  0.
    9000005    1    3    3    0    0  0.37640622726E+02  0.38771551754E+02  0.35306560559E+03  0.35717834698E+03  0.10000000000E+01 0.  0.
<mgrwt>
<rscale>  0 0.12499792E+03</rscale>
<asrwt>0</asrwt>
<pdfrwt beam="1">  1        4 0.72739747E-01 0.12499792E+03</pdfrwt>
<pdfrwt beam="2">  1       -4 0.12710046E-02 0.12499792E+03</pdfrwt>
<totfact> 0.57366235E+03</totfact>
</mgrwt>
</event>
<event>
 5    1  0.3241863E-002  0.1250027E+03  0.7818608E-02  0.1235065E+00
          4   -1    0    0  501    0  0.00000000000E+00  0.00000000000E+00  0.10751543265E+02  0.10826291266E+02  0.12700000000E+01 0.  1.
         -4   -1    0    0    0  501 -0.00000000000E+00 -0.00000000000E+00 -0.36200098090E+03  0.36200320865E+03  0.12700000000E+01 0.  1.
         25    2    1    2    0    0  0.00000000000E+00  0.00000000000E+00 -0.35124943764E+03  0.37282949992E+03  0.12500267425E+03 0.  0.
    9000005    1    3    3    0    0 -0.30277967807E+02 -0.40233922628E+02 -0.28601588757E+03  0.29041627331E+03  0.10000000000E+01 0.  0.
    9000005    1    3    3    0    0  0.30277967807E+02  0.40233922628E+02 -0.65233550070E+02  0.82413226604E+02  0.10000000000E+01 0.  0.
<mgrwt>
<rscale>  0 0.12500267E+03</rscale>
<asrwt>0</asrwt>
<pdfrwt beam="1">  1        4 0.16600051E-02 0.12500267E+03</pdfrwt>
<pdfrwt beam="2">  1       -4 0.55698371E-01 0.12500267E+03</pdfrwt>
<totfact> 0.67279981E+03</totfact>
</mgrwt>
</event>
<event>
 5    1  0.3241863E-002  0.1249979E+03  0.7818608E-02  0.1235073E+00
         -4   -1    0    0    0  501 -0.00000000000E+00  0.00000000000E+00  0.66751532594E+02  0.66763612872E+02  0.12700000000E+01 0.  1.
          4   -1    0    0  501    0  0.00000000000E+00 -0.00000000000E+00 -0.58493015043E+02  0.58506800535E+02  0.12700000000E+01 0.  1.
         25    2    1    2    0    0  0.00000000000E+00  0.00000000000E+00  0.82585175512E+01  0.12527041341E+03  0.12499789343E+03 0.  0.
    9000005    1    3    3    0    0  0.36880649153E+02 -0.48581224554E+02  0.17753038046E+02  0.63533361480E+02  0.10000000000E+01 0.  0.
    9000005    1    3    3    0    0 -0.36880649153E+02  0.48581224554E+02 -0.94945204945E+01  0.61737051926E+02  0.10000000000E+01 0.  0.
<mgrwt>
<rscale>  0 0.12499789E+03</rscale>
<asrwt>0</asrwt>
<pdfrwt beam="2">  1        4 0.90009150E-02 0.12499789E+03</pdfrwt>
<pdfrwt beam="1">  1       -4 0.10271456E-01 0.12499789E+03</pdfrwt>
<totfact> 0.10447489E+04</totfact>
</mgrwt>
</event>
<event>
 5    1  0.3241863E-002  0.1249947E+03  0.7818608E-02  0.1235078E+00
          4   -1    0    0  501    0  0.00000000000E+00  0.00000000000E+00  0.71040503794E+02  0.71051854862E+02  0.12700000000E+01 0. -1.
         -4   -1    0    0    0  501 -0.00000000000E+00 -0.00000000000E+00 -0.54958466218E+02  0.54973138068E+02  0.12700000000E+01 0. -1.
         25    2    1    2    0    0  0.00000000000E+00  0.00000000000E+00  0.16082037576E+02  0.12602499293E+03  0.12499466753E+03 0.  0.
    9000005    1    3    3    0    0  0.51182065278E+02  0.20978679000E+02 -0.21271084507E+02  0.59271981701E+02  0.10000000000E+01 0.  0.
    9000005    1    3    3    0    0 -0.51182065278E+02 -0.20978679000E+02  0.37353122084E+02  0.66753011228E+02  0.10000000000E+01 0.  0.
<mgrwt>
<rscale>  0 0.12499467E+03</rscale>
<asrwt>0</asrwt>
<pdfrwt beam="1">  1        4 0.10931310E-01 0.12499467E+03</pdfrwt>
<pdfrwt beam="2">  1       -4 0.84571504E-02 0.12499467E+03</pdfrwt>
<totfact> 0.10431664E+04</totfact>
</mgrwt>
</event>
<event>
 5    1  0.3241863E-002  0.1250011E+03  0.7818608E-02  0.1235068E+00
         -4   -1    0    0    0  501 -0.00000000000E+00  0.00000000000E+00  0.26625190524E+02  0.26655462300E+02  0.12700000000E+01 0. -1.
          4   -1    0    0  501    0  0.00000000000E+00 -0.00000000000E+00 -0.14659868169E+03  0.14660418265E+03  0.12700000000E+01 0. -1.
         25    2    1    2    0    0  0.00000000000E+00  0.00000000000E+00 -0.11997349116E+03  0.17325964496E+03  0.12500106395E+03 0.  0.
    9000005    1    3    3    0    0 -0.55055230423E+02  0.21967263574E+02 -0.32555344853E+02  0.67634972791E+02  0.10000000000E+01 0.  0.
    9000005    1    3    3    0    0  0.55055230423E+02 -0.21967263574E+02 -0.87418146308E+02  0.10562467216E+03  0.10000000000E+01 0.  0.
<mgrwt>
<rscale>  0 0.12500106E+03</rscale>
<asrwt>0</asrwt>
<pdfrwt beam="2">  1        4 0.22556395E-01 0.12500106E+03</pdfrwt>
<pdfrwt beam="1">  1       -4 0.40989350E-02 0.12500106E+03</pdfrwt>
<totfact> 0.94842288E+03</totfact>
</mgrwt>
</event>
<event>
 5    1  0.3241863E-002  0.1250019E+03  0.7818608E-02  0.1235066E+00
         -4   -1    0    0    0  501 -0.00000000000E+00  0.00000000000E+00  0.79139470559E+02  0.79149660140E+02  0.12700000000E+01 0.  1.
          4   -1    0    0  501    0  0.00000000000E+00 -0.00000000000E+00 -0.49339043908E+02  0.49355386269E+02  0.12700000000E+01 0.  1.
         25    2    1    2    0    0  0.00000000000E+00  0.00000000000E+00  0.29800426650E+02  0.12850504641E+03  0.12500192608E+03 0.  0.
    9000005    1    3    3    0    0  0.52403675167E+02 -0.23151214653E+02  0.40564747836E+02  0.70204150005E+02  0.10000000000E+01 0.  0.
    9000005    1    3    3    0    0 -0.52403675167E+02  0.23151214653E+02 -0.10764321186E+02  0.58300896404E+02  0.10000000000E+01 0.  0.
<mgrwt>
<rscale>  0 0.12500193E+03</rscale>
<asrwt>0</asrwt>
<pdfrwt beam="2">  1        4 0.75926632E-02 0.12500193E+03</pdfrwt>
<pdfrwt beam="1">  1       -4 0.12177344E-01 0.12500193E+03</pdfrwt>
<totfact> 0.10376144E+04</totfact>
</mgrwt>
</event>
<event>
 5    1  0.3241863E-002  0.1250103E+03  0.7818608E-02  0.1235053E+00
         -4   -1    0    0    0  501 -0.00000000000E+00  0.00000000000E+00  0.14976870745E+03  0.14977409199E+03  0.12700000000E+01 0.  1.
          4   -1    0    0  501    0  0.00000000000E+00 -0.00000000000E+00 -0.26064874171E+02  0.26095795936E+02  0.12700000000E+01 0.  1.
         25    2    1    2    0    0  0.00000000000E+00  0.00000000000E+00  0.12370383328E+03  0.17586988793E+03  0.12501031602E+03 0.  0.
    9000005    1    3    3    0    0 -0.23343631065E+02 -0.51242665549E+02  0.23707037637E+02  0.61104496703E+02  0.10000000000E+01 0.  0.
    9000005    1    3    3    0    0  0.23343631065E+02  0.51242665549E+02  0.99996795647E+02  0.11476539123E+03  0.10000000000E+01 0.  0.
<mgrwt>
<rscale>  0 0.12501032E+03</rscale>
<asrwt>0</asrwt>
<pdfrwt beam="2">  1        4 0.40127734E-02 0.12501032E+03</pdfrwt>
<pdfrwt beam="1">  1       -4 0.23044133E-01 0.12501032E+03</pdfrwt>
<totfact> 0.94343930E+03</totfact>
</mgrwt>
</event>
<event>
 5    1  0.3241863E-002  0.1249983E+03  0.7818608E-02  0.1235072E+00
          4   -1    0    0  501    0  0.00000000000E+00  0.00000000000E+00  0.13170696846E+03  0.13171309138E+03  0.12700000000E+01 0.  1.
         -4   -1    0    0    0  501 -0.00000000000E+00 -0.00000000000E+00 -0.29637422306E+02  0.29664620358E+02  0.12700000000E+01 0.  1.
         25    2    1    2    0    0  0.00000000000E+00  0.00000000000E+00  0.10206954616E+03  0.16137771174E+03  0.12499829436E+03 0.  0.
    9000005    1    3    3    0    0  0.22105620327E+02 -0.51780252713E+02  0.86042902619E+02  0.10283109506E+03  0.10000000000E+01 0.  0.
    9000005    1    3    3    0    0 -0.22105620327E+02  0.51780252713E+02  0.16026643537E+02  0.58546616675E+02  0.10000000000E+01 0.  0.
<mgrwt>
<rscale>  0 0.12499829E+03</rscale>
<asrwt>0</asrwt>
<pdfrwt beam="1">  1        4 0.20265174E-01 0.12499829E+03</pdfrwt>
<pdfrwt beam="2">  1       -4 0.45621666E-02 0.12499829E+03</pdfrwt>
<totfact> 0.97081550E+03</totfact>
</mgrwt>
</event>
<event>
 5    1  0.3241863E-002  0.1250004E+03  0.7818608E-02  0.1235069E+00
          4   -1    0    0  501    0  0.00000000000E+00  0.00000000000E+00  0.66993445931E+03  0.66993566309E+03  0.12700000000E+01 0.  1.
         -4   -1    0    0    0  501 -0.00000000000E+00 -0.00000000000E+00 -0.57604544076E+01  0.58987909763E+01  0.12700000000E+01 0.  1.
         25    2    1    2    0    0  0.00000000000E+00  0.00000000000E+00  0.66417400490E+03  0.67583445406E+03  0.12500040202E+03 0.  0.
    9000005    1    3    3    0    0  0.57289641200E+01  0.58352424903E+02  0.21519202476E+03  0.22303908636E+03  0.10000000000E+01 0.  0.
    9000005    1    3    3    0    0 -0.57289641200E+01 -0.58352424903E+02  0.44898198014E+03  0.45279536770E+03  0.10000000000E+01 0.  0.
<mgrwt>
<rscale>  0 0.12500040E+03</rscale>
<asrwt>0</asrwt>
<pdfrwt beam="1">  1        4 0.10307752E+00 0.12500040E+03</pdfrwt>
<pdfrwt beam="2">  1       -4 0.89695812E-03 0.12500040E+03</pdfrwt>
<totfact> 0.44393060E+03</totfact>
</mgrwt>
</event>
<event>
 5    1  0.3241863E-002  0.1250087E+03  0.7818608E-02  0.1235056E+00
         -4   -1    0    0    0  501 -0.00000000000E+00  0.00000000000E+00  0.30581603729E+02  0.30607962798E+02  0.12700000000E+01 0. -1.
          4   -1    0    0  501    0  0.00000000000E+00 -0.00000000000E+00 -0.12766519620E+03  0.12767151295E+03  0.12700000000E+01 0. -1.
         25    2    1    2    0    0  0.00000000000E+00  0.00000000000E+00 -0.97083592467E+02  0.15827947575E+03  0.12500867377E+03 0.  0.
    9000005    1    3    3    0    0  0.29291573594E+02 -0.38094306471E+02  0.20505932637E+01  0.48107976489E+02  0.10000000000E+01 0.  0.
    9000005    1    3    3    0    0 -0.29291573594E+02  0.38094306471E+02 -0.99134185731E+02  0.11017149926E+03  0.10000000000E+01 0.  0.
<mgrwt>
<rscale>  0 0.12500867E+03</rscale>
<asrwt>0</asrwt>
<pdfrwt beam="2">  1        4 0.19643313E-01 0.12500867E+03</pdfrwt>
<pdfrwt beam="1">  1       -4 0.47073757E-02 0.12500867E+03</pdfrwt>
<totfact> 0.97656473E+03</totfact>
</mgrwt>
</event>
<event>
 5    1  0.3241863E-002  0.1249992E+03  0.7818608E-02  0.1235071E+00
          4   -1    0    0  501    0  0.00000000000E+00  0.00000000000E+00  0.28905830500E+02  0.28933716265E+02  0.12700000000E+01 0.  1.
         -4   -1    0    0    0  501 -0.00000000000E+00 -0.00000000000E+00 -0.13503930177E+03  0.13504527361E+03  0.12700000000E+01 0.  1.
         25    2    1    2    0    0  0.00000000000E+00  0.00000000000E+00 -0.10613347127E+03  0.16397898987E+03  0.12499918158E+03 0.  0.
    9000005    1    3    3    0    0  0.52412252182E+02  0.31825678839E+02 -0.68878677286E+02  0.92223588073E+02  0.10000000000E+01 0.  0.
    9000005    1    3    3    0    0 -0.52412252182E+02 -0.31825678839E+02 -0.37254793987E+02  0.71755401799E+02  0.10000000000E+01 0.  0.
<mgrwt>
<rscale>  0 0.12499918E+03</rscale>
<asrwt>0</asrwt>
<pdfrwt beam="1">  1        4 0.44496554E-02 0.12499918E+03</pdfrwt>
<pdfrwt beam="2">  1       -4 0.20777881E-01 0.12499918E+03</pdfrwt>
<totfact> 0.96582881E+03</totfact>
</mgrwt>
</event>
<event>
 5    1  0.3241863E-002  0.1250042E+03  0.7818608E-02  0.1235063E+00
          4   -1    0    0  501    0  0.00000000000E+00  0.00000000000E+00  0.17926360909E+02  0.17971291424E+02  0.12700000000E+01 0. -1.
         -4   -1    0    0    0  501 -0.00000000000E+00 -0.00000000000E+00 -0.21760043429E+03  0.21760414036E+03  0.12700000000E+01 0. -1.
         25    2    1    2    0    0  0.00000000000E+00  0.00000000000E+00 -0.19967407338E+03  0.23557543179E+03  0.12500419386E+03 0.  0.
    9000005    1    3    3    0    0 -0.63950468649E+00  0.33053719916E+02 -0.19978084754E+03  0.20250023312E+03  0.10000000000E+01 0.  0.
    9000005    1    3    3    0    0  0.63950468649E+00 -0.33053719916E+02  0.10677416210E+00  0.33075198673E+02  0.10000000000E+01 0.  0.
<mgrwt>
<rscale>  0 0.12500419E+03</rscale>
<asrwt>0</asrwt>
<pdfrwt beam="1">  1        4 0.27616431E-02 0.12500419E+03</pdfrwt>
<pdfrwt beam="2">  1       -4 0.33480729E-01 0.12500419E+03</pdfrwt>
<totfact> 0.84452874E+03</totfact>
</mgrwt>
</event>
<event>
 5    1  0.3241863E-002  0.1249949E+03  0.7818608E-02  0.1235077E+00
         -4   -1    0    0    0  501 -0.00000000000E+00  0.00000000000E+00  0.93595255229E+02  0.93603871188E+02  0.12700000000E+01 0.  1.
          4   -1    0    0  501    0  0.00000000000E+00 -0.00000000000E+00 -0.41711944847E+02  0.41731274159E+02  0.12700000000E+01 0.  1.
         25    2    1    2    0    0  0.00000000000E+00  0.00000000000E+00  0.51883310382E+02  0.13533514535E+03  0.12499489458E+03 0.  0.
    9000005    1    3    3    0    0 -0.13908435532E+02 -0.59290715242E+02  0.10779732980E+02  0.61854960480E+02  0.10000000000E+01 0.  0.
    9000005    1    3    3    0    0  0.13908435532E+02  0.59290715242E+02  0.41103577402E+02  0.73480184867E+02  0.10000000000E+01 0.  0.
<mgrwt>
<rscale>  0 0.12499489E+03</rscale>
<asrwt>0</asrwt>
<pdfrwt beam="2">  1        4 0.64193720E-02 0.12499489E+03</pdfrwt>
<pdfrwt beam="1">  1       -4 0.14401419E-01 0.12499489E+03</pdfrwt>
<totfact> 0.10232190E+04</totfact>
</mgrwt>
</event>
<event>
 5    1  0.3241863E-002  0.1250013E+03  0.7818608E-02  0.1235067E+00
          4   -1    0    0  501    0  0.00000000000E+00  0.00000000000E+00  0.19445831755E+03  0.19446246467E+03  0.12700000000E+01 0.  1.
         -4   -1    0    0    0  501 -0.00000000000E+00 -0.00000000000E+00 -0.20063828820E+02  0.20103982862E+02  0.12700000000E+01 0.  1.
         25    2    1    2    0    0  0.00000000000E+00  0.00000000000E+00  0.17439448873E+03  0.21456644753E+03  0.12500129081E+03 0.  0.
    9000005    1    3    3    0    0 -0.40974799774E+02  0.58211037020E+01  0.16757173331E+03  0.17260969055E+03  0.10000000000E+01 0.  0.
    9000005    1    3    3    0    0  0.40974799774E+02 -0.58211037020E+01  0.68227554149E+01  0.41956756980E+02  0.10000000000E+01 0.  0.
<mgrwt>
<rscale>  0 0.12500129E+03</rscale>
<asrwt>0</asrwt>
<pdfrwt beam="1">  1        4 0.29920070E-01 0.12500129E+03</pdfrwt>
<pdfrwt beam="2">  1       -4 0.30901509E-02 0.12500129E+03</pdfrwt>
<totfact> 0.87732979E+03</totfact>
</mgrwt>
</event>
<event>
 5    1  0.3241863E-002  0.1249989E+03  0.7818608E-02  0.1235071E+00
         -4   -1    0    0    0  501 -0.00000000000E+00  0.00000000000E+00  0.10280748728E+03  0.10281533125E+03  0.12700000000E+01 0.  1.
          4   -1    0    0  501    0  0.00000000000E+00 -0.00000000000E+00 -0.37975179335E+02  0.37996409640E+02  0.12700000000E+01 0.  1.
         25    2    1    2    0    0  0.00000000000E+00  0.00000000000E+00  0.64832307942E+02  0.14081174089E+03  0.12499887287E+03 0.  0.
    9000005    1    3    3    0    0  0.31370780640E+02 -0.29247850487E+02 -0.18782396085E+02  0.46833119037E+02  0.10000000000E+01 0.  0.
    9000005    1    3    3    0    0 -0.31370780640E+02  0.29247850487E+02  0.83614704027E+02  0.93978621854E+02  0.10000000000E+01 0.  0.
<mgrwt>
<rscale>  0 0.12499887E+03</rscale>
<asrwt>0</asrwt>
<pdfrwt beam="2">  1        4 0.58445718E-02 0.12499887E+03</pdfrwt>
<pdfrwt beam="1">  1       -4 0.15818773E-01 0.12499887E+03</pdfrwt>
<totfact> 0.10117047E+04</totfact>
</mgrwt>
</event>
<event>
 5    1  0.3241863E-002  0.1250044E+03  0.7818608E-02  0.1235062E+00
          4   -1    0    0  501    0  0.00000000000E+00  0.00000000000E+00  0.23162116625E+03  0.23162464799E+03  0.12700000000E+01 0. -1.
         -4   -1    0    0    0  501 -0.00000000000E+00 -0.00000000000E+00 -0.16838479786E+02  0.16886305146E+02  0.12700000000E+01 0. -1.
         25    2    1    2    0    0  0.00000000000E+00  0.00000000000E+00  0.21478268647E+03  0.24851095314E+03  0.12500436561E+03 0.  0.
    9000005    1    3    3    0    0  0.51002515352E+02 -0.14022908524E+02  0.17355455759E+03  0.18143892360E+03  0.10000000000E+01 0.  0.
    9000005    1    3    3    0    0 -0.51002515352E+02  0.14022908524E+02  0.41228128875E+02  0.67072029537E+02  0.10000000000E+01 0.  0.
<mgrwt>
<rscale>  0 0.12500437E+03</rscale>
<asrwt>0</asrwt>
<pdfrwt beam="1">  1        4 0.35637974E-01 0.12500437E+03</pdfrwt>
<pdfrwt beam="2">  1       -4 0.25944819E-02 0.12500437E+03</pdfrwt>
<totfact> 0.82537888E+03</totfact>
</mgrwt>
</event>
<event>
 5    1  0.3241863E-002  0.1250000E+03  0.7818608E-02  0.1235069E+00
         -4   -1    0    0    0  501 -0.00000000000E+00  0.00000000000E+00  0.76652619559E+01  0.77697580949E+01  0.12700000000E+01 0. -1.
          4   -1    0    0  501    0  0.00000000000E+00 -0.00000000000E+00 -0.50604891214E+03  0.50605050576E+03  0.12700000000E+01 0. -1.
         25    2    1    2    0    0  0.00000000000E+00  0.00000000000E+00 -0.49838365019E+03  0.51382026386E+03  0.12500000310E+03 0.  0.
    9000005    1    3    3    0    0 -0.28974701660E+01 -0.11098642817E+02 -0.50170465596E+03  0.50183676332E+03  0.10000000000E+01 0.  0.
    9000005    1    3    3    0    0  0.28974701660E+01  0.11098642817E+02  0.33210057746E+01  0.11983500536E+02  0.10000000000E+01 0.  0.
<mgrwt>
<rscale>  0 0.12500000E+03</rscale>
<asrwt>0</asrwt>
<pdfrwt beam="2">  1        4 0.77861813E-01 0.12500000E+03</pdfrwt>
<pdfrwt beam="1">  1       -4 0.11874322E-02 0.12500000E+03</pdfrwt>
<totfact> 0.54807812E+03</totfact>
</mgrwt>
</event>
<event>
 5    1  0.3241863E-002  0.1250023E+03  0.7818608E-02  0.1235066E+00
         -4   -1    0    0    0  501 -0.00000000000E+00  0.00000000000E+00  0.20907870435E+03  0.20908256148E+03  0.12700000000E+01 0. -1.
          4   -1    0    0  501    0  0.00000000000E+00 -0.00000000000E+00 -0.18658222399E+02  0.18701394683E+02  0.12700000000E+01 0. -1.
         25    2    1    2    0    0  0.00000000000E+00  0.00000000000E+00  0.19042048195E+03  0.22778395616E+03  0.12500228293E+03 0.  0.
    9000005    1    3    3    0    0  0.53424064185E+02  0.30211491989E+02  0.11665759193E+03  0.13182131329E+03  0.10000000000E+01 0.  0.
    9000005    1    3    3    0    0 -0.53424064185E+02 -0.30211491989E+02  0.73762890024E+02  0.95962642872E+02  0.10000000000E+01 0.  0.
<mgrwt>
<rscale>  0 0.12500228E+03</rscale>
<asrwt>0</asrwt>
<pdfrwt beam="2">  1        4 0.28741133E-02 0.12500228E+03</pdfrwt>
<pdfrwt beam="1">  1       -4 0.32169573E-01 0.12500228E+03</pdfrwt>
<totfact> 0.85646673E+03</totfact>
</mgrwt>
</event>
<event>
 5    1  0.3241863E-002  0.1250004E+03  0.7818608E-02  0.1235069E+00
          4   -1    0    0  501    0  0.00000000000E+00  0.00000000000E+00  0.66809041830E+03  0.66809162540E+03  0.12700000000E+01 0.  1.
         -4   -1    0    0    0  501 -0.00000000000E+00 -0.00000000000E+00 -0.57767381766E+01  0.59146939026E+01  0.12700000000E+01 0.  1.
         25    2    1    2    0    0  0.00000000000E+00  0.00000000000E+00  0.66231368012E+03  0.67400631930E+03  0.12500043030E+03 0.  0.
    9000005    1    3    3    0    0 -0.37363709549E+02 -0.25325258198E+02  0.98119891980E+02  0.10800892878E+03  0.10000000000E+01 0.  0.
    9000005    1    3    3    0    0  0.37363709549E+02  0.25325258198E+02  0.56419378814E+03  0.56599739052E+03  0.10000000000E+01 0.  0.
<mgrwt>
<rscale>  0 0.12500043E+03</rscale>
<asrwt>0</asrwt>
<pdfrwt beam="1">  1        4 0.10279386E+00 0.12500043E+03</pdfrwt>
<pdfrwt beam="2">  1       -4 0.89943364E-03 0.12500043E+03</pdfrwt>
<totfact> 0.44494417E+03</totfact>
</mgrwt>
</event>
<event>
 4    1  0.3241863E-002  0.1288842E+03  0.7818608E-02  0.1229121E+00
          4   -1    0    0  501    0  0.00000000000E+00  0.00000000000E+00  0.47472247403E+01  0.49141675526E+01  0.12700000000E+01 0.  1.
         -4   -1    0    0    0  501 -0.00000000000E+00 -0.00000000000E+00 -0.85949866833E+03  0.85949960661E+03  0.12700000000E+01 0.  1.
    9000005    1    1    2    0    0  0.31459492565E+02  0.22827572425E+02 -0.77204703006E+03  0.77302549399E+03  0.10000000000E+01 0.  0.
    9000005    1    1    2    0    0 -0.31459492565E+02 -0.22827572425E+02 -0.82704413531E+02  0.91388280172E+02  0.10000000000E+01 0.  0.
<mgrwt>
<rscale>  0 0.12888422E+03</rscale>
<asrwt>0</asrwt>
<pdfrwt beam="1">  1        4 0.74325688E-03 0.12888422E+03</pdfrwt>
<pdfrwt beam="2">  1       -4 0.13224336E+00 0.12888422E+03</pdfrwt>
<totfact> 0.32692149E+03</totfact>
</mgrwt>
</event>
<event>
 5    1  0.3241863E-002  0.1250074E+03  0.7818608E-02  0.1235058E+00
         -4   -1    0    0    0  501 -0.00000000000E+00  0.00000000000E+00  0.13124164530E+03  0.13124778993E+03  0.12700000000E+01 0. -1.
          4   -1    0    0  501    0  0.00000000000E+00 -0.00000000000E+00 -0.29746952268E+02  0.29774050265E+02  0.12700000000E+01 0. -1.
         25    2    1    2    0    0  0.00000000000E+00  0.00000000000E+00  0.10149469303E+03  0.16102184019E+03  0.12500744100E+03 0.  0.
    9000005    1    3    3    0    0 -0.44891757818E+02  0.12454077919E+02 -0.29115017780E+01  0.46688872544E+02  0.10000000000E+01 0.  0.
    9000005    1    3    3    0    0  0.44891757818E+02 -0.12454077919E+02  0.10440619481E+03  0.11433296765E+03  0.10000000000E+01 0.  0.
<mgrwt>
<rscale>  0 0.12500744E+03</rscale>
<asrwt>0</asrwt>
<pdfrwt beam="2">  1        4 0.45790114E-02 0.12500744E+03</pdfrwt>
<pdfrwt beam="1">  1       -4 0.20193579E-01 0.12500744E+03</pdfrwt>
<totfact> 0.97129899E+03</totfact>
</mgrwt>
</event>
<event>
 5    1  0.3241863E-002  0.1249999E+03  0.7818608E-02  0.1235069E+00
          4   -1    0    0  501    0  0.00000000000E+00  0.00000000000E+00  0.81203900272E+02  0.81213830838E+02  0.12700000000E+01 0.  1.
         -4   -1    0    0    0  501 -0.00000000000E+00 -0.00000000000E+00 -0.48082856764E+02  0.48099625930E+02  0.12700000000E+01 0.  1.
         25    2    1    2    0    0  0.00000000000E+00  0.00000000000E+00  0.33121043508E+02  0.12931345677E+03  0.12499986631E+03 0.  0.
    9000005    1    3    3    0    0 -0.72183864258E+01  0.49802160241E+02 -0.21770525046E+02  0.54839000976E+02  0.10000000000E+01 0.  0.
    9000005    1    3    3    0    0  0.72183864258E+01 -0.49802160241E+02  0.54891568555E+02  0.74474455793E+02  0.10000000000E+01 0.  0.
<mgrwt>
<rscale>  0 0.12499987E+03</rscale>
<asrwt>0</asrwt>
<pdfrwt beam="1">  1        4 0.12494961E-01 0.12499987E+03</pdfrwt>
<pdfrwt beam="2">  1       -4 0.73994165E-02 0.12499987E+03</pdfrwt>
<totfact> 0.10359247E+04</totfact>
</mgrwt>
</event>
<event>
 5    1  0.3241863E-002  0.1250026E+03  0.7818608E-02  0.1235065E+00
         -4   -1    0    0    0  501 -0.00000000000E+00  0.00000000000E+00  0.10633497688E+02  0.10709069664E+02  0.12700000000E+01 0. -1.
          4   -1    0    0  501    0  0.00000000000E+00 -0.00000000000E+00 -0.36599077354E+03  0.36599297700E+03  0.12700000000E+01 0. -1.
         25    2    1    2    0    0  0.00000000000E+00  0.00000000000E+00 -0.35535727585E+03  0.37670204667E+03  0.12500255383E+03 0.  0.
    9000005    1    3    3    0    0  0.32777140411E+02 -0.51287375250E+02 -0.22036847087E+03  0.22862195596E+03  0.10000000000E+01 0.  0.
    9000005    1    3    3    0    0 -0.32777140411E+02  0.51287375250E+02 -0.13498880499E+03  0.14808009071E+03  0.10000000000E+01 0.  0.
<mgrwt>
<rscale>  0 0.12500255E+03</rscale>
<asrwt>0</asrwt>
<pdfrwt beam="2">  1        4 0.56312246E-01 0.12500255E+03</pdfrwt>
<pdfrwt beam="1">  1       -4 0.16419057E-02 0.12500255E+03</pdfrwt>
<totfact> 0.66879787E+03</totfact>
</mgrwt>
</event>
<event>
 5    1  0.3241863E-002  0.1250013E+03  0.7818608E-02  0.1235067E+00
          4   -1    0    0  501    0  0.00000000000E+00  0.00000000000E+00  0.15425807999E+03  0.15426330783E+03  0.12700000000E+01 0.  1.
         -4   -1    0    0    0  501 -0.00000000000E+00 -0.00000000000E+00 -0.25301749260E+02  0.25333602500E+02  0.12700000000E+01 0.  1.
         25    2    1    2    0    0  0.00000000000E+00  0.00000000000E+00  0.12895633073E+03  0.17959691033E+03  0.12500125985E+03 0.  0.
    9000005    1    3    3    0    0 -0.54306244904E+02  0.17615561072E+02  0.27964860100E+02  0.63580733150E+02  0.10000000000E+01 0.  0.
    9000005    1    3    3    0    0  0.54306244904E+02 -0.17615561072E+02  0.10099147063E+03  0.11601617718E+03  0.10000000000E+01 0.  0.
<mgrwt>
<rscale>  0 0.12500126E+03</rscale>
<asrwt>0</asrwt>
<pdfrwt beam="1">  1        4 0.23734865E-01 0.12500126E+03</pdfrwt>
<pdfrwt beam="2">  1       -4 0.38954291E-02 0.12500126E+03</pdfrwt>
<totfact> 0.93686963E+03</totfact>
</mgrwt>
</event>
<event>
 5    1  0.3241863E-002  0.1250011E+03  0.7818608E-02  0.1235067E+00
          4   -1    0    0  501    0  0.00000000000E+00  0.00000000000E+00  0.98333604245E+03  0.98333686257E+03  0.12700000000E+01 0. -1.
         -4   -1    0    0    0  501 -0.00000000000E+00 -0.00000000000E+00 -0.38701728715E+01  0.40732220729E+01  0.12700000000E+01 0. -1.
         25    2    1    2    0    0  0.00000000000E+00  0.00000000000E+00  0.97946586958E+03  0.98741008464E+03  0.12500114231E+03 0.  0.
    9000005    1    3    3    0    0  0.42875937522E+02 -0.28116669856E+02  0.77194903143E+03  0.77365056729E+03  0.10000000000E+01 0.  0.
    9000005    1    3    3    0    0 -0.42875937522E+02  0.28116669856E+02  0.20751683815E+03  0.21375951735E+03  0.10000000000E+01 0.  0.
<mgrwt>
<rscale>  0 0.12500114E+03</rscale>
<asrwt>0</asrwt>
<pdfrwt beam="1">  1        4 0.15129830E+00 0.12500114E+03</pdfrwt>
<pdfrwt beam="2">  1       -4 0.61109285E-03 0.12500114E+03</pdfrwt>
<totfact> 0.31023053E+03</totfact>
</mgrwt>
</event>
<event>
 5    1  0.3241863E-002  0.1249997E+03  0.7818608E-02  0.1235070E+00
          4   -1    0    0  501    0  0.00000000000E+00  0.00000000000E+00  0.88031159106E+02  0.88040319591E+02  0.12700000000E+01 0. -1.
         -4   -1    0    0    0  501 -0.00000000000E+00 -0.00000000000E+00 -0.44352740248E+02  0.44370919164E+02  0.12700000000E+01 0. -1.
         25    2    1    2    0    0  0.00000000000E+00  0.00000000000E+00  0.43678418859E+02  0.13241123875E+03  0.12499972750E+03 0.  0.
    9000005    1    3    3    0    0  0.12840380976E+02  0.61029893945E+02  0.26037753942E+02  0.67590590831E+02  0.10000000000E+01 0.  0.
    9000005    1    3    3    0    0 -0.12840380976E+02 -0.61029893945E+02  0.17640664917E+02  0.64820647924E+02  0.10000000000E+01 0.  0.
<mgrwt>
<rscale>  0 0.12499973E+03</rscale>
<asrwt>0</asrwt>
<pdfrwt beam="1">  1        4 0.13545358E-01 0.12499973E+03</pdfrwt>
<pdfrwt beam="2">  1       -4 0.68256016E-02 0.12499973E+03</pdfrwt>
<totfact> 0.10292992E+04</totfact>
</mgrwt>
</event>
<event>
 5    1  0.3241863E-002  0.1250088E+03  0.7818608E-02  0.1235055E+00
          4   -1    0    0  501    0  0.00000000000E+00  0.00000000000E+00  0.64354014780E+03  0.64354140094E+03  0.12700000000E+01 0.  1.
         -4   -1    0    0    0  501 -0.00000000000E+00 -0.00000000000E+00 -0.60031054882E+01  0.61359738838E+01  0.12700000000E+01 0.  1.
         25    2    1    2    0    0  0.00000000000E+00  0.00000000000E+00  0.63753704231E+03  0.64967737483E+03  0.12500884387E+03 0.  0.
    9000005    1    3    3    0    0 -0.16116842737E+01 -0.53608956597E+02  0.15203426843E+03  0.16122014927E+03  0.10000000000E+01 0.  0.
    9000005    1    3    3    0    0  0.16116842737E+01  0.53608956597E+02  0.48550277388E+03  0.48845722556E+03  0.10000000000E+01 0.  0.
<mgrwt>
<rscale>  0 0.12500884E+03</rscale>
<asrwt>0</asrwt>
<pdfrwt beam="1">  1        4 0.99016459E-01 0.12500884E+03</pdfrwt>
<pdfrwt beam="2">  1       -4 0.93387206E-03 0.12500884E+03</pdfrwt>
<totfact> 0.45865778E+03</totfact>
</mgrwt>
</event>
<event>
 5    1  0.3241863E-002  0.1249968E+03  0.7818608E-02  0.1235074E+00
          4   -1    0    0  501    0  0.00000000000E+00  0.00000000000E+00  0.17291838530E+02  0.17338413415E+02  0.12700000000E+01 0. -1.
         -4   -1    0    0    0  501 -0.00000000000E+00 -0.00000000000E+00 -0.22553762332E+03  0.22554119897E+03  0.12700000000E+01 0. -1.
         25    2    1    2    0    0  0.00000000000E+00  0.00000000000E+00 -0.20824578479E+03  0.24287961239E+03  0.12499679688E+03 0.  0.
    9000005    1    3    3    0    0  0.18260007521E+02 -0.40485399068E+02 -0.18954259212E+03  0.19467893990E+03  0.10000000000E+01 0.  0.
    9000005    1    3    3    0    0 -0.18260007521E+02  0.40485399068E+02 -0.18703192675E+02  0.48200672491E+02  0.10000000000E+01 0.  0.
<mgrwt>
<rscale>  0 0.12499680E+03</rscale>
<asrwt>0</asrwt>
<pdfrwt beam="1">  1        4 0.26641407E-02 0.12499680E+03</pdfrwt>
<pdfrwt beam="2">  1       -4 0.34701952E-01 0.12499680E+03</pdfrwt>
<totfact> 0.83376314E+03</totfact>
</mgrwt>
</event>
<event>
 5    1  0.3241863E-002  0.1250027E+03  0.7818608E-02  0.1235065E+00
         -4   -1    0    0    0  501 -0.00000000000E+00  0.00000000000E+00  0.27205334133E+02  0.27234961085E+02  0.12700000000E+01 0.  1.
          4   -1    0    0  501    0  0.00000000000E+00 -0.00000000000E+00 -0.14347964374E+03  0.14348526428E+03  0.12700000000E+01 0.  1.
         25    2    1    2    0    0  0.00000000000E+00  0.00000000000E+00 -0.11627430960E+03  0.17072022537E+03  0.12500272107E+03 0.  0.
    9000005    1    3    3    0    0  0.54469073249E+02 -0.75408147466E+01 -0.17584426542E+02  0.57740418119E+02  0.10000000000E+01 0.  0.
    9000005    1    3    3    0    0 -0.54469073249E+02  0.75408147466E+01 -0.98689883060E+02  0.11297980725E+03  0.10000000000E+01 0.  0.
<mgrwt>
<rscale>  0 0.12500272E+03</rscale>
<asrwt>0</asrwt>
<pdfrwt beam="2">  1        4 0.22076502E-01 0.12500272E+03</pdfrwt>
<pdfrwt beam="1">  1       -4 0.41881475E-02 0.12500272E+03</pdfrwt>
<totfact> 0.95308746E+03</totfact>
</mgrwt>
</event>
<event>
 5    1  0.3241863E-002  0.1250014E+03  0.7818608E-02  0.1235067E+00
         -4   -1    0    0    0  501 -0.00000000000E+00  0.00000000000E+00  0.21259759111E+02  0.21297658497E+02  0.12700000000E+01 0. -1.
          4   -1    0    0  501    0  0.00000000000E+00 -0.00000000000E+00 -0.18353951092E+03  0.18354390475E+03  0.12700000000E+01 0. -1.
         25    2    1    2    0    0  0.00000000000E+00  0.00000000000E+00 -0.16227975181E+03  0.20484156324E+03  0.12500139273E+03 0.  0.
    9000005    1    3    3    0    0 -0.41722636347E+02  0.46482161002E+02 -0.84403909541E+02  0.10500661703E+03  0.10000000000E+01 0.  0.
    9000005    1    3    3    0    0  0.41722636347E+02 -0.46482161002E+02 -0.77875842269E+02  0.99834946208E+02  0.10000000000E+01 0.  0.
<mgrwt>
<rscale>  0 0.12500139E+03</rscale>
<asrwt>0</asrwt>
<pdfrwt beam="2">  1        4 0.28240100E-01 0.12500139E+03</pdfrwt>
<pdfrwt beam="1">  1       -4 0.32739856E-02 0.12500139E+03</pdfrwt>
<totfact> 0.89322530E+03</totfact>
</mgrwt>
</event>
<event>
 5    1  0.3241863E-002  0.1250034E+03  0.7818608E-02  0.1235064E+00
         -4   -1    0    0    0  501 -0.00000000000E+00  0.00000000000E+00  0.44445660145E+01  0.46224524937E+01  0.12700000000E+01 0. -1.
          4   -1    0    0  501    0  0.00000000000E+00 -0.00000000000E+00 -0.86150831372E+03  0.86150924981E+03  0.12700000000E+01 0. -1.
         25    2    1    2    0    0  0.00000000000E+00  0.00000000000E+00 -0.85706374770E+03  0.86613170230E+03  0.12500343237E+03 0.  0.
    9000005    1    3    3    0    0  0.21175272283E+02 -0.12570143743E+02 -0.30555438483E+02  0.39256024899E+02  0.10000000000E+01 0.  0.
    9000005    1    3    3    0    0 -0.21175272283E+02  0.12570143743E+02 -0.82650830922E+03  0.82687567740E+03  0.10000000000E+01 0.  0.
<mgrwt>
<rscale>  0 0.12500343E+03</rscale>
<asrwt>0</asrwt>
<pdfrwt beam="2">  1        4 0.13255337E+00 0.12500343E+03</pdfrwt>
<pdfrwt beam="1">  1       -4 0.69753565E-03 0.12500343E+03</pdfrwt>
<totfact> 0.35473517E+03</totfact>
</mgrwt>
</event>
<event>
 5    1  0.3241863E-002  0.1250000E+03  0.7818608E-02  0.1235069E+00
         -4   -1    0    0    0  501 -0.00000000000E+00  0.00000000000E+00  0.63671418170E+03  0.63671544828E+03  0.12700000000E+01 0.  1.
          4   -1    0    0  501    0  0.00000000000E+00 -0.00000000000E+00 -0.60680024800E+01  0.61994801473E+01  0.12700000000E+01 0.  1.
         25    2    1    2    0    0  0.00000000000E+00  0.00000000000E+00  0.63064617922E+03  0.64291492843E+03  0.12500000732E+03 0.  0.
    9000005    1    3    3    0    0 -0.75322096634E+01  0.20332521460E+01  0.63422472645E+03  0.63427349932E+03  0.10000000000E+01 0.  0.
    9000005    1    3    3    0    0  0.75322096634E+01 -0.20332521460E+01 -0.35785472325E+01  0.86414291062E+01  0.10000000000E+01 0.  0.
<mgrwt>
<rscale>  0 0.12500001E+03</rscale>
<asrwt>0</asrwt>
<pdfrwt beam="2">  1        4 0.94375036E-03 0.12500001E+03</pdfrwt>
<pdfrwt beam="1">  1       -4 0.97966195E-01 0.12500001E+03</pdfrwt>
<totfact> 0.46266022E+03</totfact>
</mgrwt>
</event>
<event>
 5    1  0.3241863E-002  0.1249686E+03  0.7818608E-02  0.1235118E+00
         -4   -1    0    0    0  501 -0.00000000000E+00  0.00000000000E+00  0.12354046157E+03  0.12354698922E+03  0.12700000000E+01 0.  1.
          4   -1    0    0  501    0  0.00000000000E+00 -0.00000000000E+00 -0.31583168354E+02  0.31608692210E+02  0.12700000000E+01 0.  1.
         25    2    1    2    0    0  0.00000000000E+00  0.00000000000E+00  0.91957293214E+02  0.15515568143E+03  0.12496856286E+03 0.  0.
    9000005    1    3    3    0    0  0.46231550697E+02 -0.23543044648E+02  0.27614837532E+01  0.51963997379E+02  0.10000000000E+01 0.  0.
    9000005    1    3    3    0    0 -0.46231550697E+02  0.23543044648E+02  0.89195809461E+02  0.10319168405E+03  0.10000000000E+01 0.  0.
<mgrwt>
<rscale>  0 0.12496856E+03</rscale>
<asrwt>0</asrwt>
<pdfrwt beam="2">  1        4 0.48614145E-02 0.12496856E+03</pdfrwt>
<pdfrwt beam="1">  1       -4 0.19008690E-01 0.12496856E+03</pdfrwt>
<totfact> 0.98354465E+03</totfact>
</mgrwt>
</event>
<event>
 5    1  0.3241863E-002  0.1250058E+03  0.7818608E-02  0.1235060E+00
          4   -1    0    0  501    0  0.00000000000E+00  0.00000000000E+00  0.12515883717E+02  0.12580152829E+02  0.12700000000E+01 0.  1.
         -4   -1    0    0    0  501 -0.00000000000E+00 -0.00000000000E+00 -0.31126748097E+03  0.31127007182E+03  0.12700000000E+01 0.  1.
         25    2    1    2    0    0  0.00000000000E+00  0.00000000000E+00 -0.29875159725E+03  0.32385022465E+03  0.12500580443E+03 0.  0.
    9000005    1    3    3    0    0  0.41776374752E+01 -0.43178227130E+02 -0.26592194246E+03  0.26943884544E+03  0.10000000000E+01 0.  0.
    9000005    1    3    3    0    0 -0.41776374752E+01  0.43178227130E+02 -0.32829654797E+02  0.54411379206E+02  0.10000000000E+01 0.  0.
<mgrwt>
<rscale>  0 0.12500580E+03</rscale>
<asrwt>0</asrwt>
<pdfrwt beam="1">  1        4 0.19306639E-02 0.12500580E+03</pdfrwt>
<pdfrwt beam="2">  1       -4 0.47892442E-01 0.12500580E+03</pdfrwt>
<totfact> 0.72691172E+03</totfact>
</mgrwt>
</event>
<event>
 5    1  0.3241863E-002  0.1249957E+03  0.7818608E-02  0.1235076E+00
         -4   -1    0    0    0  501 -0.00000000000E+00  0.00000000000E+00  0.70359120848E+02  0.70370581826E+02  0.12700000000E+01 0. -1.
          4   -1    0    0  501    0  0.00000000000E+00 -0.00000000000E+00 -0.55491657863E+02  0.55506188775E+02  0.12700000000E+01 0. -1.
         25    2    1    2    0    0  0.00000000000E+00  0.00000000000E+00  0.14867462985E+02  0.12587677060E+03  0.12499567961E+03 0.  0.
    9000005    1    3    3    0    0  0.26647386055E+01 -0.56600808290E+02  0.33967659324E+02  0.66072340740E+02  0.10000000000E+01 0.  0.
    9000005    1    3    3    0    0 -0.26647386055E+01  0.56600808290E+02 -0.19100196338E+02  0.59804429861E+02  0.10000000000E+01 0.  0.
<mgrwt>
<rscale>  0 0.12499568E+03</rscale>
<asrwt>0</asrwt>
<pdfrwt beam="2">  1        4 0.85391775E-02 0.12499568E+03</pdfrwt>
<pdfrwt beam="1">  1       -4 0.10826479E-01 0.12499568E+03</pdfrwt>
<totfact> 0.10434677E+04</totfact>
</mgrwt>
</event>
<event>
 5    1  0.3241863E-002  0.1250012E+03  0.7818608E-02  0.1235067E+00
         -4   -1    0    0    0  501 -0.00000000000E+00  0.00000000000E+00  0.94860740010E+01  0.95707105249E+01  0.12700000000E+01 0. -1.
          4   -1    0    0  501    0  0.00000000000E+00 -0.00000000000E+00 -0.40988138181E+03  0.40988334932E+03  0.12700000000E+01 0. -1.
         25    2    1    2    0    0  0.00000000000E+00  0.00000000000E+00 -0.40039530781E+03  0.41945405985E+03  0.12500122323E+03 0.  0.
    9000005    1    3    3    0    0 -0.67799769894E+01  0.23636703545E+02 -0.74137202219E+01  0.25702628076E+02  0.10000000000E+01 0.  0.
    9000005    1    3    3    0    0  0.67799769894E+01 -0.23636703545E+02 -0.39298158758E+03  0.39375143177E+03  0.10000000000E+01 0.  0.
<mgrwt>
<rscale>  0 0.12500122E+03</rscale>
<asrwt>0</asrwt>
<pdfrwt beam="2">  1        4 0.63065322E-01 0.12500122E+03</pdfrwt>
<pdfrwt beam="1">  1       -4 0.14660582E-02 0.12500122E+03</pdfrwt>
<totfact> 0.62702004E+03</totfact>
</mgrwt>
</event>
<event>
 5    1  0.3241863E-002  0.1249978E+03  0.7818608E-02  0.1235073E+00
          4   -1    0    0  501    0  0.00000000000E+00  0.00000000000E+00  0.40211038551E+02  0.40231088990E+02  0.12700000000E+01 0.  1.
         -4   -1    0    0    0  501 -0.00000000000E+00 -0.00000000000E+00 -0.97091937050E+02  0.97100242740E+02  0.12700000000E+01 0.  1.
         25    2    1    2    0    0  0.00000000000E+00  0.00000000000E+00 -0.56880898500E+02  0.13733133173E+03  0.12499783222E+03 0.  0.
    9000005    1    3    3    0    0  0.89111940633E+01 -0.16146804974E+02  0.37158374762E+02  0.41495463673E+02  0.10000000000E+01 0.  0.
    9000005    1    3    3    0    0 -0.89111940633E+01  0.16146804974E+02 -0.94039273262E+02  0.95835868057E+02  0.10000000000E+01 0.  0.
<mgrwt>
<rscale>  0 0.12499783E+03</rscale>
<asrwt>0</asrwt>
<pdfrwt beam="1">  1        4 0.61884949E-02 0.12499783E+03</pdfrwt>
<pdfrwt beam="2">  1       -4 0.14939402E-01 0.12499783E+03</pdfrwt>
<totfact> 0.10189661E+04</totfact>
</mgrwt>
</event>
<event>
 5    1  0.3241863E-002  0.1250009E+03  0.7818608E-02  0.1235068E+00
          4   -1    0    0  501    0  0.00000000000E+00  0.00000000000E+00  0.77702592688E+02  0.77712970670E+02  0.12700000000E+01 0. -1.
         -4   -1    0    0    0  501 -0.00000000000E+00 -0.00000000000E+00 -0.50250791753E+02  0.50266837694E+02  0.12700000000E+01 0. -1.
         25    2    1    2    0    0  0.00000000000E+00  0.00000000000E+00  0.27451800935E+02  0.12797980836E+03  0.12500091989E+03 0.  0.
    9000005    1    3    3    0    0 -0.32134719235E+02 -0.45416362465E+02  0.42865023360E+02  0.70240276106E+02  0.10000000000E+01 0.  0.
    9000005    1    3    3    0    0  0.32134719235E+02  0.45416362465E+02 -0.15413222425E+02  0.57739532258E+02  0.10000000000E+01 0.  0.
<mgrwt>
<rscale>  0 0.12500092E+03</rscale>
<asrwt>0</asrwt>
<pdfrwt beam="1">  1        4 0.11956278E-01 0.12500092E+03</pdfrwt>
<pdfrwt beam="2">  1       -4 0.77329237E-02 0.12500092E+03</pdfrwt>
<totfact> 0.10387708E+04</totfact>
</mgrwt>
</event>
<event>
 5    1  0.3241863E-002  0.1249991E+03  0.7818608E-02  0.1235071E+00
          4   -1    0    0  501    0  0.00000000000E+00  0.00000000000E+00  0.14611482874E+03  0.14612034793E+03  0.12700000000E+01 0. -1.
         -4   -1    0    0    0  501 -0.00000000000E+00 -0.00000000000E+00 -0.26712619466E+02  0.26742792277E+02  0.12700000000E+01 0. -1.
         25    2    1    2    0    0  0.00000000000E+00  0.00000000000E+00  0.11940220928E+03  0.17286314020E+03  0.12499911064E+03 0.  0.
    9000005    1    3    3    0    0  0.59407071193E+01  0.50052045292E+02  0.86137631441E+01  0.51143876999E+02  0.10000000000E+01 0.  0.
    9000005    1    3    3    0    0 -0.59407071193E+01 -0.50052045292E+02  0.11078844613E+03  0.12171926321E+03  0.10000000000E+01 0.  0.
<mgrwt>
<rscale>  0 0.12499911E+03</rscale>
<asrwt>0</asrwt>
<pdfrwt beam="1">  1        4 0.22481950E-01 0.12499911E+03</pdfrwt>
<pdfrwt beam="2">  1       -4 0.41123793E-02 0.12499911E+03</pdfrwt>
<totfact> 0.94919559E+03</totfact>
</mgrwt>
</event>
<event>
 5    1  0.3241863E-002  0.1249977E+03  0.7818608E-02  0.1235073E+00
         -4   -1    0    0    0  501 -0.00000000000E+00  0.00000000000E+00  0.13807838177E+02  0.13866120407E+02  0.12700000000E+01 0.  1.
          4   -1    0    0  501    0  0.00000000000E+00 -0.00000000000E+00 -0.28223517346E+03  0.28223803082E+03  0.12700000000E+01 0.  1.
         25    2    1    2    0    0  0.00000000000E+00  0.00000000000E+00 -0.26842733528E+03  0.29610415122E+03  0.12499773615E+03 0.  0.
    9000005    1    3    3    0    0 -0.47227704334E+00  0.52483902540E+02 -0.21455753092E+03  0.22088620859E+03  0.10000000000E+01 0.  0.
    9000005    1    3    3    0    0  0.47227704334E+00 -0.52483902540E+02 -0.53869804364E+02  0.75217942631E+02  0.10000000000E+01 0.  0.
<mgrwt>
<rscale>  0 0.12499774E+03</rscale>
<asrwt>0</asrwt>
<pdfrwt beam="2">  1        4 0.43425494E-01 0.12499774E+03</pdfrwt>
<pdfrwt beam="1">  1       -4 0.21289861E-02 0.12499774E+03</pdfrwt>
<totfact> 0.76093967E+03</totfact>
</mgrwt>
</event>
<event>
 5    1  0.3241863E-002  0.1249999E+03  0.7818608E-02  0.1235069E+00
         -4   -1    0    0    0  501 -0.00000000000E+00  0.00000000000E+00  0.69710949183E+03  0.69711064867E+03  0.12700000000E+01 0.  1.
          4   -1    0    0  501    0  0.00000000000E+00 -0.00000000000E+00 -0.55303487752E+01  0.56742979808E+01  0.12700000000E+01 0.  1.
         25    2    1    2    0    0  0.00000000000E+00  0.00000000000E+00  0.69157914305E+03  0.70278494665E+03  0.12499988056E+03 0.  0.
    9000005    1    3    3    0    0  0.40667481385E+02 -0.88435350661E+01  0.83692758912E+02  0.93474756212E+02  0.10000000000E+01 0.  0.
    9000005    1    3    3    0    0 -0.40667481385E+02  0.88435350661E+01  0.60788638414E+03  0.60931019044E+03  0.10000000000E+01 0.  0.
<mgrwt>
<rscale>  0 0.12499988E+03</rscale>
<asrwt>0</asrwt>
<pdfrwt beam="2">  1        4 0.86198492E-03 0.12499988E+03</pdfrwt>
<pdfrwt beam="1">  1       -4 0.10725877E+00 0.12499988E+03</pdfrwt>
<totfact> 0.42940199E+03</totfact>
</mgrwt>
</event>
<event>
 5    1  0.3241863E-002  0.1249962E+03  0.7818608E-02  0.1235075E+00
          4   -1    0    0  501    0  0.00000000000E+00  0.00000000000E+00  0.16463906435E+03  0.16464396257E+03  0.12700000000E+01 0.  1.
         -4   -1    0    0    0  501 -0.00000000000E+00 -0.00000000000E+00 -0.23702447722E+02  0.23736447249E+02  0.12700000000E+01 0.  1.
         25    2    1    2    0    0  0.00000000000E+00  0.00000000000E+00  0.14093661663E+03  0.18838040982E+03  0.12499619553E+03 0.  0.
    9000005    1    3    3    0    0  0.37574850340E+02  0.22549328312E+02  0.33280256948E+01  0.43959269107E+02  0.10000000000E+01 0.  0.
    9000005    1    3    3    0    0 -0.37574850340E+02 -0.22549328312E+02  0.13760859094E+03  0.14442114071E+03  0.10000000000E+01 0.  0.
<mgrwt>
<rscale>  0 0.12499620E+03</rscale>
<asrwt>0</asrwt>
<pdfrwt beam="1">  1        4 0.25332080E-01 0.12499620E+03</pdfrwt>
<pdfrwt beam="2">  1       -4 0.36495225E-02 0.12499620E+03</pdfrwt>
<totfact> 0.92137736E+03</totfact>
</mgrwt>
</event>
<event>
 5    1  0.3241863E-002  0.1249978E+03  0.7818608E-02  0.1235073E+00
         -4   -1    0    0    0  501 -0.00000000000E+00  0.00000000000E+00  0.77391966001E+02  0.77402385632E+02  0.12700000000E+01 0.  1.
          4   -1    0    0  501    0  0.00000000000E+00 -0.00000000000E+00 -0.50450025089E+02  0.50466007684E+02  0.12700000000E+01 0.  1.
         25    2    1    2    0    0  0.00000000000E+00  0.00000000000E+00  0.26941940912E+02  0.12786839332E+03  0.12499783130E+03 0.  0.
    9000005    1    3    3    0    0  0.61711765296E+02 -0.75091492516E+01  0.19971842647E+02  0.65303934010E+02  0.10000000000E+01 0.  0.
    9000005    1    3    3    0    0 -0.61711765296E+02  0.75091492516E+01  0.69700982646E+01  0.62564459306E+02  0.10000000000E+01 0.  0.
<mgrwt>
<rscale>  0 0.12499783E+03</rscale>
<asrwt>0</asrwt>
<pdfrwt beam="2">  1        4 0.77635732E-02 0.12499783E+03</pdfrwt>
<pdfrwt beam="1">  1       -4 0.11908487E-01 0.12499783E+03</pdfrwt>
<totfact> 0.10390839E+04</totfact>
</mgrwt>
</event>
<event>
 5    1  0.3241863E-002  0.1249999E+03  0.7818608E-02  0.1235069E+00
          4   -1    0    0  501    0  0.00000000000E+00  0.00000000000E+00  0.15433137713E+02  0.15485303991E+02  0.12700000000E+01 0. -1.
         -4   -1    0    0    0  501 -0.00000000000E+00 -0.00000000000E+00 -0.25262685689E+03  0.25263004913E+03  0.12700000000E+01 0. -1.
         25    2    1    2    0    0  0.00000000000E+00  0.00000000000E+00 -0.23719371918E+03  0.26811535312E+03  0.12499992864E+03 0.  0.
    9000005    1    3    3    0    0 -0.61712450497E+02 -0.93255987570E+01 -0.12532939377E+03  0.14001375033E+03  0.10000000000E+01 0.  0.
    9000005    1    3    3    0    0  0.61712450497E+02  0.93255987570E+01 -0.11186432541E+03  0.12810160279E+03  0.10000000000E+01 0.  0.
<mgrwt>
<rscale>  0 0.12499993E+03</rscale>
<asrwt>0</asrwt>
<pdfrwt beam="1">  1        4 0.23785874E-02 0.12499993E+03</pdfrwt>
<pdfrwt beam="2">  1       -4 0.38869926E-01 0.12499993E+03</pdfrwt>
<totfact> 0.79780633E+03</totfact>
</mgrwt>
</event>
<event>
 5    1  0.3241863E-002  0.1249994E+03  0.7818608E-02  0.1235070E+00
          4   -1    0    0  501    0  0.00000000000E+00  0.00000000000E+00  0.11824162099E+04  0.11824168919E+04  0.12700000000E+01 0.  1.
         -4   -1    0    0    0  501 -0.00000000000E+00 -0.00000000000E+00 -0.31808223827E+01  0.34249862818E+01  0.12700000000E+01 0.  1.
         25    2    1    2    0    0  0.00000000000E+00  0.00000000000E+00  0.11792353875E+04  0.11858418782E+04  0.12499944384E+03 0.  0.
    9000005    1    3    3    0    0  0.15444495564E+02  0.44398637203E+02  0.98024302547E+03  0.98137004255E+03  0.10000000000E+01 0.  0.
    9000005    1    3    3    0    0 -0.15444495564E+02 -0.44398637203E+02  0.19899236205E+03  0.20447183567E+03  0.10000000000E+01 0.  0.
<mgrwt>
<rscale>  0 0.12499944E+03</rscale>
<asrwt>0</asrwt>
<pdfrwt beam="1">  1        4 0.18192894E+00 0.12499944E+03</pdfrwt>
<pdfrwt beam="2">  1       -4 0.50819181E-03 0.12499944E+03</pdfrwt>
<totfact> 0.25086690E+03</totfact>
</mgrwt>
</event>
<event>
 5    1  0.3241863E-002  0.1249886E+03  0.7818608E-02  0.1235087E+00
          4   -1    0    0  501    0  0.00000000000E+00  0.00000000000E+00  0.22382366026E+02  0.22418367668E+02  0.12700000000E+01 0. -1.
         -4   -1    0    0    0  501 -0.00000000000E+00 -0.00000000000E+00 -0.17431329206E+03  0.17431791844E+03  0.12700000000E+01 0. -1.
         25    2    1    2    0    0  0.00000000000E+00  0.00000000000E+00 -0.15193092604E+03  0.19673628611E+03  0.12498863943E+03 0.  0.
    9000005    1    3    3    0    0  0.55289055194E+02 -0.36062754495E+01 -0.30491011794E+02  0.63250190886E+02  0.10000000000E+01 0.  0.
    9000005    1    3    3    0    0 -0.55289055194E+02  0.36062754495E+01 -0.12143991424E+03  0.13348609522E+03  0.10000000000E+01 0.  0.
<mgrwt>
<rscale>  0 0.12498864E+03</rscale>
<asrwt>0</asrwt>
<pdfrwt beam="1">  1        4 0.34465663E-02 0.12498864E+03</pdfrwt>
<pdfrwt beam="2">  1       -4 0.26820554E-01 0.12498864E+03</pdfrwt>
<totfact> 0.90711321E+03</totfact>
</mgrwt>
</event>
<event>
 5    1  0.3241863E-002  0.1250076E+03  0.7818608E-02  0.1235057E+00
         -4   -1    0    0    0  501 -0.00000000000E+00  0.00000000000E+00  0.13850219058E+04  0.13850224880E+04  0.12700000000E+01 0.  1.
          4   -1    0    0  501    0  0.00000000000E+00 -0.00000000000E+00 -0.26771291371E+01  0.29630930489E+01  0.12700000000E+01 0.  1.
         25    2    1    2    0    0  0.00000000000E+00  0.00000000000E+00  0.13823447766E+04  0.13879855811E+04  0.12500756702E+03 0.  0.
    9000005    1    3    3    0    0  0.13377131210E+02 -0.12100137415E+01  0.13688605977E+04  0.13689268599E+04  0.10000000000E+01 0.  0.
    9000005    1    3    3    0    0 -0.13377131210E+02  0.12100137415E+01  0.13484178964E+02  0.19058721232E+02  0.10000000000E+01 0.  0.
<mgrwt>
<rscale>  0 0.12500757E+03</rscale>
<asrwt>0</asrwt>
<pdfrwt beam="2">  1        4 0.43390805E-03 0.12500757E+03</pdfrwt>
<pdfrwt beam="1">  1       -4 0.21310233E+00 0.12500757E+03</pdfrwt>
<totfact> 0.20236879E+03</totfact>
</mgrwt>
</event>
<event>
 5    1  0.3241863E-002  0.1249937E+03  0.7818608E-02  0.1235079E+00
          4   -1    0    0  501    0  0.00000000000E+00  0.00000000000E+00  0.69658283759E+01  0.70806542750E+01  0.12700000000E+01 0. -1.
         -4   -1    0    0    0  501 -0.00000000000E+00 -0.00000000000E+00 -0.55601705490E+03  0.55601850531E+03  0.12700000000E+01 0. -1.
         25    2    1    2    0    0  0.00000000000E+00  0.00000000000E+00 -0.54905122653E+03  0.56309915958E+03  0.12499365652E+03 0.  0.
    9000005    1    3    3    0    0  0.29288133899E+02 -0.40719377632E+02 -0.44242404067E+03  0.44525935618E+03  0.10000000000E+01 0.  0.
    9000005    1    3    3    0    0 -0.29288133899E+02  0.40719377632E+02 -0.10662718585E+03  0.11783980340E+03  0.10000000000E+01 0.  0.
<mgrwt>
<rscale>  0 0.12499366E+03</rscale>
<asrwt>0</asrwt>
<pdfrwt beam="1">  1        4 0.10806107E-02 0.12499366E+03</pdfrwt>
<pdfrwt beam="2">  1       -4 0.85549995E-01 0.12499366E+03</pdfrwt>
<totfact> 0.51290096E+03</totfact>
</mgrwt>
</event>
<event>
 5    1  0.3241863E-002  0.1250014E+03  0.7818608E-02  0.1235067E+00
         -4   -1    0    0    0  501 -0.00000000000E+00  0.00000000000E+00  0.44204871254E+02  0.44223110956E+02  0.12700000000E+01 0.  1.
          4   -1    0    0  501    0  0.00000000000E+00 -0.00000000000E+00 -0.88327878545E+02  0.88337008259E+02  0.12700000000E+01 0.  1.
         25    2    1    2    0    0  0.00000000000E+00  0.00000000000E+00 -0.44123007290E+02  0.13256011922E+03  0.12500138173E+03 0.  0.
    9000005    1    3    3    0    0  0.41344146752E+02  0.46820346740E+02 -0.19979897102E+02  0.65587191034E+02  0.10000000000E+01 0.  0.
    9000005    1    3    3    0    0 -0.41344146752E+02 -0.46820346740E+02 -0.24143110188E+02  0.66972928181E+02  0.10000000000E+01 0.  0.
<mgrwt>
<rscale>  0 0.12500138E+03</rscale>
<asrwt>0</asrwt>
<pdfrwt beam="2">  1        4 0.13591010E-01 0.12500138E+03</pdfrwt>
<pdfrwt beam="1">  1       -4 0.68028548E-02 0.12500138E+03</pdfrwt>
<totfact> 0.10289437E+04</totfact>
</mgrwt>
</event>
<event>
 5    1  0.3241863E-002  0.1249969E+03  0.7818608E-02  0.1235074E+00
         -4   -1    0    0    0  501 -0.00000000000E+00  0.00000000000E+00  0.43162926839E+03  0.43163113677E+03  0.12700000000E+01 0.  1.
          4   -1    0    0  501    0  0.00000000000E+00 -0.00000000000E+00 -0.90031121252E+01  0.90922454839E+01  0.12700000000E+01 0.  1.
         25    2    1    2    0    0  0.00000000000E+00  0.00000000000E+00  0.42262615627E+03  0.44072338226E+03  0.12499692679E+03 0.  0.
    9000005    1    3    3    0    0 -0.58173407581E+02 -0.22488470555E+02  0.22505099238E+03  0.23353549159E+03  0.10000000000E+01 0.  0.
    9000005    1    3    3    0    0  0.58173407581E+02  0.22488470555E+02  0.19757516388E+03  0.20718789067E+03  0.10000000000E+01 0.  0.
<mgrwt>
<rscale>  0 0.12499693E+03</rscale>
<asrwt>0</asrwt>
<pdfrwt beam="2">  1        4 0.13920943E-02 0.12499693E+03</pdfrwt>
<pdfrwt beam="1">  1       -4 0.66411504E-01 0.12499693E+03</pdfrwt>
<totfact> 0.60779980E+03</totfact>
</mgrwt>
</event>
<event>
 5    1  0.3241863E-002  0.1250010E+03  0.7818608E-02  0.1235068E+00
         -4   -1    0    0    0  501 -0.00000000000E+00  0.00000000000E+00  0.98990427558E+01  0.99801777279E+01  0.12700000000E+01 0.  1.
          4   -1    0    0  501    0  0.00000000000E+00 -0.00000000000E+00 -0.39292262116E+03  0.39292467359E+03  0.12700000000E+01 0.  1.
         25    2    1    2    0    0  0.00000000000E+00  0.00000000000E+00 -0.38302357840E+03  0.40290485132E+03  0.12500103042E+03 0.  0.
    9000005    1    3    3    0    0  0.48190963414E+02 -0.28320134746E+02 -0.28158401636E+03  0.28708005374E+03  0.10000000000E+01 0.  0.
    9000005    1    3    3    0    0 -0.48190963414E+02  0.28320134746E+02 -0.10143956204E+03  0.11582479758E+03  0.10000000000E+01 0.  0.
<mgrwt>
<rscale>  0 0.12500103E+03</rscale>
<asrwt>0</asrwt>
<pdfrwt beam="2">  1        4 0.60456021E-01 0.12500103E+03</pdfrwt>
<pdfrwt beam="1">  1       -4 0.15293290E-02 0.12500103E+03</pdfrwt>
<totfact> 0.64269788E+03</totfact>
</mgrwt>
</event>
<event>
 5    1  0.3241863E-002  0.1249939E+03  0.7818608E-02  0.1235079E+00
         -4   -1    0    0    0  501 -0.00000000000E+00  0.00000000000E+00  0.42029763968E+02  0.42048947183E+02  0.12700000000E+01 0. -1.
          4   -1    0    0  501    0  0.00000000000E+00 -0.00000000000E+00 -0.92886246432E+02  0.92894928152E+02  0.12700000000E+01 0. -1.
         25    2    1    2    0    0  0.00000000000E+00  0.00000000000E+00 -0.50856482464E+02  0.13494387534E+03  0.12499387058E+03 0.  0.
    9000005    1    3    3    0    0 -0.48666236318E+02  0.39067352300E+02 -0.28877292371E+02  0.68771786277E+02  0.10000000000E+01 0.  0.
    9000005    1    3    3    0    0  0.48666236318E+02 -0.39067352300E+02 -0.21979190093E+02  0.66172089058E+02  0.10000000000E+01 0.  0.
<mgrwt>
<rscale>  0 0.12499387E+03</rscale>
<asrwt>0</asrwt>
<pdfrwt beam="2">  1        4 0.14292335E-01 0.12499387E+03</pdfrwt>
<pdfrwt beam="1">  1       -4 0.64682610E-02 0.12499387E+03</pdfrwt>
<totfact> 0.10240670E+04</totfact>
</mgrwt>
</event>
<event>
 5    1  0.3241863E-002  0.1249995E+03  0.7818608E-02  0.1235070E+00
          4   -1    0    0  501    0  0.00000000000E+00  0.00000000000E+00  0.96659725775E+01  0.97490474340E+01  0.12700000000E+01 0.  1.
         -4   -1    0    0    0  501 -0.00000000000E+00 -0.00000000000E+00 -0.40230760688E+03  0.40230961144E+03  0.12700000000E+01 0.  1.
         25    2    1    2    0    0  0.00000000000E+00  0.00000000000E+00 -0.39264163430E+03  0.41205865887E+03  0.12499954145E+03 0.  0.
    9000005    1    3    3    0    0 -0.15200596614E+02  0.46720747507E+02 -0.32362369559E+03  0.32733344273E+03  0.10000000000E+01 0.  0.
    9000005    1    3    3    0    0  0.15200596614E+02 -0.46720747507E+02 -0.69017938713E+02  0.84725216136E+02  0.10000000000E+01 0.  0.
<mgrwt>
<rscale>  0 0.12499954E+03</rscale>
<asrwt>0</asrwt>
<pdfrwt beam="1">  1        4 0.14936176E-02 0.12499954E+03</pdfrwt>
<pdfrwt beam="2">  1       -4 0.61900010E-01 0.12499954E+03</pdfrwt>
<totfact> 0.63397283E+03</totfact>
</mgrwt>
</event>
<event>
 5    1  0.3241863E-002  0.1249983E+03  0.7818608E-02  0.1235072E+00
          4   -1    0    0  501    0  0.00000000000E+00  0.00000000000E+00  0.12859200714E+03  0.12859827837E+03  0.12700000000E+01 0. -1.
         -4   -1    0    0    0  501 -0.00000000000E+00 -0.00000000000E+00 -0.30355958872E+02  0.30382513705E+02  0.12700000000E+01 0. -1.
         25    2    1    2    0    0  0.00000000000E+00  0.00000000000E+00  0.98236048263E+02  0.15898079207E+03  0.12499828427E+03 0.  0.
    9000005    1    3    3    0    0 -0.21440495777E+02  0.43637189621E+02  0.99049711911E+02  0.11034375654E+03  0.10000000000E+01 0.  0.
    9000005    1    3    3    0    0  0.21440495777E+02 -0.43637189621E+02 -0.81366364756E+00  0.48637035535E+02  0.10000000000E+01 0.  0.
<mgrwt>
<rscale>  0 0.12499828E+03</rscale>
<asrwt>0</asrwt>
<pdfrwt beam="1">  1        4 0.19785911E-01 0.12499828E+03</pdfrwt>
<pdfrwt beam="2">  1       -4 0.46726726E-02 0.12499828E+03</pdfrwt>
<totfact> 0.97543403E+03</totfact>
</mgrwt>
</event>
<event>
 5    1  0.3241863E-002  0.1250048E+03  0.7818608E-02  0.1235062E+00
          4   -1    0    0  501    0  0.00000000000E+00  0.00000000000E+00  0.32361687889E+03  0.32361937087E+03  0.12700000000E+01 0. -1.
         -4   -1    0    0    0  501 -0.00000000000E+00 -0.00000000000E+00 -0.12035581720E+02  0.12102401718E+02  0.12700000000E+01 0. -1.
         25    2    1    2    0    0  0.00000000000E+00  0.00000000000E+00  0.31158129717E+03  0.33572177259E+03  0.12500481528E+03 0.  0.
    9000005    1    3    3    0    0 -0.18328903817E+02 -0.57268268207E+02  0.20152184891E+03  0.21030372999E+03  0.10000000000E+01 0.  0.
    9000005    1    3    3    0    0  0.18328903817E+02  0.57268268207E+02  0.11005944826E+03  0.12541804260E+03  0.10000000000E+01 0.  0.
<mgrwt>
<rscale>  0 0.12500482E+03</rscale>
<asrwt>0</asrwt>
<pdfrwt beam="1">  1        4 0.49792536E-01 0.12500482E+03</pdfrwt>
<pdfrwt beam="2">  1       -4 0.18569599E-02 0.12500482E+03</pdfrwt>
<totfact> 0.71316834E+03</totfact>
</mgrwt>
</event>
<event>
 5    1  0.3241863E-002  0.1249965E+03  0.7818608E-02  0.1235075E+00
         -4   -1    0    0    0  501 -0.00000000000E+00  0.00000000000E+00  0.39794838863E+02  0.39815098897E+02  0.12700000000E+01 0.  1.
          4   -1    0    0  501    0  0.00000000000E+00 -0.00000000000E+00 -0.98104846768E+02  0.98113066711E+02  0.12700000000E+01 0.  1.
         25    2    1    2    0    0  0.00000000000E+00  0.00000000000E+00 -0.58310007905E+02  0.13792816561E+03  0.12499648733E+03 0.  0.
    9000005    1    3    3    0    0 -0.28554519085E+02  0.13855585889E+02  0.30244293809E+02  0.43852652468E+02  0.10000000000E+01 0.  0.
    9000005    1    3    3    0    0  0.28554519085E+02 -0.13855585889E+02 -0.88554301713E+02  0.94075513139E+02  0.10000000000E+01 0.  0.
<mgrwt>
<rscale>  0 0.12499649E+03</rscale>
<asrwt>0</asrwt>
<pdfrwt beam="2">  1        4 0.15095244E-01 0.12499649E+03</pdfrwt>
<pdfrwt beam="1">  1       -4 0.61244737E-02 0.12499649E+03</pdfrwt>
<totfact> 0.10177513E+04</totfact>
</mgrwt>
</event>
<event>
 5    1  0.3241863E-002  0.1250030E+03  0.7818608E-02  0.1235065E+00
         -4   -1    0    0    0  501 -0.00000000000E+00  0.00000000000E+00  0.25137723674E+04  0.25137726883E+04  0.12700000000E+01 0. -1.
          4   -1    0    0  501    0  0.00000000000E+00 -0.00000000000E+00 -0.12941668404E+01  0.18132202875E+01  0.12700000000E+01 0. -1.
         25    2    1    2    0    0  0.00000000000E+00  0.00000000000E+00  0.25124782006E+04  0.25155859085E+04  0.12500301899E+03 0.  0.
    9000005    1    3    3    0    0 -0.37639262506E+02 -0.16613486892E+01  0.25285754099E+03  0.25565095383E+03  0.10000000000E+01 0.  0.
    9000005    1    3    3    0    0  0.37639262506E+02  0.16613486892E+01  0.22596206596E+04  0.22599349547E+04  0.10000000000E+01 0.  0.
<mgrwt>
<rscale>  0 0.12500302E+03</rscale>
<asrwt>0</asrwt>
<pdfrwt beam="2">  1        4 0.23905604E-03 0.12500302E+03</pdfrwt>
<pdfrwt beam="1">  1       -4 0.38677160E+00 0.12500302E+03</pdfrwt>
<totfact> 0.45478702E+02</totfact>
</mgrwt>
</event>
<event>
 5    1  0.3241863E-002  0.1250101E+03  0.7818608E-02  0.1235054E+00
         -4   -1    0    0    0  501 -0.00000000000E+00  0.00000000000E+00  0.44225299687E+01  0.46012684473E+01  0.12700000000E+01 0.  1.
          4   -1    0    0  501    0  0.00000000000E+00 -0.00000000000E+00 -0.86572671868E+03  0.86572765021E+03  0.12700000000E+01 0.  1.
         25    2    1    2    0    0  0.00000000000E+00  0.00000000000E+00 -0.86130418871E+03  0.87032891866E+03  0.12501008422E+03 0.  0.
    9000005    1    3    3    0    0  0.99580529961E+01 -0.29429034947E+02 -0.80818950136E+03  0.80878705542E+03  0.10000000000E+01 0.  0.
    9000005    1    3    3    0    0 -0.99580529961E+01  0.29429034947E+02 -0.53114687353E+02  0.61541863232E+02  0.10000000000E+01 0.  0.
<mgrwt>
<rscale>  0 0.12501008E+03</rscale>
<asrwt>0</asrwt>
<pdfrwt beam="2">  1        4 0.13320242E+00 0.12501008E+03</pdfrwt>
<pdfrwt beam="1">  1       -4 0.69421068E-03 0.12501008E+03</pdfrwt>
<totfact> 0.35301843E+03</totfact>
</mgrwt>
</event>
<event>
 5    1  0.3241863E-002  0.1249977E+03  0.7818608E-02  0.1235073E+00
          4   -1    0    0  501    0  0.00000000000E+00  0.00000000000E+00  0.67963815309E+01  0.69140221227E+01  0.12700000000E+01 0. -1.
         -4   -1    0    0    0  501 -0.00000000000E+00 -0.00000000000E+00 -0.56968358147E+03  0.56968499708E+03  0.12700000000E+01 0. -1.
         25    2    1    2    0    0  0.00000000000E+00  0.00000000000E+00 -0.56288719994E+03  0.57659901920E+03  0.12499771633E+03 0.  0.
    9000005    1    3    3    0    0 -0.20717519569E+02  0.44891956794E+02 -0.10514939195E+03  0.11619766792E+03  0.10000000000E+01 0.  0.
    9000005    1    3    3    0    0  0.20717519569E+02 -0.44891956794E+02 -0.45773780799E+03  0.46040135128E+03  0.10000000000E+01 0.  0.
<mgrwt>
<rscale>  0 0.12499772E+03</rscale>
<asrwt>0</asrwt>
<pdfrwt beam="1">  1        4 0.10547558E-02 0.12499772E+03</pdfrwt>
<pdfrwt beam="2">  1       -4 0.87652749E-01 0.12499772E+03</pdfrwt>
<totfact> 0.50381408E+03</totfact>
</mgrwt>
</event>
<event>
 5    1  0.3241863E-002  0.1249810E+03  0.7818608E-02  0.1235099E+00
          4   -1    0    0  501    0  0.00000000000E+00  0.00000000000E+00  0.54251592211E+03  0.54251740861E+03  0.12700000000E+01 0. -1.
         -4   -1    0    0    0  501 -0.00000000000E+00 -0.00000000000E+00 -0.71405304271E+01  0.72525909012E+01  0.12700000000E+01 0. -1.
         25    2    1    2    0    0  0.00000000000E+00  0.00000000000E+00  0.53537539169E+03  0.54976999951E+03  0.12498096792E+03 0.  0.
    9000005    1    3    3    0    0 -0.80977136981E+01 -0.37567105297E+02  0.48440318603E+03  0.48592623618E+03  0.10000000000E+01 0.  0.
    9000005    1    3    3    0    0  0.80977136981E+01  0.37567105297E+02  0.50972205653E+02  0.63843763334E+02  0.10000000000E+01 0.  0.
<mgrwt>
<rscale>  0 0.12498097E+03</rscale>
<asrwt>0</asrwt>
<pdfrwt beam="1">  1        4 0.83472740E-01 0.12498097E+03</pdfrwt>
<pdfrwt beam="2">  1       -4 0.11072773E-02 0.12498097E+03</pdfrwt>
<totfact> 0.52221774E+03</totfact>
</mgrwt>
</event>
<event>
 5    1  0.3241863E-002  0.1249991E+03  0.7818608E-02  0.1235071E+00
          4   -1    0    0  501    0  0.00000000000E+00  0.00000000000E+00  0.69459497387E+02  0.69471106780E+02  0.12700000000E+01 0.  1.
         -4   -1    0    0    0  501 -0.00000000000E+00 -0.00000000000E+00 -0.56213551232E+02  0.56227895586E+02  0.12700000000E+01 0.  1.
         25    2    1    2    0    0  0.00000000000E+00  0.00000000000E+00  0.13245946155E+02  0.12569900237E+03  0.12499913642E+03 0.  0.
    9000005    1    3    3    0    0 -0.50002694058E+02 -0.30632485744E+02 -0.15098370337E+02  0.60560543118E+02  0.10000000000E+01 0.  0.
    9000005    1    3    3    0    0  0.50002694058E+02  0.30632485744E+02  0.28344316491E+02  0.65138459248E+02  0.10000000000E+01 0.  0.
<mgrwt>
<rscale>  0 0.12499914E+03</rscale>
<asrwt>0</asrwt>
<pdfrwt beam="1">  1        4 0.10688073E-01 0.12499914E+03</pdfrwt>
<pdfrwt beam="2">  1       -4 0.86502351E-02 0.12499914E+03</pdfrwt>
<totfact> 0.10437770E+04</totfact>
</mgrwt>
</event>
<event>
 5    1  0.3241863E-002  0.1249874E+03  0.7818608E-02  0.1235089E+00
          4   -1    0    0  501    0  0.00000000000E+00  0.00000000000E+00  0.24614293756E+03  0.24614621389E+03  0.12700000000E+01 0.  1.
         -4   -1    0    0    0  501 -0.00000000000E+00 -0.00000000000E+00 -0.15837853068E+02  0.15888690625E+02  0.12700000000E+01 0.  1.
         25    2    1    2    0    0  0.00000000000E+00  0.00000000000E+00  0.23030508450E+03  0.26203490451E+03  0.12498743633E+03 0.  0.
    9000005    1    3    3    0    0  0.23605017351E+01 -0.55589038514E+02  0.55531389003E+02  0.78615827516E+02  0.10000000000E+01 0.  0.
    9000005    1    3    3    0    0 -0.23605017351E+01  0.55589038514E+02  0.17477369549E+03  0.18341907700E+03  0.10000000000E+01 0.  0.
<mgrwt>
<rscale>  0 0.12498744E+03</rscale>
<asrwt>0</asrwt>
<pdfrwt beam="1">  1        4 0.37872305E-01 0.12498744E+03</pdfrwt>
<pdfrwt beam="2">  1       -4 0.24407555E-02 0.12498744E+03</pdfrwt>
<totfact> 0.80643885E+03</totfact>
</mgrwt>
</event>
<event>
 5    1  0.3241863E-002  0.1250044E+03  0.7818608E-02  0.1235062E+00
         -4   -1    0    0    0  501 -0.00000000000E+00  0.00000000000E+00  0.20730105068E+02  0.20768970994E+02  0.12700000000E+01 0. -1.
          4   -1    0    0  501    0  0.00000000000E+00 -0.00000000000E+00 -0.18822936870E+03  0.18823365305E+03  0.12700000000E+01 0. -1.
         25    2    1    2    0    0  0.00000000000E+00  0.00000000000E+00 -0.16749926363E+03  0.20900262405E+03  0.12500437409E+03 0.  0.
    9000005    1    3    3    0    0 -0.54396507272E+01 -0.62219297710E+02 -0.80127766773E+02  0.10159867034E+03  0.10000000000E+01 0.  0.
    9000005    1    3    3    0    0  0.54396507272E+01  0.62219297710E+02 -0.87371496859E+02  0.10740395370E+03  0.10000000000E+01 0.  0.
<mgrwt>
<rscale>  0 0.12500437E+03</rscale>
<asrwt>0</asrwt>
<pdfrwt beam="2">  1        4 0.28961682E-01 0.12500437E+03</pdfrwt>
<pdfrwt beam="1">  1       -4 0.31925663E-02 0.12500437E+03</pdfrwt>
<totfact> 0.88630357E+03</totfact>
</mgrwt>
</event>
<event>
 5    1  0.3241863E-002  0.1250009E+03  0.7818608E-02  0.1235068E+00
          4   -1    0    0  501    0  0.00000000000E+00  0.00000000000E+00  0.82768017996E+02  0.82777760921E+02  0.12700000000E+01 0. -1.
         -4   -1    0    0    0  501 -0.00000000000E+00 -0.00000000000E+00 -0.47174807935E+02  0.47191899767E+02  0.12700000000E+01 0. -1.
         25    2    1    2    0    0  0.00000000000E+00  0.00000000000E+00  0.35593210062E+02  0.12996966069E+03  0.12500094438E+03 0.  0.
    9000005    1    3    3    0    0 -0.32757118705E+02  0.18971557519E+02  0.69495893165E+02  0.79143085531E+02  0.10000000000E+01 0.  0.
    9000005    1    3    3    0    0  0.32757118705E+02 -0.18971557519E+02 -0.33902683103E+02  0.50826575157E+02  0.10000000000E+01 0.  0.
<mgrwt>
<rscale>  0 0.12500094E+03</rscale>
<asrwt>0</asrwt>
<pdfrwt beam="1">  1        4 0.12735605E-01 0.12500094E+03</pdfrwt>
<pdfrwt beam="2">  1       -4 0.72597270E-02 0.12500094E+03</pdfrwt>
<totfact> 0.10344936E+04</totfact>
</mgrwt>
</event>
<event>
 5    1  0.3241863E-002  0.1249942E+03  0.7818608E-02  0.1235078E+00
         -4   -1    0    0    0  501 -0.00000000000E+00  0.00000000000E+00  0.21781857696E+03  0.21782227932E+03  0.12700000000E+01 0. -1.
          4   -1    0    0  501    0  0.00000000000E+00 -0.00000000000E+00 -0.17905477896E+02  0.17950460681E+02  0.12700000000E+01 0. -1.
         25    2    1    2    0    0  0.00000000000E+00  0.00000000000E+00  0.19991309907E+03  0.23577274000E+03  0.12499415087E+03 0.  0.
    9000005    1    3    3    0    0  0.52034344412E+02  0.61185031853E+01  0.16419714545E+03  0.17235635078E+03  0.10000000000E+01 0.  0.
    9000005    1    3    3    0    0 -0.52034344412E+02 -0.61185031853E+01  0.35715953612E+02  0.63416389223E+02  0.10000000000E+01 0.  0.
<mgrwt>
<rscale>  0 0.12499415E+03</rscale>
<asrwt>0</asrwt>
<pdfrwt beam="2">  1        4 0.27584339E-02 0.12499415E+03</pdfrwt>
<pdfrwt beam="1">  1       -4 0.33514295E-01 0.12499415E+03</pdfrwt>
<totfact> 0.84442011E+03</totfact>
</mgrwt>
</event>
<event>
 5    1  0.3241863E-002  0.1249992E+03  0.7818608E-02  0.1235071E+00
          4   -1    0    0  501    0  0.00000000000E+00  0.00000000000E+00  0.19307344868E+02  0.19349068863E+02  0.12700000000E+01 0.  1.
         -4   -1    0    0    0  501 -0.00000000000E+00 -0.00000000000E+00 -0.20205462555E+03  0.20205861676E+03  0.12700000000E+01 0.  1.
         25    2    1    2    0    0  0.00000000000E+00  0.00000000000E+00 -0.18274728068E+03  0.22140768562E+03  0.12499917862E+03 0.  0.
    9000005    1    3    3    0    0  0.92804735321E+01  0.15743468329E+02  0.14477005480E+02  0.23335973768E+02  0.10000000000E+01 0.  0.
    9000005    1    3    3    0    0 -0.92804735321E+01 -0.15743468329E+02 -0.19722428616E+03  0.19807171185E+03  0.10000000000E+01 0.  0.
<mgrwt>
<rscale>  0 0.12499918E+03</rscale>
<asrwt>0</asrwt>
<pdfrwt beam="1">  1        4 0.29738774E-02 0.12499918E+03</pdfrwt>
<pdfrwt beam="2">  1       -4 0.31088842E-01 0.12499918E+03</pdfrwt>
<totfact> 0.86647681E+03</totfact>
</mgrwt>
</event>
<event>
 5    1  0.3241863E-002  0.1250081E+03  0.7818608E-02  0.1235057E+00
         -4   -1    0    0    0  501 -0.00000000000E+00  0.00000000000E+00  0.22000416597E+02  0.22037042234E+02  0.12700000000E+01 0.  1.
          4   -1    0    0  501    0  0.00000000000E+00 -0.00000000000E+00 -0.17738995504E+03  0.17739450118E+03  0.12700000000E+01 0.  1.
         25    2    1    2    0    0  0.00000000000E+00  0.00000000000E+00 -0.15538953844E+03  0.19943154341E+03  0.12500812714E+03 0.  0.
    9000005    1    3    3    0    0  0.87835317198E+01 -0.27172199458E+02  0.10991105663E+02  0.30615082174E+02  0.10000000000E+01 0.  0.
    9000005    1    3    3    0    0 -0.87835317198E+01  0.27172199458E+02 -0.16638064410E+03  0.16881646124E+03  0.10000000000E+01 0.  0.
<mgrwt>
<rscale>  0 0.12500813E+03</rscale>
<asrwt>0</asrwt>
<pdfrwt beam="2">  1        4 0.27293928E-01 0.12500813E+03</pdfrwt>
<pdfrwt beam="1">  1       -4 0.33878467E-02 0.12500813E+03</pdfrwt>
<totfact> 0.90215061E+03</totfact>
</mgrwt>
</event>
<event>
 5    1  0.3241863E-002  0.1249983E+03  0.7818608E-02  0.1235072E+00
          4   -1    0    0  501    0  0.00000000000E+00  0.00000000000E+00  0.26924585473E+02  0.26954521010E+02  0.12700000000E+01 0. -1.
         -4   -1    0    0    0  501 -0.00000000000E+00 -0.00000000000E+00 -0.14496379874E+03  0.14496936175E+03  0.12700000000E+01 0. -1.
         25    2    1    2    0    0  0.00000000000E+00  0.00000000000E+00 -0.11803921327E+03  0.17192388276E+03  0.12499826236E+03 0.  0.
    9000005    1    3    3    0    0 -0.63846849748E+01  0.44766652720E+02  0.30386107872E+00  0.45231733656E+02  0.10000000000E+01 0.  0.
    9000005    1    3    3    0    0  0.63846849748E+01 -0.44766652720E+02 -0.11834307435E+03  0.12669214910E+03  0.10000000000E+01 0.  0.
<mgrwt>
<rscale>  0 0.12499826E+03</rscale>
<asrwt>0</asrwt>
<pdfrwt beam="1">  1        4 0.41449747E-02 0.12499826E+03</pdfrwt>
<pdfrwt beam="2">  1       -4 0.22304853E-01 0.12499826E+03</pdfrwt>
<totfact> 0.95094971E+03</totfact>
</mgrwt>
</event>
<event>
 5    1  0.3241863E-002  0.1250003E+03  0.7818608E-02  0.1235069E+00
         -4   -1    0    0    0  501 -0.00000000000E+00  0.00000000000E+00  0.66994505699E+03  0.66994626075E+03  0.12700000000E+01 0.  1.
          4   -1    0    0  501    0  0.00000000000E+00 -0.00000000000E+00 -0.57603513397E+01  0.58986903256E+01  0.12700000000E+01 0.  1.
         25    2    1    2    0    0  0.00000000000E+00  0.00000000000E+00  0.66418470565E+03  0.67584495107E+03  0.12500029867E+03 0.  0.
    9000005    1    3    3    0    0  0.13106662059E+00  0.15968959961E+02  0.65875310624E+03  0.65894740294E+03  0.10000000000E+01 0.  0.
    9000005    1    3    3    0    0 -0.13106662059E+00 -0.15968959961E+02  0.54315994124E+01  0.16897548132E+02  0.10000000000E+01 0.  0.
<mgrwt>
<rscale>  0 0.12500030E+03</rscale>
<asrwt>0</asrwt>
<pdfrwt beam="2">  1        4 0.89694251E-03 0.12500030E+03</pdfrwt>
<pdfrwt beam="1">  1       -4 0.10307914E+00 0.12500030E+03</pdfrwt>
<totfact> 0.44392582E+03</totfact>
</mgrwt>
</event>
<event>
 5    1  0.3241863E-002  0.1249972E+03  0.7818608E-02  0.1235074E+00
          4   -1    0    0  501    0  0.00000000000E+00  0.00000000000E+00  0.11917394339E+02  0.11984873292E+02  0.12700000000E+01 0. -1.
         -4   -1    0    0    0  501 -0.00000000000E+00 -0.00000000000E+00 -0.32676837561E+03  0.32677084356E+03  0.12700000000E+01 0. -1.
         25    2    1    2    0    0  0.00000000000E+00  0.00000000000E+00 -0.31485098127E+03  0.33875571685E+03  0.12499718113E+03 0.  0.
    9000005    1    3    3    0    0  0.16317927936E+02 -0.29408744819E+02 -0.30016156687E+03  0.30204157871E+03  0.10000000000E+01 0.  0.
    9000005    1    3    3    0    0 -0.16317927936E+02  0.29408744819E+02 -0.14689414403E+02  0.36714138141E+02  0.10000000000E+01 0.  0.
<mgrwt>
<rscale>  0 0.12499718E+03</rscale>
<asrwt>0</asrwt>
<pdfrwt beam="1">  1        4 0.18388261E-02 0.12499718E+03</pdfrwt>
<pdfrwt beam="2">  1       -4 0.50277432E-01 0.12499718E+03</pdfrwt>
<totfact> 0.70983973E+03</totfact>
</mgrwt>
</event>
<event>
 5    1  0.3241863E-002  0.1250054E+03  0.7818608E-02  0.1235061E+00
         -4   -1    0    0    0  501 -0.00000000000E+00  0.00000000000E+00  0.10162654893E+02  0.10241701737E+02  0.12700000000E+01 0. -1.
          4   -1    0    0  501    0  0.00000000000E+00 -0.00000000000E+00 -0.38283698932E+03  0.38283909582E+03  0.12700000000E+01 0. -1.
         25    2    1    2    0    0  0.00000000000E+00  0.00000000000E+00 -0.37267433443E+03  0.39308079756E+03  0.12500541537E+03 0.  0.
    9000005    1    3    3    0    0  0.56835567270E+02 -0.21501722438E+02 -0.14044641694E+03  0.15303202870E+03  0.10000000000E+01 0.  0.
    9000005    1    3    3    0    0 -0.56835567270E+02  0.21501722438E+02 -0.23222791748E+03  0.24004876886E+03  0.10000000000E+01 0.  0.
<mgrwt>
<rscale>  0 0.12500542E+03</rscale>
<asrwt>0</asrwt>
<pdfrwt beam="2">  1        4 0.58904230E-01 0.12500542E+03</pdfrwt>
<pdfrwt beam="1">  1       -4 0.15697282E-02 0.12500542E+03</pdfrwt>
<totfact> 0.65223556E+03</totfact>
</mgrwt>
</event>
<event>
 5    1  0.3241863E-002  0.1250011E+03  0.7818608E-02  0.1235068E+00
          4   -1    0    0  501    0  0.00000000000E+00  0.00000000000E+00  0.35426532798E+02  0.35449289500E+02  0.12700000000E+01 0. -1.
         -4   -1    0    0    0  501 -0.00000000000E+00 -0.00000000000E+00 -0.11020357577E+03  0.11021089334E+03  0.12700000000E+01 0. -1.
         25    2    1    2    0    0  0.00000000000E+00  0.00000000000E+00 -0.74777042969E+02  0.14566018284E+03  0.12500113084E+03 0.  0.
    9000005    1    3    3    0    0 -0.58024589380E+02 -0.14281268933E+02 -0.16076067942E+02  0.61888993978E+02  0.10000000000E+01 0.  0.
    9000005    1    3    3    0    0  0.58024589380E+02  0.14281268933E+02 -0.58700975027E+02  0.83771188867E+02  0.10000000000E+01 0.  0.
<mgrwt>
<rscale>  0 0.12500113E+03</rscale>
<asrwt>0</asrwt>
<pdfrwt beam="1">  1        4 0.54525493E-02 0.12500113E+03</pdfrwt>
<pdfrwt beam="2">  1       -4 0.16956710E-01 0.12500113E+03</pdfrwt>
<totfact> 0.10017337E+04</totfact>
</mgrwt>
</event>
<event>
 5    1  0.3241863E-002  0.1250004E+03  0.7818608E-02  0.1235069E+00
          4   -1    0    0  501    0  0.00000000000E+00  0.00000000000E+00  0.21471922635E+02  0.21509448195E+02  0.12700000000E+01 0.  1.
         -4   -1    0    0    0  501 -0.00000000000E+00 -0.00000000000E+00 -0.18172633132E+03  0.18173076899E+03  0.12700000000E+01 0.  1.
         25    2    1    2    0    0  0.00000000000E+00  0.00000000000E+00 -0.16025440869E+03  0.20324021718E+03  0.12500044150E+03 0.  0.
    9000005    1    3    3    0    0 -0.19660211350E+02  0.55699328736E+02 -0.11330300174E+03  0.12777914280E+03  0.10000000000E+01 0.  0.
    9000005    1    3    3    0    0  0.19660211350E+02 -0.55699328736E+02 -0.46951406948E+02  0.75461074379E+02  0.10000000000E+01 0.  0.
<mgrwt>
<rscale>  0 0.12500044E+03</rscale>
<asrwt>0</asrwt>
<pdfrwt beam="1">  1        4 0.33066008E-02 0.12500044E+03</pdfrwt>
<pdfrwt beam="2">  1       -4 0.27961124E-01 0.12500044E+03</pdfrwt>
<totfact> 0.89590996E+03</totfact>
</mgrwt>
</event>
<event>
 5    1  0.3241863E-002  0.1250006E+03  0.7818608E-02  0.1235068E+00
          4   -1    0    0  501    0  0.00000000000E+00  0.00000000000E+00  0.79000852111E+02  0.79011059569E+02  0.12700000000E+01 0.  1.
         -4   -1    0    0    0  501 -0.00000000000E+00 -0.00000000000E+00 -0.49424577456E+02  0.49440891544E+02  0.12700000000E+01 0.  1.
         25    2    1    2    0    0  0.00000000000E+00  0.00000000000E+00  0.29576274655E+02  0.12845195111E+03  0.12500059089E+03 0.  0.
    9000005    1    3    3    0    0 -0.55788809596E+02  0.16415209560E+02  0.38298572161E+02  0.69639292146E+02  0.10000000000E+01 0.  0.
    9000005    1    3    3    0    0  0.55788809596E+02 -0.16415209560E+02 -0.87222975060E+01  0.58812658967E+02  0.10000000000E+01 0.  0.
<mgrwt>
<rscale>  0 0.12500059E+03</rscale>
<asrwt>0</asrwt>
<pdfrwt beam="1">  1        4 0.12156017E-01 0.12500059E+03</pdfrwt>
<pdfrwt beam="2">  1       -4 0.76058213E-02 0.12500059E+03</pdfrwt>
<totfact> 0.10377600E+04</totfact>
</mgrwt>
</event>
<event>
 5    1  0.3241863E-002  0.1250013E+03  0.7818608E-02  0.1235067E+00
          4   -1    0    0  501    0  0.00000000000E+00  0.00000000000E+00  0.27996585431E+01  0.30742459170E+01  0.12700000000E+01 0.  1.
         -4   -1    0    0    0  501 -0.00000000000E+00 -0.00000000000E+00 -0.13297872021E+04  0.13297878085E+04  0.12700000000E+01 0.  1.
         25    2    1    2    0    0  0.00000000000E+00  0.00000000000E+00 -0.13269875435E+04  0.13328620545E+04  0.12500126193E+03 0.  0.
    9000005    1    3    3    0    0  0.20756564753E+02 -0.33016801630E+02 -0.14282806998E+03  0.14806012882E+03  0.10000000000E+01 0.  0.
    9000005    1    3    3    0    0 -0.20756564753E+02  0.33016801630E+02 -0.11841594736E+04  0.11848019256E+04  0.10000000000E+01 0.  0.
<mgrwt>
<rscale>  0 0.12500126E+03</rscale>
<asrwt>0</asrwt>
<pdfrwt beam="1">  1        4 0.45188652E-03 0.12500126E+03</pdfrwt>
<pdfrwt beam="2">  1       -4 0.20460333E+00 0.12500126E+03</pdfrwt>
<totfact> 0.21465430E+03</totfact>
</mgrwt>
</event>
<event>
 5    1  0.3241863E-002  0.1249982E+03  0.7818608E-02  0.1235072E+00
         -4   -1    0    0    0  501 -0.00000000000E+00  0.00000000000E+00  0.10455439109E+03  0.10456210402E+03  0.12700000000E+01 0. -1.
          4   -1    0    0  501    0  0.00000000000E+00 -0.00000000000E+00 -0.37339955627E+02  0.37361546893E+02  0.12700000000E+01 0. -1.
         25    2    1    2    0    0  0.00000000000E+00  0.00000000000E+00  0.67214435463E+02  0.14192365091E+03  0.12499816940E+03 0.  0.
    9000005    1    3    3    0    0 -0.46307592138E+02 -0.41773882574E+02  0.38103945676E+02  0.73091456620E+02  0.10000000000E+01 0.  0.
    9000005    1    3    3    0    0  0.46307592138E+02  0.41773882574E+02  0.29110489787E+02  0.68832194288E+02  0.10000000000E+01 0.  0.
<mgrwt>
<rscale>  0 0.12499817E+03</rscale>
<asrwt>0</asrwt>
<pdfrwt beam="2">  1        4 0.57468627E-02 0.12499817E+03</pdfrwt>
<pdfrwt beam="1">  1       -4 0.16087545E-01 0.12499817E+03</pdfrwt>
<totfact> 0.10094288E+04</totfact>
</mgrwt>
</event>
<event>
 5    1  0.3241863E-002  0.1250055E+03  0.7818608E-02  0.1235061E+00
          4   -1    0    0  501    0  0.00000000000E+00  0.00000000000E+00  0.75116953174E+02  0.75127688332E+02  0.12700000000E+01 0.  1.
         -4   -1    0    0    0  501 -0.00000000000E+00 -0.00000000000E+00 -0.51984650586E+02  0.52000161505E+02  0.12700000000E+01 0.  1.
         25    2    1    2    0    0  0.00000000000E+00  0.00000000000E+00  0.23132302587E+02  0.12712784984E+03  0.12500554700E+03 0.  0.
    9000005    1    3    3    0    0  0.45211264577E+02 -0.28067487897E+02 -0.21758367718E+02  0.57500164237E+02  0.10000000000E+01 0.  0.
    9000005    1    3    3    0    0 -0.45211264577E+02  0.28067487897E+02  0.44890670306E+02  0.69627685600E+02  0.10000000000E+01 0.  0.
<mgrwt>
<rscale>  0 0.12500555E+03</rscale>
<asrwt>0</asrwt>
<pdfrwt beam="1">  1        4 0.11558473E-01 0.12500555E+03</pdfrwt>
<pdfrwt beam="2">  1       -4 0.79996575E-02 0.12500555E+03</pdfrwt>
<totfact> 0.10405066E+04</totfact>
</mgrwt>
</event>
<event>
 5    1  0.3241863E-002  0.1250001E+03  0.7818608E-02  0.1235069E+00
         -4   -1    0    0    0  501 -0.00000000000E+00  0.00000000000E+00  0.68262803144E+02  0.68274616023E+02  0.12700000000E+01 0. -1.
          4   -1    0    0  501    0  0.00000000000E+00 -0.00000000000E+00 -0.57200020762E+02  0.57214117796E+02  0.12700000000E+01 0. -1.
         25    2    1    2    0    0  0.00000000000E+00  0.00000000000E+00  0.11062782381E+02  0.12548873382E+03  0.12500014865E+03 0.  0.
    9000005    1    3    3    0    0 -0.46914216222E+02 -0.41137892066E+02  0.90075027978E+01  0.63050812477E+02  0.10000000000E+01 0.  0.
    9000005    1    3    3    0    0  0.46914216222E+02  0.41137892066E+02  0.20552795836E+01  0.62437921342E+02  0.10000000000E+01 0.  0.
<mgrwt>
<rscale>  0 0.12500015E+03</rscale>
<asrwt>0</asrwt>
<pdfrwt beam="2">  1        4 0.88019963E-02 0.12500015E+03</pdfrwt>
<pdfrwt beam="1">  1       -4 0.10503963E-01 0.12500015E+03</pdfrwt>
<totfact> 0.10442168E+04</totfact>
</mgrwt>
</event>
<event>
 5    1  0.3241863E-002  0.1249995E+03  0.7818608E-02  0.1235070E+00
         -4   -1    0    0    0  501 -0.00000000000E+00  0.00000000000E+00  0.73313770932E+03  0.73313880932E+03  0.12700000000E+01 0. -1.
          4   -1    0    0  501    0  0.00000000000E+00 -0.00000000000E+00 -0.52512855707E+01  0.54026752767E+01  0.12700000000E+01 0. -1.
         25    2    1    2    0    0  0.00000000000E+00  0.00000000000E+00  0.72788642375E+03  0.73854148459E+03  0.12499951435E+03 0.  0.
    9000005    1    3    3    0    0  0.57140072349E+02  0.21621468430E+02  0.28628848321E+03  0.29273635131E+03  0.10000000000E+01 0.  0.
    9000005    1    3    3    0    0 -0.57140072349E+02 -0.21621468430E+02  0.44159794054E+03  0.44580513328E+03  0.10000000000E+01 0.  0.
<mgrwt>
<rscale>  0 0.12499951E+03</rscale>
<asrwt>0</asrwt>
<pdfrwt beam="2">  1        4 0.81962078E-03 0.12499951E+03</pdfrwt>
<pdfrwt beam="1">  1       -4 0.11280205E+00 0.12499951E+03</pdfrwt>
<totfact> 0.41128753E+03</totfact>
</mgrwt>
</event>
<event>
 5    1  0.3241863E-002  0.1249971E+03  0.7818608E-02  0.1235074E+00
          4   -1    0    0  501    0  0.00000000000E+00  0.00000000000E+00  0.78144607697E+01  0.79169878819E+01  0.12700000000E+01 0. -1.
         -4   -1    0    0    0  501 -0.00000000000E+00 -0.00000000000E+00 -0.49649049259E+03  0.49649211689E+03  0.12700000000E+01 0. -1.
         25    2    1    2    0    0  0.00000000000E+00  0.00000000000E+00 -0.48867603182E+03  0.50440910477E+03  0.12499712357E+03 0.  0.
    9000005    1    3    3    0    0  0.40117671273E+01 -0.99118762487E+01  0.41150509068E+01  0.11501009096E+02  0.10000000000E+01 0.  0.
    9000005    1    3    3    0    0 -0.40117671273E+01  0.99118762487E+01 -0.49279108273E+03  0.49290809568E+03  0.10000000000E+01 0.  0.
<mgrwt>
<rscale>  0 0.12499712E+03</rscale>
<asrwt>0</asrwt>
<pdfrwt beam="1">  1        4 0.12102368E-02 0.12499712E+03</pdfrwt>
<pdfrwt beam="2">  1       -4 0.76391140E-01 0.12499712E+03</pdfrwt>
<totfact> 0.55527412E+03</totfact>
</mgrwt>
</event>
<event>
 5    1  0.3241863E-002  0.1250024E+03  0.7818608E-02  0.1235066E+00
         -4   -1    0    0    0  501 -0.00000000000E+00  0.00000000000E+00  0.11669420464E+02  0.11738325007E+02  0.12700000000E+01 0.  1.
          4   -1    0    0  501    0  0.00000000000E+00 -0.00000000000E+00 -0.33369948147E+03  0.33370189815E+03  0.12700000000E+01 0.  1.
         25    2    1    2    0    0  0.00000000000E+00  0.00000000000E+00 -0.32203006100E+03  0.34544022316E+03  0.12500235033E+03 0.  0.
    9000005    1    3    3    0    0  0.20913640906E+02 -0.16871288073E+02 -0.50961504939E+01  0.27367708838E+02  0.10000000000E+01 0.  0.
    9000005    1    3    3    0    0 -0.20913640906E+02  0.16871288073E+02 -0.31693391051E+03  0.31807251432E+03  0.10000000000E+01 0.  0.
<mgrwt>
<rscale>  0 0.12500235E+03</rscale>
<asrwt>0</asrwt>
<pdfrwt beam="2">  1        4 0.51343861E-01 0.12500235E+03</pdfrwt>
<pdfrwt beam="1">  1       -4 0.18007820E-02 0.12500235E+03</pdfrwt>
<totfact> 0.70225466E+03</totfact>
</mgrwt>
</event>
<event>
 5    1  0.3241863E-002  0.1250025E+03  0.7818608E-02  0.1235065E+00
          4   -1    0    0  501    0  0.00000000000E+00  0.00000000000E+00  0.16787920813E+03  0.16788401181E+03  0.12700000000E+01 0. -1.
         -4   -1    0    0    0  501 -0.00000000000E+00 -0.00000000000E+00 -0.23246688534E+02  0.23281353651E+02  0.12700000000E+01 0. -1.
         25    2    1    2    0    0  0.00000000000E+00  0.00000000000E+00  0.14463251960E+03  0.19116536546E+03  0.12500252489E+03 0.  0.
    9000005    1    3    3    0    0 -0.51434032377E+02 -0.22862817718E+02  0.30792680810E+02  0.64166637063E+02  0.10000000000E+01 0.  0.
    9000005    1    3    3    0    0  0.51434032377E+02  0.22862817718E+02  0.11383983878E+03  0.12699872840E+03  0.10000000000E+01 0.  0.
<mgrwt>
<rscale>  0 0.12500252E+03</rscale>
<asrwt>0</asrwt>
<pdfrwt beam="1">  1        4 0.25830606E-01 0.12500252E+03</pdfrwt>
<pdfrwt beam="2">  1       -4 0.35794498E-02 0.12500252E+03</pdfrwt>
<totfact> 0.91639757E+03</totfact>
</mgrwt>
</event>
<event>
 5    1  0.3241863E-002  0.1249987E+03  0.7818608E-02  0.1235071E+00
         -4   -1    0    0    0  501 -0.00000000000E+00  0.00000000000E+00  0.56796863433E+03  0.56797005421E+03  0.12700000000E+01 0. -1.
          4   -1    0    0  501    0  0.00000000000E+00 -0.00000000000E+00 -0.68173612646E+01  0.69346459616E+01  0.12700000000E+01 0. -1.
         25    2    1    2    0    0  0.00000000000E+00  0.00000000000E+00  0.56115127307E+03  0.57490470017E+03  0.12499865207E+03 0.  0.
    9000005    1    3    3    0    0  0.23331813785E+02  0.39720554672E+02  0.47478702647E+03  0.47701762703E+03  0.10000000000E+01 0.  0.
    9000005    1    3    3    0    0 -0.23331813785E+02 -0.39720554672E+02  0.86364246600E+02  0.97887073144E+02  0.10000000000E+01 0.  0.
<mgrwt>
<rscale>  0 0.12499865E+03</rscale>
<asrwt>0</asrwt>
<pdfrwt beam="2">  1        4 0.10579558E-02 0.12499865E+03</pdfrwt>
<pdfrwt beam="1">  1       -4 0.87388929E-01 0.12499865E+03</pdfrwt>
<totfact> 0.50492496E+03</totfact>
</mgrwt>
</event>
<event>
 5    1  0.3241863E-002  0.1250029E+03  0.7818608E-02  0.1235065E+00
         -4   -1    0    0    0  501 -0.00000000000E+00  0.00000000000E+00  0.23762757281E+01  0.26943619534E+01  0.12700000000E+01 0. -1.
          4   -1    0    0  501    0  0.00000000000E+00 -0.00000000000E+00 -0.15404871895E+04  0.15404877130E+04  0.12700000000E+01 0. -1.
         25    2    1    2    0    0  0.00000000000E+00  0.00000000000E+00 -0.15381109138E+04  0.15431820750E+04  0.12500293358E+03 0.  0.
    9000005    1    3    3    0    0 -0.61441882002E+02 -0.26436680669E+01 -0.90615880709E+03  0.90824384254E+03  0.10000000000E+01 0.  0.
    9000005    1    3    3    0    0  0.61441882002E+02  0.26436680669E+01 -0.63195210672E+03  0.63493823246E+03  0.10000000000E+01 0.  0.
<mgrwt>
<rscale>  0 0.12500293E+03</rscale>
<asrwt>0</asrwt>
<pdfrwt beam="2">  1        4 0.23702179E+00 0.12500293E+03</pdfrwt>
<pdfrwt beam="1">  1       -4 0.39009055E-03 0.12500293E+03</pdfrwt>
<totfact> 0.17096013E+03</totfact>
</mgrwt>
</event>
<event>
 5    1  0.3241863E-002  0.1249987E+03  0.7818608E-02  0.1235071E+00
          4   -1    0    0  501    0  0.00000000000E+00  0.00000000000E+00  0.13898758187E+01  0.18827253627E+01  0.12700000000E+01 0.  1.
         -4   -1    0    0    0  501 -0.00000000000E+00 -0.00000000000E+00 -0.23867009618E+04  0.23867012997E+04  0.12700000000E+01 0.  1.
         25    2    1    2    0    0  0.00000000000E+00  0.00000000000E+00 -0.23853110860E+04  0.23885840251E+04  0.12499867138E+03 0.  0.
    9000005    1    3    3    0    0  0.56037093499E+02 -0.84045845100E+01 -0.68911797871E+03  0.69144441676E+03  0.10000000000E+01 0.  0.
    9000005    1    3    3    0    0 -0.56037093499E+02  0.84045845100E+01 -0.16961931073E+04  0.16971396083E+04  0.10000000000E+01 0.  0.
<mgrwt>
<rscale>  0 0.12499867E+03</rscale>
<asrwt>0</asrwt>
<pdfrwt beam="1">  1        4 0.25176645E-03 0.12499867E+03</pdfrwt>
<pdfrwt beam="2">  1       -4 0.36721991E+00 0.12499867E+03</pdfrwt>
<totfact> 0.56050469E+02</totfact>
</mgrwt>
</event>
<event>
 5    1  0.3241863E-002  0.1249980E+03  0.7818608E-02  0.1235072E+00
          4   -1    0    0  501    0  0.00000000000E+00  0.00000000000E+00  0.79616998439E+02  0.79627126913E+02  0.12700000000E+01 0. -1.
         -4   -1    0    0    0  501 -0.00000000000E+00 -0.00000000000E+00 -0.49039985213E+02  0.49056427201E+02  0.12700000000E+01 0. -1.
         25    2    1    2    0    0  0.00000000000E+00  0.00000000000E+00  0.30577013226E+02  0.12868355411E+03  0.12499801343E+03 0.  0.
    9000005    1    3    3    0    0 -0.36906211644E+01  0.21337228858E+02 -0.45059219566E+02  0.50002312825E+02  0.10000000000E+01 0.  0.
    9000005    1    3    3    0    0  0.36906211644E+01 -0.21337228858E+02  0.75636232792E+02  0.78681241290E+02  0.10000000000E+01 0.  0.
<mgrwt>
<rscale>  0 0.12499801E+03</rscale>
<asrwt>0</asrwt>
<pdfrwt beam="1">  1        4 0.12250813E-01 0.12499801E+03</pdfrwt>
<pdfrwt beam="2">  1       -4 0.75466571E-02 0.12499801E+03</pdfrwt>
<totfact> 0.10373217E+04</totfact>
</mgrwt>
</event>
<event>
 5    1  0.3241863E-002  0.1249972E+03  0.7818608E-02  0.1235074E+00
          4   -1    0    0  501    0  0.00000000000E+00  0.00000000000E+00  0.37987377800E+02  0.38008601292E+02  0.12700000000E+01 0.  1.
         -4   -1    0    0    0  501 -0.00000000000E+00 -0.00000000000E+00 -0.10277180622E+03  0.10277965292E+03  0.12700000000E+01 0.  1.
         25    2    1    2    0    0  0.00000000000E+00  0.00000000000E+00 -0.64784428419E+02  0.14078825421E+03  0.12499724140E+03 0.  0.
    9000005    1    3    3    0    0  0.99618676557E+01  0.26263981274E+02 -0.95265716282E+02  0.99325687605E+02  0.10000000000E+01 0.  0.
    9000005    1    3    3    0    0 -0.99618676557E+01 -0.26263981274E+02  0.30481287863E+02  0.41462566603E+02  0.10000000000E+01 0.  0.
<mgrwt>
<rscale>  0 0.12499724E+03</rscale>
<asrwt>0</asrwt>
<pdfrwt beam="1">  1        4 0.58464482E-02 0.12499724E+03</pdfrwt>
<pdfrwt beam="2">  1       -4 0.15813283E-01 0.12499724E+03</pdfrwt>
<totfact> 0.10117904E+04</totfact>
</mgrwt>
</event>
<event>
 5    1  0.3241863E-002  0.1250041E+03  0.7818608E-02  0.1235063E+00
         -4   -1    0    0    0  501 -0.00000000000E+00  0.00000000000E+00  0.25342001078E+02  0.25373803788E+02  0.12700000000E+01 0. -1.
          4   -1    0    0  501    0  0.00000000000E+00 -0.00000000000E+00 -0.15402038103E+03  0.15402561694E+03  0.12700000000E+01 0. -1.
         25    2    1    2    0    0  0.00000000000E+00  0.00000000000E+00 -0.12867837996E+03  0.17939942073E+03  0.12500410669E+03 0.  0.
    9000005    1    3    3    0    0 -0.45149558276E+02 -0.43105692447E+02 -0.68626258642E+02  0.92774709426E+02  0.10000000000E+01 0.  0.
    9000005    1    3    3    0    0  0.45149558276E+02  0.43105692447E+02 -0.60052121314E+02  0.86624711302E+02  0.10000000000E+01 0.  0.
<mgrwt>
<rscale>  0 0.12500411E+03</rscale>
<asrwt>0</asrwt>
<pdfrwt beam="2">  1        4 0.23698292E-01 0.12500411E+03</pdfrwt>
<pdfrwt beam="1">  1       -4 0.39016186E-02 0.12500411E+03</pdfrwt>
<totfact> 0.93716591E+03</totfact>
</mgrwt>
</event>
<event>
 5    1  0.3241863E-002  0.1249997E+03  0.7818608E-02  0.1235070E+00
          4   -1    0    0  501    0  0.00000000000E+00  0.00000000000E+00  0.37921969536E+03  0.37922182195E+03  0.12700000000E+01 0.  1.
         -4   -1    0    0    0  501 -0.00000000000E+00 -0.00000000000E+00 -0.10259396648E+02  0.10337703787E+02  0.12700000000E+01 0.  1.
         25    2    1    2    0    0  0.00000000000E+00  0.00000000000E+00  0.36896029871E+03  0.38955952574E+03  0.12499968829E+03 0.  0.
    9000005    1    3    3    0    0 -0.21722897755E+02  0.56723918977E+02  0.23025569228E+03  0.23813477507E+03  0.10000000000E+01 0.  0.
    9000005    1    3    3    0    0  0.21722897755E+02 -0.56723918977E+02  0.13870460643E+03  0.15142475067E+03  0.10000000000E+01 0.  0.
<mgrwt>
<rscale>  0 0.12499969E+03</rscale>
<asrwt>0</asrwt>
<pdfrwt beam="1">  1        4 0.58347668E-01 0.12499969E+03</pdfrwt>
<pdfrwt beam="2">  1       -4 0.15845562E-02 0.12499969E+03</pdfrwt>
<totfact> 0.65581500E+03</totfact>
</mgrwt>
</event>
<event>
 5    1  0.3241863E-002  0.1250035E+03  0.7818608E-02  0.1235064E+00
          4   -1    0    0  501    0  0.00000000000E+00  0.00000000000E+00  0.61027998223E+03  0.61028130368E+03  0.12700000000E+01 0.  1.
         -4   -1    0    0    0  501 -0.00000000000E+00 -0.00000000000E+00 -0.63367752853E+01  0.64627874030E+01  0.12700000000E+01 0.  1.
         25    2    1    2    0    0  0.00000000000E+00  0.00000000000E+00  0.60394320695E+03  0.61674409108E+03  0.12500350659E+03 0.  0.
    9000005    1    3    3    0    0 -0.58049333871E+02  0.21841049542E+02  0.33977652136E+03  0.34539230025E+03  0.10000000000E+01 0.  0.
    9000005    1    3    3    0    0  0.58049333871E+02 -0.21841049542E+02  0.26416668559E+03  0.27135179083E+03  0.10000000000E+01 0.  0.
<mgrwt>
<rscale>  0 0.12500351E+03</rscale>
<asrwt>0</asrwt>
<pdfrwt beam="1">  1        4 0.93898992E-01 0.12500351E+03</pdfrwt>
<pdfrwt beam="2">  1       -4 0.98468372E-03 0.12500351E+03</pdfrwt>
<totfact> 0.47823786E+03</totfact>
</mgrwt>
</event>
<event>
 5    1  0.3241863E-002  0.1250000E+03  0.7818608E-02  0.1235069E+00
         -4   -1    0    0    0  501 -0.00000000000E+00  0.00000000000E+00  0.16467925883E+04  0.16467930780E+04  0.12700000000E+01 0. -1.
          4   -1    0    0  501    0  0.00000000000E+00 -0.00000000000E+00 -0.22015201443E+01  0.25415725340E+01  0.12700000000E+01 0. -1.
         25    2    1    2    0    0  0.00000000000E+00  0.00000000000E+00  0.16445910681E+04  0.16493346505E+04  0.12500003210E+03 0.  0.
    9000005    1    3    3    0    0  0.49145805361E+02  0.25287830438E+02  0.12070888395E+04  0.12083539428E+04  0.10000000000E+01 0.  0.
    9000005    1    3    3    0    0 -0.49145805361E+02 -0.25287830438E+02  0.43750222861E+03  0.44098070774E+03  0.10000000000E+01 0.  0.
<mgrwt>
<rscale>  0 0.12500003E+03</rscale>
<asrwt>0</asrwt>
<pdfrwt beam="2">  1        4 0.36489138E-03 0.12500003E+03</pdfrwt>
<pdfrwt beam="1">  1       -4 0.25337861E+00 0.12500003E+03</pdfrwt>
<totfact> 0.15170997E+03</totfact>
</mgrwt>
</event>
<event>
 5    1  0.3241863E-002  0.1249989E+03  0.7818608E-02  0.1235071E+00
          4   -1    0    0  501    0  0.00000000000E+00  0.00000000000E+00  0.51130727823E+01  0.52684355626E+01  0.12700000000E+01 0. -1.
         -4   -1    0    0    0  501 -0.00000000000E+00 -0.00000000000E+00 -0.75237044712E+03  0.75237151900E+03  0.12700000000E+01 0. -1.
         25    2    1    2    0    0  0.00000000000E+00  0.00000000000E+00 -0.74725737433E+03  0.75763995456E+03  0.12499886897E+03 0.  0.
    9000005    1    3    3    0    0 -0.17227298504E+02 -0.26884416314E+02 -0.48034283328E+02  0.57687468563E+02  0.10000000000E+01 0.  0.
    9000005    1    3    3    0    0  0.17227298504E+02  0.26884416314E+02 -0.69922309101E+03  0.69995248600E+03  0.10000000000E+01 0.  0.
<mgrwt>
<rscale>  0 0.12499887E+03</rscale>
<asrwt>0</asrwt>
<pdfrwt beam="1">  1        4 0.79866061E-03 0.12499887E+03</pdfrwt>
<pdfrwt beam="2">  1       -4 0.11576125E+00 0.12499887E+03</pdfrwt>
<totfact> 0.40212378E+03</totfact>
</mgrwt>
</event>
<event>
 5    1  0.3241863E-002  0.1249864E+03  0.7818608E-02  0.1235091E+00
         -4   -1    0    0    0  501 -0.00000000000E+00  0.00000000000E+00  0.59231048781E+03  0.59231184934E+03  0.12700000000E+01 0. -1.
          4   -1    0    0  501    0  0.00000000000E+00 -0.00000000000E+00 -0.65309661006E+01  0.66533013014E+01  0.12700000000E+01 0. -1.
         25    2    1    2    0    0  0.00000000000E+00  0.00000000000E+00  0.58577952171E+03  0.59896515065E+03  0.12498641378E+03 0.  0.
    9000005    1    3    3    0    0  0.40192318113E+02  0.14386807471E+02  0.51155458590E+03  0.51333370922E+03  0.10000000000E+01 0.  0.
    9000005    1    3    3    0    0 -0.40192318113E+02 -0.14386807471E+02  0.74224935810E+02  0.85631441425E+02  0.10000000000E+01 0.  0.
<mgrwt>
<rscale>  0 0.12498641E+03</rscale>
<asrwt>0</asrwt>
<pdfrwt beam="2">  1        4 0.10142791E-02 0.12498641E+03</pdfrwt>
<pdfrwt beam="1">  1       -4 0.91134209E-01 0.12498641E+03</pdfrwt>
<totfact> 0.48947577E+03</totfact>
</mgrwt>
</event>
<event>
 5    1  0.3241863E-002  0.1249981E+03  0.7818608E-02  0.1235072E+00
         -4   -1    0    0    0  501 -0.00000000000E+00  0.00000000000E+00  0.31145310413E+02  0.31171192802E+02  0.12700000000E+01 0. -1.
          4   -1    0    0  501    0  0.00000000000E+00 -0.00000000000E+00 -0.12533524470E+03  0.12534167888E+03  0.12700000000E+01 0. -1.
         25    2    1    2    0    0  0.00000000000E+00  0.00000000000E+00 -0.94189934285E+02  0.15651287168E+03  0.12499814111E+03 0.  0.
    9000005    1    3    3    0    0 -0.43166460611E+02 -0.15049283387E+02 -0.10044342303E+03  0.11036170297E+03  0.10000000000E+01 0.  0.
    9000005    1    3    3    0    0  0.43166460611E+02  0.15049283387E+02  0.62534887418E+01  0.46151168713E+02  0.10000000000E+01 0.  0.
<mgrwt>
<rscale>  0 0.12499814E+03</rscale>
<asrwt>0</asrwt>
<pdfrwt beam="2">  1        4 0.19284831E-01 0.12499814E+03</pdfrwt>
<pdfrwt beam="1">  1       -4 0.47940722E-02 0.12499814E+03</pdfrwt>
<totfact> 0.98023417E+03</totfact>
</mgrwt>
</event>
<event>
 5    1  0.3241863E-002  0.1250052E+03  0.7818608E-02  0.1235061E+00
         -4   -1    0    0    0  501 -0.00000000000E+00  0.00000000000E+00  0.46218062530E+02  0.46235508044E+02  0.12700000000E+01 0. -1.
          4   -1    0    0  501    0  0.00000000000E+00 -0.00000000000E+00 -0.84486679910E+02  0.84496224663E+02  0.12700000000E+01 0. -1.
         25    2    1    2    0    0  0.00000000000E+00  0.00000000000E+00 -0.38268617380E+02  0.13073173271E+03  0.12500519533E+03 0.  0.
    9000005    1    3    3    0    0  0.69525321598E+01  0.14996956792E+02  0.43895429235E+02  0.46915403912E+02  0.10000000000E+01 0.  0.
    9000005    1    3    3    0    0 -0.69525321598E+01 -0.14996956792E+02 -0.82164046615E+02  0.83816328795E+02  0.10000000000E+01 0.  0.
<mgrwt>
<rscale>  0 0.12500520E+03</rscale>
<asrwt>0</asrwt>
<pdfrwt beam="2">  1        4 0.13000027E-01 0.12500520E+03</pdfrwt>
<pdfrwt beam="1">  1       -4 0.71125474E-02 0.12500520E+03</pdfrwt>
<totfact> 0.10327633E+04</totfact>
</mgrwt>
</event>
<event>
 5    1  0.3241863E-002  0.1250013E+03  0.7818608E-02  0.1235067E+00
          4   -1    0    0  501    0  0.00000000000E+00  0.00000000000E+00  0.72888708160E+01  0.73986848678E+01  0.12700000000E+01 0. -1.
         -4   -1    0    0    0  501 -0.00000000000E+00 -0.00000000000E+00 -0.53181352629E+03  0.53181504270E+03  0.12700000000E+01 0. -1.
         25    2    1    2    0    0  0.00000000000E+00  0.00000000000E+00 -0.52452465547E+03  0.53921372757E+03  0.12500131919E+03 0.  0.
    9000005    1    3    3    0    0  0.77063903409E+01  0.61846743168E+02 -0.24253026853E+03  0.25041233844E+03  0.10000000000E+01 0.  0.
    9000005    1    3    3    0    0 -0.77063903409E+01 -0.61846743168E+02 -0.28199438694E+03  0.28880138912E+03  0.10000000000E+01 0.  0.
<mgrwt>
<rscale>  0 0.12500132E+03</rscale>
<asrwt>0</asrwt>
<pdfrwt beam="1">  1        4 0.11299290E-02 0.12500132E+03</pdfrwt>
<pdfrwt beam="2">  1       -4 0.81825999E-01 0.12500132E+03</pdfrwt>
<totfact> 0.52943735E+03</totfact>
</mgrwt>
</event>
<event>
 5    1  0.3241863E-002  0.1250012E+03  0.7818608E-02  0.1235067E+00
         -4   -1    0    0    0  501 -0.00000000000E+00  0.00000000000E+00  0.70499273797E+02  0.70510711994E+02  0.12700000000E+01 0. -1.
          4   -1    0    0  501    0  0.00000000000E+00 -0.00000000000E+00 -0.55386229078E+02  0.55400787643E+02  0.12700000000E+01 0. -1.
         25    2    1    2    0    0  0.00000000000E+00  0.00000000000E+00  0.15113044718E+02  0.12591149964E+03  0.12500120647E+03 0.  0.
    9000005    1    3    3    0    0 -0.28216488996E+02  0.54140625221E+02 -0.58803307594E+01  0.61342936353E+02  0.10000000000E+01 0.  0.
    9000005    1    3    3    0    0  0.28216488996E+02 -0.54140625221E+02  0.20993375478E+02  0.64568563284E+02  0.10000000000E+01 0.  0.
<mgrwt>
<rscale>  0 0.12500121E+03</rscale>
<asrwt>0</asrwt>
<pdfrwt beam="2">  1        4 0.85229581E-02 0.12500121E+03</pdfrwt>
<pdfrwt beam="1">  1       -4 0.10848042E-01 0.12500121E+03</pdfrwt>
<totfact> 0.10432613E+04</totfact>
</mgrwt>
</event>
<event>
 5    1  0.3241863E-002  0.1249996E+03  0.7818608E-02  0.1235070E+00
          4   -1    0    0  501    0  0.00000000000E+00  0.00000000000E+00  0.83354473184E+03  0.83354569934E+03  0.12700000000E+01 0.  1.
         -4   -1    0    0    0  501 -0.00000000000E+00 -0.00000000000E+00 -0.45992479161E+01  0.47713710183E+01  0.12700000000E+01 0.  1.
         25    2    1    2    0    0  0.00000000000E+00  0.00000000000E+00  0.82894548393E+03  0.83831707036E+03  0.12499958050E+03 0.  0.
    9000005    1    3    3    0    0  0.96134832092E+01  0.61570788098E+02  0.38312879658E+03  0.38816498525E+03  0.10000000000E+01 0.  0.
    9000005    1    3    3    0    0 -0.96134832092E+01 -0.61570788098E+02  0.44581668735E+03  0.45015208511E+03  0.10000000000E+01 0.  0.
<mgrwt>
<rscale>  0 0.12499958E+03</rscale>
<asrwt>0</asrwt>
<pdfrwt beam="1">  1        4 0.12825090E+00 0.12499958E+03</pdfrwt>
<pdfrwt beam="2">  1       -4 0.72089164E-03 0.12499958E+03</pdfrwt>
<totfact> 0.36610580E+03</totfact>
</mgrwt>
</event>
<event>
 5    1  0.3241863E-002  0.1250009E+03  0.7818608E-02  0.1235068E+00
         -4   -1    0    0    0  501 -0.00000000000E+00  0.00000000000E+00  0.19985198226E+03  0.19985601745E+03  0.12700000000E+01 0. -1.
          4   -1    0    0  501    0  0.00000000000E+00 -0.00000000000E+00 -0.19521140020E+02  0.19562408024E+02  0.12700000000E+01 0. -1.
         25    2    1    2    0    0  0.00000000000E+00  0.00000000000E+00  0.18033084224E+03  0.21941842548E+03  0.12500093110E+03 0.  0.
    9000005    1    3    3    0    0  0.51337991371E+02  0.34928132922E+02  0.77785103123E+02  0.99534346310E+02  0.10000000000E+01 0.  0.
    9000005    1    3    3    0    0 -0.51337991371E+02 -0.34928132922E+02  0.10254573911E+03  0.11988407917E+03  0.10000000000E+01 0.  0.
<mgrwt>
<rscale>  0 0.12500093E+03</rscale>
<asrwt>0</asrwt>
<pdfrwt beam="2">  1        4 0.30067374E-02 0.12500093E+03</pdfrwt>
<pdfrwt beam="1">  1       -4 0.30749942E-01 0.12500093E+03</pdfrwt>
<totfact> 0.86958652E+03</totfact>
</mgrwt>
</event>
<event>
 5    1  0.3241863E-002  0.1250004E+03  0.7818608E-02  0.1235069E+00
          4   -1    0    0  501    0  0.00000000000E+00  0.00000000000E+00  0.42468450649E+02  0.42487435796E+02  0.12700000000E+01 0.  1.
         -4   -1    0    0    0  501 -0.00000000000E+00 -0.00000000000E+00 -0.91936690750E+02  0.91945462129E+02  0.12700000000E+01 0.  1.
         25    2    1    2    0    0  0.00000000000E+00  0.00000000000E+00 -0.49468240101E+02  0.13443289792E+03  0.12500038906E+03 0.  0.
    9000005    1    3    3    0    0  0.31748757427E+02  0.52135190134E+02 -0.39131336985E+02  0.72514296402E+02  0.10000000000E+01 0.  0.
    9000005    1    3    3    0    0 -0.31748757427E+02 -0.52135190134E+02 -0.10336903116E+02  0.61918601523E+02  0.10000000000E+01 0.  0.
<mgrwt>
<rscale>  0 0.12500039E+03</rscale>
<asrwt>0</asrwt>
<pdfrwt beam="1">  1        4 0.65357429E-02 0.12500039E+03</pdfrwt>
<pdfrwt beam="2">  1       -4 0.14146241E-01 0.12500039E+03</pdfrwt>
<totfact> 0.10249948E+04</totfact>
</mgrwt>
</event>
<event>
 5    1  0.3241863E-002  0.1250018E+03  0.7818608E-02  0.1235066E+00
          4   -1    0    0  501    0  0.00000000000E+00  0.00000000000E+00  0.52345605300E+03  0.52345759362E+03  0.12700000000E+01 0.  1.
         -4   -1    0    0    0  501 -0.00000000000E+00 -0.00000000000E+00 -0.74070449642E+01  0.75151324075E+01  0.12700000000E+01 0.  1.
         25    2    1    2    0    0  0.00000000000E+00  0.00000000000E+00  0.51604900803E+03  0.53097272603E+03  0.12500182836E+03 0.  0.
    9000005    1    3    3    0    0  0.62473285306E+01  0.77769140256E+01 -0.40241625136E+01  0.10802934299E+02  0.10000000000E+01 0.  0.
    9000005    1    3    3    0    0 -0.62473285306E+01 -0.77769140256E+01  0.52007317055E+03  0.52016979173E+03  0.10000000000E+01 0.  0.
<mgrwt>
<rscale>  0 0.12500183E+03</rscale>
<asrwt>0</asrwt>
<pdfrwt beam="1">  1        4 0.80540134E-01 0.12500183E+03</pdfrwt>
<pdfrwt beam="2">  1       -4 0.11479783E-02 0.12500183E+03</pdfrwt>
<totfact> 0.53536721E+03</totfact>
</mgrwt>
</event>
<event>
 5    1  0.3241863E-002  0.1250186E+03  0.7818608E-02  0.1235040E+00
          4   -1    0    0  501    0  0.00000000000E+00  0.00000000000E+00  0.29603713357E+03  0.29603985771E+03  0.12700000000E+01 0.  1.
         -4   -1    0    0    0  501 -0.00000000000E+00 -0.00000000000E+00 -0.13165720353E+02  0.13226832289E+02  0.12700000000E+01 0.  1.
         25    2    1    2    0    0  0.00000000000E+00  0.00000000000E+00  0.28287141322E+03  0.30926669000E+03  0.12501859512E+03 0.  0.
    9000005    1    3    3    0    0  0.35597956539E+02  0.49583966966E+02  0.17468259907E+03  0.18504268348E+03  0.10000000000E+01 0.  0.
    9000005    1    3    3    0    0 -0.35597956539E+02 -0.49583966966E+02  0.10818881414E+03  0.12422400652E+03  0.10000000000E+01 0.  0.
<mgrwt>
<rscale>  0 0.12501860E+03</rscale>
<asrwt>0</asrwt>
<pdfrwt beam="1">  1        4 0.45549083E-01 0.12501860E+03</pdfrwt>
<pdfrwt beam="2">  1       -4 0.20304060E-02 0.12501860E+03</pdfrwt>
<totfact> 0.74420246E+03</totfact>
</mgrwt>
</event>
<event>
 5    1  0.3241863E-002  0.1249999E+03  0.7818608E-02  0.1235069E+00
         -4   -1    0    0    0  501 -0.00000000000E+00  0.00000000000E+00  0.16169189228E+02  0.16218988264E+02  0.12700000000E+01 0.  1.
          4   -1    0    0  501    0  0.00000000000E+00 -0.00000000000E+00 -0.24116283660E+03  0.24116618058E+03  0.12700000000E+01 0.  1.
         25    2    1    2    0    0  0.00000000000E+00  0.00000000000E+00 -0.22499364737E+03  0.25738516884E+03  0.12499993514E+03 0.  0.
    9000005    1    3    3    0    0 -0.30468865578E+02 -0.30805719914E+02 -0.20522189811E+03  0.20974835306E+03  0.10000000000E+01 0.  0.
    9000005    1    3    3    0    0  0.30468865578E+02  0.30805719914E+02 -0.19771749261E+02  0.47636815782E+02  0.10000000000E+01 0.  0.
<mgrwt>
<rscale>  0 0.12499994E+03</rscale>
<asrwt>0</asrwt>
<pdfrwt beam="2">  1        4 0.37106060E-01 0.12499994E+03</pdfrwt>
<pdfrwt beam="1">  1       -4 0.24916557E-02 0.12499994E+03</pdfrwt>
<totfact> 0.81274540E+03</totfact>
</mgrwt>
</event>
<event>
 5    1  0.3241863E-002  0.1249976E+03  0.7818608E-02  0.1235073E+00
         -4   -1    0    0    0  501 -0.00000000000E+00  0.00000000000E+00  0.70060289736E+01  0.71202065967E+01  0.12700000000E+01 0.  1.
          4   -1    0    0  501    0  0.00000000000E+00 -0.00000000000E+00 -0.55291266519E+03  0.55291412374E+03  0.12700000000E+01 0.  1.
         25    2    1    2    0    0  0.00000000000E+00  0.00000000000E+00 -0.54590663622E+03  0.56003433033E+03  0.12499758272E+03 0.  0.
    9000005    1    3    3    0    0 -0.50006983023E+02  0.17137030200E+01 -0.10522593280E+03  0.11652095118E+03  0.10000000000E+01 0.  0.
    9000005    1    3    3    0    0  0.50006983023E+02 -0.17137030200E+01 -0.44068070341E+03  0.44351337916E+03  0.10000000000E+01 0.  0.
<mgrwt>
<rscale>  0 0.12499758E+03</rscale>
<asrwt>0</asrwt>
<pdfrwt beam="2">  1        4 0.85072348E-01 0.12499758E+03</pdfrwt>
<pdfrwt beam="1">  1       -4 0.10867461E-02 0.12499758E+03</pdfrwt>
<totfact> 0.51494360E+03</totfact>
</mgrwt>
</event>
<event>
 5    1  0.3241863E-002  0.1249968E+03  0.7818608E-02  0.1235074E+00
         -4   -1    0    0    0  501 -0.00000000000E+00  0.00000000000E+00  0.11966399366E+03  0.11967073276E+03  0.12700000000E+01 0.  1.
          4   -1    0    0  501    0  0.00000000000E+00 -0.00000000000E+00 -0.32621825976E+02  0.32646537795E+02  0.12700000000E+01 0.  1.
         25    2    1    2    0    0  0.00000000000E+00  0.00000000000E+00  0.87042167685E+02  0.15231727055E+03  0.12499684777E+03 0.  0.
    9000005    1    3    3    0    0  0.21001216001E+02  0.23887601678E+02 -0.22025966919E+02  0.38701573691E+02  0.10000000000E+01 0.  0.
    9000005    1    3    3    0    0 -0.21001216001E+02 -0.23887601678E+02  0.10906813460E+03  0.11361569686E+03  0.10000000000E+01 0.  0.
<mgrwt>
<rscale>  0 0.12499685E+03</rscale>
<asrwt>0</asrwt>
<pdfrwt beam="2">  1        4 0.50211617E-02 0.12499685E+03</pdfrwt>
<pdfrwt beam="1">  1       -4 0.18412265E-01 0.12499685E+03</pdfrwt>
<totfact> 0.98850785E+03</totfact>
</mgrwt>
</event>
<event>
 5    1  0.3241863E-002  0.1250028E+03  0.7818608E-02  0.1235065E+00
          4   -1    0    0  501    0  0.00000000000E+00  0.00000000000E+00  0.15507362274E+03  0.15507882309E+03  0.12700000000E+01 0.  1.
         -4   -1    0    0    0  501 -0.00000000000E+00 -0.00000000000E+00 -0.25169153163E+02  0.25201173999E+02  0.12700000000E+01 0.  1.
         25    2    1    2    0    0  0.00000000000E+00  0.00000000000E+00  0.12990446958E+03  0.18027999709E+03  0.12500282450E+03 0.  0.
    9000005    1    3    3    0    0  0.14699412270E+02  0.45679312544E+02  0.72143086818E+01  0.48535745233E+02  0.10000000000E+01 0.  0.
    9000005    1    3    3    0    0 -0.14699412270E+02 -0.45679312544E+02  0.12269016090E+03  0.13174425186E+03  0.10000000000E+01 0.  0.
<mgrwt>
<rscale>  0 0.12500282E+03</rscale>
<asrwt>0</asrwt>
<pdfrwt beam="1">  1        4 0.23860343E-01 0.12500282E+03</pdfrwt>
<pdfrwt beam="2">  1       -4 0.38750406E-02 0.12500282E+03</pdfrwt>
<totfact> 0.93560702E+03</totfact>
</mgrwt>
</event>
<event>
 5    1  0.3241863E-002  0.1250003E+03  0.7818608E-02  0.1235069E+00
         -4   -1    0    0    0  501 -0.00000000000E+00  0.00000000000E+00  0.96229691259E+02  0.96238071364E+02  0.12700000000E+01 0.  1.
          4   -1    0    0  501    0  0.00000000000E+00 -0.00000000000E+00 -0.40573118486E+02  0.40592990080E+02  0.12700000000E+01 0.  1.
         25    2    1    2    0    0  0.00000000000E+00  0.00000000000E+00  0.55656572773E+02  0.13683106144E+03  0.12500034113E+03 0.  0.
    9000005    1    3    3    0    0  0.55912525186E+02 -0.23359077591E+02  0.44552175013E+02  0.75218038242E+02  0.10000000000E+01 0.  0.
    9000005    1    3    3    0    0 -0.55912525186E+02  0.23359077591E+02  0.11104397760E+02  0.61613023203E+02  0.10000000000E+01 0.  0.
<mgrwt>
<rscale>  0 0.12500034E+03</rscale>
<asrwt>0</asrwt>
<pdfrwt beam="2">  1        4 0.62441915E-02 0.12500034E+03</pdfrwt>
<pdfrwt beam="1">  1       -4 0.14806741E-01 0.12500034E+03</pdfrwt>
<totfact> 0.10199541E+04</totfact>
</mgrwt>
</event>
<event>
 5    1  0.3241863E-002  0.1250009E+03  0.7818608E-02  0.1235068E+00
         -4   -1    0    0    0  501 -0.00000000000E+00  0.00000000000E+00  0.55759132329E+02  0.55773593555E+02  0.12700000000E+01 0.  1.
          4   -1    0    0  501    0  0.00000000000E+00 -0.00000000000E+00 -0.70027524272E+02  0.70039039512E+02  0.12700000000E+01 0.  1.
         25    2    1    2    0    0  0.00000000000E+00  0.00000000000E+00 -0.14268391944E+02  0.12581263307E+03  0.12500092652E+03 0.  0.
    9000005    1    3    3    0    0  0.52497091087E+02  0.57782355338E+01  0.26488947704E+02  0.59093120826E+02  0.10000000000E+01 0.  0.
    9000005    1    3    3    0    0 -0.52497091087E+02 -0.57782355338E+01 -0.40757339648E+02  0.66719512241E+02  0.10000000000E+01 0.  0.
<mgrwt>
<rscale>  0 0.12500093E+03</rscale>
<asrwt>0</asrwt>
<pdfrwt beam="2">  1        4 0.10775463E-01 0.12500093E+03</pdfrwt>
<pdfrwt beam="1">  1       -4 0.85803262E-02 0.12500093E+03</pdfrwt>
<totfact> 0.10434850E+04</totfact>
</mgrwt>
</event>
<event>
 5    1  0.3241863E-002  0.1249995E+03  0.7818608E-02  0.1235070E+00
          4   -1    0    0  501    0  0.00000000000E+00  0.00000000000E+00  0.72367846955E+02  0.72378989858E+02  0.12700000000E+01 0.  1.
         -4   -1    0    0    0  501 -0.00000000000E+00 -0.00000000000E+00 -0.53954476629E+02  0.53969421419E+02  0.12700000000E+01 0.  1.
         25    2    1    2    0    0  0.00000000000E+00  0.00000000000E+00  0.18413370325E+02  0.12634841128E+03  0.12499947530E+03 0.  0.
    9000005    1    3    3    0    0 -0.10999207366E+02  0.59572257199E+02 -0.63010054281E+01  0.60914194240E+02  0.10000000000E+01 0.  0.
    9000005    1    3    3    0    0  0.10999207366E+02 -0.59572257199E+02  0.24714375753E+02  0.65434217038E+02  0.10000000000E+01 0.  0.
<mgrwt>
<rscale>  0 0.12499948E+03</rscale>
<asrwt>0</asrwt>
<pdfrwt beam="1">  1        4 0.11135522E-01 0.12499948E+03</pdfrwt>
<pdfrwt beam="2">  1       -4 0.83026955E-02 0.12499948E+03</pdfrwt>
<totfact> 0.10423459E+04</totfact>
</mgrwt>
</event>
<event>
 5    1  0.3241863E-002  0.1249990E+03  0.7818608E-02  0.1235071E+00
         -4   -1    0    0    0  501 -0.00000000000E+00  0.00000000000E+00  0.78657651901E+02  0.78667903891E+02  0.12700000000E+01 0. -1.
          4   -1    0    0  501    0  0.00000000000E+00 -0.00000000000E+00 -0.49638974408E+02  0.49655218057E+02  0.12700000000E+01 0. -1.
         25    2    1    2    0    0  0.00000000000E+00  0.00000000000E+00  0.29018677493E+02  0.12832312195E+03  0.12499895993E+03 0.  0.
    9000005    1    3    3    0    0 -0.40225620539E+01  0.44578572084E+02  0.59278173390E+02  0.74285475936E+02  0.10000000000E+01 0.  0.
    9000005    1    3    3    0    0  0.40225620539E+01 -0.44578572084E+02 -0.30259495898E+02  0.54037646012E+02  0.10000000000E+01 0.  0.
<mgrwt>
<rscale>  0 0.12499896E+03</rscale>
<asrwt>0</asrwt>
<pdfrwt beam="2">  1        4 0.76388035E-02 0.12499896E+03</pdfrwt>
<pdfrwt beam="1">  1       -4 0.12103215E-01 0.12499896E+03</pdfrwt>
<totfact> 0.10380759E+04</totfact>
</mgrwt>
</event>
<event>
 5    1  0.3241863E-002  0.1249977E+03  0.7818608E-02  0.1235073E+00
          4   -1    0    0  501    0  0.00000000000E+00  0.00000000000E+00  0.33377296300E+03  0.33377537916E+03  0.12700000000E+01 0. -1.
         -4   -1    0    0    0  501 -0.00000000000E+00 -0.00000000000E+00 -0.11665957791E+02  0.11734882666E+02  0.12700000000E+01 0. -1.
         25    2    1    2    0    0  0.00000000000E+00  0.00000000000E+00  0.32210700521E+03  0.34551026182E+03  0.12499767285E+03 0.  0.
    9000005    1    3    3    0    0 -0.54815958574E+02 -0.18665528271E+02  0.96116169181E+02  0.11221635014E+03  0.10000000000E+01 0.  0.
    9000005    1    3    3    0    0  0.54815958574E+02  0.18665528271E+02  0.22599083603E+03  0.23329391169E+03  0.10000000000E+01 0.  0.
<mgrwt>
<rscale>  0 0.12499767E+03</rscale>
<asrwt>0</asrwt>
<pdfrwt beam="1">  1        4 0.51355164E-01 0.12499767E+03</pdfrwt>
<pdfrwt beam="2">  1       -4 0.18002509E-02 0.12499767E+03</pdfrwt>
<totfact> 0.70224945E+03</totfact>
</mgrwt>
</event>
<event>
 5    1  0.3241863E-002  0.1250017E+03  0.7818608E-02  0.1235067E+00
          4   -1    0    0  501    0  0.00000000000E+00  0.00000000000E+00  0.11699601243E+03  0.11700290520E+03  0.12700000000E+01 0.  1.
         -4   -1    0    0    0  501 -0.00000000000E+00 -0.00000000000E+00 -0.33368845664E+02  0.33393004671E+02  0.12700000000E+01 0.  1.
         25    2    1    2    0    0  0.00000000000E+00  0.00000000000E+00  0.83627166770E+02  0.15039590987E+03  0.12500170672E+03 0.  0.
    9000005    1    3    3    0    0  0.64647873420E+00 -0.26703887775E+02 -0.26160086026E+02  0.37401412512E+02  0.10000000000E+01 0.  0.
    9000005    1    3    3    0    0 -0.64647873420E+00  0.26703887775E+02  0.10978725280E+03  0.11299449736E+03  0.10000000000E+01 0.  0.
<mgrwt>
<rscale>  0 0.12500171E+03</rscale>
<asrwt>0</asrwt>
<pdfrwt beam="1">  1        4 0.18001775E-01 0.12500171E+03</pdfrwt>
<pdfrwt beam="2">  1       -4 0.51360572E-02 0.12500171E+03</pdfrwt>
<totfact> 0.99221027E+03</totfact>
</mgrwt>
</event>
<event>
 5    1  0.3241863E-002  0.1250122E+03  0.7818608E-02  0.1235050E+00
         -4   -1    0    0    0  501 -0.00000000000E+00  0.00000000000E+00  0.74701626070E+02  0.74712420905E+02  0.12700000000E+01 0.  1.
          4   -1    0    0  501    0  0.00000000000E+00 -0.00000000000E+00 -0.52279250291E+02  0.52294673830E+02  0.12700000000E+01 0.  1.
         25    2    1    2    0    0  0.00000000000E+00  0.00000000000E+00  0.22422375779E+02  0.12700709473E+03  0.12501215612E+03 0.  0.
    9000005    1    3    3    0    0 -0.45627736760E+02  0.23347523643E+02  0.47545182114E+02  0.69918106127E+02  0.10000000000E+01 0.  0.
    9000005    1    3    3    0    0  0.45627736760E+02 -0.23347523643E+02 -0.25122806335E+02  0.57088988608E+02  0.10000000000E+01 0.  0.
<mgrwt>
<rscale>  0 0.12501216E+03</rscale>
<asrwt>0</asrwt>
<pdfrwt beam="2">  1        4 0.80449784E-02 0.12501216E+03</pdfrwt>
<pdfrwt beam="1">  1       -4 0.11494575E-01 0.12501216E+03</pdfrwt>
<totfact> 0.10406136E+04</totfact>
</mgrwt>
</event>
<event>
 5    1  0.3241863E-002  0.1249993E+03  0.7818608E-02  0.1235070E+00
         -4   -1    0    0    0  501 -0.00000000000E+00  0.00000000000E+00  0.30849316785E+03  0.30849578200E+03  0.12700000000E+01 0. -1.
          4   -1    0    0  501    0  0.00000000000E+00 -0.00000000000E+00 -0.12627690384E+02  0.12691393322E+02  0.12700000000E+01 0. -1.
         25    2    1    2    0    0  0.00000000000E+00  0.00000000000E+00  0.29586547747E+03  0.32118717532E+03  0.12499928333E+03 0.  0.
    9000005    1    3    3    0    0  0.72336646798E+01  0.22482798213E+02  0.29659635032E+03  0.29753688367E+03  0.10000000000E+01 0.  0.
    9000005    1    3    3    0    0 -0.72336646798E+01 -0.22482798213E+02 -0.73087285102E+00  0.23650291653E+02  0.10000000000E+01 0.  0.
<mgrwt>
<rscale>  0 0.12499928E+03</rscale>
<asrwt>0</asrwt>
<pdfrwt beam="2">  1        4 0.19478231E-02 0.12499928E+03</pdfrwt>
<pdfrwt beam="1">  1       -4 0.47465585E-01 0.12499928E+03</pdfrwt>
<totfact> 0.73016310E+03</totfact>
</mgrwt>
</event>
<event>
 5    1  0.3241863E-002  0.1250058E+03  0.7818608E-02  0.1235060E+00
          4   -1    0    0  501    0  0.00000000000E+00  0.00000000000E+00  0.15146186679E+03  0.15146719114E+03  0.12700000000E+01 0.  1.
         -4   -1    0    0    0  501 -0.00000000000E+00 -0.00000000000E+00 -0.25771281293E+02  0.25802554902E+02  0.12700000000E+01 0.  1.
         25    2    1    2    0    0  0.00000000000E+00  0.00000000000E+00  0.12569058549E+03  0.17726974604E+03  0.12500575818E+03 0.  0.
    9000005    1    3    3    0    0 -0.24402313151E+02 -0.42541296154E+02  0.11777465190E+03  0.12758175181E+03  0.10000000000E+01 0.  0.
    9000005    1    3    3    0    0  0.24402313151E+02  0.42541296154E+02  0.79159335964E+01  0.49687994227E+02  0.10000000000E+01 0.  0.
<mgrwt>
<rscale>  0 0.12500576E+03</rscale>
<asrwt>0</asrwt>
<pdfrwt beam="1">  1        4 0.23304641E-01 0.12500576E+03</pdfrwt>
<pdfrwt beam="2">  1       -4 0.39676277E-02 0.12500576E+03</pdfrwt>
<totfact> 0.94098626E+03</totfact>
</mgrwt>
</event>
<event>
 5    1  0.3241863E-002  0.1249922E+03  0.7818608E-02  0.1235081E+00
          4   -1    0    0  501    0  0.00000000000E+00  0.00000000000E+00  0.54085861579E+02  0.54100770076E+02  0.12700000000E+01 0. -1.
         -4   -1    0    0    0  501 -0.00000000000E+00 -0.00000000000E+00 -0.72183691711E+02  0.72194863037E+02  0.12700000000E+01 0. -1.
         25    2    1    2    0    0  0.00000000000E+00  0.00000000000E+00 -0.18097830131E+02  0.12629563311E+03  0.12499222171E+03 0.  0.
    9000005    1    3    3    0    0  0.20341607775E+02 -0.32073600381E+02 -0.59187597952E+02  0.70332557181E+02  0.10000000000E+01 0.  0.
    9000005    1    3    3    0    0 -0.20341607775E+02  0.32073600381E+02  0.41089767821E+02  0.55963075932E+02  0.10000000000E+01 0.  0.
<mgrwt>
<rscale>  0 0.12499222E+03</rscale>
<asrwt>0</asrwt>
<pdfrwt beam="1">  1        4 0.83229079E-02 0.12499222E+03</pdfrwt>
<pdfrwt beam="2">  1       -4 0.11107189E-01 0.12499222E+03</pdfrwt>
<totfact> 0.10426319E+04</totfact>
</mgrwt>
</event>
<event>
 5    1  0.3241863E-002  0.1250004E+03  0.7818608E-02  0.1235069E+00
          4   -1    0    0  501    0  0.00000000000E+00  0.00000000000E+00  0.82836164822E+03  0.82836262176E+03  0.12700000000E+01 0. -1.
         -4   -1    0    0    0  501 -0.00000000000E+00 -0.00000000000E+00 -0.46291650690E+01  0.48002155406E+01  0.12700000000E+01 0. -1.
         25    2    1    2    0    0  0.00000000000E+00  0.00000000000E+00  0.82373248315E+03  0.83316283730E+03  0.12500043869E+03 0.  0.
    9000005    1    3    3    0    0  0.14263618133E+02 -0.60614102682E+02  0.44698231610E+03  0.45130002343E+03  0.10000000000E+01 0.  0.
    9000005    1    3    3    0    0 -0.14263618133E+02  0.60614102682E+02  0.37675016705E+03  0.38186281387E+03  0.10000000000E+01 0.  0.
<mgrwt>
<rscale>  0 0.12500044E+03</rscale>
<asrwt>0</asrwt>
<pdfrwt beam="1">  1        4 0.12745338E+00 0.12500044E+03</pdfrwt>
<pdfrwt beam="2">  1       -4 0.72541244E-03 0.12500044E+03</pdfrwt>
<totfact> 0.36826067E+03</totfact>
</mgrwt>
</event>
<event>
 5    1  0.3241863E-002  0.1250009E+03  0.7818608E-02  0.1235068E+00
          4   -1    0    0  501    0  0.00000000000E+00  0.00000000000E+00  0.71874686169E+02  0.71885905516E+02  0.12700000000E+01 0. -1.
         -4   -1    0    0    0  501 -0.00000000000E+00 -0.00000000000E+00 -0.54325968018E+02  0.54340810641E+02  0.12700000000E+01 0. -1.
         25    2    1    2    0    0  0.00000000000E+00  0.00000000000E+00  0.17548718150E+02  0.12622671616E+03  0.12500090545E+03 0.  0.
    9000005    1    3    3    0    0 -0.58572277592E+02 -0.21785196212E+02  0.87851638595E+01  0.63114860218E+02  0.10000000000E+01 0.  0.
    9000005    1    3    3    0    0  0.58572277592E+02  0.21785196212E+02  0.87635542908E+01  0.63111855939E+02  0.10000000000E+01 0.  0.
<mgrwt>
<rscale>  0 0.12500091E+03</rscale>
<asrwt>0</asrwt>
<pdfrwt beam="1">  1        4 0.11059649E-01 0.12500091E+03</pdfrwt>
<pdfrwt beam="2">  1       -4 0.83598461E-02 0.12500091E+03</pdfrwt>
<totfact> 0.10425782E+04</totfact>
</mgrwt>
</event>
<event>
 5    1  0.3241863E-002  0.1250012E+03  0.7818608E-02  0.1235067E+00
         -4   -1    0    0    0  501 -0.00000000000E+00  0.00000000000E+00  0.15246187367E+03  0.15246716310E+03  0.12700000000E+01 0. -1.
          4   -1    0    0  501    0  0.00000000000E+00 -0.00000000000E+00 -0.25600196140E+02  0.25631678494E+02  0.12700000000E+01 0. -1.
         25    2    1    2    0    0  0.00000000000E+00  0.00000000000E+00  0.12686167753E+03  0.17809884159E+03  0.12500124860E+03 0.  0.
    9000005    1    3    3    0    0 -0.16297209942E+02 -0.59904234696E+02  0.73626869434E+02  0.96312160649E+02  0.10000000000E+01 0.  0.
    9000005    1    3    3    0    0  0.16297209942E+02  0.59904234696E+02  0.53234808095E+02  0.81786680940E+02  0.10000000000E+01 0.  0.
<mgrwt>
<rscale>  0 0.12500125E+03</rscale>
<asrwt>0</asrwt>
<pdfrwt beam="2">  1        4 0.39413204E-02 0.12500125E+03</pdfrwt>
<pdfrwt beam="1">  1       -4 0.23458501E-01 0.12500125E+03</pdfrwt>
<totfact> 0.93957710E+03</totfact>
</mgrwt>
</event>
<event>
 5    1  0.3241863E-002  0.1250043E+03  0.7818608E-02  0.1235063E+00
          4   -1    0    0  501    0  0.00000000000E+00  0.00000000000E+00  0.23489995768E+03  0.23490339081E+03  0.12700000000E+01 0. -1.
         -4   -1    0    0    0  501 -0.00000000000E+00 -0.00000000000E+00 -0.16602763211E+02  0.16651265605E+02  0.12700000000E+01 0. -1.
         25    2    1    2    0    0  0.00000000000E+00  0.00000000000E+00  0.21829719446E+03  0.25155465642E+03  0.12500432015E+03 0.  0.
    9000005    1    3    3    0    0  0.28221592763E+02  0.30925740143E+02  0.15781234830E+02  0.44753849825E+02  0.10000000000E+01 0.  0.
    9000005    1    3    3    0    0 -0.28221592763E+02 -0.30925740143E+02  0.20251595963E+03  0.20680080659E+03  0.10000000000E+01 0.  0.
<mgrwt>
<rscale>  0 0.12500432E+03</rscale>
<asrwt>0</asrwt>
<pdfrwt beam="1">  1        4 0.36142450E-01 0.12500432E+03</pdfrwt>
<pdfrwt beam="2">  1       -4 0.25582663E-02 0.12500432E+03</pdfrwt>
<totfact> 0.82098149E+03</totfact>
</mgrwt>
</event>
<event>
 5    1  0.3241863E-002  0.1249687E+03  0.7818608E-02  0.1235118E+00
          4   -1    0    0  501    0  0.00000000000E+00  0.00000000000E+00  0.54604739544E+01  0.56062176026E+01  0.12700000000E+01 0.  1.
         -4   -1    0    0    0  501 -0.00000000000E+00 -0.00000000000E+00 -0.70544720175E+03  0.70544834493E+03  0.12700000000E+01 0.  1.
         25    2    1    2    0    0  0.00000000000E+00  0.00000000000E+00 -0.69998672780E+03  0.71105456253E+03  0.12496868328E+03 0.  0.
    9000005    1    3    3    0    0  0.10450291517E+02 -0.49166464232E+02 -0.13887393810E+03  0.14769400963E+03  0.10000000000E+01 0.  0.
    9000005    1    3    3    0    0 -0.10450291517E+02  0.49166464232E+02 -0.56111278970E+03  0.56336055290E+03  0.10000000000E+01 0.  0.
<mgrwt>
<rscale>  0 0.12496868E+03</rscale>
<asrwt>0</asrwt>
<pdfrwt beam="1">  1        4 0.85137246E-03 0.12496868E+03</pdfrwt>
<pdfrwt beam="2">  1       -4 0.10854157E+00 0.12496868E+03</pdfrwt>
<totfact> 0.42538690E+03</totfact>
</mgrwt>
</event>
<event>
 5    1  0.3241863E-002  0.1250062E+03  0.7818608E-02  0.1235060E+00
         -4   -1    0    0    0  501 -0.00000000000E+00  0.00000000000E+00  0.36479813482E+01  0.38627280407E+01  0.12700000000E+01 0. -1.
          4   -1    0    0  501    0  0.00000000000E+00 -0.00000000000E+00 -0.10400687463E+04  0.10400695217E+04  0.12700000000E+01 0. -1.
         25    2    1    2    0    0  0.00000000000E+00  0.00000000000E+00 -0.10364207650E+04  0.10439322497E+04  0.12500615979E+03 0.  0.
    9000005    1    3    3    0    0  0.12315612762E+01 -0.23477520462E+02 -0.34647704834E+02  0.41882862372E+02  0.10000000000E+01 0.  0.
    9000005    1    3    3    0    0 -0.12315612762E+01  0.23477520462E+02 -0.10017730601E+04  0.10020493874E+04  0.10000000000E+01 0.  0.
<mgrwt>
<rscale>  0 0.12500616E+03</rscale>
<asrwt>0</asrwt>
<pdfrwt beam="2">  1        4 0.16002693E+00 0.12500616E+03</pdfrwt>
<pdfrwt beam="1">  1       -4 0.57780735E-03 0.12500616E+03</pdfrwt>
<totfact> 0.29181110E+03</totfact>
</mgrwt>
</event>
<event>
 5    1  0.3241863E-002  0.1249998E+03  0.7818608E-02  0.1235070E+00
          4   -1    0    0  501    0  0.00000000000E+00  0.00000000000E+00  0.65494165378E+02  0.65506477532E+02  0.12700000000E+01 0.  1.
         -4   -1    0    0    0  501 -0.00000000000E+00 -0.00000000000E+00 -0.59617877766E+02  0.59631403215E+02  0.12700000000E+01 0.  1.
         25    2    1    2    0    0  0.00000000000E+00  0.00000000000E+00  0.58762876121E+01  0.12513788075E+03  0.12499983377E+03 0.  0.
    9000005    1    3    3    0    0  0.24766866988E+02 -0.27012524402E+02  0.53611882124E+02  0.64948503292E+02  0.10000000000E+01 0.  0.
    9000005    1    3    3    0    0 -0.24766866988E+02  0.27012524402E+02 -0.47735594512E+02  0.60189377455E+02  0.10000000000E+01 0.  0.
<mgrwt>
<rscale>  0 0.12499983E+03</rscale>
<asrwt>0</asrwt>
<pdfrwt beam="1">  1        4 0.10078013E-01 0.12499983E+03</pdfrwt>
<pdfrwt beam="2">  1       -4 0.91739687E-02 0.12499983E+03</pdfrwt>
<totfact> 0.10449908E+04</totfact>
</mgrwt>
</event>
<event>
 5    1  0.3241863E-002  0.1249974E+03  0.7818608E-02  0.1235073E+00
          4   -1    0    0  501    0  0.00000000000E+00  0.00000000000E+00  0.11642222960E+02  0.11711287523E+02  0.12700000000E+01 0. -1.
         -4   -1    0    0    0  501 -0.00000000000E+00 -0.00000000000E+00 -0.33444774740E+03  0.33445015868E+03  0.12700000000E+01 0. -1.
         25    2    1    2    0    0  0.00000000000E+00  0.00000000000E+00 -0.32280552444E+03  0.34616144620E+03  0.12499736088E+03 0.  0.
    9000005    1    3    3    0    0 -0.20026411596E+01 -0.24271543559E+02 -0.32077799459E+03  0.32170272024E+03  0.10000000000E+01 0.  0.
    9000005    1    3    3    0    0  0.20026411596E+01  0.24271543559E+02 -0.20275298522E+01  0.24458725962E+02  0.10000000000E+01 0.  0.
<mgrwt>
<rscale>  0 0.12499736E+03</rscale>
<asrwt>0</asrwt>
<pdfrwt beam="1">  1        4 0.17966096E-02 0.12499736E+03</pdfrwt>
<pdfrwt beam="2">  1       -4 0.51458990E-01 0.12499736E+03</pdfrwt>
<totfact> 0.70153019E+03</totfact>
</mgrwt>
</event>
<event>
 5    1  0.3241863E-002  0.1250010E+03  0.7818608E-02  0.1235068E+00
         -4   -1    0    0    0  501 -0.00000000000E+00  0.00000000000E+00  0.80681457129E+03  0.80681557084E+03  0.12700000000E+01 0. -1.
          4   -1    0    0  501    0  0.00000000000E+00 -0.00000000000E+00 -0.47573450244E+01  0.49239447276E+01  0.12700000000E+01 0. -1.
         25    2    1    2    0    0  0.00000000000E+00  0.00000000000E+00  0.80205722627E+03  0.81173951557E+03  0.12500098770E+03 0.  0.
    9000005    1    3    3    0    0 -0.27834028639E+01  0.23923432632E+02  0.26560937797E+02  0.35868668459E+02  0.10000000000E+01 0.  0.
    9000005    1    3    3    0    0  0.27834028639E+01 -0.23923432632E+02  0.77549628847E+03  0.77587084711E+03  0.10000000000E+01 0.  0.
<mgrwt>
<rscale>  0 0.12500099E+03</rscale>
<asrwt>0</asrwt>
<pdfrwt beam="2">  1        4 0.74479079E-03 0.12500099E+03</pdfrwt>
<pdfrwt beam="1">  1       -4 0.12413833E+00 0.12500099E+03</pdfrwt>
<totfact> 0.37745140E+03</totfact>
</mgrwt>
</event>
<event>
 5    1  0.3241863E-002  0.1249993E+03  0.7818608E-02  0.1235070E+00
          4   -1    0    0  501    0  0.00000000000E+00  0.00000000000E+00  0.23170040216E+03  0.23170388270E+03  0.12700000000E+01 0.  1.
         -4   -1    0    0    0  501 -0.00000000000E+00 -0.00000000000E+00 -0.16831344786E+02  0.16879190363E+02  0.12700000000E+01 0.  1.
         25    2    1    2    0    0  0.00000000000E+00  0.00000000000E+00  0.21486905737E+03  0.24858307307E+03  0.12499932960E+03 0.  0.
    9000005    1    3    3    0    0 -0.34499129999E+01 -0.22285372965E+02 -0.84673408174E+01  0.24108828433E+02  0.10000000000E+01 0.  0.
    9000005    1    3    3    0    0  0.34499129999E+01  0.22285372965E+02  0.22333639819E+03  0.22447424463E+03  0.10000000000E+01 0.  0.
<mgrwt>
<rscale>  0 0.12499933E+03</rscale>
<asrwt>0</asrwt>
<pdfrwt beam="1">  1        4 0.35650161E-01 0.12499933E+03</pdfrwt>
<pdfrwt beam="2">  1       -4 0.25933860E-02 0.12499933E+03</pdfrwt>
<totfact> 0.82536684E+03</totfact>
</mgrwt>
</event>
<event>
 5    1  0.3241863E-002  0.1250011E+03  0.7818608E-02  0.1235068E+00
          4   -1    0    0  501    0  0.00000000000E+00  0.00000000000E+00  0.83773563828E+02  0.83783189820E+02  0.12700000000E+01 0.  1.
         -4   -1    0    0    0  501 -0.00000000000E+00 -0.00000000000E+00 -0.46608533997E+02  0.46625833411E+02  0.12700000000E+01 0.  1.
         25    2    1    2    0    0  0.00000000000E+00  0.00000000000E+00  0.37165029831E+02  0.13040902323E+03  0.12500109559E+03 0.  0.
    9000005    1    3    3    0    0  0.36051110846E+02  0.22534991797E+02  0.66365898681E+02  0.78822211059E+02  0.10000000000E+01 0.  0.
    9000005    1    3    3    0    0 -0.36051110846E+02 -0.22534991797E+02 -0.29200868850E+02  0.51586812172E+02  0.10000000000E+01 0.  0.
<mgrwt>
<rscale>  0 0.12500110E+03</rscale>
<asrwt>0</asrwt>
<pdfrwt beam="1">  1        4 0.12890312E-01 0.12500110E+03</pdfrwt>
<pdfrwt beam="2">  1       -4 0.71726150E-02 0.12500110E+03</pdfrwt>
<totfact> 0.10335510E+04</totfact>
</mgrwt>
</event>
<event>
 5    1  0.3241863E-002  0.1249994E+03  0.7818608E-02  0.1235070E+00
          4   -1    0    0  501    0  0.00000000000E+00  0.00000000000E+00  0.10271346637E+03  0.10272131752E+03  0.12700000000E+01 0. -1.
         -4   -1    0    0    0  501 -0.00000000000E+00 -0.00000000000E+00 -0.38010279323E+02  0.38031490034E+02  0.12700000000E+01 0. -1.
         25    2    1    2    0    0  0.00000000000E+00  0.00000000000E+00  0.64703187047E+02  0.14075280756E+03  0.12499940168E+03 0.  0.
    9000005    1    3    3    0    0 -0.48260765779E+00  0.24333335187E+02  0.97162967803E+02  0.10016978798E+03  0.10000000000E+01 0.  0.
    9000005    1    3    3    0    0  0.48260765779E+00 -0.24333335187E+02 -0.32459780756E+02  0.40583019579E+02  0.10000000000E+01 0.  0.
<mgrwt>
<rscale>  0 0.12499940E+03</rscale>
<asrwt>0</asrwt>
<pdfrwt beam="1">  1        4 0.15804307E-01 0.12499940E+03</pdfrwt>
<pdfrwt beam="2">  1       -4 0.58499709E-02 0.12499940E+03</pdfrwt>
<totfact> 0.10118144E+04</totfact>
</mgrwt>
</event>
<event>
 5    1  0.3241863E-002  0.1249972E+03  0.7818608E-02  0.1235074E+00
         -4   -1    0    0    0  501 -0.00000000000E+00  0.00000000000E+00  0.10919115438E+02  0.10992724046E+02  0.12700000000E+01 0.  1.
          4   -1    0    0  501    0  0.00000000000E+00 -0.00000000000E+00 -0.35645142595E+03  0.35645368838E+03  0.12700000000E+01 0.  1.
         25    2    1    2    0    0  0.00000000000E+00  0.00000000000E+00 -0.34553231051E+03  0.36744641243E+03  0.12499715356E+03 0.  0.
    9000005    1    3    3    0    0 -0.22666540722E+02  0.42795285685E+02 -0.56664825560E+02  0.74546032764E+02  0.10000000000E+01 0.  0.
    9000005    1    3    3    0    0  0.22666540722E+02 -0.42795285685E+02 -0.28886748495E+03  0.29290037966E+03  0.10000000000E+01 0.  0.
<mgrwt>
<rscale>  0 0.12499715E+03</rscale>
<asrwt>0</asrwt>
<pdfrwt beam="2">  1        4 0.54844508E-01 0.12499715E+03</pdfrwt>
<pdfrwt beam="1">  1       -4 0.16857004E-02 0.12499715E+03</pdfrwt>
<totfact> 0.67851213E+03</totfact>
</mgrwt>
</event>
<event>
 5    1  0.3241863E-002  0.1249992E+03  0.7818608E-02  0.1235071E+00
          4   -1    0    0  501    0  0.00000000000E+00  0.00000000000E+00  0.14332509886E+03  0.14333072547E+03  0.12700000000E+01 0. -1.
         -4   -1    0    0    0  501 -0.00000000000E+00 -0.00000000000E+00 -0.27233171006E+02  0.27262767707E+02  0.12700000000E+01 0. -1.
         25    2    1    2    0    0  0.00000000000E+00  0.00000000000E+00  0.11609192785E+03  0.17059349317E+03  0.12499921680E+03 0.  0.
    9000005    1    3    3    0    0  0.50826470229E+02 -0.14244760432E+02  0.12393731540E+02  0.54229584704E+02  0.10000000000E+01 0.  0.
    9000005    1    3    3    0    0 -0.50826470229E+02  0.14244760432E+02  0.10369819631E+03  0.11636390847E+03  0.10000000000E+01 0.  0.
<mgrwt>
<rscale>  0 0.12499922E+03</rscale>
<asrwt>0</asrwt>
<pdfrwt beam="1">  1        4 0.22052724E-01 0.12499922E+03</pdfrwt>
<pdfrwt beam="2">  1       -4 0.41924282E-02 0.12499922E+03</pdfrwt>
<totfact> 0.95339809E+03</totfact>
</mgrwt>
</event>
<event>
 5    1  0.3241863E-002  0.1250013E+03  0.7818608E-02  0.1235067E+00
          4   -1    0    0  501    0  0.00000000000E+00  0.00000000000E+00  0.61158090327E+03  0.61158222190E+03  0.12700000000E+01 0. -1.
         -4   -1    0    0    0  501 -0.00000000000E+00 -0.00000000000E+00 -0.63228000711E+01  0.64490852638E+01  0.12700000000E+01 0. -1.
         25    2    1    2    0    0  0.00000000000E+00  0.00000000000E+00  0.60525810320E+03  0.61803130716E+03  0.12500130058E+03 0.  0.
    9000005    1    3    3    0    0 -0.53841331112E+02  0.28331636173E+02  0.37320491519E+03  0.37813288573E+03  0.10000000000E+01 0.  0.
    9000005    1    3    3    0    0  0.53841331112E+02 -0.28331636173E+02  0.23205318800E+03  0.23989842143E+03  0.10000000000E+01 0.  0.
<mgrwt>
<rscale>  0 0.12500130E+03</rscale>
<asrwt>0</asrwt>
<pdfrwt beam="1">  1        4 0.94099221E-01 0.12500130E+03</pdfrwt>
<pdfrwt beam="2">  1       -4 0.98255378E-03 0.12500130E+03</pdfrwt>
<totfact> 0.47747475E+03</totfact>
</mgrwt>
</event>
<event>
 5    1  0.3241863E-002  0.1249989E+03  0.7818608E-02  0.1235071E+00
          4   -1    0    0  501    0  0.00000000000E+00  0.00000000000E+00  0.15221310637E+02  0.15274200388E+02  0.12700000000E+01 0.  1.
         -4   -1    0    0    0  501 -0.00000000000E+00 -0.00000000000E+00 -0.25612642174E+03  0.25612957036E+03  0.12700000000E+01 0.  1.
         25    2    1    2    0    0  0.00000000000E+00  0.00000000000E+00 -0.24090511110E+03  0.27140377075E+03  0.12499893688E+03 0.  0.
    9000005    1    3    3    0    0  0.12485846976E+02  0.29255237836E+02 -0.23724511216E+03  0.23937002436E+03  0.10000000000E+01 0.  0.
    9000005    1    3    3    0    0 -0.12485846976E+02 -0.29255237836E+02 -0.36599989379E+01  0.32033746390E+02  0.10000000000E+01 0.  0.
<mgrwt>
<rscale>  0 0.12499894E+03</rscale>
<asrwt>0</asrwt>
<pdfrwt beam="1">  1        4 0.23460509E-02 0.12499894E+03</pdfrwt>
<pdfrwt beam="2">  1       -4 0.39408372E-01 0.12499894E+03</pdfrwt>
<totfact> 0.79333746E+03</totfact>
</mgrwt>
</event>
<event>
 5    1  0.3241863E-002  0.1250150E+03  0.7818608E-02  0.1235046E+00
         -4   -1    0    0    0  501 -0.00000000000E+00  0.00000000000E+00  0.32422339133E+02  0.32447202882E+02  0.12700000000E+01 0.  1.
          4   -1    0    0  501    0  0.00000000000E+00 -0.00000000000E+00 -0.12043463943E+03  0.12044133541E+03  0.12700000000E+01 0.  1.
         25    2    1    2    0    0  0.00000000000E+00  0.00000000000E+00 -0.88012300299E+02  0.15288853829E+03  0.12501495965E+03 0.  0.
    9000005    1    3    3    0    0  0.16817996995E+02  0.11401040969E+02 -0.11628885299E+03  0.11805475885E+03  0.10000000000E+01 0.  0.
    9000005    1    3    3    0    0 -0.16817996995E+02 -0.11401040969E+02  0.28276552689E+02  0.34833779440E+02  0.10000000000E+01 0.  0.
<mgrwt>
<rscale>  0 0.12501496E+03</rscale>
<asrwt>0</asrwt>
<pdfrwt beam="2">  1        4 0.18530834E-01 0.12501496E+03</pdfrwt>
<pdfrwt beam="1">  1       -4 0.49904799E-02 0.12501496E+03</pdfrwt>
<totfact> 0.98697774E+03</totfact>
</mgrwt>
</event>
<event>
 5    1  0.3241863E-002  0.1250008E+03  0.7818608E-02  0.1235068E+00
          4   -1    0    0  501    0  0.00000000000E+00  0.00000000000E+00  0.26114097151E+01  0.29038527339E+01  0.12700000000E+01 0.  1.
         -4   -1    0    0    0  501 -0.00000000000E+00 -0.00000000000E+00 -0.14162487495E+04  0.14162493189E+04  0.12700000000E+01 0.  1.
         25    2    1    2    0    0  0.00000000000E+00  0.00000000000E+00 -0.14136373397E+04  0.14191531716E+04  0.12500078480E+03 0.  0.
    9000005    1    3    3    0    0  0.78709287540E+01 -0.42840472313E+02 -0.19807048768E+03  0.20280575849E+03  0.10000000000E+01 0.  0.
    9000005    1    3    3    0    0 -0.78709287540E+01  0.42840472313E+02 -0.12155668521E+04  0.12163474131E+04  0.10000000000E+01 0.  0.
<mgrwt>
<rscale>  0 0.12500078E+03</rscale>
<asrwt>0</asrwt>
<pdfrwt beam="1">  1        4 0.42429589E-03 0.12500078E+03</pdfrwt>
<pdfrwt beam="2">  1       -4 0.21790638E+00 0.12500078E+03</pdfrwt>
<totfact> 0.19573347E+03</totfact>
</mgrwt>
</event>
<event>
 5    1  0.3241863E-002  0.1250010E+03  0.7818608E-02  0.1235068E+00
          4   -1    0    0  501    0  0.00000000000E+00  0.00000000000E+00  0.79860752062E+02  0.79870849626E+02  0.12700000000E+01 0.  1.
         -4   -1    0    0    0  501 -0.00000000000E+00 -0.00000000000E+00 -0.48892579693E+02  0.48909071235E+02  0.12700000000E+01 0.  1.
         25    2    1    2    0    0  0.00000000000E+00  0.00000000000E+00  0.30968172369E+02  0.12877992086E+03  0.12500096126E+03 0.  0.
    9000005    1    3    3    0    0 -0.73807969132E+01  0.56559533582E+01  0.79149089513E+02  0.79699713564E+02  0.10000000000E+01 0.  0.
    9000005    1    3    3    0    0  0.73807969132E+01 -0.56559533582E+01 -0.48180917144E+02  0.49080207297E+02  0.10000000000E+01 0.  0.
<mgrwt>
<rscale>  0 0.12500096E+03</rscale>
<asrwt>0</asrwt>
<pdfrwt beam="1">  1        4 0.12288315E-01 0.12500096E+03</pdfrwt>
<pdfrwt beam="2">  1       -4 0.75239808E-02 0.12500096E+03</pdfrwt>
<totfact> 0.10370453E+04</totfact>
</mgrwt>
</event>
<event>
 4    1  0.3241863E-002  0.1252110E+03  0.7818608E-02  0.1234740E+00
         -4   -1    0    0    0  501 -0.00000000000E+00  0.00000000000E+00  0.12439493961E+04  0.12439500444E+04  0.12700000000E+01 0.  1.
          4   -1    0    0  501    0  0.00000000000E+00 -0.00000000000E+00 -0.30221589303E+01  0.32781617715E+01  0.12700000000E+01 0.  1.
    9000005    1    1    2    0    0 -0.60476096579E+02  0.48671879862E+01  0.46698648673E+03  0.47091233426E+03  0.10000000000E+01 0.  0.
    9000005    1    1    2    0    0  0.60476096579E+02 -0.48671879862E+01  0.77394075044E+03  0.77631587190E+03  0.10000000000E+01 0.  0.
<mgrwt>
<rscale>  0 0.12521098E+03</rscale>
<asrwt>0</asrwt>
<pdfrwt beam="2">  1        4 0.48468980E-03 0.12521098E+03</pdfrwt>
<pdfrwt beam="1">  1       -4 0.19139662E+00 0.12521098E+03</pdfrwt>
<totfact> 0.23401011E+03</totfact>
</mgrwt>
</event>
<event>
 5    1  0.3241863E-002  0.1249949E+03  0.7818608E-02  0.1235077E+00
         -4   -1    0    0    0  501 -0.00000000000E+00  0.00000000000E+00  0.15907015862E+02  0.15957633084E+02  0.12700000000E+01 0. -1.
          4   -1    0    0  501    0  0.00000000000E+00 -0.00000000000E+00 -0.24510536136E+03  0.24510865156E+03  0.12700000000E+01 0. -1.
         25    2    1    2    0    0  0.00000000000E+00  0.00000000000E+00 -0.22919834550E+03  0.26106628464E+03  0.12499489348E+03 0.  0.
    9000005    1    3    3    0    0  0.56822850083E+02  0.25474252180E+02 -0.10371489336E+03  0.12097748931E+03  0.10000000000E+01 0.  0.
    9000005    1    3    3    0    0 -0.56822850083E+02 -0.25474252180E+02 -0.12548345214E+03  0.14008879533E+03  0.10000000000E+01 0.  0.
<mgrwt>
<rscale>  0 0.12499489E+03</rscale>
<asrwt>0</asrwt>
<pdfrwt beam="2">  1        4 0.37712661E-01 0.12499489E+03</pdfrwt>
<pdfrwt beam="1">  1       -4 0.24513801E-02 0.12499489E+03</pdfrwt>
<totfact> 0.80765836E+03</totfact>
</mgrwt>
</event>
<event>
 5    1  0.3241863E-002  0.1249948E+03  0.7818608E-02  0.1235077E+00
         -4   -1    0    0    0  501 -0.00000000000E+00  0.00000000000E+00  0.38229864281E+02  0.38250953230E+02  0.12700000000E+01 0. -1.
          4   -1    0    0  501    0  0.00000000000E+00 -0.00000000000E+00 -0.10211632665E+03  0.10212422371E+03  0.12700000000E+01 0. -1.
         25    2    1    2    0    0  0.00000000000E+00  0.00000000000E+00 -0.63886462369E+02  0.14037517694E+03  0.12499484080E+03 0.  0.
    9000005    1    3    3    0    0  0.44472085813E+02  0.29388515508E+02  0.46804619278E+01  0.53519697161E+02  0.10000000000E+01 0.  0.
    9000005    1    3    3    0    0 -0.44472085813E+02 -0.29388515508E+02 -0.68566924297E+02  0.86855479780E+02  0.10000000000E+01 0.  0.
<mgrwt>
<rscale>  0 0.12499484E+03</rscale>
<asrwt>0</asrwt>
<pdfrwt beam="2">  1        4 0.15712434E-01 0.12499484E+03</pdfrwt>
<pdfrwt beam="1">  1       -4 0.58837473E-02 0.12499484E+03</pdfrwt>
<totfact> 0.10126993E+04</totfact>
</mgrwt>
</event>
<event>
 5    1  0.3241863E-002  0.1250057E+03  0.7818608E-02  0.1235060E+00
          4   -1    0    0  501    0  0.00000000000E+00  0.00000000000E+00  0.38380325763E+02  0.38401332082E+02  0.12700000000E+01 0. -1.
         -4   -1    0    0    0  501 -0.00000000000E+00 -0.00000000000E+00 -0.10173380596E+03  0.10174173271E+03  0.12700000000E+01 0. -1.
         25    2    1    2    0    0  0.00000000000E+00  0.00000000000E+00 -0.63353480198E+02  0.14014306479E+03  0.12500566050E+03 0.  0.
    9000005    1    3    3    0    0 -0.54814872789E+01  0.61997985805E+02 -0.25354045409E+02  0.67213276704E+02  0.10000000000E+01 0.  0.
    9000005    1    3    3    0    0  0.54814872789E+01 -0.61997985805E+02 -0.37999434789E+02  0.72929788091E+02  0.10000000000E+01 0.  0.
<mgrwt>
<rscale>  0 0.12500566E+03</rscale>
<asrwt>0</asrwt>
<pdfrwt beam="1">  1        4 0.59068912E-02 0.12500566E+03</pdfrwt>
<pdfrwt beam="2">  1       -4 0.15653580E-01 0.12500566E+03</pdfrwt>
<totfact> 0.10129330E+04</totfact>
</mgrwt>
</event>
<event>
 5    1  0.3241863E-002  0.1250009E+03  0.7818608E-02  0.1235068E+00
         -4   -1    0    0    0  501 -0.00000000000E+00  0.00000000000E+00  0.40890118838E+02  0.40909836453E+02  0.12700000000E+01 0. -1.
          4   -1    0    0  501    0  0.00000000000E+00 -0.00000000000E+00 -0.95484757265E+02  0.95493202742E+02  0.12700000000E+01 0. -1.
         25    2    1    2    0    0  0.00000000000E+00  0.00000000000E+00 -0.54594638427E+02  0.13640303920E+03  0.12500085822E+03 0.  0.
    9000005    1    3    3    0    0 -0.41906998965E+02 -0.10423166952E+02 -0.76589222950E+02  0.87930359056E+02  0.10000000000E+01 0.  0.
    9000005    1    3    3    0    0  0.41906998965E+02  0.10423166952E+02  0.21994584523E+02  0.48472680139E+02  0.10000000000E+01 0.  0.
<mgrwt>
<rscale>  0 0.12500086E+03</rscale>
<asrwt>0</asrwt>
<pdfrwt beam="2">  1        4 0.14692129E-01 0.12500086E+03</pdfrwt>
<pdfrwt beam="1">  1       -4 0.62929539E-02 0.12500086E+03</pdfrwt>
<totfact> 0.10208385E+04</totfact>
</mgrwt>
</event>
<event>
 5    1  0.3241863E-002  0.1249981E+03  0.7818608E-02  0.1235072E+00
          4   -1    0    0  501    0  0.00000000000E+00  0.00000000000E+00  0.16866771869E+03  0.16867249992E+03  0.12700000000E+01 0.  1.
         -4   -1    0    0    0  501 -0.00000000000E+00 -0.00000000000E+00 -0.23136195379E+02  0.23171025800E+02  0.12700000000E+01 0.  1.
         25    2    1    2    0    0  0.00000000000E+00  0.00000000000E+00  0.14553152332E+03  0.19184352572E+03  0.12499805631E+03 0.  0.
    9000005    1    3    3    0    0 -0.44383772355E+02 -0.38283358687E+02  0.39507080208E+02  0.70691896193E+02  0.10000000000E+01 0.  0.
    9000005    1    3    3    0    0  0.44383772355E+02  0.38283358687E+02  0.10602444311E+03  0.12115162953E+03  0.10000000000E+01 0.  0.
<mgrwt>
<rscale>  0 0.12499806E+03</rscale>
<asrwt>0</asrwt>
<pdfrwt beam="1">  1        4 0.25951927E-01 0.12499806E+03</pdfrwt>
<pdfrwt beam="2">  1       -4 0.35624617E-02 0.12499806E+03</pdfrwt>
<totfact> 0.91531517E+03</totfact>
</mgrwt>
</event>
<event>
 5    1  0.3241863E-002  0.1250012E+03  0.7818608E-02  0.1235067E+00
         -4   -1    0    0    0  501 -0.00000000000E+00  0.00000000000E+00  0.14688552328E+02  0.14743353401E+02  0.12700000000E+01 0. -1.
          4   -1    0    0  501    0  0.00000000000E+00 -0.00000000000E+00 -0.26539209985E+03  0.26539513854E+03  0.12700000000E+01 0. -1.
         25    2    1    2    0    0  0.00000000000E+00  0.00000000000E+00 -0.25070354752E+03  0.28013849194E+03  0.12500122371E+03 0.  0.
    9000005    1    3    3    0    0  0.12488779845E+02 -0.21801369916E+01  0.11787379069E+02  0.17339692173E+02  0.10000000000E+01 0.  0.
    9000005    1    3    3    0    0 -0.12488779845E+02  0.21801369916E+01 -0.26249092659E+03  0.26279879977E+03  0.10000000000E+01 0.  0.
<mgrwt>
<rscale>  0 0.12500122E+03</rscale>
<asrwt>0</asrwt>
<pdfrwt beam="2">  1        4 0.40833999E-01 0.12500122E+03</pdfrwt>
<pdfrwt beam="1">  1       -4 0.22642267E-02 0.12500122E+03</pdfrwt>
<totfact> 0.78157622E+03</totfact>
</mgrwt>
</event>
<event>
 5    1  0.3241863E-002  0.1250046E+03  0.7818608E-02  0.1235062E+00
          4   -1    0    0  501    0  0.00000000000E+00  0.00000000000E+00  0.33222604347E+02  0.33246869621E+02  0.12700000000E+01 0. -1.
         -4   -1    0    0    0  501 -0.00000000000E+00 -0.00000000000E+00 -0.11751617486E+03  0.11752303712E+03  0.12700000000E+01 0. -1.
         25    2    1    2    0    0  0.00000000000E+00  0.00000000000E+00 -0.84293570516E+02  0.15076990674E+03  0.12500463491E+03 0.  0.
    9000005    1    3    3    0    0  0.33975601054E+02 -0.52345678845E+02 -0.38123326283E+02  0.73135487744E+02  0.10000000000E+01 0.  0.
    9000005    1    3    3    0    0 -0.33975601054E+02  0.52345678845E+02 -0.46170244233E+02  0.77634418999E+02  0.10000000000E+01 0.  0.
<mgrwt>
<rscale>  0 0.12500463E+03</rscale>
<asrwt>0</asrwt>
<pdfrwt beam="1">  1        4 0.51135644E-02 0.12500463E+03</pdfrwt>
<pdfrwt beam="2">  1       -4 0.18081806E-01 0.12500463E+03</pdfrwt>
<totfact> 0.99140109E+03</totfact>
</mgrwt>
</event>
<event>
 5    1  0.3241863E-002  0.1250096E+03  0.7818608E-02  0.1235054E+00
         -4   -1    0    0    0  501 -0.00000000000E+00  0.00000000000E+00  0.19271612832E+03  0.19272031293E+03  0.12700000000E+01 0. -1.
          4   -1    0    0  501    0  0.00000000000E+00 -0.00000000000E+00 -0.20248267050E+02  0.20288056056E+02  0.12700000000E+01 0. -1.
         25    2    1    2    0    0  0.00000000000E+00  0.00000000000E+00  0.17246786127E+03  0.21300836898E+03  0.12500960797E+03 0.  0.
    9000005    1    3    3    0    0 -0.62058711050E+02  0.73278767429E+01  0.84645402733E+02  0.10521799085E+03  0.10000000000E+01 0.  0.
    9000005    1    3    3    0    0  0.62058711050E+02 -0.73278767429E+01  0.87822458537E+02  0.10779037813E+03  0.10000000000E+01 0.  0.
<mgrwt>
<rscale>  0 0.12500961E+03</rscale>
<asrwt>0</asrwt>
<pdfrwt beam="2">  1        4 0.31185008E-02 0.12500961E+03</pdfrwt>
<pdfrwt beam="1">  1       -4 0.29652016E-01 0.12500961E+03</pdfrwt>
<totfact> 0.87968029E+03</totfact>
</mgrwt>
</event>
<event>
 5    1  0.3241863E-002  0.1249984E+03  0.7818608E-02  0.1235072E+00
          4   -1    0    0  501    0  0.00000000000E+00  0.00000000000E+00  0.32342284574E+03  0.32342533921E+03  0.12700000000E+01 0.  1.
         -4   -1    0    0    0  501 -0.00000000000E+00 -0.00000000000E+00 -0.12041606471E+02  0.12108393221E+02  0.12700000000E+01 0.  1.
         25    2    1    2    0    0  0.00000000000E+00  0.00000000000E+00  0.31138123927E+03  0.33553373243E+03  0.12499843773E+03 0.  0.
    9000005    1    3    3    0    0 -0.58945191418E+01 -0.49464058729E+02  0.54406125139E+02  0.73773063611E+02  0.10000000000E+01 0.  0.
    9000005    1    3    3    0    0  0.58945191418E+01  0.49464058729E+02  0.25697511413E+03  0.26176066882E+03  0.10000000000E+01 0.  0.
<mgrwt>
<rscale>  0 0.12499844E+03</rscale>
<asrwt>0</asrwt>
<pdfrwt beam="1">  1        4 0.49762697E-01 0.12499844E+03</pdfrwt>
<pdfrwt beam="2">  1       -4 0.18578838E-02 0.12499844E+03</pdfrwt>
<totfact> 0.71348364E+03</totfact>
</mgrwt>
</event>
<event>
 5    1  0.3241863E-002  0.1250091E+03  0.7818608E-02  0.1235055E+00
         -4   -1    0    0    0  501 -0.00000000000E+00  0.00000000000E+00  0.29374877188E+03  0.29375151724E+03  0.12700000000E+01 0. -1.
          4   -1    0    0  501    0  0.00000000000E+00 -0.00000000000E+00 -0.13266723802E+02  0.13327372601E+02  0.12700000000E+01 0. -1.
         25    2    1    2    0    0  0.00000000000E+00  0.00000000000E+00  0.28048204808E+03  0.30707888984E+03  0.12500906084E+03 0.  0.
    9000005    1    3    3    0    0 -0.12813398364E+02  0.11886993066E+02 -0.71529665805E+01  0.18911602594E+02  0.10000000000E+01 0.  0.
    9000005    1    3    3    0    0  0.12813398364E+02 -0.11886993066E+02  0.28763501466E+03  0.28816728725E+03  0.10000000000E+01 0.  0.
<mgrwt>
<rscale>  0 0.12500906E+03</rscale>
<asrwt>0</asrwt>
<pdfrwt beam="2">  1        4 0.20459109E-02 0.12500906E+03</pdfrwt>
<pdfrwt beam="1">  1       -4 0.45196995E-01 0.12500906E+03</pdfrwt>
<totfact> 0.74704348E+03</totfact>
</mgrwt>
</event>
<event>
 5    1  0.3241863E-002  0.1250019E+03  0.7818608E-02  0.1235066E+00
         -4   -1    0    0    0  501 -0.00000000000E+00  0.00000000000E+00  0.10698735880E+04  0.10698743417E+04  0.12700000000E+01 0.  1.
          4   -1    0    0  501    0  0.00000000000E+00 -0.00000000000E+00 -0.35400305872E+01  0.37609462318E+01  0.12700000000E+01 0.  1.
         25    2    1    2    0    0  0.00000000000E+00  0.00000000000E+00  0.10663335574E+04  0.10736352880E+04  0.12500190399E+03 0.  0.
    9000005    1    3    3    0    0  0.49130106434E+02  0.58042322766E+01  0.20521810153E+03  0.21109932654E+03  0.10000000000E+01 0.  0.
    9000005    1    3    3    0    0 -0.49130106434E+02 -0.58042322766E+01  0.86111545585E+03  0.86253596144E+03  0.10000000000E+01 0.  0.
<mgrwt>
<rscale>  0 0.12500190E+03</rscale>
<asrwt>0</asrwt>
<pdfrwt beam="2">  1        4 0.56167099E-03 0.12500190E+03</pdfrwt>
<pdfrwt beam="1">  1       -4 0.16461316E+00 0.12500190E+03</pdfrwt>
<totfact> 0.28266902E+03</totfact>
</mgrwt>
</event>
<event>
 5    1  0.3241863E-002  0.1250005E+03  0.7818608E-02  0.1235068E+00
         -4   -1    0    0    0  501 -0.00000000000E+00  0.00000000000E+00  0.29417079686E+02  0.29444481269E+02  0.12700000000E+01 0.  1.
          4   -1    0    0  501    0  0.00000000000E+00 -0.00000000000E+00 -0.13269734316E+03  0.13270342038E+03  0.12700000000E+01 0.  1.
         25    2    1    2    0    0  0.00000000000E+00  0.00000000000E+00 -0.10328026347E+03  0.16214790165E+03  0.12500051675E+03 0.  0.
    9000005    1    3    3    0    0 -0.56762354114E+02 -0.18786501625E+02 -0.75218272684E+02  0.96092070606E+02  0.10000000000E+01 0.  0.
    9000005    1    3    3    0    0  0.56762354114E+02  0.18786501625E+02 -0.28061990786E+02  0.66055831043E+02  0.10000000000E+01 0.  0.
<mgrwt>
<rscale>  0 0.12500052E+03</rscale>
<asrwt>0</asrwt>
<pdfrwt beam="2">  1        4 0.20417551E-01 0.12500052E+03</pdfrwt>
<pdfrwt beam="1">  1       -4 0.45282799E-02 0.12500052E+03</pdfrwt>
<totfact> 0.96929152E+03</totfact>
</mgrwt>
</event>
<event>
 5    1  0.3241863E-002  0.1250048E+03  0.7818608E-02  0.1235062E+00
          4   -1    0    0  501    0  0.00000000000E+00  0.00000000000E+00  0.43261281699E+01  0.45086899364E+01  0.12700000000E+01 0. -1.
         -4   -1    0    0    0  501 -0.00000000000E+00 -0.00000000000E+00 -0.88417070409E+03  0.88417161619E+03  0.12700000000E+01 0. -1.
         25    2    1    2    0    0  0.00000000000E+00  0.00000000000E+00 -0.87984457592E+03  0.88868030612E+03  0.12500483477E+03 0.  0.
    9000005    1    3    3    0    0  0.72545883326E+01 -0.47425610406E+02 -0.72462066783E+03  0.72620791088E+03  0.10000000000E+01 0.  0.
    9000005    1    3    3    0    0 -0.72545883326E+01  0.47425610406E+02 -0.15522390809E+03  0.16247239524E+03  0.10000000000E+01 0.  0.
<mgrwt>
<rscale>  0 0.12500483E+03</rscale>
<asrwt>0</asrwt>
<pdfrwt beam="1">  1        4 0.67967226E-03 0.12500483E+03</pdfrwt>
<pdfrwt beam="2">  1       -4 0.13604023E+00 0.12500483E+03</pdfrwt>
<totfact> 0.34590954E+03</totfact>
</mgrwt>
</event>
<event>
 5    1  0.3241863E-002  0.1249978E+03  0.7818608E-02  0.1235073E+00
          4   -1    0    0  501    0  0.00000000000E+00  0.00000000000E+00  0.71560343255E+02  0.71571611878E+02  0.12700000000E+01 0. -1.
         -4   -1    0    0    0  501 -0.00000000000E+00 -0.00000000000E+00 -0.54561881860E+02  0.54576660324E+02  0.12700000000E+01 0. -1.
         25    2    1    2    0    0  0.00000000000E+00  0.00000000000E+00  0.16998461395E+02  0.12614827220E+03  0.12499775554E+03 0.  0.
    9000005    1    3    3    0    0  0.49717895985E+02  0.37241203508E+02  0.15368740066E+02  0.63999801492E+02  0.10000000000E+01 0.  0.
    9000005    1    3    3    0    0 -0.49717895985E+02 -0.37241203508E+02  0.16297213292E+01  0.62148470709E+02  0.10000000000E+01 0.  0.
<mgrwt>
<rscale>  0 0.12499776E+03</rscale>
<asrwt>0</asrwt>
<pdfrwt beam="1">  1        4 0.11011287E-01 0.12499776E+03</pdfrwt>
<pdfrwt beam="2">  1       -4 0.83961393E-02 0.12499776E+03</pdfrwt>
<totfact> 0.10428238E+04</totfact>
</mgrwt>
</event>
<event>
 5    1  0.3241863E-002  0.1249944E+03  0.7818608E-02  0.1235078E+00
         -4   -1    0    0    0  501 -0.00000000000E+00  0.00000000000E+00  0.55183855691E+01  0.56626388980E+01  0.12700000000E+01 0.  1.
          4   -1    0    0  501    0  0.00000000000E+00 -0.00000000000E+00 -0.69852149834E+03  0.69852265285E+03  0.12700000000E+01 0.  1.
         25    2    1    2    0    0  0.00000000000E+00  0.00000000000E+00 -0.69300311277E+03  0.70418529175E+03  0.12499444309E+03 0.  0.
    9000005    1    3    3    0    0 -0.36869262713E+02  0.42781981659E+02 -0.49717228378E+03  0.50037078276E+03  0.10000000000E+01 0.  0.
    9000005    1    3    3    0    0  0.36869262713E+02 -0.42781981659E+02 -0.19583082900E+03  0.20381450899E+03  0.10000000000E+01 0.  0.
<mgrwt>
<rscale>  0 0.12499444E+03</rscale>
<asrwt>0</asrwt>
<pdfrwt beam="2">  1        4 0.10747596E+00 0.12499444E+03</pdfrwt>
<pdfrwt beam="1">  1       -4 0.86016817E-03 0.12499444E+03</pdfrwt>
<totfact> 0.42871911E+03</totfact>
</mgrwt>
</event>
<event>
 5    1  0.3241863E-002  0.1250165E+03  0.7818608E-02  0.1235043E+00
         -4   -1    0    0    0  501 -0.00000000000E+00  0.00000000000E+00  0.41323351907E+01  0.43230884941E+01  0.12700000000E+01 0.  1.
          4   -1    0    0  501    0  0.00000000000E+00 -0.00000000000E+00 -0.92401627866E+03  0.92401715143E+03  0.12700000000E+01 0.  1.
         25    2    1    2    0    0  0.00000000000E+00  0.00000000000E+00 -0.91988394347E+03  0.92834023992E+03  0.12501652531E+03 0.  0.
    9000005    1    3    3    0    0  0.13207865154E+01  0.62484044498E+02 -0.45599439228E+03  0.46025849920E+03  0.10000000000E+01 0.  0.
    9000005    1    3    3    0    0 -0.13207865154E+01 -0.62484044498E+02 -0.46388955119E+03  0.46808174072E+03  0.10000000000E+01 0.  0.
<mgrwt>
<rscale>  0 0.12501653E+03</rscale>
<asrwt>0</asrwt>
<pdfrwt beam="2">  1        4 0.14217093E+00 0.12501653E+03</pdfrwt>
<pdfrwt beam="1">  1       -4 0.65048508E-03 0.12501653E+03</pdfrwt>
<totfact> 0.33085778E+03</totfact>
</mgrwt>
</event>
<event>
 5    1  0.3241863E-002  0.1249998E+03  0.7818608E-02  0.1235070E+00
          4   -1    0    0  501    0  0.00000000000E+00  0.00000000000E+00  0.28823154086E+02  0.28851119761E+02  0.12700000000E+01 0. -1.
         -4   -1    0    0    0  501 -0.00000000000E+00 -0.00000000000E+00 -0.13542755696E+03  0.13543351167E+03  0.12700000000E+01 0. -1.
         25    2    1    2    0    0  0.00000000000E+00  0.00000000000E+00 -0.10660440287E+03  0.16428463143E+03  0.12499976565E+03 0.  0.
    9000005    1    3    3    0    0 -0.94624432803E+00 -0.55710017366E+02 -0.90492687758E+02  0.10627524618E+03  0.10000000000E+01 0.  0.
    9000005    1    3    3    0    0  0.94624432803E+00  0.55710017366E+02 -0.16111715115E+02  0.58009385251E+02  0.10000000000E+01 0.  0.
<mgrwt>
<rscale>  0 0.12499977E+03</rscale>
<asrwt>0</asrwt>
<pdfrwt beam="1">  1        4 0.44369407E-02 0.12499977E+03</pdfrwt>
<pdfrwt beam="2">  1       -4 0.20837618E-01 0.12499977E+03</pdfrwt>
<totfact> 0.96523552E+03</totfact>
</mgrwt>
</event>
<event>
 5    1  0.3241863E-002  0.1250181E+03  0.7818608E-02  0.1235041E+00
          4   -1    0    0  501    0  0.00000000000E+00  0.00000000000E+00  0.66927868896E+03  0.66927989391E+03  0.12700000000E+01 0.  1.
         -4   -1    0    0    0  501 -0.00000000000E+00 -0.00000000000E+00 -0.57679066183E+01  0.59060686381E+01  0.12700000000E+01 0.  1.
         25    2    1    2    0    0  0.00000000000E+00  0.00000000000E+00  0.66351078234E+03  0.67518596255E+03  0.12501810166E+03 0.  0.
    9000005    1    3    3    0    0  0.40787615135E+02 -0.34394523370E+02  0.15594034527E+03  0.16481809388E+03  0.10000000000E+01 0.  0.
    9000005    1    3    3    0    0 -0.40787615135E+02  0.34394523370E+02  0.50757043707E+03  0.51036786867E+03  0.10000000000E+01 0.  0.
<mgrwt>
<rscale>  0 0.12501810E+03</rscale>
<asrwt>0</asrwt>
<pdfrwt beam="1">  1        4 0.10297666E+00 0.12501810E+03</pdfrwt>
<pdfrwt beam="2">  1       -4 0.89809089E-03 0.12501810E+03</pdfrwt>
<totfact> 0.44411768E+03</totfact>
</mgrwt>
</event>
<event>
 5    1  0.3241863E-002  0.1249985E+03  0.7818608E-02  0.1235072E+00
         -4   -1    0    0    0  501 -0.00000000000E+00  0.00000000000E+00  0.44908366893E+01  0.46669598423E+01  0.12700000000E+01 0.  1.
          4   -1    0    0  501    0  0.00000000000E+00 -0.00000000000E+00 -0.85290136314E+03  0.85290230867E+03  0.12700000000E+01 0.  1.
         25    2    1    2    0    0  0.00000000000E+00  0.00000000000E+00 -0.84841052645E+03  0.85756926852E+03  0.12499851565E+03 0.  0.
    9000005    1    3    3    0    0 -0.19848966518E+02  0.99918250520E+01 -0.23498377564E+02  0.32357252477E+02  0.10000000000E+01 0.  0.
    9000005    1    3    3    0    0  0.19848966518E+02 -0.99918250520E+01 -0.82491214888E+03  0.82521201604E+03  0.10000000000E+01 0.  0.
<mgrwt>
<rscale>  0 0.12499852E+03</rscale>
<asrwt>0</asrwt>
<pdfrwt beam="2">  1        4 0.13122909E+00 0.12499852E+03</pdfrwt>
<pdfrwt beam="1">  1       -4 0.70451930E-03 0.12499852E+03</pdfrwt>
<totfact> 0.35820761E+03</totfact>
</mgrwt>
</event>
<event>
 5    1  0.3241863E-002  0.1250003E+03  0.7818608E-02  0.1235069E+00
          4   -1    0    0  501    0  0.00000000000E+00  0.00000000000E+00  0.58493985397E+02  0.58507770661E+02  0.12700000000E+01 0.  1.
         -4   -1    0    0    0  501 -0.00000000000E+00 -0.00000000000E+00 -0.66752989615E+02  0.66765069629E+02  0.12700000000E+01 0.  1.
         25    2    1    2    0    0  0.00000000000E+00  0.00000000000E+00 -0.82590042178E+01  0.12527284029E+03  0.12500029345E+03 0.  0.
    9000005    1    3    3    0    0  0.20513052744E+02  0.19804389551E+02 -0.59858923803E+02  0.66310556755E+02  0.10000000000E+01 0.  0.
    9000005    1    3    3    0    0 -0.20513052744E+02 -0.19804389551E+02  0.51599919585E+02  0.58962283534E+02  0.10000000000E+01 0.  0.
<mgrwt>
<rscale>  0 0.12500029E+03</rscale>
<asrwt>0</asrwt>
<pdfrwt beam="1">  1        4 0.90010643E-02 0.12500029E+03</pdfrwt>
<pdfrwt beam="2">  1       -4 0.10271680E-01 0.12500029E+03</pdfrwt>
<totfact> 0.10446870E+04</totfact>
</mgrwt>
</event>
<event>
 5    1  0.3241863E-002  0.1250048E+03  0.7818608E-02  0.1235062E+00
         -4   -1    0    0    0  501 -0.00000000000E+00  0.00000000000E+00  0.20053455744E+02  0.20093630515E+02  0.12700000000E+01 0. -1.
          4   -1    0    0  501    0  0.00000000000E+00 -0.00000000000E+00 -0.19456957311E+03  0.19457371785E+03  0.12700000000E+01 0. -1.
         25    2    1    2    0    0  0.00000000000E+00  0.00000000000E+00 -0.17451611736E+03  0.21466734837E+03  0.12500478085E+03 0.  0.
    9000005    1    3    3    0    0 -0.61703625306E+02 -0.92691015144E+01 -0.81236526734E+02  0.10243840537E+03  0.10000000000E+01 0.  0.
    9000005    1    3    3    0    0  0.61703625306E+02  0.92691015144E+01 -0.93279590630E+02  0.11222894300E+03  0.10000000000E+01 0.  0.
<mgrwt>
<rscale>  0 0.12500478E+03</rscale>
<asrwt>0</asrwt>
<pdfrwt beam="2">  1        4 0.29937188E-01 0.12500478E+03</pdfrwt>
<pdfrwt beam="1">  1       -4 0.30885564E-02 0.12500478E+03</pdfrwt>
<totfact> 0.87709899E+03</totfact>
</mgrwt>
</event>
<event>
 5    1  0.3241863E-002  0.1249984E+03  0.7818608E-02  0.1235072E+00
          4   -1    0    0  501    0  0.00000000000E+00  0.00000000000E+00  0.61444008945E+01  0.62742778352E+01  0.12700000000E+01 0.  1.
         -4   -1    0    0    0  501 -0.00000000000E+00 -0.00000000000E+00 -0.62894555938E+03  0.62894684160E+03  0.12700000000E+01 0.  1.
         25    2    1    2    0    0  0.00000000000E+00  0.00000000000E+00 -0.62280115848E+03  0.63522111944E+03  0.12499835027E+03 0.  0.
    9000005    1    3    3    0    0 -0.23676055819E+02  0.55857951105E+01 -0.60392150359E+03  0.60441206078E+03  0.10000000000E+01 0.  0.
    9000005    1    3    3    0    0  0.23676055819E+02 -0.55857951105E+01 -0.18879654898E+02  0.30809058655E+02  0.10000000000E+01 0.  0.
<mgrwt>
<rscale>  0 0.12499835E+03</rscale>
<asrwt>0</asrwt>
<pdfrwt beam="1">  1        4 0.95538211E-03 0.12499835E+03</pdfrwt>
<pdfrwt beam="2">  1       -4 0.96770894E-01 0.12499835E+03</pdfrwt>
<totfact> 0.46718951E+03</totfact>
</mgrwt>
</event>
<event>
 5    1  0.3241863E-002  0.1250089E+03  0.7818608E-02  0.1235055E+00
         -4   -1    0    0    0  501 -0.00000000000E+00  0.00000000000E+00  0.21258595625E+02  0.21296497082E+02  0.12700000000E+01 0.  1.
          4   -1    0    0  501    0  0.00000000000E+00 -0.00000000000E+00 -0.18357171929E+03  0.18357611234E+03  0.12700000000E+01 0.  1.
         25    2    1    2    0    0  0.00000000000E+00  0.00000000000E+00 -0.16231312366E+03  0.20487260942E+03  0.12500894359E+03 0.  0.
    9000005    1    3    3    0    0 -0.61667340631E+02  0.10073686286E+02 -0.83142861003E+02  0.10400997737E+03  0.10000000000E+01 0.  0.
    9000005    1    3    3    0    0  0.61667340631E+02 -0.10073686286E+02 -0.79170262660E+02  0.10086263206E+03  0.10000000000E+01 0.  0.
<mgrwt>
<rscale>  0 0.12500894E+03</rscale>
<asrwt>0</asrwt>
<pdfrwt beam="2">  1        4 0.28245055E-01 0.12500894E+03</pdfrwt>
<pdfrwt beam="1">  1       -4 0.32738067E-02 0.12500894E+03</pdfrwt>
<totfact> 0.89302293E+03</totfact>
</mgrwt>
</event>
<event>
 5    1  0.3241863E-002  0.1249994E+03  0.7818608E-02  0.1235070E+00
         -4   -1    0    0    0  501 -0.00000000000E+00  0.00000000000E+00  0.66225527783E+02  0.66237703992E+02  0.12700000000E+01 0.  1.
          4   -1    0    0  501    0  0.00000000000E+00 -0.00000000000E+00 -0.58959004429E+02  0.58972680991E+02  0.12700000000E+01 0.  1.
         25    2    1    2    0    0  0.00000000000E+00  0.00000000000E+00  0.72665233532E+01  0.12521038498E+03  0.12499935258E+03 0.  0.
    9000005    1    3    3    0    0 -0.31572326943E+01 -0.42809127140E+01  0.66003260860E+02  0.66224804840E+02  0.10000000000E+01 0.  0.
    9000005    1    3    3    0    0  0.31572326943E+01  0.42809127140E+01 -0.58736737506E+02  0.58985580143E+02  0.10000000000E+01 0.  0.
<mgrwt>
<rscale>  0 0.12499935E+03</rscale>
<asrwt>0</asrwt>
<pdfrwt beam="2">  1        4 0.90726048E-02 0.12499935E+03</pdfrwt>
<pdfrwt beam="1">  1       -4 0.10190531E-01 0.12499935E+03</pdfrwt>
<totfact> 0.10448448E+04</totfact>
</mgrwt>
</event>
<event>
 5    1  0.3241863E-002  0.1249972E+03  0.7818608E-02  0.1235074E+00
         -4   -1    0    0    0  501 -0.00000000000E+00  0.00000000000E+00  0.34497359147E+03  0.34497592918E+03  0.12700000000E+01 0.  1.
          4   -1    0    0  501    0  0.00000000000E+00 -0.00000000000E+00 -0.11284827006E+02  0.11356065364E+02  0.12700000000E+01 0.  1.
         25    2    1    2    0    0  0.00000000000E+00  0.00000000000E+00  0.33368876446E+03  0.35633199454E+03  0.12499719519E+03 0.  0.
    9000005    1    3    3    0    0 -0.22870422955E+02  0.55084947305E+02  0.21999842579E+03  0.22794235020E+03  0.10000000000E+01 0.  0.
    9000005    1    3    3    0    0  0.22870422955E+02 -0.55084947305E+02  0.11369033868E+03  0.12838964434E+03  0.10000000000E+01 0.  0.
<mgrwt>
<rscale>  0 0.12499720E+03</rscale>
<asrwt>0</asrwt>
<pdfrwt beam="2">  1        4 0.17417873E-02 0.12499720E+03</pdfrwt>
<pdfrwt beam="1">  1       -4 0.53078509E-01 0.12499720E+03</pdfrwt>
<totfact> 0.69037820E+03</totfact>
</mgrwt>
</event>
<event>
 5    1  0.3241863E-002  0.1249993E+03  0.7818608E-02  0.1235070E+00
          4   -1    0    0  501    0  0.00000000000E+00  0.00000000000E+00  0.67399442525E+02  0.67411406695E+02  0.12700000000E+01 0. -1.
         -4   -1    0    0    0  501 -0.00000000000E+00 -0.00000000000E+00 -0.57931969804E+02  0.57945888770E+02  0.12700000000E+01 0. -1.
         25    2    1    2    0    0  0.00000000000E+00  0.00000000000E+00  0.94674727212E+01  0.12535729547E+03  0.12499927394E+03 0.  0.
    9000005    1    3    3    0    0 -0.59789488683E+02  0.93618478331E+01 -0.10892209451E+02  0.61498515255E+02  0.10000000000E+01 0.  0.
    9000005    1    3    3    0    0  0.59789488683E+02 -0.93618478331E+01  0.20359682172E+02  0.63858780210E+02  0.10000000000E+01 0.  0.
<mgrwt>
<rscale>  0 0.12499927E+03</rscale>
<asrwt>0</asrwt>
<pdfrwt beam="1">  1        4 0.10371136E-01 0.12499927E+03</pdfrwt>
<pdfrwt beam="2">  1       -4 0.89146017E-02 0.12499927E+03</pdfrwt>
<totfact> 0.10445278E+04</totfact>
</mgrwt>
</event>
<event>
 5    1  0.3241863E-002  0.1249982E+03  0.7818608E-02  0.1235072E+00
         -4   -1    0    0    0  501 -0.00000000000E+00  0.00000000000E+00  0.22413398697E+03  0.22413758501E+03  0.12700000000E+01 0. -1.
          4   -1    0    0  501    0  0.00000000000E+00 -0.00000000000E+00 -0.17400800502E+02  0.17447084516E+02  0.12700000000E+01 0. -1.
         25    2    1    2    0    0  0.00000000000E+00  0.00000000000E+00  0.20673318646E+03  0.24158466952E+03  0.12499816864E+03 0.  0.
    9000005    1    3    3    0    0  0.15529977280E+02  0.18377428524E+02 -0.80991877948E+01  0.25406828145E+02  0.10000000000E+01 0.  0.
    9000005    1    3    3    0    0 -0.15529977280E+02 -0.18377428524E+02  0.21483237426E+03  0.21617784138E+03  0.10000000000E+01 0.  0.
<mgrwt>
<rscale>  0 0.12499817E+03</rscale>
<asrwt>0</asrwt>
<pdfrwt beam="2">  1        4 0.26808834E-02 0.12499817E+03</pdfrwt>
<pdfrwt beam="1">  1       -4 0.34485988E-01 0.12499817E+03</pdfrwt>
<totfact> 0.83565335E+03</totfact>
</mgrwt>
</event>
<event>
 5    1  0.3241863E-002  0.1249976E+03  0.7818608E-02  0.1235073E+00
         -4   -1    0    0    0  501 -0.00000000000E+00  0.00000000000E+00  0.77461244789E+03  0.77461348899E+03  0.12700000000E+01 0.  1.
          4   -1    0    0  501    0  0.00000000000E+00 -0.00000000000E+00 -0.49616234234E+01  0.51215824698E+01  0.12700000000E+01 0.  1.
         25    2    1    2    0    0  0.00000000000E+00  0.00000000000E+00  0.76965082446E+03  0.77973507146E+03  0.12499756023E+03 0.  0.
    9000005    1    3    3    0    0  0.19166037885E+02  0.59139173748E+02  0.42443482904E+03  0.42896468733E+03  0.10000000000E+01 0.  0.
    9000005    1    3    3    0    0 -0.19166037885E+02 -0.59139173748E+02  0.34521599543E+03  0.35077038412E+03  0.10000000000E+01 0.  0.
<mgrwt>
<rscale>  0 0.12499756E+03</rscale>
<asrwt>0</asrwt>
<pdfrwt beam="2">  1        4 0.77571174E-03 0.12499756E+03</pdfrwt>
<pdfrwt beam="1">  1       -4 0.11918346E+00 0.12499756E+03</pdfrwt>
<totfact> 0.39187675E+03</totfact>
</mgrwt>
</event>
<event>
 5    1  0.3241863E-002  0.1249982E+03  0.7818608E-02  0.1235072E+00
         -4   -1    0    0    0  501 -0.00000000000E+00  0.00000000000E+00  0.46822045710E+03  0.46822217947E+03  0.12700000000E+01 0. -1.
          4   -1    0    0  501    0  0.00000000000E+00 -0.00000000000E+00 -0.82924354792E+01  0.83891230874E+01  0.12700000000E+01 0. -1.
         25    2    1    2    0    0  0.00000000000E+00  0.00000000000E+00  0.45992802162E+03  0.47661130256E+03  0.12499819460E+03 0.  0.
    9000005    1    3    3    0    0  0.61865847151E+02  0.76799784594E+01  0.21344376703E+03  0.22236368138E+03  0.10000000000E+01 0.  0.
    9000005    1    3    3    0    0 -0.61865847151E+02 -0.76799784594E+01  0.24648425459E+03  0.25424762118E+03  0.10000000000E+01 0.  0.
<mgrwt>
<rscale>  0 0.12499819E+03</rscale>
<asrwt>0</asrwt>
<pdfrwt beam="2">  1        4 0.12833294E-02 0.12499819E+03</pdfrwt>
<pdfrwt beam="1">  1       -4 0.72041481E-01 0.12499819E+03</pdfrwt>
<totfact> 0.57728126E+03</totfact>
</mgrwt>
</event>
<event>
 5    1  0.3241863E-002  0.1249989E+03  0.7818608E-02  0.1235071E+00
          4   -1    0    0  501    0  0.00000000000E+00  0.00000000000E+00  0.11301202777E+04  0.11301209913E+04  0.12700000000E+01 0. -1.
         -4   -1    0    0    0  501 -0.00000000000E+00 -0.00000000000E+00 -0.33390313295E+01  0.35723983847E+01  0.12700000000E+01 0. -1.
         25    2    1    2    0    0  0.00000000000E+00  0.00000000000E+00  0.11267812464E+04  0.11336933897E+04  0.12499889853E+03 0.  0.
    9000005    1    3    3    0    0  0.33629223541E+02  0.52659011306E+02  0.57367180040E+03  0.57706518759E+03  0.10000000000E+01 0.  0.
    9000005    1    3    3    0    0 -0.33629223541E+02 -0.52659011306E+02  0.55310944600E+03  0.55662820212E+03  0.10000000000E+01 0.  0.
<mgrwt>
<rscale>  0 0.12499890E+03</rscale>
<asrwt>0</asrwt>
<pdfrwt beam="1">  1        4 0.17388292E+00 0.12499890E+03</pdfrwt>
<pdfrwt beam="2">  1       -4 0.53170254E-03 0.12499890E+03</pdfrwt>
<totfact> 0.26517636E+03</totfact>
</mgrwt>
</event>
<event>
 5    1  0.3241863E-002  0.1249981E+03  0.7818608E-02  0.1235072E+00
          4   -1    0    0  501    0  0.00000000000E+00  0.00000000000E+00  0.20041177596E+03  0.20041579989E+03  0.12700000000E+01 0.  1.
         -4   -1    0    0    0  501 -0.00000000000E+00 -0.00000000000E+00 -0.19465611468E+02  0.19506996945E+02  0.12700000000E+01 0.  1.
         25    2    1    2    0    0  0.00000000000E+00  0.00000000000E+00  0.18094616450E+03  0.21992279683E+03  0.12499808847E+03 0.  0.
    9000005    1    3    3    0    0 -0.17360821026E+01 -0.33995937389E+02  0.18267675135E+03  0.18582393071E+03  0.10000000000E+01 0.  0.
    9000005    1    3    3    0    0  0.17360821026E+01  0.33995937389E+02 -0.17305868568E+01  0.34098866123E+02  0.10000000000E+01 0.  0.
<mgrwt>
<rscale>  0 0.12499809E+03</rscale>
<asrwt>0</asrwt>
<pdfrwt beam="1">  1        4 0.30836075E-01 0.12499809E+03</pdfrwt>
<pdfrwt beam="2">  1       -4 0.29982023E-02 0.12499809E+03</pdfrwt>
<totfact> 0.86884275E+03</totfact>
</mgrwt>
</event>
<event>
 5    1  0.3241863E-002  0.1250013E+03  0.7818608E-02  0.1235067E+00
          4   -1    0    0  501    0  0.00000000000E+00  0.00000000000E+00  0.14488606859E+03  0.14489163458E+03  0.12700000000E+01 0. -1.
         -4   -1    0    0    0  501 -0.00000000000E+00 -0.00000000000E+00 -0.26940366350E+02  0.26970284372E+02  0.12700000000E+01 0. -1.
         25    2    1    2    0    0  0.00000000000E+00  0.00000000000E+00  0.11794570224E+03  0.17186191895E+03  0.12500132203E+03 0.  0.
    9000005    1    3    3    0    0  0.61352620843E+02 -0.23373122711E+01  0.42955311809E+02  0.74938414219E+02  0.10000000000E+01 0.  0.
    9000005    1    3    3    0    0 -0.61352620843E+02  0.23373122711E+01  0.74990390433E+02  0.96923504736E+02  0.10000000000E+01 0.  0.
<mgrwt>
<rscale>  0 0.12500132E+03</rscale>
<asrwt>0</asrwt>
<pdfrwt beam="1">  1        4 0.22292894E-01 0.12500132E+03</pdfrwt>
<pdfrwt beam="2">  1       -4 0.41474012E-02 0.12500132E+03</pdfrwt>
<totfact> 0.95099913E+03</totfact>
</mgrwt>
</event>
<event>
 5    1  0.3241863E-002  0.1250225E+03  0.7818608E-02  0.1235034E+00
          4   -1    0    0  501    0  0.00000000000E+00  0.00000000000E+00  0.23923066321E+02  0.23956752748E+02  0.12700000000E+01 0.  1.
         -4   -1    0    0    0  501 -0.00000000000E+00 -0.00000000000E+00 -0.16319157984E+03  0.16319652150E+03  0.12700000000E+01 0.  1.
         25    2    1    2    0    0  0.00000000000E+00  0.00000000000E+00 -0.13926851351E+03  0.18715327425E+03  0.12502251479E+03 0.  0.
    9000005    1    3    3    0    0 -0.15665709249E+02  0.81743276738E+01  0.20113541872E+02  0.26791577890E+02  0.10000000000E+01 0.  0.
    9000005    1    3    3    0    0  0.15665709249E+02 -0.81743276738E+01 -0.15938205539E+03  0.16036169636E+03  0.10000000000E+01 0.  0.
<mgrwt>
<rscale>  0 0.12502251E+03</rscale>
<asrwt>0</asrwt>
<pdfrwt beam="1">  1        4 0.36834432E-02 0.12502251E+03</pdfrwt>
<pdfrwt beam="2">  1       -4 0.25109368E-01 0.12502251E+03</pdfrwt>
<totfact> 0.92298439E+03</totfact>
</mgrwt>
</event>
<event>
 5    1  0.3241863E-002  0.1249965E+03  0.7818608E-02  0.1235075E+00
         -4   -1    0    0    0  501 -0.00000000000E+00  0.00000000000E+00  0.67573319753E+02  0.67585253143E+02  0.12700000000E+01 0.  1.
          4   -1    0    0  501    0  0.00000000000E+00 -0.00000000000E+00 -0.57780311354E+02  0.57794266845E+02  0.12700000000E+01 0.  1.
         25    2    1    2    0    0  0.00000000000E+00  0.00000000000E+00  0.97930083987E+01  0.12537951999E+03  0.12499648403E+03 0.  0.
    9000005    1    3    3    0    0 -0.15562580891E+02 -0.52042896525E+02  0.35884103767E+02  0.65110106019E+02  0.10000000000E+01 0.  0.
    9000005    1    3    3    0    0  0.15562580891E+02  0.52042896525E+02 -0.26091095368E+02  0.60269413969E+02  0.10000000000E+01 0.  0.
<mgrwt>
<rscale>  0 0.12499648E+03</rscale>
<asrwt>0</asrwt>
<pdfrwt beam="2">  1        4 0.88912702E-02 0.12499648E+03</pdfrwt>
<pdfrwt beam="1">  1       -4 0.10397887E-01 0.12499648E+03</pdfrwt>
<totfact> 0.10445449E+04</totfact>
</mgrwt>
</event>
<event>
 5    1  0.3241863E-002  0.1249984E+03  0.7818608E-02  0.1235072E+00
          4   -1    0    0  501    0  0.00000000000E+00  0.00000000000E+00  0.43139785485E+02  0.43158475317E+02  0.12700000000E+01 0.  1.
         -4   -1    0    0    0  501 -0.00000000000E+00 -0.00000000000E+00 -0.90503551687E+02  0.90512461949E+02  0.12700000000E+01 0.  1.
         25    2    1    2    0    0  0.00000000000E+00  0.00000000000E+00 -0.47363766203E+02  0.13367093727E+03  0.12499837247E+03 0.  0.
    9000005    1    3    3    0    0 -0.32434755187E+01  0.56632045249E+02 -0.51720068759E+02  0.76770268952E+02  0.10000000000E+01 0.  0.
    9000005    1    3    3    0    0  0.32434755187E+01 -0.56632045249E+02  0.43563025566E+01  0.56900668313E+02  0.10000000000E+01 0.  0.
<mgrwt>
<rscale>  0 0.12499837E+03</rscale>
<asrwt>0</asrwt>
<pdfrwt beam="1">  1        4 0.66390132E-02 0.12499837E+03</pdfrwt>
<pdfrwt beam="2">  1       -4 0.13925746E-01 0.12499837E+03</pdfrwt>
<totfact> 0.10266538E+04</totfact>
</mgrwt>
</event>
<event>
 5    1  0.3241863E-002  0.1250011E+03  0.7818608E-02  0.1235068E+00
         -4   -1    0    0    0  501 -0.00000000000E+00  0.00000000000E+00  0.12064536140E+02  0.12131196655E+02  0.12700000000E+01 0.  1.
          4   -1    0    0  501    0  0.00000000000E+00 -0.00000000000E+00 -0.32282502534E+03  0.32282752344E+03  0.12700000000E+01 0.  1.
         25    2    1    2    0    0  0.00000000000E+00  0.00000000000E+00 -0.31076048920E+03  0.33495872009E+03  0.12500105006E+03 0.  0.
    9000005    1    3    3    0    0  0.13188358772E+02 -0.43945541934E+02 -0.26907348598E+03  0.27295912573E+03  0.10000000000E+01 0.  0.
    9000005    1    3    3    0    0 -0.13188358772E+02  0.43945541934E+02 -0.41687003222E+02  0.61999594358E+02  0.10000000000E+01 0.  0.
<mgrwt>
<rscale>  0 0.12500105E+03</rscale>
<asrwt>0</asrwt>
<pdfrwt beam="2">  1        4 0.49670702E-01 0.12500105E+03</pdfrwt>
<pdfrwt beam="1">  1       -4 0.18614026E-02 0.12500105E+03</pdfrwt>
<totfact> 0.71409949E+03</totfact>
</mgrwt>
</event>
<event>
 5    1  0.3241863E-002  0.1249967E+03  0.7818608E-02  0.1235075E+00
          4   -1    0    0  501    0  0.00000000000E+00  0.00000000000E+00  0.23722495539E+02  0.23756466375E+02  0.12700000000E+01 0.  1.
         -4   -1    0    0    0  501 -0.00000000000E+00 -0.00000000000E+00 -0.16450134562E+03  0.16450624794E+03  0.12700000000E+01 0.  1.
         25    2    1    2    0    0  0.00000000000E+00  0.00000000000E+00 -0.14077885008E+03  0.18826271432E+03  0.12499665984E+03 0.  0.
    9000005    1    3    3    0    0  0.88443497559E+01  0.48673688532E+02 -0.12789349836E+03  0.13713167906E+03  0.10000000000E+01 0.  0.
    9000005    1    3    3    0    0 -0.88443497559E+01 -0.48673688532E+02 -0.12885351725E+02  0.51131035262E+02  0.10000000000E+01 0.  0.
<mgrwt>
<rscale>  0 0.12499666E+03</rscale>
<asrwt>0</asrwt>
<pdfrwt beam="1">  1        4 0.36526050E-02 0.12499666E+03</pdfrwt>
<pdfrwt beam="2">  1       -4 0.25310889E-01 0.12499666E+03</pdfrwt>
<totfact> 0.92157374E+03</totfact>
</mgrwt>
</event>
<event>
 5    1  0.3241863E-002  0.1250031E+03  0.7818608E-02  0.1235064E+00
         -4   -1    0    0    0  501 -0.00000000000E+00  0.00000000000E+00  0.22005285627E+03  0.22005652104E+03  0.12700000000E+01 0. -1.
          4   -1    0    0  501    0  0.00000000000E+00 -0.00000000000E+00 -0.17725758849E+02  0.17771196549E+02  0.12700000000E+01 0. -1.
         25    2    1    2    0    0  0.00000000000E+00  0.00000000000E+00  0.20232709742E+03  0.23782771759E+03  0.12500307557E+03 0.  0.
    9000005    1    3    3    0    0 -0.16042858798E+02  0.34524135901E+02  0.68727155593E+01  0.38697848742E+02  0.10000000000E+01 0.  0.
    9000005    1    3    3    0    0  0.16042858798E+02 -0.34524135901E+02  0.19545438186E+03  0.19912986884E+03  0.10000000000E+01 0.  0.
<mgrwt>
<rscale>  0 0.12500308E+03</rscale>
<asrwt>0</asrwt>
<pdfrwt beam="2">  1        4 0.27308170E-02 0.12500308E+03</pdfrwt>
<pdfrwt beam="1">  1       -4 0.33858061E-01 0.12500308E+03</pdfrwt>
<totfact> 0.84116189E+03</totfact>
</mgrwt>
</event>
<event>
 5    1  0.3241863E-002  0.1249979E+03  0.7818608E-02  0.1235073E+00
         -4   -1    0    0    0  501 -0.00000000000E+00  0.00000000000E+00  0.33468007929E+03  0.33468248890E+03  0.12700000000E+01 0.  1.
          4   -1    0    0  501    0  0.00000000000E+00 -0.00000000000E+00 -0.11634188947E+02  0.11703300922E+02  0.12700000000E+01 0.  1.
         25    2    1    2    0    0  0.00000000000E+00  0.00000000000E+00  0.32304589034E+03  0.34638578982E+03  0.12499787246E+03 0.  0.
    9000005    1    3    3    0    0  0.55472676078E+01 -0.62037106406E+02  0.14746308639E+03  0.16008040666E+03  0.10000000000E+01 0.  0.
    9000005    1    3    3    0    0 -0.55472676078E+01  0.62037106406E+02  0.17558280395E+03  0.18630538316E+03  0.10000000000E+01 0.  0.
<mgrwt>
<rscale>  0 0.12499787E+03</rscale>
<asrwt>0</asrwt>
<pdfrwt beam="2">  1        4 0.17953766E-02 0.12499787E+03</pdfrwt>
<pdfrwt beam="1">  1       -4 0.51494751E-01 0.12499787E+03</pdfrwt>
<totfact> 0.70127297E+03</totfact>
</mgrwt>
</event>
<event>
 5    1  0.3241863E-002  0.1250349E+03  0.7818608E-02  0.1235015E+00
          4   -1    0    0  501    0  0.00000000000E+00  0.00000000000E+00  0.36887282031E+02  0.36909138105E+02  0.12700000000E+01 0.  1.
         -4   -1    0    0    0  501 -0.00000000000E+00 -0.00000000000E+00 -0.10589901312E+03  0.10590662812E+03  0.12700000000E+01 0.  1.
         25    2    1    2    0    0  0.00000000000E+00  0.00000000000E+00 -0.69011731087E+02  0.14281576622E+03  0.12503489135E+03 0.  0.
    9000005    1    3    3    0    0 -0.36856365957E+01  0.59220744532E+02 -0.56968484123E+02  0.82262316302E+02  0.10000000000E+01 0.  0.
    9000005    1    3    3    0    0  0.36856365957E+01 -0.59220744532E+02 -0.12043246964E+02  0.60553449922E+02  0.10000000000E+01 0.  0.
<mgrwt>
<rscale>  0 0.12503489E+03</rscale>
<asrwt>0</asrwt>
<pdfrwt beam="1">  1        4 0.56772335E-02 0.12503489E+03</pdfrwt>
<pdfrwt beam="2">  1       -4 0.16294423E-01 0.12503489E+03</pdfrwt>
<totfact> 0.10067643E+04</totfact>
</mgrwt>
</event>
<event>
 5    1  0.3241863E-002  0.1250013E+03  0.7818608E-02  0.1235067E+00
         -4   -1    0    0    0  501 -0.00000000000E+00  0.00000000000E+00  0.37517917947E+03  0.37518132898E+03  0.12700000000E+01 0. -1.
          4   -1    0    0  501    0  0.00000000000E+00 -0.00000000000E+00 -0.10370997061E+02  0.10448467832E+02  0.12700000000E+01 0. -1.
         25    2    1    2    0    0  0.00000000000E+00  0.00000000000E+00  0.36480818241E+03  0.38562979681E+03  0.12500132091E+03 0.  0.
    9000005    1    3    3    0    0 -0.51380887598E+00 -0.60999665474E+02  0.14054460176E+03  0.15321556145E+03  0.10000000000E+01 0.  0.
    9000005    1    3    3    0    0  0.51380887598E+00  0.60999665474E+02  0.22426358065E+03  0.23241423535E+03  0.10000000000E+01 0.  0.
<mgrwt>
<rscale>  0 0.12500132E+03</rscale>
<asrwt>0</asrwt>
<pdfrwt beam="2">  1        4 0.16016625E-02 0.12500132E+03</pdfrwt>
<pdfrwt beam="1">  1       -4 0.57726003E-01 0.12500132E+03</pdfrwt>
<totfact> 0.65972903E+03</totfact>
</mgrwt>
</event>
<event>
 5    1  0.3241863E-002  0.1249989E+03  0.7818608E-02  0.1235071E+00
         -4   -1    0    0    0  501 -0.00000000000E+00  0.00000000000E+00  0.10270751306E+04  0.10270759157E+04  0.12700000000E+01 0. -1.
          4   -1    0    0  501    0  0.00000000000E+00 -0.00000000000E+00 -0.36963793820E+01  0.39084677990E+01  0.12700000000E+01 0. -1.
         25    2    1    2    0    0  0.00000000000E+00  0.00000000000E+00  0.10233787512E+04  0.10309843835E+04  0.12499892304E+03 0.  0.
    9000005    1    3    3    0    0 -0.45024054927E+02 -0.39256867858E+01  0.86765358369E+03  0.86883043100E+03  0.10000000000E+01 0.  0.
    9000005    1    3    3    0    0  0.45024054927E+02  0.39256867858E+01  0.15572516749E+03  0.16215395255E+03  0.10000000000E+01 0.  0.
<mgrwt>
<rscale>  0 0.12499892E+03</rscale>
<asrwt>0</asrwt>
<pdfrwt beam="2">  1        4 0.58504729E-03 0.12499892E+03</pdfrwt>
<pdfrwt beam="1">  1       -4 0.15802830E+00 0.12499892E+03</pdfrwt>
<totfact> 0.29596633E+03</totfact>
</mgrwt>
</event>
<event>
 5    1  0.3241863E-002  0.1249999E+03  0.7818608E-02  0.1235069E+00
         -4   -1    0    0    0  501 -0.00000000000E+00  0.00000000000E+00  0.15204399240E+02  0.15257347615E+02  0.12700000000E+01 0. -1.
          4   -1    0    0  501    0  0.00000000000E+00 -0.00000000000E+00 -0.25641426350E+03  0.25641740859E+03  0.12700000000E+01 0. -1.
         25    2    1    2    0    0  0.00000000000E+00  0.00000000000E+00 -0.24120986426E+03  0.27167475620E+03  0.12499989816E+03 0.  0.
    9000005    1    3    3    0    0  0.35533434698E+02  0.51275050971E+02 -0.11262295985E+03  0.12875048318E+03  0.10000000000E+01 0.  0.
    9000005    1    3    3    0    0 -0.35533434698E+02 -0.51275050971E+02 -0.12858690441E+03  0.14292427302E+03  0.10000000000E+01 0.  0.
<mgrwt>
<rscale>  0 0.12499990E+03</rscale>
<asrwt>0</asrwt>
<pdfrwt beam="2">  1        4 0.39452660E-01 0.12499990E+03</pdfrwt>
<pdfrwt beam="1">  1       -4 0.23434534E-02 0.12499990E+03</pdfrwt>
<totfact> 0.79295263E+03</totfact>
</mgrwt>
</event>
<event>
 5    1  0.3241863E-002  0.1249981E+03  0.7818608E-02  0.1235072E+00
         -4   -1    0    0    0  501 -0.00000000000E+00  0.00000000000E+00  0.19402369329E+02  0.19443889415E+02  0.12700000000E+01 0. -1.
          4   -1    0    0  501    0  0.00000000000E+00 -0.00000000000E+00 -0.20106383178E+03  0.20106784265E+03  0.12700000000E+01 0. -1.
         25    2    1    2    0    0  0.00000000000E+00  0.00000000000E+00 -0.18166146245E+03  0.22051173207E+03  0.12499814815E+03 0.  0.
    9000005    1    3    3    0    0 -0.56889293982E+02 -0.24124467182E+02 -0.74399530339E+02  0.96719552321E+02  0.10000000000E+01 0.  0.
    9000005    1    3    3    0    0  0.56889293982E+02  0.24124467182E+02 -0.10726193211E+03  0.12379217975E+03  0.10000000000E+01 0.  0.
<mgrwt>
<rscale>  0 0.12499815E+03</rscale>
<asrwt>0</asrwt>
<pdfrwt beam="2">  1        4 0.30936398E-01 0.12499815E+03</pdfrwt>
<pdfrwt beam="1">  1       -4 0.29884824E-02 0.12499815E+03</pdfrwt>
<totfact> 0.86791030E+03</totfact>
</mgrwt>
</event>
<event>
 5    1  0.3241863E-002  0.1249862E+03  0.7818608E-02  0.1235091E+00
         -4   -1    0    0    0  501 -0.00000000000E+00  0.00000000000E+00  0.86093999806E+02  0.86103366383E+02  0.12700000000E+01 0. -1.
          4   -1    0    0  501    0  0.00000000000E+00 -0.00000000000E+00 -0.45341183479E+02  0.45358966250E+02  0.12700000000E+01 0. -1.
         25    2    1    2    0    0  0.00000000000E+00  0.00000000000E+00  0.40752816327E+02  0.13146233263E+03  0.12498621069E+03 0.  0.
    9000005    1    3    3    0    0  0.18902673300E+02 -0.61237887734E+01 -0.41934858718E+02  0.46414913795E+02  0.10000000000E+01 0.  0.
    9000005    1    3    3    0    0 -0.18902673300E+02  0.61237887734E+01  0.82687675045E+02  0.85047418839E+02  0.10000000000E+01 0.  0.
<mgrwt>
<rscale>  0 0.12498621E+03</rscale>
<asrwt>0</asrwt>
<pdfrwt beam="2">  1        4 0.69776552E-02 0.12498621E+03</pdfrwt>
<pdfrwt beam="1">  1       -4 0.13247319E-01 0.12498621E+03</pdfrwt>
<totfact> 0.10316397E+04</totfact>
</mgrwt>
</event>
<event>
 5    1  0.3241863E-002  0.1249840E+03  0.7818608E-02  0.1235094E+00
         -4   -1    0    0    0  501 -0.00000000000E+00  0.00000000000E+00  0.49233340805E+02  0.49249718241E+02  0.12700000000E+01 0.  1.
          4   -1    0    0  501    0  0.00000000000E+00 -0.00000000000E+00 -0.79286588265E+02  0.79296758942E+02  0.12700000000E+01 0.  1.
         25    2    1    2    0    0  0.00000000000E+00  0.00000000000E+00 -0.30053247459E+02  0.12854647718E+03  0.12498399543E+03 0.  0.
    9000005    1    3    3    0    0  0.34964821385E+01  0.30892527569E+02 -0.70771856436E+02  0.77306075507E+02  0.10000000000E+01 0.  0.
    9000005    1    3    3    0    0 -0.34964821385E+01 -0.30892527569E+02  0.40718608976E+02  0.51240401676E+02  0.10000000000E+01 0.  0.
<mgrwt>
<rscale>  0 0.12498400E+03</rscale>
<asrwt>0</asrwt>
<pdfrwt beam="2">  1        4 0.12199979E-01 0.12498400E+03</pdfrwt>
<pdfrwt beam="1">  1       -4 0.75764023E-02 0.12498400E+03</pdfrwt>
<totfact> 0.10379452E+04</totfact>
</mgrwt>
</event>
<event>
 5    1  0.3241863E-002  0.1249984E+03  0.7818608E-02  0.1235072E+00
         -4   -1    0    0    0  501 -0.00000000000E+00  0.00000000000E+00  0.92698460367E+01  0.93564387213E+01  0.12700000000E+01 0.  1.
          4   -1    0    0  501    0  0.00000000000E+00 -0.00000000000E+00 -0.41933617579E+03  0.41933809895E+03  0.12700000000E+01 0.  1.
         25    2    1    2    0    0  0.00000000000E+00  0.00000000000E+00 -0.41006632976E+03  0.42869453767E+03  0.12499844730E+03 0.  0.
    9000005    1    3    3    0    0 -0.31922630651E+01 -0.52068786084E+02 -0.87032835367E+02  0.10147444732E+03  0.10000000000E+01 0.  0.
    9000005    1    3    3    0    0  0.31922630651E+01  0.52068786084E+02 -0.32303349439E+03  0.32722009034E+03  0.10000000000E+01 0.  0.
<mgrwt>
<rscale>  0 0.12499845E+03</rscale>
<asrwt>0</asrwt>
<pdfrwt beam="2">  1        4 0.64520052E-01 0.12499845E+03</pdfrwt>
<pdfrwt beam="1">  1       -4 0.14329394E-02 0.12499845E+03</pdfrwt>
<totfact> 0.61856626E+03</totfact>
</mgrwt>
</event>
<event>
 5    1  0.3241863E-002  0.1249996E+03  0.7818608E-02  0.1235070E+00
          4   -1    0    0  501    0  0.00000000000E+00  0.00000000000E+00  0.68951675125E+02  0.68963370005E+02  0.12700000000E+01 0.  1.
         -4   -1    0    0    0  501 -0.00000000000E+00 -0.00000000000E+00 -0.56628019506E+02  0.56642258899E+02  0.12700000000E+01 0.  1.
         25    2    1    2    0    0  0.00000000000E+00  0.00000000000E+00  0.12323655618E+02  0.12560562890E+03  0.12499960610E+03 0.  0.
    9000005    1    3    3    0    0 -0.70165911433E+01 -0.20675324611E+02  0.64999304744E+02  0.68575587612E+02  0.10000000000E+01 0.  0.
    9000005    1    3    3    0    0  0.70165911433E+01  0.20675324611E+02 -0.52675649126E+02  0.57030041293E+02  0.10000000000E+01 0.  0.
<mgrwt>
<rscale>  0 0.12499961E+03</rscale>
<asrwt>0</asrwt>
<pdfrwt beam="1">  1        4 0.10609945E-01 0.12499961E+03</pdfrwt>
<pdfrwt beam="2">  1       -4 0.87139979E-02 0.12499961E+03</pdfrwt>
<totfact> 0.10439716E+04</totfact>
</mgrwt>
</event>
<event>
 5    1  0.3241863E-002  0.1249927E+03  0.7818608E-02  0.1235081E+00
          4   -1    0    0  501    0  0.00000000000E+00  0.00000000000E+00  0.54821100825E+03  0.54821247931E+03  0.12700000000E+01 0.  1.
         -4   -1    0    0    0  501 -0.00000000000E+00 -0.00000000000E+00 -0.70665315857E+01  0.71797471162E+01  0.12700000000E+01 0.  1.
         25    2    1    2    0    0  0.00000000000E+00  0.00000000000E+00  0.54114447666E+03  0.55539222642E+03  0.12499272197E+03 0.  0.
    9000005    1    3    3    0    0  0.14039545779E+02  0.59338972710E+02  0.20987918132E+03  0.21856004502E+03  0.10000000000E+01 0.  0.
    9000005    1    3    3    0    0 -0.14039545779E+02 -0.59338972710E+02  0.33126529534E+03  0.33683218140E+03  0.10000000000E+01 0.  0.
<mgrwt>
<rscale>  0 0.12499272E+03</rscale>
<asrwt>0</asrwt>
<pdfrwt beam="1">  1        4 0.84348968E-01 0.12499272E+03</pdfrwt>
<pdfrwt beam="2">  1       -4 0.10959809E-02 0.12499272E+03</pdfrwt>
<totfact> 0.51818426E+03</totfact>
</mgrwt>
</event>
<event>
 5    1  0.3241863E-002  0.1249998E+03  0.7818608E-02  0.1235070E+00
         -4   -1    0    0    0  501 -0.00000000000E+00  0.00000000000E+00  0.13247233672E+02  0.13307971293E+02  0.12700000000E+01 0. -1.
          4   -1    0    0  501    0  0.00000000000E+00 -0.00000000000E+00 -0.29413547992E+03  0.29413822167E+03  0.12700000000E+01 0. -1.
         25    2    1    2    0    0  0.00000000000E+00  0.00000000000E+00 -0.28088824625E+03  0.30744619297E+03  0.12499981875E+03 0.  0.
    9000005    1    3    3    0    0 -0.25971798088E+02  0.36948284016E+02 -0.34210815923E+02  0.56666479631E+02  0.10000000000E+01 0.  0.
    9000005    1    3    3    0    0  0.25971798088E+02 -0.36948284016E+02 -0.24667743033E+03  0.25077971334E+03  0.10000000000E+01 0.  0.
<mgrwt>
<rscale>  0 0.12499982E+03</rscale>
<asrwt>0</asrwt>
<pdfrwt beam="2">  1        4 0.45256491E-01 0.12499982E+03</pdfrwt>
<pdfrwt beam="1">  1       -4 0.20429192E-02 0.12499982E+03</pdfrwt>
<totfact> 0.74674498E+03</totfact>
</mgrwt>
</event>
<event>
 5    1  0.3241863E-002  0.1250042E+03  0.7818608E-02  0.1235063E+00
         -4   -1    0    0    0  501 -0.00000000000E+00  0.00000000000E+00  0.16890424592E+03  0.16890902045E+03  0.12700000000E+01 0.  1.
          4   -1    0    0  501    0  0.00000000000E+00 -0.00000000000E+00 -0.23106013138E+02  0.23140888987E+02  0.12700000000E+01 0.  1.
         25    2    1    2    0    0  0.00000000000E+00  0.00000000000E+00  0.14579823278E+03  0.19204990944E+03  0.12500417206E+03 0.  0.
    9000005    1    3    3    0    0  0.30676243588E+02 -0.51118112649E+02  0.10169969595E+03  0.11788944617E+03  0.10000000000E+01 0.  0.
    9000005    1    3    3    0    0 -0.30676243588E+02  0.51118112649E+02  0.44098536825E+02  0.74160463264E+02  0.10000000000E+01 0.  0.
<mgrwt>
<rscale>  0 0.12500417E+03</rscale>
<asrwt>0</asrwt>
<pdfrwt beam="2">  1        4 0.35578212E-02 0.12500417E+03</pdfrwt>
<pdfrwt beam="1">  1       -4 0.25988319E-01 0.12500417E+03</pdfrwt>
<totfact> 0.91483307E+03</totfact>
</mgrwt>
</event>
<event>
 5    1  0.3241863E-002  0.1250010E+03  0.7818608E-02  0.1235068E+00
          4   -1    0    0  501    0  0.00000000000E+00  0.00000000000E+00  0.32379597086E+02  0.32404493631E+02  0.12700000000E+01 0.  1.
         -4   -1    0    0    0  501 -0.00000000000E+00 -0.00000000000E+00 -0.12056662525E+03  0.12057331390E+03  0.12700000000E+01 0.  1.
         25    2    1    2    0    0  0.00000000000E+00  0.00000000000E+00 -0.88187028165E+02  0.15297780753E+03  0.12500103064E+03 0.  0.
    9000005    1    3    3    0    0 -0.12328072252E+02 -0.56812924794E+01  0.30559601875E+02  0.33453665217E+02  0.10000000000E+01 0.  0.
    9000005    1    3    3    0    0  0.12328072252E+02  0.56812924794E+01 -0.11874663004E+03  0.11952414231E+03  0.10000000000E+01 0.  0.
<mgrwt>
<rscale>  0 0.12500103E+03</rscale>
<asrwt>0</asrwt>
<pdfrwt beam="1">  1        4 0.49839062E-02 0.12500103E+03</pdfrwt>
<pdfrwt beam="2">  1       -4 0.18551141E-01 0.12500103E+03</pdfrwt>
<totfact> 0.98711106E+03</totfact>
</mgrwt>
</event>
<event>
 5    1  0.3241863E-002  0.1250010E+03  0.7818608E-02  0.1235068E+00
         -4   -1    0    0    0  501 -0.00000000000E+00  0.00000000000E+00  0.12203493733E+03  0.12204154551E+03  0.12700000000E+01 0. -1.
          4   -1    0    0  501    0  0.00000000000E+00 -0.00000000000E+00 -0.31989722822E+02  0.32014922555E+02  0.12700000000E+01 0. -1.
         25    2    1    2    0    0  0.00000000000E+00  0.00000000000E+00  0.90045214512E+02  0.15405646806E+03  0.12500101878E+03 0.  0.
    9000005    1    3    3    0    0  0.52507775614E+02 -0.12529134834E+02  0.83825304711E+02  0.99708211445E+02  0.10000000000E+01 0.  0.
    9000005    1    3    3    0    0 -0.52507775614E+02  0.12529134834E+02  0.62199098015E+01  0.54348256620E+02  0.10000000000E+01 0.  0.
<mgrwt>
<rscale>  0 0.12500102E+03</rscale>
<asrwt>0</asrwt>
<pdfrwt beam="2">  1        4 0.49239425E-02 0.12500102E+03</pdfrwt>
<pdfrwt beam="1">  1       -4 0.18777053E-01 0.12500102E+03</pdfrwt>
<totfact> 0.98498787E+03</totfact>
</mgrwt>
</event>
<event>
 5    1  0.3241863E-002  0.1249981E+03  0.7818608E-02  0.1235072E+00
          4   -1    0    0  501    0  0.00000000000E+00  0.00000000000E+00  0.20795812348E+03  0.20796200139E+03  0.12700000000E+01 0.  1.
         -4   -1    0    0    0  501 -0.00000000000E+00 -0.00000000000E+00 -0.18757747804E+02  0.18800691548E+02  0.12700000000E+01 0.  1.
         25    2    1    2    0    0  0.00000000000E+00  0.00000000000E+00  0.18920037567E+03  0.22676269293E+03  0.12499814699E+03 0.  0.
    9000005    1    3    3    0    0  0.31707276767E+02  0.13200955345E+02 -0.10908966760E+00  0.34360275356E+02  0.10000000000E+01 0.  0.
    9000005    1    3    3    0    0 -0.31707276767E+02 -0.13200955345E+02  0.18930946534E+03  0.19240241758E+03  0.10000000000E+01 0.  0.
<mgrwt>
<rscale>  0 0.12499815E+03</rscale>
<asrwt>0</asrwt>
<pdfrwt beam="1">  1        4 0.31997161E-01 0.12499815E+03</pdfrwt>
<pdfrwt beam="2">  1       -4 0.28894088E-02 0.12499815E+03</pdfrwt>
<totfact> 0.85812726E+03</totfact>
</mgrwt>
</event>
<event>
 5    1  0.3241863E-002  0.1249817E+03  0.7818608E-02  0.1235098E+00
         -4   -1    0    0    0  501 -0.00000000000E+00  0.00000000000E+00  0.15795867741E+04  0.15795872847E+04  0.12700000000E+01 0. -1.
          4   -1    0    0  501    0  0.00000000000E+00 -0.00000000000E+00 -0.23085855597E+01  0.26348562174E+01  0.12700000000E+01 0. -1.
         25    2    1    2    0    0  0.00000000000E+00  0.00000000000E+00  0.15772781886E+04  0.15822221409E+04  0.12498167462E+03 0.  0.
    9000005    1    3    3    0    0  0.60720656054E+02  0.78343861443E+01  0.63065769266E+03  0.63362331159E+03  0.10000000000E+01 0.  0.
    9000005    1    3    3    0    0 -0.60720656054E+02 -0.78343861443E+01  0.94662049592E+03  0.94859882931E+03  0.10000000000E+01 0.  0.
<mgrwt>
<rscale>  0 0.12498167E+03</rscale>
<asrwt>0</asrwt>
<pdfrwt beam="2">  1        4 0.38030286E-03 0.12498167E+03</pdfrwt>
<pdfrwt beam="1">  1       -4 0.24303923E+00 0.12498167E+03</pdfrwt>
<totfact> 0.16376041E+03</totfact>
</mgrwt>
</event>
<event>
 5    1  0.3241863E-002  0.1250019E+03  0.7818608E-02  0.1235066E+00
         -4   -1    0    0    0  501 -0.00000000000E+00  0.00000000000E+00  0.14012737076E+03  0.14013312577E+03  0.12700000000E+01 0.  1.
          4   -1    0    0  501    0  0.00000000000E+00 -0.00000000000E+00 -0.27856496634E+02  0.27885431765E+02  0.12700000000E+01 0.  1.
         25    2    1    2    0    0  0.00000000000E+00  0.00000000000E+00  0.11227087413E+03  0.16801855753E+03  0.12500194597E+03 0.  0.
    9000005    1    3    3    0    0  0.33535197841E+01 -0.57134247899E+01 -0.27389758766E+02  0.28197308436E+02  0.10000000000E+01 0.  0.
    9000005    1    3    3    0    0 -0.33535197841E+01  0.57134247899E+01  0.13966063290E+03  0.13982124910E+03  0.10000000000E+01 0.  0.
<mgrwt>
<rscale>  0 0.12500195E+03</rscale>
<asrwt>0</asrwt>
<pdfrwt beam="2">  1        4 0.42882833E-02 0.12500195E+03</pdfrwt>
<pdfrwt beam="1">  1       -4 0.21560726E-01 0.12500195E+03</pdfrwt>
<totfact> 0.95814572E+03</totfact>
</mgrwt>
</event>
<event>
 5    1  0.3241863E-002  0.1249411E+03  0.7818608E-02  0.1235161E+00
         -4   -1    0    0    0  501 -0.00000000000E+00  0.00000000000E+00  0.17248009787E+03  0.17248477341E+03  0.12700000000E+01 0.  1.
          4   -1    0    0  501    0  0.00000000000E+00 -0.00000000000E+00 -0.22603381995E+02  0.22639032170E+02  0.12700000000E+01 0.  1.
         25    2    1    2    0    0  0.00000000000E+00  0.00000000000E+00  0.14987671587E+03  0.19512380558E+03  0.12494106429E+03 0.  0.
    9000005    1    3    3    0    0  0.30213607577E+02  0.12381749852E+02  0.15809789026E+03  0.16143764343E+03  0.10000000000E+01 0.  0.
    9000005    1    3    3    0    0 -0.30213607577E+02 -0.12381749852E+02 -0.82211743884E+01  0.33686162153E+02  0.10000000000E+01 0.  0.
<mgrwt>
<rscale>  0 0.12494106E+03</rscale>
<asrwt>0</asrwt>
<pdfrwt beam="2">  1        4 0.34805453E-02 0.12494106E+03</pdfrwt>
<pdfrwt beam="1">  1       -4 0.26538502E-01 0.12494106E+03</pdfrwt>
<totfact> 0.91083482E+03</totfact>
</mgrwt>
</event>
<event>
 5    1  0.3241863E-002  0.1250033E+03  0.7818608E-02  0.1235064E+00
          4   -1    0    0  501    0  0.00000000000E+00  0.00000000000E+00  0.33259287129E+02  0.33283525660E+02  0.12700000000E+01 0.  1.
         -4   -1    0    0    0  501 -0.00000000000E+00 -0.00000000000E+00 -0.11738408477E+03  0.11739095475E+03  0.12700000000E+01 0.  1.
         25    2    1    2    0    0  0.00000000000E+00  0.00000000000E+00 -0.84124797641E+02  0.15067448041E+03  0.12500326983E+03 0.  0.
    9000005    1    3    3    0    0  0.30689351039E+02 -0.54405994356E+02 -0.39773514474E+02  0.74059306928E+02  0.10000000000E+01 0.  0.
    9000005    1    3    3    0    0 -0.30689351039E+02  0.54405994356E+02 -0.44351283167E+02  0.76615173482E+02  0.10000000000E+01 0.  0.
<mgrwt>
<rscale>  0 0.12500327E+03</rscale>
<asrwt>0</asrwt>
<pdfrwt beam="1">  1        4 0.51192064E-02 0.12500327E+03</pdfrwt>
<pdfrwt beam="2">  1       -4 0.18061483E-01 0.12500327E+03</pdfrwt>
<totfact> 0.99162123E+03</totfact>
</mgrwt>
</event>
<event>
 5    1  0.3241863E-002  0.1249967E+03  0.7818608E-02  0.1235074E+00
          4   -1    0    0  501    0  0.00000000000E+00  0.00000000000E+00  0.35822282831E+02  0.35844788285E+02  0.12700000000E+01 0. -1.
         -4   -1    0    0    0  501 -0.00000000000E+00 -0.00000000000E+00 -0.10897899645E+03  0.10898639625E+03  0.12700000000E+01 0. -1.
         25    2    1    2    0    0  0.00000000000E+00  0.00000000000E+00 -0.73156713618E+02  0.14483118453E+03  0.12499666902E+03 0.  0.
    9000005    1    3    3    0    0  0.54078342925E+02  0.27426158893E+02 -0.54088637433E+02  0.81260335124E+02  0.10000000000E+01 0.  0.
    9000005    1    3    3    0    0 -0.54078342925E+02 -0.27426158893E+02 -0.19068076185E+02  0.63570849409E+02  0.10000000000E+01 0.  0.
<mgrwt>
<rscale>  0 0.12499667E+03</rscale>
<asrwt>0</asrwt>
<pdfrwt beam="1">  1        4 0.55134209E-02 0.12499667E+03</pdfrwt>
<pdfrwt beam="2">  1       -4 0.16768300E-01 0.12499667E+03</pdfrwt>
<totfact> 0.10035172E+04</totfact>
</mgrwt>
</event>
<event>
 5    1  0.3241863E-002  0.1250029E+03  0.7818608E-02  0.1235065E+00
         -4   -1    0    0    0  501 -0.00000000000E+00  0.00000000000E+00  0.33163173339E+02  0.33187482066E+02  0.12700000000E+01 0.  1.
          4   -1    0    0  501    0  0.00000000000E+00 -0.00000000000E+00 -0.11772341432E+03  0.11773026450E+03  0.12700000000E+01 0.  1.
         25    2    1    2    0    0  0.00000000000E+00  0.00000000000E+00 -0.84560240979E+02  0.15091774656E+03  0.12500292746E+03 0.  0.
    9000005    1    3    3    0    0 -0.45544146416E+02  0.20820724433E+02 -0.87415912916E+02  0.10074876510E+03  0.10000000000E+01 0.  0.
    9000005    1    3    3    0    0  0.45544146416E+02 -0.20820724433E+02  0.28556719375E+01  0.50168981461E+02  0.10000000000E+01 0.  0.
<mgrwt>
<rscale>  0 0.12500293E+03</rscale>
<asrwt>0</asrwt>
<pdfrwt beam="2">  1        4 0.18113691E-01 0.12500293E+03</pdfrwt>
<pdfrwt beam="1">  1       -4 0.51044236E-02 0.12500293E+03</pdfrwt>
<totfact> 0.99114543E+03</totfact>
</mgrwt>
</event>
<event>
 5    1  0.3241863E-002  0.1249983E+03  0.7818608E-02  0.1235072E+00
         -4   -1    0    0    0  501 -0.00000000000E+00  0.00000000000E+00  0.39596008815E+03  0.39596212484E+03  0.12700000000E+01 0.  1.
          4   -1    0    0  501    0  0.00000000000E+00 -0.00000000000E+00 -0.98220492984E+01  0.99038150437E+01  0.12700000000E+01 0.  1.
         25    2    1    2    0    0  0.00000000000E+00  0.00000000000E+00  0.38613803885E+03  0.40586593988E+03  0.12499830443E+03 0.  0.
    9000005    1    3    3    0    0 -0.25706566152E+02  0.80706223704E+01  0.99910238185E+01  0.28753835322E+02  0.10000000000E+01 0.  0.
    9000005    1    3    3    0    0  0.25706566152E+02 -0.80706223704E+01  0.37614701503E+03  0.37711210456E+03  0.10000000000E+01 0.  0.
<mgrwt>
<rscale>  0 0.12499830E+03</rscale>
<asrwt>0</asrwt>
<pdfrwt beam="2">  1        4 0.15175312E-02 0.12499830E+03</pdfrwt>
<pdfrwt beam="1">  1       -4 0.60923369E-01 0.12499830E+03</pdfrwt>
<totfact> 0.63988647E+03</totfact>
</mgrwt>
</event>
<event>
 4    1  0.3241863E-002  0.1248763E+03  0.7818608E-02  0.1235263E+00
         -4   -1    0    0    0  501 -0.00000000000E+00  0.00000000000E+00  0.15967244652E+02  0.16017671546E+02  0.12700000000E+01 0.  1.
          4   -1    0    0  501    0  0.00000000000E+00 -0.00000000000E+00 -0.24372034244E+03  0.24372365133E+03  0.12700000000E+01 0.  1.
    9000005    1    1    2    0    0  0.20284488590E+02  0.14576642385E+02  0.51305092253E+01  0.25519817897E+02  0.10000000000E+01 0.  0.
    9000005    1    1    2    0    0 -0.20284488590E+02 -0.14576642385E+02 -0.23288360701E+03  0.23422150498E+03  0.10000000000E+01 0.  0.
<mgrwt>
<rscale>  0 0.12487626E+03</rscale>
<asrwt>0</asrwt>
<pdfrwt beam="2">  1        4 0.37499568E-01 0.12487626E+03</pdfrwt>
<pdfrwt beam="1">  1       -4 0.24606329E-02 0.12487626E+03</pdfrwt>
<totfact> 0.81165730E+03</totfact>
</mgrwt>
</event>
<event>
 5    1  0.3241863E-002  0.1250144E+03  0.7818608E-02  0.1235047E+00
          4   -1    0    0  501    0  0.00000000000E+00  0.00000000000E+00  0.35728682725E+03  0.35728908439E+03  0.12700000000E+01 0.  1.
         -4   -1    0    0    0  501 -0.00000000000E+00 -0.00000000000E+00 -0.10896433633E+02  0.10970194434E+02  0.12700000000E+01 0.  1.
         25    2    1    2    0    0  0.00000000000E+00  0.00000000000E+00  0.34639039361E+03  0.36825927882E+03  0.12501436578E+03 0.  0.
    9000005    1    3    3    0    0  0.35015667981E+02  0.28592640716E+01  0.32546082782E+03  0.32735305534E+03  0.10000000000E+01 0.  0.
    9000005    1    3    3    0    0 -0.35015667981E+02 -0.28592640716E+01  0.20929565789E+02  0.40906223479E+02  0.10000000000E+01 0.  0.
<mgrwt>
<rscale>  0 0.12501437E+03</rscale>
<asrwt>0</asrwt>
<pdfrwt beam="1">  1        4 0.54973043E-01 0.12501437E+03</pdfrwt>
<pdfrwt beam="2">  1       -4 0.16822222E-02 0.12501437E+03</pdfrwt>
<totfact> 0.67739928E+03</totfact>
</mgrwt>
</event>
<event>
 5    1  0.3241863E-002  0.1250026E+03  0.7818608E-02  0.1235065E+00
         -4   -1    0    0    0  501 -0.00000000000E+00  0.00000000000E+00  0.19515085717E+02  0.19556366496E+02  0.12700000000E+01 0.  1.
          4   -1    0    0  501    0  0.00000000000E+00 -0.00000000000E+00 -0.19991927149E+03  0.19992330533E+03  0.12700000000E+01 0.  1.
         25    2    1    2    0    0  0.00000000000E+00  0.00000000000E+00 -0.18040418577E+03  0.21947967182E+03  0.12500262437E+03 0.  0.
    9000005    1    3    3    0    0 -0.42931056328E+02 -0.44154589687E+02 -0.10884259572E+03  0.12506164092E+03  0.10000000000E+01 0.  0.
    9000005    1    3    3    0    0  0.42931056328E+02  0.44154589687E+02 -0.71561590055E+02  0.94418030900E+02  0.10000000000E+01 0.  0.
<mgrwt>
<rscale>  0 0.12500262E+03</rscale>
<asrwt>0</asrwt>
<pdfrwt beam="2">  1        4 0.30760295E-01 0.12500262E+03</pdfrwt>
<pdfrwt beam="1">  1       -4 0.30058067E-02 0.12500262E+03</pdfrwt>
<totfact> 0.86945655E+03</totfact>
</mgrwt>
</event>
<event>
 5    1  0.3241863E-002  0.1249991E+03  0.7818608E-02  0.1235071E+00
         -4   -1    0    0    0  501 -0.00000000000E+00  0.00000000000E+00  0.63241922193E+03  0.63242049711E+03  0.12700000000E+01 0.  1.
          4   -1    0    0  501    0  0.00000000000E+00 -0.00000000000E+00 -0.61100133311E+01  0.62406059727E+01  0.12700000000E+01 0.  1.
         25    2    1    2    0    0  0.00000000000E+00  0.00000000000E+00  0.62630920860E+03  0.63866110308E+03  0.12499911926E+03 0.  0.
    9000005    1    3    3    0    0  0.28606302697E+02 -0.39944024404E+02  0.11584273854E+03  0.12583475559E+03  0.10000000000E+01 0.  0.
    9000005    1    3    3    0    0 -0.28606302697E+02  0.39944024404E+02  0.51046647005E+03  0.51282634750E+03  0.10000000000E+01 0.  0.
<mgrwt>
<rscale>  0 0.12499912E+03</rscale>
<asrwt>0</asrwt>
<pdfrwt beam="2">  1        4 0.95014618E-03 0.12499912E+03</pdfrwt>
<pdfrwt beam="1">  1       -4 0.97305362E-01 0.12499912E+03</pdfrwt>
<totfact> 0.46515618E+03</totfact>
</mgrwt>
</event>
<event>
 5    1  0.3241863E-002  0.1249727E+03  0.7818608E-02  0.1235112E+00
          4   -1    0    0  501    0  0.00000000000E+00  0.00000000000E+00  0.21536250727E+03  0.21536625185E+03  0.12700000000E+01 0.  1.
         -4   -1    0    0    0  501 -0.00000000000E+00 -0.00000000000E+00 -0.18103959721E+02  0.18148450556E+02  0.12700000000E+01 0.  1.
         25    2    1    2    0    0  0.00000000000E+00  0.00000000000E+00  0.19725854754E+03  0.23351470241E+03  0.12497272366E+03 0.  0.
    9000005    1    3    3    0    0 -0.41220654078E+02 -0.16273616636E+02  0.18092020991E+03  0.18627156324E+03  0.10000000000E+01 0.  0.
    9000005    1    3    3    0    0  0.41220654078E+02  0.16273616636E+02  0.16338337638E+02  0.47243139161E+02  0.10000000000E+01 0.  0.
<mgrwt>
<rscale>  0 0.12497272E+03</rscale>
<asrwt>0</asrwt>
<pdfrwt beam="1">  1        4 0.33136401E-01 0.12497272E+03</pdfrwt>
<pdfrwt beam="2">  1       -4 0.27889352E-02 0.12497272E+03</pdfrwt>
<totfact> 0.84824415E+03</totfact>
</mgrwt>
</event>
<event>
 5    1  0.3241863E-002  0.1249991E+03  0.7818608E-02  0.1235071E+00
          4   -1    0    0  501    0  0.00000000000E+00  0.00000000000E+00  0.11794306459E+02  0.11862485610E+02  0.12700000000E+01 0. -1.
         -4   -1    0    0    0  501 -0.00000000000E+00 -0.00000000000E+00 -0.33016924566E+03  0.33017168819E+03  0.12700000000E+01 0. -1.
         25    2    1    2    0    0  0.00000000000E+00  0.00000000000E+00 -0.31837493920E+03  0.34203417380E+03  0.12499909653E+03 0.  0.
    9000005    1    3    3    0    0 -0.58423604734E+02  0.16559563755E+02 -0.11881840024E+03  0.13344043232E+03  0.10000000000E+01 0.  0.
    9000005    1    3    3    0    0  0.58423604734E+02 -0.16559563755E+02 -0.19955653896E+03  0.20859374148E+03  0.10000000000E+01 0.  0.
<mgrwt>
<rscale>  0 0.12499910E+03</rscale>
<asrwt>0</asrwt>
<pdfrwt beam="1">  1        4 0.18199414E-02 0.12499910E+03</pdfrwt>
<pdfrwt beam="2">  1       -4 0.50800694E-01 0.12499910E+03</pdfrwt>
<totfact> 0.70611292E+03</totfact>
</mgrwt>
</event>
<event>
 5    1  0.3241863E-002  0.1249987E+03  0.7818608E-02  0.1235071E+00
          4   -1    0    0  501    0  0.00000000000E+00  0.00000000000E+00  0.28661531513E+02  0.28689654732E+02  0.12700000000E+01 0.  1.
         -4   -1    0    0    0  501 -0.00000000000E+00 -0.00000000000E+00 -0.13618822010E+03  0.13619414156E+03  0.12700000000E+01 0.  1.
         25    2    1    2    0    0  0.00000000000E+00  0.00000000000E+00 -0.10752668859E+03  0.16488379629E+03  0.12499871007E+03 0.  0.
    9000005    1    3    3    0    0  0.25307624952E+02 -0.20912545705E+02 -0.12390288529E+03  0.12818243028E+03  0.10000000000E+01 0.  0.
    9000005    1    3    3    0    0 -0.25307624952E+02  0.20912545705E+02  0.16376196704E+02  0.36701366010E+02  0.10000000000E+01 0.  0.
<mgrwt>
<rscale>  0 0.12499871E+03</rscale>
<asrwt>0</asrwt>
<pdfrwt beam="1">  1        4 0.44120853E-02 0.12499871E+03</pdfrwt>
<pdfrwt beam="2">  1       -4 0.20954652E-01 0.12499871E+03</pdfrwt>
<totfact> 0.96412198E+03</totfact>
</mgrwt>
</event>
<event>
 5    1  0.3241863E-002  0.1249973E+03  0.7818608E-02  0.1235074E+00
         -4   -1    0    0    0  501 -0.00000000000E+00  0.00000000000E+00  0.66027169163E+02  0.66039381945E+02  0.12700000000E+01 0.  1.
          4   -1    0    0  501    0  0.00000000000E+00 -0.00000000000E+00 -0.59134165706E+02  0.59147801766E+02  0.12700000000E+01 0.  1.
         25    2    1    2    0    0  0.00000000000E+00  0.00000000000E+00  0.68930034569E+01  0.12518718371E+03  0.12499726985E+03 0.  0.
    9000005    1    3    3    0    0 -0.33623243361E+02 -0.52360485723E+02 -0.23012428215E+01  0.62277111990E+02  0.10000000000E+01 0.  0.
    9000005    1    3    3    0    0  0.33623243361E+02  0.52360485723E+02  0.91942462784E+01  0.62910071721E+02  0.10000000000E+01 0.  0.
<mgrwt>
<rscale>  0 0.12499727E+03</rscale>
<asrwt>0</asrwt>
<pdfrwt beam="2">  1        4 0.90995523E-02 0.12499727E+03</pdfrwt>
<pdfrwt beam="1">  1       -4 0.10160014E-01 0.12499727E+03</pdfrwt>
<totfact> 0.10449443E+04</totfact>
</mgrwt>
</event>
<event>
 5    1  0.3241863E-002  0.1249991E+03  0.7818608E-02  0.1235071E+00
          4   -1    0    0  501    0  0.00000000000E+00  0.00000000000E+00  0.46067739578E+02  0.46085241996E+02  0.12700000000E+01 0. -1.
         -4   -1    0    0    0  501 -0.00000000000E+00 -0.00000000000E+00 -0.84754076638E+02  0.84763591280E+02  0.12700000000E+01 0. -1.
         25    2    1    2    0    0  0.00000000000E+00  0.00000000000E+00 -0.38686337060E+02  0.13084883328E+03  0.12499913798E+03 0.  0.
    9000005    1    3    3    0    0 -0.21308426822E+02 -0.25676197509E+01 -0.80780077958E+02  0.83588651859E+02  0.10000000000E+01 0.  0.
    9000005    1    3    3    0    0  0.21308426822E+02  0.25676197509E+01  0.42093740898E+02  0.47260181417E+02  0.10000000000E+01 0.  0.
<mgrwt>
<rscale>  0 0.12499914E+03</rscale>
<asrwt>0</asrwt>
<pdfrwt beam="1">  1        4 0.70894228E-02 0.12499914E+03</pdfrwt>
<pdfrwt beam="2">  1       -4 0.13041167E-01 0.12499914E+03</pdfrwt>
<totfact> 0.10326532E+04</totfact>
</mgrwt>
</event>
<event>
 5    1  0.3241863E-002  0.1249994E+03  0.7818608E-02  0.1235070E+00
          4   -1    0    0  501    0  0.00000000000E+00  0.00000000000E+00  0.52504710699E+02  0.52520068027E+02  0.12700000000E+01 0.  1.
         -4   -1    0    0    0  501 -0.00000000000E+00 -0.00000000000E+00 -0.74365751028E+02  0.74376594611E+02  0.12700000000E+01 0.  1.
         25    2    1    2    0    0  0.00000000000E+00  0.00000000000E+00 -0.21861040329E+02  0.12689666264E+03  0.12499943162E+03 0.  0.
    9000005    1    3    3    0    0 -0.38243348045E+02 -0.46303956116E+02 -0.28472972418E+02  0.66470445914E+02  0.10000000000E+01 0.  0.
    9000005    1    3    3    0    0  0.38243348045E+02  0.46303956116E+02  0.66119320890E+01  0.60426216725E+02  0.10000000000E+01 0.  0.
<mgrwt>
<rscale>  0 0.12499943E+03</rscale>
<asrwt>0</asrwt>
<pdfrwt beam="1">  1        4 0.80796632E-02 0.12499943E+03</pdfrwt>
<pdfrwt beam="2">  1       -4 0.11442900E-01 0.12499943E+03</pdfrwt>
<totfact> 0.10411525E+04</totfact>
</mgrwt>
</event>
<event>
 5    1  0.3241863E-002  0.1250040E+03  0.7818608E-02  0.1235063E+00
          4   -1    0    0  501    0  0.00000000000E+00  0.00000000000E+00  0.77851212862E+02  0.77861571035E+02  0.12700000000E+01 0.  1.
         -4   -1    0    0    0  501 -0.00000000000E+00 -0.00000000000E+00 -0.50157337692E+02  0.50173413521E+02  0.12700000000E+01 0.  1.
         25    2    1    2    0    0  0.00000000000E+00  0.00000000000E+00  0.27693875170E+02  0.12803498456E+03  0.12500402613E+03 0.  0.
    9000005    1    3    3    0    0  0.39861757615E+02 -0.15477539100E+02 -0.32832070065E+02  0.53920856461E+02  0.10000000000E+01 0.  0.
    9000005    1    3    3    0    0 -0.39861757615E+02  0.15477539100E+02  0.60525945235E+02  0.74114128095E+02  0.10000000000E+01 0.  0.
<mgrwt>
<rscale>  0 0.12500403E+03</rscale>
<asrwt>0</asrwt>
<pdfrwt beam="1">  1        4 0.11979143E-01 0.12500403E+03</pdfrwt>
<pdfrwt beam="2">  1       -4 0.77185469E-02 0.12500403E+03</pdfrwt>
<totfact> 0.10385788E+04</totfact>
</mgrwt>
</event>
<event>
 5    1  0.3241863E-002  0.1250003E+03  0.7818608E-02  0.1235069E+00
          4   -1    0    0  501    0  0.00000000000E+00  0.00000000000E+00  0.15823589550E+02  0.15874472786E+02  0.12700000000E+01 0.  1.
         -4   -1    0    0    0  501 -0.00000000000E+00 -0.00000000000E+00 -0.24641485497E+03  0.24641812768E+03  0.12700000000E+01 0.  1.
         25    2    1    2    0    0  0.00000000000E+00  0.00000000000E+00 -0.23059126542E+03  0.26229260047E+03  0.12500030629E+03 0.  0.
    9000005    1    3    3    0    0  0.74206294620E+01 -0.55245058614E+01 -0.24498030116E+03  0.24515695761E+03  0.10000000000E+01 0.  0.
    9000005    1    3    3    0    0 -0.74206294620E+01  0.55245058614E+01  0.14389035741E+02  0.17135642859E+02  0.10000000000E+01 0.  0.
<mgrwt>
<rscale>  0 0.12500031E+03</rscale>
<asrwt>0</asrwt>
<pdfrwt beam="1">  1        4 0.24385644E-02 0.12500031E+03</pdfrwt>
<pdfrwt beam="2">  1       -4 0.37914141E-01 0.12500031E+03</pdfrwt>
<totfact> 0.80584852E+03</totfact>
</mgrwt>
</event>
<event>
 5    1  0.3241863E-002  0.1250003E+03  0.7818608E-02  0.1235069E+00
         -4   -1    0    0    0  501 -0.00000000000E+00  0.00000000000E+00  0.47193397048E+02  0.47210482151E+02  0.12700000000E+01 0.  1.
          4   -1    0    0  501    0  0.00000000000E+00 -0.00000000000E+00 -0.82734553890E+02  0.82744300755E+02  0.12700000000E+01 0.  1.
         25    2    1    2    0    0  0.00000000000E+00  0.00000000000E+00 -0.35541156842E+02  0.12995478291E+03  0.12500028708E+03 0.  0.
    9000005    1    3    3    0    0  0.15352142487E+02  0.57137765923E+02  0.31479538391E+01  0.59256410514E+02  0.10000000000E+01 0.  0.
    9000005    1    3    3    0    0 -0.15352142487E+02 -0.57137765923E+02 -0.38689110681E+02  0.70698372392E+02  0.10000000000E+01 0.  0.
<mgrwt>
<rscale>  0 0.12500029E+03</rscale>
<asrwt>0</asrwt>
<pdfrwt beam="2">  1        4 0.12730457E-01 0.12500029E+03</pdfrwt>
<pdfrwt beam="1">  1       -4 0.72625866E-02 0.12500029E+03</pdfrwt>
<totfact> 0.10345408E+04</totfact>
</mgrwt>
</event>
<event>
 5    1  0.3241863E-002  0.1249988E+03  0.7818608E-02  0.1235071E+00
         -4   -1    0    0    0  501 -0.00000000000E+00  0.00000000000E+00  0.22672268205E+03  0.22672623901E+03  0.12700000000E+01 0.  1.
          4   -1    0    0  501    0  0.00000000000E+00 -0.00000000000E+00 -0.17201752825E+02  0.17248570963E+02  0.12700000000E+01 0.  1.
         25    2    1    2    0    0  0.00000000000E+00  0.00000000000E+00  0.20952092922E+03  0.24397480997E+03  0.12499875247E+03 0.  0.
    9000005    1    3    3    0    0 -0.31474688659E+02 -0.88629304107E+01  0.20870213753E+03  0.21125053791E+03  0.10000000000E+01 0.  0.
    9000005    1    3    3    0    0  0.31474688659E+02  0.88629304107E+01  0.81879169573E+00  0.32724272054E+02  0.10000000000E+01 0.  0.
<mgrwt>
<rscale>  0 0.12499875E+03</rscale>
<asrwt>0</asrwt>
<pdfrwt beam="2">  1        4 0.26502987E-02 0.12499875E+03</pdfrwt>
<pdfrwt beam="1">  1       -4 0.34884286E-01 0.12499875E+03</pdfrwt>
<totfact> 0.83211243E+03</totfact>
</mgrwt>
</event>
<event>
 5    1  0.3241863E-002  0.1249982E+03  0.7818608E-02  0.1235072E+00
          4   -1    0    0  501    0  0.00000000000E+00  0.00000000000E+00  0.43014510025E+02  0.43033254265E+02  0.12700000000E+01 0. -1.
         -4   -1    0    0    0  501 -0.00000000000E+00 -0.00000000000E+00 -0.90766810060E+02  0.90775694481E+02  0.12700000000E+01 0. -1.
         25    2    1    2    0    0  0.00000000000E+00  0.00000000000E+00 -0.47752300035E+02  0.13380894875E+03  0.12499821041E+03 0.  0.
    9000005    1    3    3    0    0 -0.33489617166E+02 -0.52712220695E+02 -0.26271143627E+02  0.67759173961E+02  0.10000000000E+01 0.  0.
    9000005    1    3    3    0    0  0.33489617166E+02  0.52712220695E+02 -0.21481156408E+02  0.66049774785E+02  0.10000000000E+01 0.  0.
<mgrwt>
<rscale>  0 0.12499821E+03</rscale>
<asrwt>0</asrwt>
<pdfrwt beam="1">  1        4 0.66197422E-02 0.12499821E+03</pdfrwt>
<pdfrwt beam="2">  1       -4 0.13966250E-01 0.12499821E+03</pdfrwt>
<totfact> 0.10263651E+04</totfact>
</mgrwt>
</event>
<event>
 5    1  0.3241863E-002  0.1250010E+03  0.7818608E-02  0.1235068E+00
          4   -1    0    0  501    0  0.00000000000E+00  0.00000000000E+00  0.80730020233E+01  0.81722861959E+01  0.12700000000E+01 0.  1.
         -4   -1    0    0    0  501 -0.00000000000E+00 -0.00000000000E+00 -0.48081662346E+03  0.48081830071E+03  0.12700000000E+01 0.  1.
         25    2    1    2    0    0  0.00000000000E+00  0.00000000000E+00 -0.47274362144E+03  0.48899058691E+03  0.12500104988E+03 0.  0.
    9000005    1    3    3    0    0  0.28351979444E+02 -0.74634853192E+01 -0.20480129295E+02  0.35776724941E+02  0.10000000000E+01 0.  0.
    9000005    1    3    3    0    0 -0.28351979444E+02  0.74634853192E+01 -0.45226349214E+03  0.45321386197E+03  0.10000000000E+01 0.  0.
<mgrwt>
<rscale>  0 0.12500105E+03</rscale>
<asrwt>0</asrwt>
<pdfrwt beam="1">  1        4 0.12497669E-02 0.12500105E+03</pdfrwt>
<pdfrwt beam="2">  1       -4 0.73979532E-01 0.12500105E+03</pdfrwt>
<totfact> 0.56727494E+03</totfact>
</mgrwt>
</event>
<event>
 5    1  0.3241863E-002  0.1250044E+03  0.7818608E-02  0.1235062E+00
          4   -1    0    0  501    0  0.00000000000E+00  0.00000000000E+00  0.60604572912E+02  0.60617878203E+02  0.12700000000E+01 0.  1.
         -4   -1    0    0    0  501 -0.00000000000E+00 -0.00000000000E+00 -0.64432584790E+02  0.64445099757E+02  0.12700000000E+01 0.  1.
         25    2    1    2    0    0  0.00000000000E+00  0.00000000000E+00 -0.38280118782E+01  0.12506297796E+03  0.12500437905E+03 0.  0.
    9000005    1    3    3    0    0 -0.13410139134E+02  0.19570139089E+02  0.55929197666E+02  0.60760985238E+02  0.10000000000E+01 0.  0.
    9000005    1    3    3    0    0  0.13410139134E+02 -0.19570139089E+02 -0.59757209544E+02  0.64301992722E+02  0.10000000000E+01 0.  0.
<mgrwt>
<rscale>  0 0.12500438E+03</rscale>
<asrwt>0</asrwt>
<pdfrwt beam="1">  1        4 0.93257666E-02 0.12500438E+03</pdfrwt>
<pdfrwt beam="2">  1       -4 0.99146916E-02 0.12500438E+03</pdfrwt>
<totfact> 0.10450461E+04</totfact>
</mgrwt>
</event>
<event>
 5    1  0.3241863E-002  0.1250016E+03  0.7818608E-02  0.1235067E+00
          4   -1    0    0  501    0  0.00000000000E+00  0.00000000000E+00  0.28731004839E+02  0.28759060122E+02  0.12700000000E+01 0.  1.
         -4   -1    0    0    0  501 -0.00000000000E+00 -0.00000000000E+00 -0.13586551492E+03  0.13587145044E+03  0.12700000000E+01 0.  1.
         25    2    1    2    0    0  0.00000000000E+00  0.00000000000E+00 -0.10713451008E+03  0.16463051056E+03  0.12500160702E+03 0.  0.
    9000005    1    3    3    0    0 -0.61194564040E+02 -0.12045828995E+02 -0.48386502261E+02  0.78943842479E+02  0.10000000000E+01 0.  0.
    9000005    1    3    3    0    0  0.61194564040E+02  0.12045828995E+02 -0.58748007817E+02  0.85686668080E+02  0.10000000000E+01 0.  0.
<mgrwt>
<rscale>  0 0.12500161E+03</rscale>
<asrwt>0</asrwt>
<pdfrwt beam="1">  1        4 0.44227694E-02 0.12500161E+03</pdfrwt>
<pdfrwt beam="2">  1       -4 0.20905001E-01 0.12500161E+03</pdfrwt>
<totfact> 0.96453931E+03</totfact>
</mgrwt>
</event>
<event>
 5    1  0.3241863E-002  0.1249991E+03  0.7818608E-02  0.1235071E+00
          4   -1    0    0  501    0  0.00000000000E+00  0.00000000000E+00  0.41651441550E+03  0.41651635168E+03  0.12700000000E+01 0. -1.
         -4   -1    0    0    0  501 -0.00000000000E+00 -0.00000000000E+00 -0.93333218188E+01  0.94193309833E+01  0.12700000000E+01 0. -1.
         25    2    1    2    0    0  0.00000000000E+00  0.00000000000E+00  0.40718109368E+03  0.42593568267E+03  0.12499905086E+03 0.  0.
    9000005    1    3    3    0    0 -0.33790878993E+02  0.45641768550E+02  0.11472070841E+03  0.12801107560E+03  0.10000000000E+01 0.  0.
    9000005    1    3    3    0    0  0.33790878993E+02 -0.45641768550E+02  0.29246038527E+03  0.29792460706E+03  0.10000000000E+01 0.  0.
<mgrwt>
<rscale>  0 0.12499905E+03</rscale>
<asrwt>0</asrwt>
<pdfrwt beam="1">  1        4 0.64085886E-01 0.12499905E+03</pdfrwt>
<pdfrwt beam="2">  1       -4 0.14426611E-02 0.12499905E+03</pdfrwt>
<totfact> 0.62107442E+03</totfact>
</mgrwt>
</event>
<event>
 5    1  0.3241863E-002  0.1250033E+03  0.7818608E-02  0.1235064E+00
          4   -1    0    0  501    0  0.00000000000E+00  0.00000000000E+00  0.27974286247E+03  0.27974574528E+03  0.12700000000E+01 0. -1.
         -4   -1    0    0    0  501 -0.00000000000E+00 -0.00000000000E+00 -0.13932612708E+02  0.13990375151E+02  0.12700000000E+01 0. -1.
         25    2    1    2    0    0  0.00000000000E+00  0.00000000000E+00  0.26581024976E+03  0.29373612043E+03  0.12500327823E+03 0.  0.
    9000005    1    3    3    0    0 -0.24287620100E+01 -0.26926066309E+00 -0.13831827822E+02  0.14081578288E+02  0.10000000000E+01 0.  0.
    9000005    1    3    3    0    0  0.24287620100E+01  0.26926066309E+00  0.27964207758E+03  0.27965454214E+03  0.10000000000E+01 0.  0.
<mgrwt>
<rscale>  0 0.12500328E+03</rscale>
<asrwt>0</asrwt>
<pdfrwt beam="1">  1        4 0.43042027E-01 0.12500328E+03</pdfrwt>
<pdfrwt beam="2">  1       -4 0.21481440E-02 0.12500328E+03</pdfrwt>
<totfact> 0.76385785E+03</totfact>
</mgrwt>
</event>
<event>
 5    1  0.3241863E-002  0.1250008E+03  0.7818608E-02  0.1235068E+00
         -4   -1    0    0    0  501 -0.00000000000E+00  0.00000000000E+00  0.10810960459E+03  0.10811706389E+03  0.12700000000E+01 0. -1.
          4   -1    0    0  501    0  0.00000000000E+00 -0.00000000000E+00 -0.36112906306E+02  0.36135230757E+02  0.12700000000E+01 0. -1.
         25    2    1    2    0    0  0.00000000000E+00  0.00000000000E+00  0.71996698281E+02  0.14425229465E+03  0.12500079979E+03 0.  0.
    9000005    1    3    3    0    0 -0.45024711103E+02 -0.31393013504E+02  0.70475169685E+02  0.89333618805E+02  0.10000000000E+01 0.  0.
    9000005    1    3    3    0    0  0.45024711103E+02  0.31393013504E+02  0.15215285961E+01  0.54918675840E+02  0.10000000000E+01 0.  0.
<mgrwt>
<rscale>  0 0.12500080E+03</rscale>
<asrwt>0</asrwt>
<pdfrwt beam="2">  1        4 0.55581230E-02 0.12500080E+03</pdfrwt>
<pdfrwt beam="1">  1       -4 0.16634537E-01 0.12500080E+03</pdfrwt>
<totfact> 0.10046021E+04</totfact>
</mgrwt>
</event>
<event>
 5    1  0.3241863E-002  0.1249978E+03  0.7818608E-02  0.1235073E+00
          4   -1    0    0  501    0  0.00000000000E+00  0.00000000000E+00  0.15258383946E+02  0.15311145635E+02  0.12700000000E+01 0. -1.
         -4   -1    0    0    0  501 -0.00000000000E+00 -0.00000000000E+00 -0.25550160255E+03  0.25550475887E+03  0.12700000000E+01 0. -1.
         25    2    1    2    0    0  0.00000000000E+00  0.00000000000E+00 -0.24024321861E+03  0.27081590451E+03  0.12499780017E+03 0.  0.
    9000005    1    3    3    0    0 -0.58211834114E+01  0.61006883159E+01  0.14030745380E+02  0.16400194821E+02  0.10000000000E+01 0.  0.
    9000005    1    3    3    0    0  0.58211834114E+01 -0.61006883159E+01 -0.25427396399E+03  0.25441570969E+03  0.10000000000E+01 0.  0.
<mgrwt>
<rscale>  0 0.12499780E+03</rscale>
<asrwt>0</asrwt>
<pdfrwt beam="1">  1        4 0.23517453E-02 0.12499780E+03</pdfrwt>
<pdfrwt beam="2">  1       -4 0.39312237E-01 0.12499780E+03</pdfrwt>
<totfact> 0.79415648E+03</totfact>
</mgrwt>
</event>
<event>
 5    1  0.3241863E-002  0.1250009E+03  0.7818608E-02  0.1235068E+00
         -4   -1    0    0    0  501 -0.00000000000E+00  0.00000000000E+00  0.10220952504E+02  0.10299551936E+02  0.12700000000E+01 0.  1.
          4   -1    0    0  501    0  0.00000000000E+00 -0.00000000000E+00 -0.38064231430E+03  0.38064443295E+03  0.12700000000E+01 0.  1.
         25    2    1    2    0    0  0.00000000000E+00  0.00000000000E+00 -0.37042136180E+03  0.39094398489E+03  0.12500085617E+03 0.  0.
    9000005    1    3    3    0    0 -0.10531402596E+02  0.59208323794E+02 -0.13206405756E+03  0.14511530362E+03  0.10000000000E+01 0.  0.
    9000005    1    3    3    0    0  0.10531402596E+02 -0.59208323794E+02 -0.23835730424E+03  0.24582868126E+03  0.10000000000E+01 0.  0.
<mgrwt>
<rscale>  0 0.12500086E+03</rscale>
<asrwt>0</asrwt>
<pdfrwt beam="2">  1        4 0.58566554E-01 0.12500086E+03</pdfrwt>
<pdfrwt beam="1">  1       -4 0.15786636E-02 0.12500086E+03</pdfrwt>
<totfact> 0.65441968E+03</totfact>
</mgrwt>
</event>
<event>
 5    1  0.3241863E-002  0.1250007E+03  0.7818608E-02  0.1235068E+00
         -4   -1    0    0    0  501 -0.00000000000E+00  0.00000000000E+00  0.10956961548E+03  0.10957697540E+03  0.12700000000E+01 0. -1.
          4   -1    0    0  501    0  0.00000000000E+00 -0.00000000000E+00 -0.35631372637E+02  0.35653998597E+02  0.12700000000E+01 0. -1.
         25    2    1    2    0    0  0.00000000000E+00  0.00000000000E+00  0.73938242848E+02  0.14523097400E+03  0.12500068821E+03 0.  0.
    9000005    1    3    3    0    0  0.54213263648E+02 -0.27953855671E+02  0.21175042028E+02  0.64574595679E+02  0.10000000000E+01 0.  0.
    9000005    1    3    3    0    0 -0.54213263648E+02  0.27953855671E+02  0.52763200820E+02  0.80656378316E+02  0.10000000000E+01 0.  0.
<mgrwt>
<rscale>  0 0.12500069E+03</rscale>
<asrwt>0</asrwt>
<pdfrwt beam="2">  1        4 0.54840564E-02 0.12500069E+03</pdfrwt>
<pdfrwt beam="1">  1       -4 0.16859170E-01 0.12500069E+03</pdfrwt>
<totfact> 0.10026142E+04</totfact>
</mgrwt>
</event>
<event>
 5    1  0.3241863E-002  0.1249942E+03  0.7818608E-02  0.1235078E+00
         -4   -1    0    0    0  501 -0.00000000000E+00  0.00000000000E+00  0.10195684778E+03  0.10196475719E+03  0.12700000000E+01 0. -1.
          4   -1    0    0  501    0  0.00000000000E+00 -0.00000000000E+00 -0.38289274083E+02  0.38310330327E+02  0.12700000000E+01 0. -1.
         25    2    1    2    0    0  0.00000000000E+00  0.00000000000E+00  0.63667573694E+02  0.14027508752E+03  0.12499416081E+03 0.  0.
    9000005    1    3    3    0    0  0.12309920651E+02 -0.29942581332E+02 -0.28149490327E+02  0.42912540463E+02  0.10000000000E+01 0.  0.
    9000005    1    3    3    0    0 -0.12309920651E+02  0.29942581332E+02  0.91817064021E+02  0.97362547053E+02  0.10000000000E+01 0.  0.
<mgrwt>
<rscale>  0 0.12499416E+03</rscale>
<asrwt>0</asrwt>
<pdfrwt beam="2">  1        4 0.58928857E-02 0.12499416E+03</pdfrwt>
<pdfrwt beam="1">  1       -4 0.15687897E-01 0.12499416E+03</pdfrwt>
<totfact> 0.10129220E+04</totfact>
</mgrwt>
</event>
<event>
 5    1  0.3241863E-002  0.1249492E+03  0.7818608E-02  0.1235149E+00
          4   -1    0    0  501    0  0.00000000000E+00  0.00000000000E+00  0.85575842869E+03  0.85575937107E+03  0.12700000000E+01 0. -1.
         -4   -1    0    0    0  501 -0.00000000000E+00 -0.00000000000E+00 -0.44715799636E+01  0.46484327865E+01  0.12700000000E+01 0. -1.
         25    2    1    2    0    0  0.00000000000E+00  0.00000000000E+00  0.85128684873E+03  0.86040780386E+03  0.12494915015E+03 0.  0.
    9000005    1    3    3    0    0  0.53808014849E+02  0.11557710234E+02  0.62912507988E+03  0.63152850233E+03  0.10000000000E+01 0.  0.
    9000005    1    3    3    0    0 -0.53808014849E+02 -0.11557710234E+02  0.22216176885E+03  0.22887930153E+03  0.10000000000E+01 0.  0.
<mgrwt>
<rscale>  0 0.12494915E+03</rscale>
<asrwt>0</asrwt>
<pdfrwt beam="1">  1        4 0.13166882E+00 0.12494915E+03</pdfrwt>
<pdfrwt beam="2">  1       -4 0.70161193E-03 0.12494915E+03</pdfrwt>
<totfact> 0.35744842E+03</totfact>
</mgrwt>
</event>
<event>
 5    1  0.3241863E-002  0.1250063E+03  0.7818608E-02  0.1235059E+00
          4   -1    0    0  501    0  0.00000000000E+00  0.00000000000E+00  0.37018608343E+02  0.37040386926E+02  0.12700000000E+01 0.  1.
         -4   -1    0    0    0  501 -0.00000000000E+00 -0.00000000000E+00 -0.10547528478E+03  0.10548293037E+03  0.12700000000E+01 0.  1.
         25    2    1    2    0    0  0.00000000000E+00  0.00000000000E+00 -0.68456676434E+02  0.14252331729E+03  0.12500631754E+03 0.  0.
    9000005    1    3    3    0    0 -0.59821947462E+02 -0.14352153611E+02 -0.46769504658E+02  0.77285420859E+02  0.10000000000E+01 0.  0.
    9000005    1    3    3    0    0  0.59821947462E+02  0.14352153611E+02 -0.21687171776E+02  0.65237896434E+02  0.10000000000E+01 0.  0.
<mgrwt>
<rscale>  0 0.12500632E+03</rscale>
<asrwt>0</asrwt>
<pdfrwt beam="1">  1        4 0.56974340E-02 0.12500632E+03</pdfrwt>
<pdfrwt beam="2">  1       -4 0.16229230E-01 0.12500632E+03</pdfrwt>
<totfact> 0.10080119E+04</totfact>
</mgrwt>
</event>
<event>
 5    1  0.3241863E-002  0.1249997E+03  0.7818608E-02  0.1235070E+00
         -4   -1    0    0    0  501 -0.00000000000E+00  0.00000000000E+00  0.62002424331E+01  0.63289735526E+01  0.12700000000E+01 0.  1.
          4   -1    0    0  501    0  0.00000000000E+00 -0.00000000000E+00 -0.62341047672E+03  0.62341177033E+03  0.12700000000E+01 0.  1.
         25    2    1    2    0    0  0.00000000000E+00  0.00000000000E+00 -0.61721023429E+03  0.62974074388E+03  0.12499972478E+03 0.  0.
    9000005    1    3    3    0    0  0.44088116735E+02 -0.15356199434E+02 -0.51788625509E+03  0.51998725764E+03  0.10000000000E+01 0.  0.
    9000005    1    3    3    0    0 -0.44088116735E+02  0.15356199434E+02 -0.99323979196E+02  0.10975348624E+03  0.10000000000E+01 0.  0.
<mgrwt>
<rscale>  0 0.12499972E+03</rscale>
<asrwt>0</asrwt>
<pdfrwt beam="2">  1        4 0.95919258E-01 0.12499972E+03</pdfrwt>
<pdfrwt beam="1">  1       -4 0.96388584E-03 0.12499972E+03</pdfrwt>
<totfact> 0.47042841E+03</totfact>
</mgrwt>
</event>
<event>
 5    1  0.3241863E-002  0.1250070E+03  0.7818608E-02  0.1235058E+00
          4   -1    0    0  501    0  0.00000000000E+00  0.00000000000E+00  0.68082254086E+03  0.68082372538E+03  0.12700000000E+01 0.  1.
         -4   -1    0    0    0  501 -0.00000000000E+00 -0.00000000000E+00 -0.56667115406E+01  0.58072816089E+01  0.12700000000E+01 0.  1.
         25    2    1    2    0    0  0.00000000000E+00  0.00000000000E+00  0.67515582932E+03  0.68663100699E+03  0.12500698339E+03 0.  0.
    9000005    1    3    3    0    0 -0.25000050394E+02  0.53755951694E+02  0.22896854258E+03  0.23652124292E+03  0.10000000000E+01 0.  0.
    9000005    1    3    3    0    0  0.25000050394E+02 -0.53755951694E+02  0.44618728674E+03  0.45010976407E+03  0.10000000000E+01 0.  0.
<mgrwt>
<rscale>  0 0.12500698E+03</rscale>
<asrwt>0</asrwt>
<pdfrwt beam="1">  1        4 0.10475278E+00 0.12500698E+03</pdfrwt>
<pdfrwt beam="2">  1       -4 0.88270639E-03 0.12500698E+03</pdfrwt>
<totfact> 0.43795206E+03</totfact>
</mgrwt>
</event>
<event>
 5    1  0.3241863E-002  0.1250051E+03  0.7818608E-02  0.1235061E+00
         -4   -1    0    0    0  501 -0.00000000000E+00  0.00000000000E+00  0.62036693568E+02  0.62049691770E+02  0.12700000000E+01 0.  1.
          4   -1    0    0  501    0  0.00000000000E+00 -0.00000000000E+00 -0.62945884747E+02  0.62958695242E+02  0.12700000000E+01 0.  1.
         25    2    1    2    0    0  0.00000000000E+00  0.00000000000E+00 -0.90919117974E+00  0.12500838701E+03  0.12500508068E+03 0.  0.
    9000005    1    3    3    0    0 -0.15216565911E+02 -0.24626149410E+00  0.60160232450E+02  0.62063339350E+02  0.10000000000E+01 0.  0.
    9000005    1    3    3    0    0  0.15216565911E+02  0.24626149410E+00 -0.61069423630E+02  0.62945047663E+02  0.10000000000E+01 0.  0.
<mgrwt>
<rscale>  0 0.12500508E+03</rscale>
<asrwt>0</asrwt>
<pdfrwt beam="2">  1        4 0.96859676E-02 0.12500508E+03</pdfrwt>
<pdfrwt beam="1">  1       -4 0.95460919E-02 0.12500508E+03</pdfrwt>
<totfact> 0.10451480E+04</totfact>
</mgrwt>
</event>
<event>
 5    1  0.3241863E-002  0.1249977E+03  0.7818608E-02  0.1235073E+00
         -4   -1    0    0    0  501 -0.00000000000E+00  0.00000000000E+00  0.17371406318E+02  0.17417768441E+02  0.12700000000E+01 0.  1.
          4   -1    0    0  501    0  0.00000000000E+00 -0.00000000000E+00 -0.22451039721E+03  0.22451398922E+03  0.12700000000E+01 0.  1.
         25    2    1    2    0    0  0.00000000000E+00  0.00000000000E+00 -0.20713899089E+03  0.24193175766E+03  0.12499765525E+03 0.  0.
    9000005    1    3    3    0    0  0.16218173746E+02 -0.50309376940E+02 -0.16808380220E+03  0.17620223362E+03  0.10000000000E+01 0.  0.
    9000005    1    3    3    0    0 -0.16218173746E+02  0.50309376940E+02 -0.39055188689E+02  0.65729524046E+02  0.10000000000E+01 0.  0.
<mgrwt>
<rscale>  0 0.12499766E+03</rscale>
<asrwt>0</asrwt>
<pdfrwt beam="2">  1        4 0.34543902E-01 0.12499766E+03</pdfrwt>
<pdfrwt beam="1">  1       -4 0.26763668E-02 0.12499766E+03</pdfrwt>
<totfact> 0.83514871E+03</totfact>
</mgrwt>
</event>
<event>
 5    1  0.3241863E-002  0.1250004E+03  0.7818608E-02  0.1235069E+00
         -4   -1    0    0    0  501 -0.00000000000E+00  0.00000000000E+00  0.80340988007E+01  0.81338578510E+01  0.12700000000E+01 0. -1.
          4   -1    0    0  501    0  0.00000000000E+00 -0.00000000000E+00 -0.48311147872E+03  0.48311314800E+03  0.12700000000E+01 0. -1.
         25    2    1    2    0    0  0.00000000000E+00  0.00000000000E+00 -0.47507737992E+03  0.49124700586E+03  0.12500041539E+03 0.  0.
    9000005    1    3    3    0    0  0.49323629523E+02 -0.37904637998E+02 -0.21405935617E+03  0.22291700244E+03  0.10000000000E+01 0.  0.
    9000005    1    3    3    0    0 -0.49323629523E+02  0.37904637998E+02 -0.26101802375E+03  0.26833000342E+03  0.10000000000E+01 0.  0.
<mgrwt>
<rscale>  0 0.12500042E+03</rscale>
<asrwt>0</asrwt>
<pdfrwt beam="2">  1        4 0.74332622E-01 0.12500042E+03</pdfrwt>
<pdfrwt beam="1">  1       -4 0.12438178E-02 0.12500042E+03</pdfrwt>
<totfact> 0.56549437E+03</totfact>
</mgrwt>
</event>
<event>
 5    1  0.3241863E-002  0.1250019E+03  0.7818608E-02  0.1235066E+00
          4   -1    0    0  501    0  0.00000000000E+00  0.00000000000E+00  0.26276765252E+02  0.26307437961E+02  0.12700000000E+01 0.  1.
         -4   -1    0    0    0  501 -0.00000000000E+00 -0.00000000000E+00 -0.14854243197E+03  0.14854786096E+03  0.12700000000E+01 0.  1.
         25    2    1    2    0    0  0.00000000000E+00  0.00000000000E+00 -0.12226566672E+03  0.17485529893E+03  0.12500192920E+03 0.  0.
    9000005    1    3    3    0    0 -0.15868083342E+02 -0.53388846819E+02 -0.21489019298E+02  0.59707143492E+02  0.10000000000E+01 0.  0.
    9000005    1    3    3    0    0  0.15868083342E+02  0.53388846819E+02 -0.10077664742E+03  0.11514815543E+03  0.10000000000E+01 0.  0.
<mgrwt>
<rscale>  0 0.12500193E+03</rscale>
<asrwt>0</asrwt>
<pdfrwt beam="1">  1        4 0.40453564E-02 0.12500193E+03</pdfrwt>
<pdfrwt beam="2">  1       -4 0.22855458E-01 0.12500193E+03</pdfrwt>
<totfact> 0.94547257E+03</totfact>
</mgrwt>
</event>
<event>
 5    1  0.3241863E-002  0.1250039E+03  0.7818608E-02  0.1235063E+00
         -4   -1    0    0    0  501 -0.00000000000E+00  0.00000000000E+00  0.41348531259E+02  0.41368030377E+02  0.12700000000E+01 0.  1.
          4   -1    0    0  501    0  0.00000000000E+00 -0.00000000000E+00 -0.94431228630E+02  0.94439768321E+02  0.12700000000E+01 0.  1.
         25    2    1    2    0    0  0.00000000000E+00  0.00000000000E+00 -0.53082697370E+02  0.13580779870E+03  0.12500394165E+03 0.  0.
    9000005    1    3    3    0    0 -0.45964464602E+02  0.42127117799E+02 -0.21923032707E+02  0.66098755081E+02  0.10000000000E+01 0.  0.
    9000005    1    3    3    0    0  0.45964464602E+02 -0.42127117799E+02 -0.31159664663E+02  0.69709043618E+02  0.10000000000E+01 0.  0.
<mgrwt>
<rscale>  0 0.12500394E+03</rscale>
<asrwt>0</asrwt>
<pdfrwt beam="2">  1        4 0.14530038E-01 0.12500394E+03</pdfrwt>
<pdfrwt beam="1">  1       -4 0.63634694E-02 0.12500394E+03</pdfrwt>
<totfact> 0.10220164E+04</totfact>
</mgrwt>
</event>
<event>
 5    1  0.3241863E-002  0.1250012E+03  0.7818608E-02  0.1235067E+00
         -4   -1    0    0    0  501 -0.00000000000E+00  0.00000000000E+00  0.49927981873E+02  0.49944131526E+02  0.12700000000E+01 0. -1.
          4   -1    0    0  501    0  0.00000000000E+00 -0.00000000000E+00 -0.78205272229E+02  0.78215583514E+02  0.12700000000E+01 0. -1.
         25    2    1    2    0    0  0.00000000000E+00  0.00000000000E+00 -0.28277290357E+02  0.12815971504E+03  0.12500122963E+03 0.  0.
    9000005    1    3    3    0    0  0.26514283308E+02  0.12692523742E+02  0.42402048100E+02  0.51604661236E+02  0.10000000000E+01 0.  0.
    9000005    1    3    3    0    0 -0.26514283308E+02 -0.12692523742E+02 -0.70679338457E+02  0.76555053804E+02  0.10000000000E+01 0.  0.
<mgrwt>
<rscale>  0 0.12500123E+03</rscale>
<asrwt>0</asrwt>
<pdfrwt beam="2">  1        4 0.12033616E-01 0.12500123E+03</pdfrwt>
<pdfrwt beam="1">  1       -4 0.76832634E-02 0.12500123E+03</pdfrwt>
<totfact> 0.10383752E+04</totfact>
</mgrwt>
</event>
<event>
 4    1  0.3241863E-002  0.1250877E+03  0.7818608E-02  0.1234932E+00
          4   -1    0    0  501    0  0.00000000000E+00  0.00000000000E+00  0.97030549648E+02  0.97038860592E+02  0.12700000000E+01 0. -1.
         -4   -1    0    0    0  501 -0.00000000000E+00 -0.00000000000E+00 -0.40294420842E+02  0.40314429811E+02  0.12700000000E+01 0. -1.
    9000005    1    1    2    0    0  0.38675358341E+02 -0.43125191012E+02  0.24956464018E+01  0.57989599875E+02  0.10000000000E+01 0.  0.
    9000005    1    1    2    0    0 -0.38675358341E+02  0.43125191012E+02  0.54240482404E+02  0.79363690527E+02  0.10000000000E+01 0.  0.
<mgrwt>
<rscale>  0 0.12508772E+03</rscale>
<asrwt>0</asrwt>
<pdfrwt beam="1">  1        4 0.14929955E-01 0.12508772E+03</pdfrwt>
<pdfrwt beam="2">  1       -4 0.62013203E-02 0.12508772E+03</pdfrwt>
<totfact> 0.10168579E+04</totfact>
</mgrwt>
</event>
<event>
 5    1  0.3241863E-002  0.1249931E+03  0.7818608E-02  0.1235080E+00
         -4   -1    0    0    0  501 -0.00000000000E+00  0.00000000000E+00  0.24380660343E+02  0.24413715383E+02  0.12700000000E+01 0.  1.
          4   -1    0    0  501    0  0.00000000000E+00 -0.00000000000E+00 -0.16005753502E+03  0.16006257344E+03  0.12700000000E+01 0.  1.
         25    2    1    2    0    0  0.00000000000E+00  0.00000000000E+00 -0.13567687468E+03  0.18447628882E+03  0.12499314708E+03 0.  0.
    9000005    1    3    3    0    0  0.14311867873E+02  0.55419299430E+02 -0.10484457827E+03  0.11945507065E+03  0.10000000000E+01 0.  0.
    9000005    1    3    3    0    0 -0.14311867873E+02 -0.55419299430E+02 -0.30832296410E+02  0.65021218177E+02  0.10000000000E+01 0.  0.
<mgrwt>
<rscale>  0 0.12499315E+03</rscale>
<asrwt>0</asrwt>
<pdfrwt beam="2">  1        4 0.24627166E-01 0.12499315E+03</pdfrwt>
<pdfrwt beam="1">  1       -4 0.37538012E-02 0.12499315E+03</pdfrwt>
<totfact> 0.92831663E+03</totfact>
</mgrwt>
</event>
<event>
 5    1  0.3241863E-002  0.1250014E+03  0.7818608E-02  0.1235067E+00
          4   -1    0    0  501    0  0.00000000000E+00  0.00000000000E+00  0.47749103896E+03  0.47749272789E+03  0.12700000000E+01 0.  1.
         -4   -1    0    0    0  501 -0.00000000000E+00 -0.00000000000E+00 -0.81299583166E+01  0.82285552942E+01  0.12700000000E+01 0.  1.
         25    2    1    2    0    0  0.00000000000E+00  0.00000000000E+00  0.46936108065E+03  0.48572128319E+03  0.12500136365E+03 0.  0.
    9000005    1    3    3    0    0  0.82831278485E+01 -0.16196836787E+02  0.46699337238E+03  0.46734864670E+03  0.10000000000E+01 0.  0.
    9000005    1    3    3    0    0 -0.82831278485E+01  0.16196836787E+02  0.23677082656E+01  0.18372636482E+02  0.10000000000E+01 0.  0.
<mgrwt>
<rscale>  0 0.12500136E+03</rscale>
<asrwt>0</asrwt>
<pdfrwt beam="1">  1        4 0.73467870E-01 0.12500136E+03</pdfrwt>
<pdfrwt beam="2">  1       -4 0.12584772E-02 0.12500136E+03</pdfrwt>
<totfact> 0.56987782E+03</totfact>
</mgrwt>
</event>
<event>
 4    1  0.3241863E-002  0.1249057E+03  0.7818608E-02  0.1235217E+00
         -4   -1    0    0    0  501 -0.00000000000E+00  0.00000000000E+00  0.11174739332E+02  0.11246675026E+02  0.12700000000E+01 0.  1.
          4   -1    0    0  501    0  0.00000000000E+00 -0.00000000000E+00 -0.34784051620E+03  0.34784283464E+03  0.12700000000E+01 0.  1.
    9000005    1    1    2    0    0  0.42982136545E+01  0.52908936053E+02 -0.73787730875E+02  0.90903571891E+02  0.10000000000E+01 0.  0.
    9000005    1    1    2    0    0 -0.42982136545E+01 -0.52908936053E+02 -0.26287804600E+03  0.26818593778E+03  0.10000000000E+01 0.  0.
<mgrwt>
<rscale>  0 0.12490569E+03</rscale>
<asrwt>0</asrwt>
<pdfrwt beam="2">  1        4 0.53519629E-01 0.12490569E+03</pdfrwt>
<pdfrwt beam="1">  1       -4 0.17249028E-02 0.12490569E+03</pdfrwt>
<totfact> 0.68879638E+03</totfact>
</mgrwt>
</event>
<event>
 5    1  0.3241863E-002  0.1249990E+03  0.7818608E-02  0.1235071E+00
          4   -1    0    0  501    0  0.00000000000E+00  0.00000000000E+00  0.32464972898E+03  0.32465221303E+03  0.12700000000E+01 0.  1.
         -4   -1    0    0    0  501 -0.00000000000E+00 -0.00000000000E+00 -0.11995953894E+02  0.12062993403E+02  0.12700000000E+01 0.  1.
         25    2    1    2    0    0  0.00000000000E+00  0.00000000000E+00  0.31265377508E+03  0.33671520643E+03  0.12499898867E+03 0.  0.
    9000005    1    3    3    0    0 -0.33744692956E+02 -0.70447536679E+00  0.29799797763E+03  0.29990497705E+03  0.10000000000E+01 0.  0.
    9000005    1    3    3    0    0  0.33744692956E+02  0.70447536679E+00  0.14655797456E+02  0.36810229384E+02  0.10000000000E+01 0.  0.
<mgrwt>
<rscale>  0 0.12499899E+03</rscale>
<asrwt>0</asrwt>
<pdfrwt beam="1">  1        4 0.49951462E-01 0.12499899E+03</pdfrwt>
<pdfrwt beam="2">  1       -4 0.18508793E-02 0.12499899E+03</pdfrwt>
<totfact> 0.71212796E+03</totfact>
</mgrwt>
</event>
<event>
 5    1  0.3241863E-002  0.1249968E+03  0.7818608E-02  0.1235074E+00
         -4   -1    0    0    0  501 -0.00000000000E+00  0.00000000000E+00  0.11609797235E+02  0.11679053551E+02  0.12700000000E+01 0.  1.
          4   -1    0    0  501    0  0.00000000000E+00 -0.00000000000E+00 -0.33537343903E+03  0.33537584365E+03  0.12700000000E+01 0.  1.
         25    2    1    2    0    0  0.00000000000E+00  0.00000000000E+00 -0.32376364179E+03  0.34705489720E+03  0.12499682366E+03 0.  0.
    9000005    1    3    3    0    0  0.29493392735E+02 -0.52097955868E+02 -0.21162663745E+03  0.21993383300E+03  0.10000000000E+01 0.  0.
    9000005    1    3    3    0    0 -0.29493392735E+02  0.52097955868E+02 -0.11213700435E+03  0.12712106421E+03  0.10000000000E+01 0.  0.
<mgrwt>
<rscale>  0 0.12499682E+03</rscale>
<asrwt>0</asrwt>
<pdfrwt beam="2">  1        4 0.51601419E-01 0.12499682E+03</pdfrwt>
<pdfrwt beam="1">  1       -4 0.17916353E-02 0.12499682E+03</pdfrwt>
<totfact> 0.70054701E+03</totfact>
</mgrwt>
</event>
<event>
 5    1  0.3241863E-002  0.1250036E+03  0.7818608E-02  0.1235064E+00
         -4   -1    0    0    0  501 -0.00000000000E+00  0.00000000000E+00  0.22482716183E+03  0.22483074878E+03  0.12700000000E+01 0.  1.
          4   -1    0    0  501    0  0.00000000000E+00 -0.00000000000E+00 -0.17348511309E+02  0.17394934454E+02  0.12700000000E+01 0.  1.
         25    2    1    2    0    0  0.00000000000E+00  0.00000000000E+00  0.20747865052E+03  0.24222568324E+03  0.12500356473E+03 0.  0.
    9000005    1    3    3    0    0 -0.46947961973E+02  0.33456270478E+02  0.15048851306E+03  0.16115590505E+03  0.10000000000E+01 0.  0.
    9000005    1    3    3    0    0  0.46947961973E+02 -0.33456270478E+02  0.56990137461E+02  0.81069778189E+02  0.10000000000E+01 0.  0.
<mgrwt>
<rscale>  0 0.12500356E+03</rscale>
<asrwt>0</asrwt>
<pdfrwt beam="2">  1        4 0.26728488E-02 0.12500356E+03</pdfrwt>
<pdfrwt beam="1">  1       -4 0.34592640E-01 0.12500356E+03</pdfrwt>
<totfact> 0.83460373E+03</totfact>
</mgrwt>
</event>
<event>
 5    1  0.3241863E-002  0.1249994E+03  0.7818608E-02  0.1235070E+00
         -4   -1    0    0    0  501 -0.00000000000E+00  0.00000000000E+00  0.54929996290E+03  0.54930143104E+03  0.12700000000E+01 0. -1.
          4   -1    0    0  501    0  0.00000000000E+00 -0.00000000000E+00 -0.70530654439E+01  0.71664937142E+01  0.12700000000E+01 0. -1.
         25    2    1    2    0    0  0.00000000000E+00  0.00000000000E+00  0.54224689746E+03  0.55646792476E+03  0.12499941391E+03 0.  0.
    9000005    1    3    3    0    0  0.58969382535E+02 -0.15685752222E+02  0.21110176693E+03  0.21974618746E+03  0.10000000000E+01 0.  0.
    9000005    1    3    3    0    0 -0.58969382535E+02  0.15685752222E+02  0.33114513053E+03  0.33672173730E+03  0.10000000000E+01 0.  0.
<mgrwt>
<rscale>  0 0.12499941E+03</rscale>
<asrwt>0</asrwt>
<pdfrwt beam="2">  1        4 0.10939255E-02 0.12499941E+03</pdfrwt>
<pdfrwt beam="1">  1       -4 0.84516503E-01 0.12499941E+03</pdfrwt>
<totfact> 0.51736740E+03</totfact>
</mgrwt>
</event>
<event>
 5    1  0.3241863E-002  0.1250021E+03  0.7818608E-02  0.1235066E+00
          4   -1    0    0  501    0  0.00000000000E+00  0.00000000000E+00  0.16225254075E+02  0.16274881560E+02  0.12700000000E+01 0.  1.
         -4   -1    0    0    0  501 -0.00000000000E+00 -0.00000000000E+00 -0.24034044856E+03  0.24034380399E+03  0.12700000000E+01 0.  1.
         25    2    1    2    0    0  0.00000000000E+00  0.00000000000E+00 -0.22411519449E+03  0.25661868555E+03  0.12500211747E+03 0.  0.
    9000005    1    3    3    0    0 -0.35961905600E+02  0.46649037767E+02 -0.69191923855E+02  0.90873063697E+02  0.10000000000E+01 0.  0.
    9000005    1    3    3    0    0  0.35961905600E+02 -0.46649037767E+02 -0.15492327063E+03  0.16574562185E+03  0.10000000000E+01 0.  0.
<mgrwt>
<rscale>  0 0.12500212E+03</rscale>
<asrwt>0</asrwt>
<pdfrwt beam="1">  1        4 0.25002687E-02 0.12500212E+03</pdfrwt>
<pdfrwt beam="2">  1       -4 0.36979527E-01 0.12500212E+03</pdfrwt>
<totfact> 0.81379099E+03</totfact>
</mgrwt>
</event>
<event>
 5    1  0.3241863E-002  0.1249923E+03  0.7818608E-02  0.1235081E+00
          4   -1    0    0  501    0  0.00000000000E+00  0.00000000000E+00  0.12483796321E+04  0.12483802781E+04  0.12700000000E+01 0. -1.
         -4   -1    0    0    0  501 -0.00000000000E+00 -0.00000000000E+00 -0.29991163337E+01  0.32569308840E+01  0.12700000000E+01 0. -1.
         25    2    1    2    0    0  0.00000000000E+00  0.00000000000E+00  0.12453805158E+04  0.12516372090E+04  0.12499229519E+03 0.  0.
    9000005    1    3    3    0    0  0.30529542719E+02  0.24300292198E+02  0.13394184363E+03  0.13951334937E+03  0.10000000000E+01 0.  0.
    9000005    1    3    3    0    0 -0.30529542719E+02 -0.24300292198E+02  0.11114386721E+04  0.11121238596E+04  0.10000000000E+01 0.  0.
<mgrwt>
<rscale>  0 0.12499230E+03</rscale>
<asrwt>0</asrwt>
<pdfrwt beam="1">  1        4 0.19207813E+00 0.12499230E+03</pdfrwt>
<pdfrwt beam="2">  1       -4 0.48128448E-03 0.12499230E+03</pdfrwt>
<totfact> 0.23403456E+03</totfact>
</mgrwt>
</event>
<event>
 5    1  0.3241863E-002  0.1249994E+03  0.7818608E-02  0.1235070E+00
          4   -1    0    0  501    0  0.00000000000E+00  0.00000000000E+00  0.53709544532E+01  0.55190625778E+01  0.12700000000E+01 0. -1.
         -4   -1    0    0    0  501 -0.00000000000E+00 -0.00000000000E+00 -0.71724486007E+03  0.71724598444E+03  0.12700000000E+01 0. -1.
         25    2    1    2    0    0  0.00000000000E+00  0.00000000000E+00 -0.71187390561E+03  0.72276504702E+03  0.12499942277E+03 0.  0.
    9000005    1    3    3    0    0 -0.47821703459E+02  0.39928748138E+02 -0.32761406638E+03  0.33348642662E+03  0.10000000000E+01 0.  0.
    9000005    1    3    3    0    0  0.47821703459E+02 -0.39928748138E+02 -0.38425983924E+03  0.38927862040E+03  0.10000000000E+01 0.  0.
<mgrwt>
<rscale>  0 0.12499942E+03</rscale>
<asrwt>0</asrwt>
<pdfrwt beam="1">  1        4 0.83778068E-03 0.12499942E+03</pdfrwt>
<pdfrwt beam="2">  1       -4 0.11035677E+00 0.12499942E+03</pdfrwt>
<totfact> 0.41912407E+03</totfact>
</mgrwt>
</event>
<event>
 5    1  0.3241863E-002  0.1250006E+03  0.7818608E-02  0.1235068E+00
          4   -1    0    0  501    0  0.00000000000E+00  0.00000000000E+00  0.54469282725E+02  0.54484086306E+02  0.12700000000E+01 0.  1.
         -4   -1    0    0    0  501 -0.00000000000E+00 -0.00000000000E+00 -0.71685272184E+02  0.71696521172E+02  0.12700000000E+01 0.  1.
         25    2    1    2    0    0  0.00000000000E+00  0.00000000000E+00 -0.17215989459E+02  0.12618060748E+03  0.12500062164E+03 0.  0.
    9000005    1    3    3    0    0  0.16533910599E+02 -0.53714195199E+02  0.18975840325E+02  0.59326785532E+02  0.10000000000E+01 0.  0.
    9000005    1    3    3    0    0 -0.16533910599E+02  0.53714195199E+02 -0.36191829784E+02  0.66853821945E+02  0.10000000000E+01 0.  0.
<mgrwt>
<rscale>  0 0.12500062E+03</rscale>
<asrwt>0</asrwt>
<pdfrwt beam="1">  1        4 0.83818936E-02 0.12500062E+03</pdfrwt>
<pdfrwt beam="2">  1       -4 0.11030508E-01 0.12500062E+03</pdfrwt>
<totfact> 0.10426857E+04</totfact>
</mgrwt>
</event>
<event>
 5    1  0.3241863E-002  0.1250012E+03  0.7818608E-02  0.1235067E+00
         -4   -1    0    0    0  501 -0.00000000000E+00  0.00000000000E+00  0.15708475289E+04  0.15708480423E+04  0.12700000000E+01 0. -1.
          4   -1    0    0  501    0  0.00000000000E+00 -0.00000000000E+00 -0.23240673388E+01  0.26484314217E+01  0.12700000000E+01 0. -1.
         25    2    1    2    0    0  0.00000000000E+00  0.00000000000E+00  0.15685234616E+04  0.15734964737E+04  0.12500121320E+03 0.  0.
    9000005    1    3    3    0    0 -0.49350000572E+02  0.38253349234E+02  0.75196085511E+03  0.75454944762E+03  0.10000000000E+01 0.  0.
    9000005    1    3    3    0    0  0.49350000572E+02 -0.38253349234E+02  0.81656260644E+03  0.81894702608E+03  0.10000000000E+01 0.  0.
<mgrwt>
<rscale>  0 0.12500121E+03</rscale>
<asrwt>0</asrwt>
<pdfrwt beam="2">  1        4 0.38253979E-03 0.12500121E+03</pdfrwt>
<pdfrwt beam="1">  1       -4 0.24169359E+00 0.12500121E+03</pdfrwt>
<totfact> 0.16529669E+03</totfact>
</mgrwt>
</event>
<event>
 5    1  0.3241863E-002  0.1249982E+03  0.7818608E-02  0.1235072E+00
         -4   -1    0    0    0  501 -0.00000000000E+00  0.00000000000E+00  0.30885212605E+03  0.30885473716E+03  0.12700000000E+01 0.  1.
          4   -1    0    0  501    0  0.00000000000E+00 -0.00000000000E+00 -0.12612728357E+02  0.12676506482E+02  0.12700000000E+01 0.  1.
         25    2    1    2    0    0  0.00000000000E+00  0.00000000000E+00  0.29623939769E+03  0.32153124364E+03  0.12499823955E+03 0.  0.
    9000005    1    3    3    0    0  0.21076590919E+02 -0.53660768574E+02  0.86094032394E+02  0.10361893255E+03  0.10000000000E+01 0.  0.
    9000005    1    3    3    0    0 -0.21076590919E+02  0.53660768574E+02  0.21014536530E+03  0.21791231109E+03  0.10000000000E+01 0.  0.
<mgrwt>
<rscale>  0 0.12499824E+03</rscale>
<asrwt>0</asrwt>
<pdfrwt beam="2">  1        4 0.19455266E-02 0.12499824E+03</pdfrwt>
<pdfrwt beam="1">  1       -4 0.47520820E-01 0.12499824E+03</pdfrwt>
<totfact> 0.72977218E+03</totfact>
</mgrwt>
</event>
<event>
 5    1  0.3241863E-002  0.1250302E+03  0.7818608E-02  0.1235022E+00
         -4   -1    0    0    0  501 -0.00000000000E+00  0.00000000000E+00  0.29159941466E+03  0.29160218026E+03  0.12700000000E+01 0. -1.
          4   -1    0    0  501    0  0.00000000000E+00 -0.00000000000E+00 -0.13369490242E+02  0.13429674953E+02  0.12700000000E+01 0. -1.
         25    2    1    2    0    0  0.00000000000E+00  0.00000000000E+00  0.27822992442E+03  0.30503185521E+03  0.12503016376E+03 0.  0.
    9000005    1    3    3    0    0 -0.41623336995E+02  0.44398479730E+02  0.17390979129E+03  0.18425347403E+03  0.10000000000E+01 0.  0.
    9000005    1    3    3    0    0  0.41623336995E+02 -0.44398479730E+02  0.10432013313E+03  0.12077838118E+03  0.10000000000E+01 0.  0.
<mgrwt>
<rscale>  0 0.12503016E+03</rscale>
<asrwt>0</asrwt>
<pdfrwt beam="2">  1        4 0.20616871E-02 0.12503016E+03</pdfrwt>
<pdfrwt beam="1">  1       -4 0.44866288E-01 0.12503016E+03</pdfrwt>
<totfact> 0.74921793E+03</totfact>
</mgrwt>
</event>
<event>
 5    1  0.3241863E-002  0.1249967E+03  0.7818608E-02  0.1235074E+00
         -4   -1    0    0    0  501 -0.00000000000E+00  0.00000000000E+00  0.99116736051E+01  0.99927060226E+01  0.12700000000E+01 0.  1.
          4   -1    0    0  501    0  0.00000000000E+00 -0.00000000000E+00 -0.39239854620E+03  0.39240060138E+03  0.12700000000E+01 0.  1.
         25    2    1    2    0    0  0.00000000000E+00  0.00000000000E+00 -0.38248687260E+03  0.40239330740E+03  0.12499666448E+03 0.  0.
    9000005    1    3    3    0    0 -0.13420027121E+02 -0.16345183423E+02 -0.38054358938E+03  0.38113211038E+03  0.10000000000E+01 0.  0.
    9000005    1    3    3    0    0  0.13420027121E+02  0.16345183423E+02 -0.19432832234E+01  0.21261197021E+02  0.10000000000E+01 0.  0.
<mgrwt>
<rscale>  0 0.12499666E+03</rscale>
<asrwt>0</asrwt>
<pdfrwt beam="2">  1        4 0.60375387E-01 0.12499666E+03</pdfrwt>
<pdfrwt beam="1">  1       -4 0.15312645E-02 0.12499666E+03</pdfrwt>
<totfact> 0.64325424E+03</totfact>
</mgrwt>
</event>
<event>
 5    1  0.3241863E-002  0.1250014E+03  0.7818608E-02  0.1235067E+00
          4   -1    0    0  501    0  0.00000000000E+00  0.00000000000E+00  0.31202087236E+02  0.31227922567E+02  0.12700000000E+01 0. -1.
         -4   -1    0    0    0  501 -0.00000000000E+00 -0.00000000000E+00 -0.12511381369E+03  0.12512025925E+03  0.12700000000E+01 0. -1.
         25    2    1    2    0    0  0.00000000000E+00  0.00000000000E+00 -0.93911726453E+02  0.15634818182E+03  0.12500136637E+03 0.  0.
    9000005    1    3    3    0    0  0.60445685574E+02 -0.15114724827E+02 -0.40931402136E+02  0.74555452463E+02  0.10000000000E+01 0.  0.
    9000005    1    3    3    0    0 -0.60445685574E+02  0.15114724827E+02 -0.52980324316E+02  0.81792729358E+02  0.10000000000E+01 0.  0.
<mgrwt>
<rscale>  0 0.12500137E+03</rscale>
<asrwt>0</asrwt>
<pdfrwt beam="1">  1        4 0.48028043E-02 0.12500137E+03</pdfrwt>
<pdfrwt beam="2">  1       -4 0.19250762E-01 0.12500137E+03</pdfrwt>
<totfact> 0.98048470E+03</totfact>
</mgrwt>
</event>
<event>
 5    1  0.3241863E-002  0.1250069E+03  0.7818608E-02  0.1235058E+00
         -4   -1    0    0    0  501 -0.00000000000E+00  0.00000000000E+00  0.16532171222E+02  0.16580880113E+02  0.12700000000E+01 0.  1.
          4   -1    0    0  501    0  0.00000000000E+00 -0.00000000000E+00 -0.23590988453E+03  0.23591330297E+03  0.12700000000E+01 0.  1.
         25    2    1    2    0    0  0.00000000000E+00  0.00000000000E+00 -0.21937771331E+03  0.25249418308E+03  0.12500692539E+03 0.  0.
    9000005    1    3    3    0    0 -0.43894547593E+02 -0.38676109477E+01 -0.20175614915E+02  0.48474170029E+02  0.10000000000E+01 0.  0.
    9000005    1    3    3    0    0  0.43894547593E+02  0.38676109477E+01 -0.19920209839E+03  0.20402001305E+03  0.10000000000E+01 0.  0.
<mgrwt>
<rscale>  0 0.12500693E+03</rscale>
<asrwt>0</asrwt>
<pdfrwt beam="2">  1        4 0.36297836E-01 0.12500693E+03</pdfrwt>
<pdfrwt beam="1">  1       -4 0.25474209E-02 0.12500693E+03</pdfrwt>
<totfact> 0.81958431E+03</totfact>
</mgrwt>
</event>
<event>
 5    1  0.3241863E-002  0.1249991E+03  0.7818608E-02  0.1235071E+00
          4   -1    0    0  501    0  0.00000000000E+00  0.00000000000E+00  0.36796171965E+03  0.36796391131E+03  0.12700000000E+01 0.  1.
         -4   -1    0    0    0  501 -0.00000000000E+00 -0.00000000000E+00 -0.10575538906E+02  0.10651522105E+02  0.12700000000E+01 0.  1.
         25    2    1    2    0    0  0.00000000000E+00  0.00000000000E+00  0.35738618075E+03  0.37861543342E+03  0.12499905693E+03 0.  0.
    9000005    1    3    3    0    0  0.55455240504E+02  0.25895775345E+02  0.14046157460E+03  0.15321987084E+03  0.10000000000E+01 0.  0.
    9000005    1    3    3    0    0 -0.55455240504E+02 -0.25895775345E+02  0.21692460615E+03  0.22539556258E+03  0.10000000000E+01 0.  0.
<mgrwt>
<rscale>  0 0.12499906E+03</rscale>
<asrwt>0</asrwt>
<pdfrwt beam="1">  1        4 0.56615510E-01 0.12499906E+03</pdfrwt>
<pdfrwt beam="2">  1       -4 0.16330194E-02 0.12499906E+03</pdfrwt>
<totfact> 0.66688518E+03</totfact>
</mgrwt>
</event>
<event>
 5    1  0.3241863E-002  0.1250009E+03  0.7818608E-02  0.1235068E+00
         -4   -1    0    0    0  501 -0.00000000000E+00  0.00000000000E+00  0.32641683725E+02  0.32666380521E+02  0.12700000000E+01 0.  1.
          4   -1    0    0  501    0  0.00000000000E+00 -0.00000000000E+00 -0.11959891090E+03  0.11960565366E+03  0.12700000000E+01 0.  1.
         25    2    1    2    0    0  0.00000000000E+00  0.00000000000E+00 -0.86957227176E+02  0.15227203419E+03  0.12500085215E+03 0.  0.
    9000005    1    3    3    0    0 -0.10780708113E+02 -0.60766792949E+02 -0.31513471221E+02  0.69303143226E+02  0.10000000000E+01 0.  0.
    9000005    1    3    3    0    0  0.10780708113E+02  0.60766792949E+02 -0.55443755955E+02  0.82968890960E+02  0.10000000000E+01 0.  0.
<mgrwt>
<rscale>  0 0.12500085E+03</rscale>
<asrwt>0</asrwt>
<pdfrwt beam="2">  1        4 0.18402251E-01 0.12500085E+03</pdfrwt>
<pdfrwt beam="1">  1       -4 0.50242160E-02 0.12500085E+03</pdfrwt>
<totfact> 0.98850820E+03</totfact>
</mgrwt>
</event>
<event>
 5    1  0.3241863E-002  0.1250013E+03  0.7818608E-02  0.1235067E+00
         -4   -1    0    0    0  501 -0.00000000000E+00  0.00000000000E+00  0.14755960474E+03  0.14756506988E+03  0.12700000000E+01 0. -1.
          4   -1    0    0  501    0  0.00000000000E+00 -0.00000000000E+00 -0.26451705825E+02  0.26482175913E+02  0.12700000000E+01 0. -1.
         25    2    1    2    0    0  0.00000000000E+00  0.00000000000E+00  0.12110789891E+03  0.17404724580E+03  0.12500128236E+03 0.  0.
    9000005    1    3    3    0    0  0.22977844914E+02  0.33309164201E+02  0.12686099752E+03  0.13316228621E+03  0.10000000000E+01 0.  0.
    9000005    1    3    3    0    0 -0.22977844914E+02 -0.33309164201E+02 -0.57530986116E+01  0.40884959585E+02  0.10000000000E+01 0.  0.
<mgrwt>
<rscale>  0 0.12500128E+03</rscale>
<asrwt>0</asrwt>
<pdfrwt beam="2">  1        4 0.40722574E-02 0.12500128E+03</pdfrwt>
<pdfrwt beam="1">  1       -4 0.22704242E-01 0.12500128E+03</pdfrwt>
<totfact> 0.94696901E+03</totfact>
</mgrwt>
</event>
<event>
 5    1  0.3241863E-002  0.1249947E+03  0.7818608E-02  0.1235078E+00
          4   -1    0    0  501    0  0.00000000000E+00  0.00000000000E+00  0.71419524971E+01  0.72539910030E+01  0.12700000000E+01 0.  1.
         -4   -1    0    0    0  501 -0.00000000000E+00 -0.00000000000E+00 -0.54252880963E+03  0.54253029609E+03  0.12700000000E+01 0.  1.
         25    2    1    2    0    0  0.00000000000E+00  0.00000000000E+00 -0.53538685713E+03  0.54978428709E+03  0.12499470207E+03 0.  0.
    9000005    1    3    3    0    0 -0.54548599271E+02 -0.19002660320E+02 -0.37254558297E+03  0.37699849094E+03  0.10000000000E+01 0.  0.
    9000005    1    3    3    0    0  0.54548599271E+02  0.19002660320E+02 -0.16284127416E+03  0.17278579615E+03  0.10000000000E+01 0.  0.
<mgrwt>
<rscale>  0 0.12499470E+03</rscale>
<asrwt>0</asrwt>
<pdfrwt beam="1">  1        4 0.11074950E-02 0.12499470E+03</pdfrwt>
<pdfrwt beam="2">  1       -4 0.83474671E-01 0.12499470E+03</pdfrwt>
<totfact> 0.52205054E+03</totfact>
</mgrwt>
</event>
<event>
 5    1  0.3241863E-002  0.1250005E+03  0.7818608E-02  0.1235068E+00
          4   -1    0    0  501    0  0.00000000000E+00  0.00000000000E+00  0.16421007275E+02  0.16470044928E+02  0.12700000000E+01 0. -1.
         -4   -1    0    0    0  501 -0.00000000000E+00 -0.00000000000E+00 -0.23747778480E+03  0.23748118068E+03  0.12700000000E+01 0. -1.
         25    2    1    2    0    0  0.00000000000E+00  0.00000000000E+00 -0.22105677753E+03  0.25395122561E+03  0.12500050438E+03 0.  0.
    9000005    1    3    3    0    0 -0.43830841311E+02  0.31010593539E+02 -0.17549143407E+03  0.18352395755E+03  0.10000000000E+01 0.  0.
    9000005    1    3    3    0    0  0.43830841311E+02 -0.31010593539E+02 -0.45565343461E+02  0.70427268060E+02  0.10000000000E+01 0.  0.
<mgrwt>
<rscale>  0 0.12500050E+03</rscale>
<asrwt>0</asrwt>
<pdfrwt beam="1">  1        4 0.25303423E-02 0.12500050E+03</pdfrwt>
<pdfrwt beam="2">  1       -4 0.36539075E-01 0.12500050E+03</pdfrwt>
<totfact> 0.81761569E+03</totfact>
</mgrwt>
</event>
<event>
 5    1  0.3241863E-002  0.1250087E+03  0.7818608E-02  0.1235056E+00
          4   -1    0    0  501    0  0.00000000000E+00  0.00000000000E+00  0.29170371249E+03  0.29170647709E+03  0.12700000000E+01 0.  1.
         -4   -1    0    0    0  501 -0.00000000000E+00 -0.00000000000E+00 -0.13360081289E+02  0.13420308195E+02  0.12700000000E+01 0.  1.
         25    2    1    2    0    0  0.00000000000E+00  0.00000000000E+00  0.27834363120E+03  0.30512678529E+03  0.12500871199E+03 0.  0.
    9000005    1    3    3    0    0 -0.58323243756E+01 -0.64930428312E+01  0.29022080786E+03  0.29035373759E+03  0.10000000000E+01 0.  0.
    9000005    1    3    3    0    0  0.58323243756E+01  0.64930428312E+01 -0.11877176668E+02  0.14773047703E+02  0.10000000000E+01 0.  0.
<mgrwt>
<rscale>  0 0.12500871E+03</rscale>
<asrwt>0</asrwt>
<pdfrwt beam="1">  1        4 0.44882332E-01 0.12500871E+03</pdfrwt>
<pdfrwt beam="2">  1       -4 0.20602430E-02 0.12500871E+03</pdfrwt>
<totfact> 0.74945725E+03</totfact>
</mgrwt>
</event>
<event>
 5    1  0.3241863E-002  0.1250034E+03  0.7818608E-02  0.1235064E+00
          4   -1    0    0  501    0  0.00000000000E+00  0.00000000000E+00  0.65481105828E+02  0.65493420436E+02  0.12700000000E+01 0.  1.
         -4   -1    0    0    0  501 -0.00000000000E+00 -0.00000000000E+00 -0.59633125413E+02  0.59646647404E+02  0.12700000000E+01 0.  1.
         25    2    1    2    0    0  0.00000000000E+00  0.00000000000E+00  0.58479804145E+01  0.12514006784E+03  0.12500335077E+03 0.  0.
    9000005    1    3    3    0    0 -0.72406765312E+00 -0.41048844940E+02 -0.44243647407E+02  0.60365820468E+02  0.10000000000E+01 0.  0.
    9000005    1    3    3    0    0  0.72406765312E+00  0.41048844940E+02  0.50091627821E+02  0.64774247373E+02  0.10000000000E+01 0.  0.
<mgrwt>
<rscale>  0 0.12500335E+03</rscale>
<asrwt>0</asrwt>
<pdfrwt beam="1">  1        4 0.10076004E-01 0.12500335E+03</pdfrwt>
<pdfrwt beam="2">  1       -4 0.91763144E-02 0.12500335E+03</pdfrwt>
<totfact> 0.10449030E+04</totfact>
</mgrwt>
</event>
<event>
 5    1  0.3241863E-002  0.1250007E+03  0.7818608E-02  0.1235068E+00
         -4   -1    0    0    0  501 -0.00000000000E+00  0.00000000000E+00  0.95590100874E+03  0.95590185239E+03  0.12700000000E+01 0. -1.
          4   -1    0    0  501    0  0.00000000000E+00 -0.00000000000E+00 -0.39869665231E+01  0.41843520474E+01  0.12700000000E+01 0. -1.
         25    2    1    2    0    0  0.00000000000E+00  0.00000000000E+00  0.95191404221E+03  0.96008620444E+03  0.12500070475E+03 0.  0.
    9000005    1    3    3    0    0 -0.16192643221E+00  0.24354321720E+02  0.33926993684E+02  0.41775592240E+02  0.10000000000E+01 0.  0.
    9000005    1    3    3    0    0  0.16192643221E+00 -0.24354321720E+02  0.91798704853E+03  0.91831061220E+03  0.10000000000E+01 0.  0.
<mgrwt>
<rscale>  0 0.12500070E+03</rscale>
<asrwt>0</asrwt>
<pdfrwt beam="2">  1        4 0.62862697E-03 0.12500070E+03</pdfrwt>
<pdfrwt beam="1">  1       -4 0.14707715E+00 0.12500070E+03</pdfrwt>
<totfact> 0.31960015E+03</totfact>
</mgrwt>
</event>
