<event>
 5    1  0.3312904E-002  0.1250009E+03  0.7818608E-02  0.1235068E+00
         -4   -1    0    0    0  501 -0.00000000000E+00  0.00000000000E+00  0.36767249397E+02  0.36789176780E+02  0.12700000000E+01 0.  1.
          4   -1    0    0  501    0  0.00000000000E+00 -0.00000000000E+00 -0.10618679179E+03  0.10619438616E+03  0.12700000000E+01 0.  1.
         25    2    1    2    0    0  0.00000000000E+00  0.00000000000E+00 -0.69419542396E+02  0.14298356294E+03  0.12500090561E+03 0.  0.
    9000005    1    3    3    0    0 -0.36728207786E+01 -0.58866347696E+02 -0.58334572225E+02  0.82961791327E+02  0.10000000000E+01 0.  0.
    9000005    1    3    3    0    0  0.36728207786E+01  0.58866347696E+02 -0.11084970170E+02  0.60021771610E+02  0.10000000000E+01 0.  0.
<mgrwt>
<rscale>  0 0.12500091E+03</rscale>
<asrwt>0</asrwt>
<pdfrwt beam="2">  1        4 0.16338700E-01 0.12500091E+03</pdfrwt>
<pdfrwt beam="1">  1       -4 0.56587708E-02 0.12500091E+03</pdfrwt>
<totfact> 0.10071914E+04</totfact>
</mgrwt>
</event>
<event>
 5    1  0.3312904E-002  0.1250013E+03  0.7818608E-02  0.1235067E+00
          4   -1    0    0  501    0  0.00000000000E+00  0.00000000000E+00  0.15441031395E+03  0.15441553664E+03  0.12700000000E+01 0.  1.
         -4   -1    0    0    0  501 -0.00000000000E+00 -0.00000000000E+00 -0.25276803365E+02  0.25308688001E+02  0.12700000000E+01 0.  1.
         25    2    1    2    0    0  0.00000000000E+00  0.00000000000E+00  0.12913351059E+03  0.17972422464E+03  0.12500133345E+03 0.  0.
    9000005    1    3    3    0    0  0.36368176129E+02 -0.38799717249E+02  0.17376267466E+02  0.55955312210E+02  0.10000000000E+01 0.  0.
    9000005    1    3    3    0    0 -0.36368176129E+02  0.38799717249E+02  0.11175724312E+03  0.12376891243E+03  0.10000000000E+01 0.  0.
<mgrwt>
<rscale>  0 0.12500133E+03</rscale>
<asrwt>0</asrwt>
<pdfrwt beam="1">  1        4 0.23758287E-01 0.12500133E+03</pdfrwt>
<pdfrwt beam="2">  1       -4 0.38915934E-02 0.12500133E+03</pdfrwt>
<totfact> 0.93663866E+03</totfact>
</mgrwt>
</event>
<event>
 5    1  0.3312904E-002  0.1250020E+03  0.7818608E-02  0.1235066E+00
          4   -1    0    0  501    0  0.00000000000E+00  0.00000000000E+00  0.11400399092E+04  0.11400406166E+04  0.12700000000E+01 0. -1.
         -4   -1    0    0    0  501 -0.00000000000E+00 -0.00000000000E+00 -0.33081121883E+01  0.35435160858E+01  0.12700000000E+01 0. -1.
         25    2    1    2    0    0  0.00000000000E+00  0.00000000000E+00  0.11367317970E+04  0.11435841327E+04  0.12500196064E+03 0.  0.
    9000005    1    3    3    0    0  0.28745233886E+02  0.53369869734E+02  0.70733356061E+03  0.70992703670E+03  0.10000000000E+01 0.  0.
    9000005    1    3    3    0    0 -0.28745233886E+02 -0.53369869734E+02  0.42939823643E+03  0.43365709600E+03  0.10000000000E+01 0.  0.
<mgrwt>
<rscale>  0 0.12500196E+03</rscale>
<asrwt>0</asrwt>
<pdfrwt beam="1">  1        4 0.17540888E+00 0.12500196E+03</pdfrwt>
<pdfrwt beam="2">  1       -4 0.52710286E-03 0.12500196E+03</pdfrwt>
<totfact> 0.26237805E+03</totfact>
</mgrwt>
</event>
<event>
 5    1  0.3312904E-002  0.1250027E+03  0.7818608E-02  0.1235065E+00
         -4   -1    0    0    0  501 -0.00000000000E+00  0.00000000000E+00  0.55814323147E+02  0.55828770078E+02  0.12700000000E+01 0.  1.
          4   -1    0    0  501    0  0.00000000000E+00 -0.00000000000E+00 -0.69960260024E+02  0.69971786333E+02  0.12700000000E+01 0.  1.
         25    2    1    2    0    0  0.00000000000E+00  0.00000000000E+00 -0.14145936877E+02  0.12580055641E+03  0.12500268982E+03 0.  0.
    9000005    1    3    3    0    0  0.57106686515E+02 -0.15062105365E+02  0.13487248651E+02  0.60588336658E+02  0.10000000000E+01 0.  0.
    9000005    1    3    3    0    0 -0.57106686515E+02  0.15062105365E+02 -0.27633185528E+02  0.65212219754E+02  0.10000000000E+01 0.  0.
<mgrwt>
<rscale>  0 0.12500269E+03</rscale>
<asrwt>0</asrwt>
<pdfrwt beam="2">  1        4 0.10765115E-01 0.12500269E+03</pdfrwt>
<pdfrwt beam="1">  1       -4 0.85888168E-02 0.12500269E+03</pdfrwt>
<totfact> 0.10434700E+04</totfact>
</mgrwt>
</event>
<event>
 5    1  0.3312904E-002  0.1250052E+03  0.7818608E-02  0.1235061E+00
          4   -1    0    0  501    0  0.00000000000E+00  0.00000000000E+00  0.63192781636E+02  0.63205542090E+02  0.12700000000E+01 0.  1.
         -4   -1    0    0    0  501 -0.00000000000E+00 -0.00000000000E+00 -0.61794460582E+02  0.61807509727E+02  0.12700000000E+01 0.  1.
         25    2    1    2    0    0  0.00000000000E+00  0.00000000000E+00  0.13983210537E+01  0.12501305182E+03  0.12500523118E+03 0.  0.
    9000005    1    3    3    0    0  0.59840883507E+02 -0.14953916038E+02  0.10750959031E+02  0.62618959300E+02  0.10000000000E+01 0.  0.
    9000005    1    3    3    0    0 -0.59840883507E+02  0.14953916038E+02 -0.93526379777E+01  0.62394092516E+02  0.10000000000E+01 0.  0.
<mgrwt>
<rscale>  0 0.12500523E+03</rscale>
<asrwt>0</asrwt>
<pdfrwt beam="1">  1        4 0.97239517E-02 0.12500523E+03</pdfrwt>
<pdfrwt beam="2">  1       -4 0.95088255E-02 0.12500523E+03</pdfrwt>
<totfact> 0.10451343E+04</totfact>
</mgrwt>
</event>
<event>
 5    1  0.3312904E-002  0.1249592E+03  0.7818608E-02  0.1235133E+00
         -4   -1    0    0    0  501 -0.00000000000E+00  0.00000000000E+00  0.14817174555E+04  0.14817179998E+04  0.12700000000E+01 0. -1.
          4   -1    0    0  501    0  0.00000000000E+00 -0.00000000000E+00 -0.24809511469E+01  0.27871165374E+01  0.12700000000E+01 0. -1.
         25    2    1    2    0    0  0.00000000000E+00  0.00000000000E+00  0.14792365044E+04  0.14845051163E+04  0.12495921144E+03 0.  0.
    9000005    1    3    3    0    0 -0.38784913698E+02  0.40079716994E+02  0.40527763302E+03  0.40909853712E+03  0.10000000000E+01 0.  0.
    9000005    1    3    3    0    0  0.38784913698E+02 -0.40079716994E+02  0.10739588714E+04  0.10754065792E+04  0.10000000000E+01 0.  0.
<mgrwt>
<rscale>  0 0.12495921E+03</rscale>
<asrwt>0</asrwt>
<pdfrwt beam="2">  1        4 0.40527848E-03 0.12495921E+03</pdfrwt>
<pdfrwt beam="1">  1       -4 0.22797977E+00 0.12495921E+03</pdfrwt>
<totfact> 0.18253197E+03</totfact>
</mgrwt>
</event>
<event>
 5    1  0.3312904E-002  0.1249998E+03  0.7818608E-02  0.1235070E+00
         -4   -1    0    0    0  501 -0.00000000000E+00  0.00000000000E+00  0.44489950299E+02  0.44508073174E+02  0.12700000000E+01 0. -1.
          4   -1    0    0  501    0  0.00000000000E+00 -0.00000000000E+00 -0.87759825084E+02  0.87769013887E+02  0.12700000000E+01 0. -1.
         25    2    1    2    0    0  0.00000000000E+00  0.00000000000E+00 -0.43269874784E+02  0.13227708706E+03  0.12499978279E+03 0.  0.
    9000005    1    3    3    0    0  0.20045432907E+02 -0.19262964955E+02 -0.80860728141E+02  0.85512212899E+02  0.10000000000E+01 0.  0.
    9000005    1    3    3    0    0 -0.20045432907E+02  0.19262964955E+02  0.37590853357E+02  0.46764874162E+02  0.10000000000E+01 0.  0.
<mgrwt>
<rscale>  0 0.12499978E+03</rscale>
<asrwt>0</asrwt>
<pdfrwt beam="2">  1        4 0.13503612E-01 0.12499978E+03</pdfrwt>
<pdfrwt beam="1">  1       -4 0.68467086E-02 0.12499978E+03</pdfrwt>
<totfact> 0.10295838E+04</totfact>
</mgrwt>
</event>
<event>
 4    1  0.3312904E-002  0.1248920E+03  0.7818608E-02  0.1235238E+00
          4   -1    0    0  501    0  0.00000000000E+00  0.00000000000E+00  0.22423214978E+01  0.25769954791E+01  0.12700000000E+01 0.  1.
         -4   -1    0    0    0  501 -0.00000000000E+00 -0.00000000000E+00 -0.16179463403E+04  0.16179468388E+04  0.12700000000E+01 0.  1.
    9000005    1    1    2    0    0  0.55801179048E-01  0.36208826757E+02 -0.14678678959E+04  0.14683147626E+04  0.10000000000E+01 0.  0.
    9000005    1    1    2    0    0 -0.55801179048E-01 -0.36208826757E+02 -0.14783612287E+03  0.15220907159E+03  0.10000000000E+01 0.  0.
<mgrwt>
<rscale>  0 0.12489204E+03</rscale>
<asrwt>0</asrwt>
<pdfrwt beam="1">  1        4 0.37075632E-03 0.12489204E+03</pdfrwt>
<pdfrwt beam="2">  1       -4 0.24893974E+00 0.12489204E+03</pdfrwt>
<totfact> 0.15715174E+03</totfact>
</mgrwt>
</event>
<event>
 5    1  0.3312904E-002  0.1250011E+03  0.7818608E-02  0.1235067E+00
         -4   -1    0    0    0  501 -0.00000000000E+00  0.00000000000E+00  0.29077387022E+02  0.29105108418E+02  0.12700000000E+01 0. -1.
          4   -1    0    0  501    0  0.00000000000E+00 -0.00000000000E+00 -0.13424750363E+03  0.13425351068E+03  0.12700000000E+01 0. -1.
         25    2    1    2    0    0  0.00000000000E+00  0.00000000000E+00 -0.10517011661E+03  0.16335861910E+03  0.12500114002E+03 0.  0.
    9000005    1    3    3    0    0 -0.56987272837E+01 -0.61700150559E+02 -0.63196961142E+02  0.88511242050E+02  0.10000000000E+01 0.  0.
    9000005    1    3    3    0    0  0.56987272837E+01  0.61700150559E+02 -0.41973155465E+02  0.74847377050E+02  0.10000000000E+01 0.  0.
<mgrwt>
<rscale>  0 0.12500114E+03</rscale>
<asrwt>0</asrwt>
<pdfrwt beam="2">  1        4 0.20656056E-01 0.12500114E+03</pdfrwt>
<pdfrwt beam="1">  1       -4 0.44760387E-02 0.12500114E+03</pdfrwt>
<totfact> 0.96696673E+03</totfact>
</mgrwt>
</event>
<event>
 5    1  0.3312904E-002  0.1249983E+03  0.7818608E-02  0.1235072E+00
         -4   -1    0    0    0  501 -0.00000000000E+00  0.00000000000E+00  0.21519651531E+02  0.21557094007E+02  0.12700000000E+01 0.  1.
          4   -1    0    0  501    0  0.00000000000E+00 -0.00000000000E+00 -0.18131775925E+03  0.18132220691E+03  0.12700000000E+01 0.  1.
         25    2    1    2    0    0  0.00000000000E+00  0.00000000000E+00 -0.15979810771E+03  0.20287930092E+03  0.12499830203E+03 0.  0.
    9000005    1    3    3    0    0  0.16369042079E+02 -0.57269257458E+02 -0.49213820960E+02  0.77270392531E+02  0.10000000000E+01 0.  0.
    9000005    1    3    3    0    0 -0.16369042079E+02  0.57269257458E+02 -0.11058428676E+03  0.12560890838E+03  0.10000000000E+01 0.  0.
<mgrwt>
<rscale>  0 0.12499830E+03</rscale>
<asrwt>0</asrwt>
<pdfrwt beam="2">  1        4 0.27898261E-01 0.12499830E+03</pdfrwt>
<pdfrwt beam="1">  1       -4 0.33139381E-02 0.12499830E+03</pdfrwt>
<totfact> 0.89655557E+03</totfact>
</mgrwt>
</event>
<event>
 5    1  0.3312904E-002  0.1250050E+03  0.7818608E-02  0.1235061E+00
          4   -1    0    0  501    0  0.00000000000E+00  0.00000000000E+00  0.20676511883E+03  0.20676901911E+03  0.12700000000E+01 0.  1.
         -4   -1    0    0    0  501 -0.00000000000E+00 -0.00000000000E+00 -0.18868309417E+02  0.18911002095E+02  0.12700000000E+01 0.  1.
         25    2    1    2    0    0  0.00000000000E+00  0.00000000000E+00  0.18789680941E+03  0.22568002121E+03  0.12500504384E+03 0.  0.
    9000005    1    3    3    0    0  0.32266330938E+02 -0.51736007044E+02  0.11869146996E+03  0.13344060693E+03  0.10000000000E+01 0.  0.
    9000005    1    3    3    0    0 -0.32266330938E+02  0.51736007044E+02  0.69205339450E+02  0.92239414273E+02  0.10000000000E+01 0.  0.
<mgrwt>
<rscale>  0 0.12500504E+03</rscale>
<asrwt>0</asrwt>
<pdfrwt beam="1">  1        4 0.31813602E-01 0.12500504E+03</pdfrwt>
<pdfrwt beam="2">  1       -4 0.29064009E-02 0.12500504E+03</pdfrwt>
<totfact> 0.85967699E+03</totfact>
</mgrwt>
</event>
<event>
 5    1  0.3312904E-002  0.1249523E+03  0.7818608E-02  0.1235144E+00
         -4   -1    0    0    0  501 -0.00000000000E+00  0.00000000000E+00  0.10672619082E+02  0.10747915988E+02  0.12700000000E+01 0. -1.
          4   -1    0    0  501    0  0.00000000000E+00 -0.00000000000E+00 -0.36436526600E+03  0.36436747930E+03  0.12700000000E+01 0. -1.
         25    2    1    2    0    0  0.00000000000E+00  0.00000000000E+00 -0.35369264692E+03  0.37511539528E+03  0.12495227606E+03 0.  0.
    9000005    1    3    3    0    0  0.39278140388E+02 -0.37906775511E+02 -0.26803078211E+03  0.27353463419E+03  0.10000000000E+01 0.  0.
    9000005    1    3    3    0    0 -0.39278140388E+02  0.37906775511E+02 -0.85661864808E+02  0.10158076109E+03  0.10000000000E+01 0.  0.
<mgrwt>
<rscale>  0 0.12495228E+03</rscale>
<asrwt>0</asrwt>
<pdfrwt beam="2">  1        4 0.56062148E-01 0.12495228E+03</pdfrwt>
<pdfrwt beam="1">  1       -4 0.16479040E-02 0.12495228E+03</pdfrwt>
<totfact> 0.67117921E+03</totfact>
</mgrwt>
</event>
<event>
 5    1  0.3312904E-002  0.1249950E+03  0.7818608E-02  0.1235077E+00
          4   -1    0    0  501    0  0.00000000000E+00  0.00000000000E+00  0.11472925690E+03  0.11473628584E+03  0.12700000000E+01 0.  1.
         -4   -1    0    0    0  501 -0.00000000000E+00 -0.00000000000E+00 -0.34024894055E+02  0.34048587569E+02  0.12700000000E+01 0.  1.
         25    2    1    2    0    0  0.00000000000E+00  0.00000000000E+00  0.80704362847E+02  0.14878487341E+03  0.12499497740E+03 0.  0.
    9000005    1    3    3    0    0 -0.61318383205E+02 -0.12025811355E+02  0.41078023027E+02  0.74786150011E+02  0.10000000000E+01 0.  0.
    9000005    1    3    3    0    0  0.61318383205E+02  0.12025811355E+02  0.39626339819E+02  0.73998723402E+02  0.10000000000E+01 0.  0.
<mgrwt>
<rscale>  0 0.12499498E+03</rscale>
<asrwt>0</asrwt>
<pdfrwt beam="1">  1        4 0.17653018E-01 0.12499498E+03</pdfrwt>
<pdfrwt beam="2">  1       -4 0.52369623E-02 0.12499498E+03</pdfrwt>
<totfact> 0.99557723E+03</totfact>
</mgrwt>
</event>
<event>
 5    1  0.3312904E-002  0.1250021E+03  0.7818608E-02  0.1235066E+00
          4   -1    0    0  501    0  0.00000000000E+00  0.00000000000E+00  0.22268510270E+03  0.22268872415E+03  0.12700000000E+01 0. -1.
         -4   -1    0    0    0  501 -0.00000000000E+00 -0.00000000000E+00 -0.17515406815E+02  0.17561388780E+02  0.12700000000E+01 0. -1.
         25    2    1    2    0    0  0.00000000000E+00  0.00000000000E+00  0.20516969589E+03  0.24025011293E+03  0.12500205060E+03 0.  0.
    9000005    1    3    3    0    0 -0.32755449451E+02  0.52742330664E+02  0.11627073437E+03  0.13181258128E+03  0.10000000000E+01 0.  0.
    9000005    1    3    3    0    0  0.32755449451E+02 -0.52742330664E+02  0.88898961513E+02  0.10843753165E+03  0.10000000000E+01 0.  0.
<mgrwt>
<rscale>  0 0.12500205E+03</rscale>
<asrwt>0</asrwt>
<pdfrwt beam="1">  1        4 0.34263060E-01 0.12500205E+03</pdfrwt>
<pdfrwt beam="2">  1       -4 0.26984938E-02 0.12500205E+03</pdfrwt>
<totfact> 0.83756304E+03</totfact>
</mgrwt>
</event>
<event>
 5    1  0.3312904E-002  0.1250006E+03  0.7818608E-02  0.1235068E+00
          4   -1    0    0  501    0  0.00000000000E+00  0.00000000000E+00  0.75105692593E+02  0.75116429361E+02  0.12700000000E+01 0.  1.
         -4   -1    0    0    0  501 -0.00000000000E+00 -0.00000000000E+00 -0.51988341588E+02  0.52003851406E+02  0.12700000000E+01 0.  1.
         25    2    1    2    0    0  0.00000000000E+00  0.00000000000E+00  0.23117351005E+02  0.12712028077E+03  0.12500061546E+03 0.  0.
    9000005    1    3    3    0    0 -0.13121285474E+02  0.59686486219E+02  0.24843255160E+02  0.65975996367E+02  0.10000000000E+01 0.  0.
    9000005    1    3    3    0    0  0.13121285474E+02 -0.59686486219E+02 -0.17259041547E+01  0.61144284400E+02  0.10000000000E+01 0.  0.
<mgrwt>
<rscale>  0 0.12500062E+03</rscale>
<asrwt>0</asrwt>
<pdfrwt beam="1">  1        4 0.11556741E-01 0.12500062E+03</pdfrwt>
<pdfrwt beam="2">  1       -4 0.80002253E-02 0.12500062E+03</pdfrwt>
<totfact> 0.10406389E+04</totfact>
</mgrwt>
</event>
<event>
 5    1  0.3312904E-002  0.1249966E+03  0.7818608E-02  0.1235075E+00
          4   -1    0    0  501    0  0.00000000000E+00  0.00000000000E+00  0.35379913946E+01  0.37590268832E+01  0.12700000000E+01 0. -1.
         -4   -1    0    0    0  501 -0.00000000000E+00 -0.00000000000E+00 -0.10703624783E+04  0.10703632318E+04  0.12700000000E+01 0. -1.
         25    2    1    2    0    0  0.00000000000E+00  0.00000000000E+00 -0.10668244869E+04  0.10741222586E+04  0.12499656236E+03 0.  0.
    9000005    1    3    3    0    0 -0.39795987683E+02  0.42830023447E+02 -0.34379529958E+03  0.34873247562E+03  0.10000000000E+01 0.  0.
    9000005    1    3    3    0    0  0.39795987683E+02 -0.42830023447E+02 -0.72302918735E+03  0.72538978302E+03  0.10000000000E+01 0.  0.
<mgrwt>
<rscale>  0 0.12499656E+03</rscale>
<asrwt>0</asrwt>
<pdfrwt beam="1">  1        4 0.56136791E-03 0.12499656E+03</pdfrwt>
<pdfrwt beam="2">  1       -4 0.16468796E+00 0.12499656E+03</pdfrwt>
<totfact> 0.28255541E+03</totfact>
</mgrwt>
</event>
<event>
 5    1  0.3312904E-002  0.1249998E+03  0.7818608E-02  0.1235070E+00
         -4   -1    0    0    0  501 -0.00000000000E+00  0.00000000000E+00  0.14769517177E+02  0.14824018943E+02  0.12700000000E+01 0. -1.
          4   -1    0    0  501    0  0.00000000000E+00 -0.00000000000E+00 -0.26393678028E+03  0.26393983573E+03  0.12700000000E+01 0. -1.
         25    2    1    2    0    0  0.00000000000E+00  0.00000000000E+00 -0.24916726310E+03  0.27876385467E+03  0.12499984668E+03 0.  0.
    9000005    1    3    3    0    0  0.29540173917E+01  0.49753941744E+01 -0.26334902637E+03  0.26341448415E+03  0.10000000000E+01 0.  0.
    9000005    1    3    3    0    0 -0.29540173917E+01 -0.49753941744E+01  0.14181763273E+02  0.15349370524E+02  0.10000000000E+01 0.  0.
<mgrwt>
<rscale>  0 0.12499985E+03</rscale>
<asrwt>0</asrwt>
<pdfrwt beam="2">  1        4 0.40610083E-01 0.12499985E+03</pdfrwt>
<pdfrwt beam="1">  1       -4 0.22766611E-02 0.12499985E+03</pdfrwt>
<totfact> 0.78342564E+03</totfact>
</mgrwt>
</event>
<event>
 5    1  0.3312904E-002  0.1250000E+03  0.7818608E-02  0.1235069E+00
          4   -1    0    0  501    0  0.00000000000E+00  0.00000000000E+00  0.25212871654E+02  0.25244837037E+02  0.12700000000E+01 0. -1.
         -4   -1    0    0    0  501 -0.00000000000E+00 -0.00000000000E+00 -0.15479815909E+03  0.15480336869E+03  0.12700000000E+01 0. -1.
         25    2    1    2    0    0  0.00000000000E+00  0.00000000000E+00 -0.12958528743E+03  0.18004820572E+03  0.12500003866E+03 0.  0.
    9000005    1    3    3    0    0 -0.37651140881E+02 -0.48755426698E+02 -0.49647873542E+02  0.79124025361E+02  0.10000000000E+01 0.  0.
    9000005    1    3    3    0    0  0.37651140881E+02  0.48755426698E+02 -0.79937413891E+02  0.10092418036E+03  0.10000000000E+01 0.  0.
<mgrwt>
<rscale>  0 0.12500004E+03</rscale>
<asrwt>0</asrwt>
<pdfrwt beam="1">  1        4 0.38817630E-02 0.12500004E+03</pdfrwt>
<pdfrwt beam="2">  1       -4 0.23817960E-01 0.12500004E+03</pdfrwt>
<totfact> 0.93608246E+03</totfact>
</mgrwt>
</event>
<event>
 5    1  0.3312904E-002  0.1249989E+03  0.7818608E-02  0.1235071E+00
         -4   -1    0    0    0  501 -0.00000000000E+00  0.00000000000E+00  0.13228614487E+02  0.13289437206E+02  0.12700000000E+01 0.  1.
          4   -1    0    0  501    0  0.00000000000E+00 -0.00000000000E+00 -0.29454343379E+03  0.29454617174E+03  0.12700000000E+01 0.  1.
         25    2    1    2    0    0  0.00000000000E+00  0.00000000000E+00 -0.28131481930E+03  0.30783560895E+03  0.12499893831E+03 0.  0.
    9000005    1    3    3    0    0  0.55935541361E+02 -0.27582624939E+02 -0.13093123114E+03  0.14502956000E+03  0.10000000000E+01 0.  0.
    9000005    1    3    3    0    0 -0.55935541361E+02  0.27582624939E+02 -0.15038358816E+03  0.16280604894E+03  0.10000000000E+01 0.  0.
<mgrwt>
<rscale>  0 0.12499894E+03</rscale>
<asrwt>0</asrwt>
<pdfrwt beam="2">  1        4 0.45319259E-01 0.12499894E+03</pdfrwt>
<pdfrwt beam="1">  1       -4 0.20400610E-02 0.12499894E+03</pdfrwt>
<totfact> 0.74628110E+03</totfact>
</mgrwt>
</event>
<event>
 5    1  0.3312904E-002  0.1250015E+03  0.7818608E-02  0.1235067E+00
         -4   -1    0    0    0  501 -0.00000000000E+00  0.00000000000E+00  0.75102781939E+02  0.75113519123E+02  0.12700000000E+01 0. -1.
          4   -1    0    0  501    0  0.00000000000E+00 -0.00000000000E+00 -0.51991086481E+02  0.52006595480E+02  0.12700000000E+01 0. -1.
         25    2    1    2    0    0  0.00000000000E+00  0.00000000000E+00  0.23111695458E+02  0.12712011460E+03  0.12500149227E+03 0.  0.
    9000005    1    3    3    0    0  0.14654543432E+02 -0.50637430147E+02 -0.22575448400E+02  0.57354649729E+02  0.10000000000E+01 0.  0.
    9000005    1    3    3    0    0 -0.14654543432E+02  0.50637430147E+02  0.45687143858E+02  0.69765464874E+02  0.10000000000E+01 0.  0.
<mgrwt>
<rscale>  0 0.12500149E+03</rscale>
<asrwt>0</asrwt>
<pdfrwt beam="2">  1        4 0.80006477E-02 0.12500149E+03</pdfrwt>
<pdfrwt beam="1">  1       -4 0.11556293E-01 0.12500149E+03</pdfrwt>
<totfact> 0.10406187E+04</totfact>
</mgrwt>
</event>
<event>
 5    1  0.3312904E-002  0.1249984E+03  0.7818608E-02  0.1235072E+00
         -4   -1    0    0    0  501 -0.00000000000E+00  0.00000000000E+00  0.59332630025E+02  0.59346220483E+02  0.12700000000E+01 0. -1.
          4   -1    0    0  501    0  0.00000000000E+00 -0.00000000000E+00 -0.65807463948E+02  0.65819717496E+02  0.12700000000E+01 0. -1.
         25    2    1    2    0    0  0.00000000000E+00  0.00000000000E+00 -0.64748339232E+01  0.12516593798E+03  0.12499835421E+03 0.  0.
    9000005    1    3    3    0    0  0.58610678039E+02 -0.65736131731E+01 -0.23922390752E+02  0.63653002676E+02  0.10000000000E+01 0.  0.
    9000005    1    3    3    0    0 -0.58610678039E+02  0.65736131731E+01  0.17447556829E+02  0.61512935304E+02  0.10000000000E+01 0.  0.
<mgrwt>
<rscale>  0 0.12499835E+03</rscale>
<asrwt>0</asrwt>
<pdfrwt beam="2">  1        4 0.10126213E-01 0.12499835E+03</pdfrwt>
<pdfrwt beam="1">  1       -4 0.91300850E-02 0.12499835E+03</pdfrwt>
<totfact> 0.10449648E+04</totfact>
</mgrwt>
</event>
<event>
 5    1  0.3312904E-002  0.1250008E+03  0.7818608E-02  0.1235068E+00
         -4   -1    0    0    0  501 -0.00000000000E+00  0.00000000000E+00  0.20696949981E+03  0.20697339624E+03  0.12700000000E+01 0.  1.
          4   -1    0    0  501    0  0.00000000000E+00 -0.00000000000E+00 -0.18848346866E+02  0.18891084659E+02  0.12700000000E+01 0.  1.
         25    2    1    2    0    0  0.00000000000E+00  0.00000000000E+00  0.18812115294E+03  0.22586448090E+03  0.12500078219E+03 0.  0.
    9000005    1    3    3    0    0  0.54152953641E+02 -0.18447887285E+02  0.13950097288E+03  0.15077927035E+03  0.10000000000E+01 0.  0.
    9000005    1    3    3    0    0 -0.54152953641E+02  0.18447887285E+02  0.48620180059E+02  0.75085210543E+02  0.10000000000E+01 0.  0.
<mgrwt>
<rscale>  0 0.12500078E+03</rscale>
<asrwt>0</asrwt>
<pdfrwt beam="2">  1        4 0.29033328E-02 0.12500078E+03</pdfrwt>
<pdfrwt beam="1">  1       -4 0.31845050E-01 0.12500078E+03</pdfrwt>
<totfact> 0.85947179E+03</totfact>
</mgrwt>
</event>
<event>
 5    1  0.3312904E-002  0.1250141E+03  0.7818608E-02  0.1235047E+00
          4   -1    0    0  501    0  0.00000000000E+00  0.00000000000E+00  0.33307938238E+02  0.33332141390E+02  0.12700000000E+01 0.  1.
         -4   -1    0    0    0  501 -0.00000000000E+00 -0.00000000000E+00 -0.11723298173E+03  0.11723986056E+03  0.12700000000E+01 0.  1.
         25    2    1    2    0    0  0.00000000000E+00  0.00000000000E+00 -0.83925043489E+02  0.15057200195E+03  0.12501405860E+03 0.  0.
    9000005    1    3    3    0    0 -0.55716002908E+02 -0.19431536073E+01 -0.75988338007E+02  0.94251134417E+02  0.10000000000E+01 0.  0.
    9000005    1    3    3    0    0  0.55716002908E+02  0.19431536073E+01 -0.79367054829E+01  0.56320867535E+02  0.10000000000E+01 0.  0.
<mgrwt>
<rscale>  0 0.12501406E+03</rscale>
<asrwt>0</asrwt>
<pdfrwt beam="1">  1        4 0.51266892E-02 0.12501406E+03</pdfrwt>
<pdfrwt beam="2">  1       -4 0.18038234E-01 0.12501406E+03</pdfrwt>
<totfact> 0.99158425E+03</totfact>
</mgrwt>
</event>
<event>
 5    1  0.3312904E-002  0.1250002E+03  0.7818608E-02  0.1235069E+00
         -4   -1    0    0    0  501 -0.00000000000E+00  0.00000000000E+00  0.14687027144E+02  0.14741833887E+02  0.12700000000E+01 0.  1.
          4   -1    0    0  501    0  0.00000000000E+00 -0.00000000000E+00 -0.26541530003E+03  0.26541833846E+03  0.12700000000E+01 0.  1.
         25    2    1    2    0    0  0.00000000000E+00  0.00000000000E+00 -0.25072827289E+03  0.28016017235E+03  0.12500022138E+03 0.  0.
    9000005    1    3    3    0    0 -0.43187581356E+02 -0.44475170312E+02 -0.14301992331E+03  0.15588106498E+03  0.10000000000E+01 0.  0.
    9000005    1    3    3    0    0  0.43187581356E+02  0.44475170312E+02 -0.10770834958E+03  0.12427910737E+03  0.10000000000E+01 0.  0.
<mgrwt>
<rscale>  0 0.12500022E+03</rscale>
<asrwt>0</asrwt>
<pdfrwt beam="2">  1        4 0.40837569E-01 0.12500022E+03</pdfrwt>
<pdfrwt beam="1">  1       -4 0.22639925E-02 0.12500022E+03</pdfrwt>
<totfact> 0.78156489E+03</totfact>
</mgrwt>
</event>
<event>
 5    1  0.3312904E-002  0.1249835E+03  0.7818608E-02  0.1235095E+00
         -4   -1    0    0    0  501 -0.00000000000E+00  0.00000000000E+00  0.20998451249E+03  0.20998835298E+03  0.12700000000E+01 0.  1.
          4   -1    0    0  501    0  0.00000000000E+00 -0.00000000000E+00 -0.18571962690E+02  0.18615335027E+02  0.12700000000E+01 0.  1.
         25    2    1    2    0    0  0.00000000000E+00  0.00000000000E+00  0.19141254980E+03  0.22860368800E+03  0.12498352671E+03 0.  0.
    9000005    1    3    3    0    0  0.17906415160E+02 -0.17174612443E+02 -0.91843983584E+01  0.26475652771E+02  0.10000000000E+01 0.  0.
    9000005    1    3    3    0    0 -0.17906415160E+02  0.17174612443E+02  0.20059694816E+03  0.20212803523E+03  0.10000000000E+01 0.  0.
<mgrwt>
<rscale>  0 0.12498353E+03</rscale>
<asrwt>0</asrwt>
<pdfrwt beam="2">  1        4 0.28608568E-02 0.12498353E+03</pdfrwt>
<pdfrwt beam="1">  1       -4 0.32308941E-01 0.12498353E+03</pdfrwt>
<totfact> 0.85555909E+03</totfact>
</mgrwt>
</event>
<event>
 5    1  0.3312904E-002  0.1249965E+03  0.7818608E-02  0.1235075E+00
         -4   -1    0    0    0  501 -0.00000000000E+00  0.00000000000E+00  0.15358336185E+03  0.15358861265E+03  0.12700000000E+01 0.  1.
          4   -1    0    0  501    0  0.00000000000E+00 -0.00000000000E+00 -0.25411098737E+02  0.25442815077E+02  0.12700000000E+01 0.  1.
         25    2    1    2    0    0  0.00000000000E+00  0.00000000000E+00  0.12817226311E+03  0.17903142773E+03  0.12499649229E+03 0.  0.
    9000005    1    3    3    0    0  0.30670758435E+02 -0.14261579661E+02 -0.11173163412E+02  0.35636044366E+02  0.10000000000E+01 0.  0.
    9000005    1    3    3    0    0 -0.30670758435E+02  0.14261579661E+02  0.13934542652E+03  0.14339538337E+03  0.10000000000E+01 0.  0.
<mgrwt>
<rscale>  0 0.12499649E+03</rscale>
<asrwt>0</asrwt>
<pdfrwt beam="2">  1        4 0.39122435E-02 0.12499649E+03</pdfrwt>
<pdfrwt beam="1">  1       -4 0.23631053E-01 0.12499649E+03</pdfrwt>
<totfact> 0.93799018E+03</totfact>
</mgrwt>
</event>
<event>
 5    1  0.3312904E-002  0.1250073E+03  0.7818608E-02  0.1235058E+00
          4   -1    0    0  501    0  0.00000000000E+00  0.00000000000E+00  0.21310400978E+02  0.21348210460E+02  0.12700000000E+01 0.  1.
         -4   -1    0    0    0  501 -0.00000000000E+00 -0.00000000000E+00 -0.18312138695E+03  0.18312579081E+03  0.12700000000E+01 0.  1.
         25    2    1    2    0    0  0.00000000000E+00  0.00000000000E+00 -0.16181098597E+03  0.20447400127E+03  0.12500728784E+03 0.  0.
    9000005    1    3    3    0    0 -0.43070275766E+02  0.31188896119E+02 -0.13460792256E+03  0.14473454567E+03  0.10000000000E+01 0.  0.
    9000005    1    3    3    0    0  0.43070275766E+02 -0.31188896119E+02 -0.27203063415E+02  0.59739455595E+02  0.10000000000E+01 0.  0.
<mgrwt>
<rscale>  0 0.12500729E+03</rscale>
<asrwt>0</asrwt>
<pdfrwt beam="1">  1        4 0.32817705E-02 0.12500729E+03</pdfrwt>
<pdfrwt beam="2">  1       -4 0.28175767E-01 0.12500729E+03</pdfrwt>
<totfact> 0.89371807E+03</totfact>
</mgrwt>
</event>
<event>
 5    1  0.3312904E-002  0.1249970E+03  0.7818608E-02  0.1235074E+00
         -4   -1    0    0    0  501 -0.00000000000E+00  0.00000000000E+00  0.85557069783E+02  0.85566495136E+02  0.12700000000E+01 0. -1.
          4   -1    0    0  501    0  0.00000000000E+00 -0.00000000000E+00 -0.45633707573E+02  0.45651376396E+02  0.12700000000E+01 0. -1.
         25    2    1    2    0    0  0.00000000000E+00  0.00000000000E+00  0.39923362209E+02  0.13121787153E+03  0.12499701980E+03 0.  0.
    9000005    1    3    3    0    0  0.48323971288E+02  0.39618390490E+02  0.19446680571E+02  0.65452245579E+02  0.10000000000E+01 0.  0.
    9000005    1    3    3    0    0 -0.48323971288E+02 -0.39618390490E+02  0.20476681638E+02  0.65765625953E+02  0.10000000000E+01 0.  0.
<mgrwt>
<rscale>  0 0.12499702E+03</rscale>
<asrwt>0</asrwt>
<pdfrwt beam="2">  1        4 0.70226546E-02 0.12499702E+03</pdfrwt>
<pdfrwt beam="1">  1       -4 0.13164710E-01 0.12499702E+03</pdfrwt>
<totfact> 0.10319115E+04</totfact>
</mgrwt>
</event>
<event>
 5    1  0.3312904E-002  0.1249977E+03  0.7818608E-02  0.1235073E+00
          4   -1    0    0  501    0  0.00000000000E+00  0.00000000000E+00  0.96601032367E+01  0.97432281378E+01  0.12700000000E+01 0.  1.
         -4   -1    0    0    0  501 -0.00000000000E+00 -0.00000000000E+00 -0.40253787248E+03  0.40253987589E+03  0.12700000000E+01 0.  1.
         25    2    1    2    0    0  0.00000000000E+00  0.00000000000E+00 -0.39287776924E+03  0.41228310402E+03  0.12499766518E+03 0.  0.
    9000005    1    3    3    0    0  0.30971501385E+02 -0.25515623776E+02 -0.38434825332E+02  0.55574425350E+02  0.10000000000E+01 0.  0.
    9000005    1    3    3    0    0 -0.30971501385E+02  0.25515623776E+02 -0.35444294391E+03  0.35670867867E+03  0.10000000000E+01 0.  0.
<mgrwt>
<rscale>  0 0.12499767E+03</rscale>
<asrwt>0</asrwt>
<pdfrwt beam="1">  1        4 0.14927184E-02 0.12499767E+03</pdfrwt>
<pdfrwt beam="2">  1       -4 0.61935439E-01 0.12499767E+03</pdfrwt>
<totfact> 0.63378699E+03</totfact>
</mgrwt>
</event>
<event>
 5    1  0.3312904E-002  0.1249823E+03  0.7818608E-02  0.1235097E+00
          4   -1    0    0  501    0  0.00000000000E+00  0.00000000000E+00  0.10779080556E+02  0.10853638912E+02  0.12700000000E+01 0. -1.
         -4   -1    0    0    0  501 -0.00000000000E+00 -0.00000000000E+00 -0.36096463269E+03  0.36096686683E+03  0.12700000000E+01 0. -1.
         25    2    1    2    0    0  0.00000000000E+00  0.00000000000E+00 -0.35018555213E+03  0.37182050574E+03  0.12498226902E+03 0.  0.
    9000005    1    3    3    0    0  0.32665827791E+02  0.45855834587E+02 -0.25571039795E+03  0.26183701321E+03  0.10000000000E+01 0.  0.
    9000005    1    3    3    0    0 -0.32665827791E+02 -0.45855834587E+02 -0.94475154185E+02  0.10998349253E+03  0.10000000000E+01 0.  0.
<mgrwt>
<rscale>  0 0.12498227E+03</rscale>
<asrwt>0</asrwt>
<pdfrwt beam="1">  1        4 0.16642275E-02 0.12498227E+03</pdfrwt>
<pdfrwt beam="2">  1       -4 0.55538918E-01 0.12498227E+03</pdfrwt>
<totfact> 0.67415332E+03</totfact>
</mgrwt>
</event>
<event>
 5    1  0.3312904E-002  0.1250004E+03  0.7818608E-02  0.1235069E+00
          4   -1    0    0  501    0  0.00000000000E+00  0.00000000000E+00  0.10365346714E+03  0.10366124710E+03  0.12700000000E+01 0. -1.
         -4   -1    0    0    0  501 -0.00000000000E+00 -0.00000000000E+00 -0.37666023259E+02  0.37687427720E+02  0.12700000000E+01 0. -1.
         25    2    1    2    0    0  0.00000000000E+00  0.00000000000E+00  0.65987443880E+02  0.14134867482E+03  0.12500042049E+03 0.  0.
    9000005    1    3    3    0    0  0.33460252261E+02 -0.15316131041E+02  0.90107954175E+02  0.97337637926E+02  0.10000000000E+01 0.  0.
    9000005    1    3    3    0    0 -0.33460252261E+02  0.15316131041E+02 -0.24120510295E+02  0.44011036893E+02  0.10000000000E+01 0.  0.
<mgrwt>
<rscale>  0 0.12500042E+03</rscale>
<asrwt>0</asrwt>
<pdfrwt beam="1">  1        4 0.15948932E-01 0.12500042E+03</pdfrwt>
<pdfrwt beam="2">  1       -4 0.57970178E-02 0.12500042E+03</pdfrwt>
<totfact> 0.10105614E+04</totfact>
</mgrwt>
</event>
<event>
 5    1  0.3312904E-002  0.1250012E+03  0.7818608E-02  0.1235067E+00
          4   -1    0    0  501    0  0.00000000000E+00  0.00000000000E+00  0.27770377347E+03  0.27770667745E+03  0.12700000000E+01 0.  1.
         -4   -1    0    0    0  501 -0.00000000000E+00 -0.00000000000E+00 -0.14034863651E+02  0.14092206985E+02  0.12700000000E+01 0.  1.
         25    2    1    2    0    0  0.00000000000E+00  0.00000000000E+00  0.26366890982E+03  0.29179888444E+03  0.12500117980E+03 0.  0.
    9000005    1    3    3    0    0  0.14691728246E+02 -0.51262137669E+02  0.20789585381E+03  0.21462837573E+03  0.10000000000E+01 0.  0.
    9000005    1    3    3    0    0 -0.14691728246E+02  0.51262137669E+02  0.55773056018E+02  0.77170508712E+02  0.10000000000E+01 0.  0.
<mgrwt>
<rscale>  0 0.12500118E+03</rscale>
<asrwt>0</asrwt>
<pdfrwt beam="1">  1        4 0.42728292E-01 0.12500118E+03</pdfrwt>
<pdfrwt beam="2">  1       -4 0.21638442E-02 0.12500118E+03</pdfrwt>
<totfact> 0.76637214E+03</totfact>
</mgrwt>
</event>
<event>
 5    1  0.3312904E-002  0.1250155E+03  0.7818608E-02  0.1235045E+00
         -4   -1    0    0    0  501 -0.00000000000E+00  0.00000000000E+00  0.26766462368E+02  0.26796574552E+02  0.12700000000E+01 0.  1.
          4   -1    0    0  501    0  0.00000000000E+00 -0.00000000000E+00 -0.14585943354E+03  0.14586496239E+03  0.12700000000E+01 0.  1.
         25    2    1    2    0    0  0.00000000000E+00  0.00000000000E+00 -0.11909297117E+03  0.17266153694E+03  0.12501548127E+03 0.  0.
    9000005    1    3    3    0    0 -0.11922924000E+02 -0.61348484416E+02 -0.60446847661E+02  0.86951791523E+02  0.10000000000E+01 0.  0.
    9000005    1    3    3    0    0  0.11922924000E+02  0.61348484416E+02 -0.58646123512E+02  0.85709745419E+02  0.10000000000E+01 0.  0.
<mgrwt>
<rscale>  0 0.12501548E+03</rscale>
<asrwt>0</asrwt>
<pdfrwt beam="2">  1        4 0.22442654E-01 0.12501548E+03</pdfrwt>
<pdfrwt beam="1">  1       -4 0.41206590E-02 0.12501548E+03</pdfrwt>
<totfact> 0.94921900E+03</totfact>
</mgrwt>
</event>
<event>
 5    1  0.3312904E-002  0.1250014E+03  0.7818608E-02  0.1235067E+00
          4   -1    0    0  501    0  0.00000000000E+00  0.00000000000E+00  0.62938858407E+03  0.62938986539E+03  0.12700000000E+01 0.  1.
         -4   -1    0    0    0  501 -0.00000000000E+00 -0.00000000000E+00 -0.61402856934E+01  0.62702478736E+01  0.12700000000E+01 0.  1.
         25    2    1    2    0    0  0.00000000000E+00  0.00000000000E+00  0.62324829838E+03  0.63566011326E+03  0.12500135266E+03 0.  0.
    9000005    1    3    3    0    0  0.24749602045E+02  0.56286134287E+02  0.25484632646E+03  0.26216087013E+03  0.10000000000E+01 0.  0.
    9000005    1    3    3    0    0 -0.24749602045E+02 -0.56286134287E+02  0.36840197191E+03  0.37349924314E+03  0.10000000000E+01 0.  0.
<mgrwt>
<rscale>  0 0.12500135E+03</rscale>
<asrwt>0</asrwt>
<pdfrwt beam="1">  1        4 0.96839135E-01 0.12500135E+03</pdfrwt>
<pdfrwt beam="2">  1       -4 0.95475473E-03 0.12500135E+03</pdfrwt>
<totfact> 0.46689935E+03</totfact>
</mgrwt>
</event>
<event>
 5    1  0.3312904E-002  0.1249989E+03  0.7818608E-02  0.1235071E+00
         -4   -1    0    0    0  501 -0.00000000000E+00  0.00000000000E+00  0.28729709191E+03  0.28729989892E+03  0.12700000000E+01 0.  1.
          4   -1    0    0  501    0  0.00000000000E+00 -0.00000000000E+00 -0.13563773940E+02  0.13623100362E+02  0.12700000000E+01 0.  1.
         25    2    1    2    0    0  0.00000000000E+00  0.00000000000E+00  0.27373331797E+03  0.30092299928E+03  0.12499888852E+03 0.  0.
    9000005    1    3    3    0    0  0.13356058626E+02 -0.42474153706E+02  0.31304128296E+02  0.54436995540E+02  0.10000000000E+01 0.  0.
    9000005    1    3    3    0    0 -0.13356058626E+02  0.42474153706E+02  0.24242918968E+03  0.24648600374E+03  0.10000000000E+01 0.  0.
<mgrwt>
<rscale>  0 0.12499889E+03</rscale>
<asrwt>0</asrwt>
<pdfrwt beam="2">  1        4 0.20915140E-02 0.12499889E+03</pdfrwt>
<pdfrwt beam="1">  1       -4 0.44204331E-01 0.12499889E+03</pdfrwt>
<totfact> 0.75485066E+03</totfact>
</mgrwt>
</event>
<event>
 5    1  0.3312904E-002  0.1249983E+03  0.7818608E-02  0.1235072E+00
          4   -1    0    0  501    0  0.00000000000E+00  0.00000000000E+00  0.36293080820E+03  0.36293303024E+03  0.12700000000E+01 0.  1.
         -4   -1    0    0    0  501 -0.00000000000E+00 -0.00000000000E+00 -0.10723050079E+02  0.10797995323E+02  0.12700000000E+01 0.  1.
         25    2    1    2    0    0  0.00000000000E+00  0.00000000000E+00  0.35220775812E+03  0.37373102556E+03  0.12499829834E+03 0.  0.
    9000005    1    3    3    0    0 -0.28653970890E+02  0.25234926725E+02  0.28193737223E+02  0.47473554672E+02  0.10000000000E+01 0.  0.
    9000005    1    3    3    0    0  0.28653970890E+02 -0.25234926725E+02  0.32401402089E+03  0.32625747089E+03  0.10000000000E+01 0.  0.
<mgrwt>
<rscale>  0 0.12499830E+03</rscale>
<asrwt>0</asrwt>
<pdfrwt beam="1">  1        4 0.55841444E-01 0.12499830E+03</pdfrwt>
<pdfrwt beam="2">  1       -4 0.16556360E-02 0.12499830E+03</pdfrwt>
<totfact> 0.67192926E+03</totfact>
</mgrwt>
</event>
<event>
 5    1  0.3312904E-002  0.1250019E+03  0.7818608E-02  0.1235066E+00
         -4   -1    0    0    0  501 -0.00000000000E+00  0.00000000000E+00  0.32497085422E+02  0.32521892025E+02  0.12700000000E+01 0. -1.
          4   -1    0    0  501    0  0.00000000000E+00 -0.00000000000E+00 -0.12013279251E+03  0.12013950531E+03  0.12700000000E+01 0. -1.
         25    2    1    2    0    0  0.00000000000E+00  0.00000000000E+00 -0.87635707091E+02  0.15266139734E+03  0.12500194030E+03 0.  0.
    9000005    1    3    3    0    0  0.33201657081E+02  0.27159876140E+02  0.11684398910E+02  0.44469473606E+02  0.10000000000E+01 0.  0.
    9000005    1    3    3    0    0 -0.33201657081E+02 -0.27159876140E+02 -0.99320106001E+02  0.10819192373E+03  0.10000000000E+01 0.  0.
<mgrwt>
<rscale>  0 0.12500194E+03</rscale>
<asrwt>0</asrwt>
<pdfrwt beam="2">  1        4 0.18484392E-01 0.12500194E+03</pdfrwt>
<pdfrwt beam="1">  1       -4 0.50019762E-02 0.12500194E+03</pdfrwt>
<totfact> 0.98771498E+03</totfact>
</mgrwt>
</event>
<event>
 5    1  0.3312904E-002  0.1249956E+03  0.7818608E-02  0.1235076E+00
         -4   -1    0    0    0  501 -0.00000000000E+00  0.00000000000E+00  0.33295771154E+02  0.33319983145E+02  0.12700000000E+01 0. -1.
          4   -1    0    0  501    0  0.00000000000E+00 -0.00000000000E+00 -0.11724123556E+03  0.11724811391E+03  0.12700000000E+01 0. -1.
         25    2    1    2    0    0  0.00000000000E+00  0.00000000000E+00 -0.83945464407E+02  0.15056809706E+03  0.12499564335E+03 0.  0.
    9000005    1    3    3    0    0 -0.28489035785E+02  0.51619246597E+02 -0.66916868983E+02  0.89191026083E+02  0.10000000000E+01 0.  0.
    9000005    1    3    3    0    0  0.28489035785E+02 -0.51619246597E+02 -0.17028595424E+02  0.61377070974E+02  0.10000000000E+01 0.  0.
<mgrwt>
<rscale>  0 0.12499564E+03</rscale>
<asrwt>0</asrwt>
<pdfrwt beam="2">  1        4 0.18039505E-01 0.12499564E+03</pdfrwt>
<pdfrwt beam="1">  1       -4 0.51248179E-02 0.12499564E+03</pdfrwt>
<totfact> 0.99200303E+03</totfact>
</mgrwt>
</event>
<event>
 5    1  0.3312904E-002  0.1249976E+03  0.7818608E-02  0.1235073E+00
          4   -1    0    0  501    0  0.00000000000E+00  0.00000000000E+00  0.10541146046E+02  0.10617375380E+02  0.12700000000E+01 0. -1.
         -4   -1    0    0    0  501 -0.00000000000E+00 -0.00000000000E+00 -0.36914488396E+03  0.36914706859E+03  0.12700000000E+01 0. -1.
         25    2    1    2    0    0  0.00000000000E+00  0.00000000000E+00 -0.35860373791E+03  0.37976444397E+03  0.12499756823E+03 0.  0.
    9000005    1    3    3    0    0 -0.98391703048E+01  0.45047013141E+01  0.76877583794E+01  0.13311770548E+02  0.10000000000E+01 0.  0.
    9000005    1    3    3    0    0  0.98391703048E+01 -0.45047013141E+01 -0.36629149629E+03  0.36645267342E+03  0.10000000000E+01 0.  0.
<mgrwt>
<rscale>  0 0.12499757E+03</rscale>
<asrwt>0</asrwt>
<pdfrwt beam="1">  1        4 0.16277469E-02 0.12499757E+03</pdfrwt>
<pdfrwt beam="2">  1       -4 0.56797543E-01 0.12499757E+03</pdfrwt>
<totfact> 0.66573198E+03</totfact>
</mgrwt>
</event>
<event>
 5    1  0.3312904E-002  0.1250012E+03  0.7818608E-02  0.1235067E+00
         -4   -1    0    0    0  501 -0.00000000000E+00  0.00000000000E+00  0.66490108895E+01  0.67692130863E+01  0.12700000000E+01 0.  1.
          4   -1    0    0  501    0  0.00000000000E+00 -0.00000000000E+00 -0.58212054282E+03  0.58212192819E+03  0.12700000000E+01 0.  1.
         25    2    1    2    0    0  0.00000000000E+00  0.00000000000E+00 -0.57547153193E+03  0.58889114127E+03  0.12500116881E+03 0.  0.
    9000005    1    3    3    0    0 -0.42046369482E+02 -0.45801761016E+02 -0.31739112129E+03  0.32342514184E+03  0.10000000000E+01 0.  0.
    9000005    1    3    3    0    0  0.42046369482E+02  0.45801761016E+02 -0.25808041064E+03  0.26546599943E+03  0.10000000000E+01 0.  0.
<mgrwt>
<rscale>  0 0.12500117E+03</rscale>
<asrwt>0</asrwt>
<pdfrwt beam="2">  1        4 0.89566320E-01 0.12500117E+03</pdfrwt>
<pdfrwt beam="1">  1       -4 0.10322781E-02 0.12500117E+03</pdfrwt>
<totfact> 0.49575172E+03</totfact>
</mgrwt>
</event>
<event>
 5    1  0.3312904E-002  0.1249992E+03  0.7818608E-02  0.1235070E+00
          4   -1    0    0  501    0  0.00000000000E+00  0.00000000000E+00  0.19522326729E+02  0.19563592229E+02  0.12700000000E+01 0.  1.
         -4   -1    0    0    0  501 -0.00000000000E+00 -0.00000000000E+00 -0.19983444828E+03  0.19983848383E+03  0.12700000000E+01 0.  1.
         25    2    1    2    0    0  0.00000000000E+00  0.00000000000E+00 -0.18031212155E+03  0.21940207606E+03  0.12499923920E+03 0.  0.
    9000005    1    3    3    0    0  0.28162172537E+02 -0.36528434678E+02 -0.16416273688E+03  0.17052225274E+03  0.10000000000E+01 0.  0.
    9000005    1    3    3    0    0 -0.28162172537E+02  0.36528434678E+02 -0.16149384676E+02  0.48879823316E+02  0.10000000000E+01 0.  0.
<mgrwt>
<rscale>  0 0.12499924E+03</rscale>
<asrwt>0</asrwt>
<pdfrwt beam="1">  1        4 0.30069197E-02 0.12499924E+03</pdfrwt>
<pdfrwt beam="2">  1       -4 0.30747245E-01 0.12499924E+03</pdfrwt>
<totfact> 0.86964530E+03</totfact>
</mgrwt>
</event>
<event>
 5    1  0.3312904E-002  0.1249995E+03  0.7818608E-02  0.1235070E+00
          4   -1    0    0  501    0  0.00000000000E+00  0.00000000000E+00  0.22940738637E+03  0.22941090170E+03  0.12700000000E+01 0. -1.
         -4   -1    0    0    0  501 -0.00000000000E+00 -0.00000000000E+00 -0.17000112962E+02  0.17047484879E+02  0.12700000000E+01 0. -1.
         25    2    1    2    0    0  0.00000000000E+00  0.00000000000E+00  0.21240727341E+03  0.24645838658E+03  0.12499954608E+03 0.  0.
    9000005    1    3    3    0    0  0.32441295256E+02 -0.53236060545E+02  0.97676094294E+02  0.11587983076E+03  0.10000000000E+01 0.  0.
    9000005    1    3    3    0    0 -0.32441295256E+02  0.53236060545E+02  0.11473117911E+03  0.13057855582E+03  0.10000000000E+01 0.  0.
<mgrwt>
<rscale>  0 0.12499955E+03</rscale>
<asrwt>0</asrwt>
<pdfrwt beam="1">  1        4 0.35297357E-01 0.12499955E+03</pdfrwt>
<pdfrwt beam="2">  1       -4 0.26193165E-02 0.12499955E+03</pdfrwt>
<totfact> 0.82845649E+03</totfact>
</mgrwt>
</event>
<event>
 5    1  0.3312904E-002  0.1250084E+03  0.7818608E-02  0.1235056E+00
         -4   -1    0    0    0  501 -0.00000000000E+00  0.00000000000E+00  0.34332329307E+02  0.34355810799E+02  0.12700000000E+01 0. -1.
          4   -1    0    0  501    0  0.00000000000E+00 -0.00000000000E+00 -0.11372696328E+03  0.11373405416E+03  0.12700000000E+01 0. -1.
         25    2    1    2    0    0  0.00000000000E+00  0.00000000000E+00 -0.79394633970E+02  0.14808986496E+03  0.12500840052E+03 0.  0.
    9000005    1    3    3    0    0  0.27297525451E+02  0.19445574711E+02 -0.10218622385E+03  0.10754677873E+03  0.10000000000E+01 0.  0.
    9000005    1    3    3    0    0 -0.27297525451E+02 -0.19445574711E+02  0.22791589879E+02  0.40543086227E+02  0.10000000000E+01 0.  0.
<mgrwt>
<rscale>  0 0.12500840E+03</rscale>
<asrwt>0</asrwt>
<pdfrwt beam="2">  1        4 0.17498807E-01 0.12500840E+03</pdfrwt>
<pdfrwt beam="1">  1       -4 0.52842486E-02 0.12500840E+03</pdfrwt>
<totfact> 0.99666978E+03</totfact>
</mgrwt>
</event>
<event>
 5    1  0.3312904E-002  0.1249969E+03  0.7818608E-02  0.1235074E+00
          4   -1    0    0  501    0  0.00000000000E+00  0.00000000000E+00  0.17446745889E+03  0.17447208118E+03  0.12700000000E+01 0.  1.
         -4   -1    0    0    0  501 -0.00000000000E+00 -0.00000000000E+00 -0.22365510879E+02  0.22401539610E+02  0.12700000000E+01 0.  1.
         25    2    1    2    0    0  0.00000000000E+00  0.00000000000E+00  0.15210194801E+03  0.19687362079E+03  0.12499687986E+03 0.  0.
    9000005    1    3    3    0    0 -0.15538728914E+01  0.33037933536E+02  0.15955919655E+03  0.16295415545E+03  0.10000000000E+01 0.  0.
    9000005    1    3    3    0    0  0.15538728914E+01 -0.33037933536E+02 -0.74572485418E+01  0.33919465342E+02  0.10000000000E+01 0.  0.
<mgrwt>
<rscale>  0 0.12499688E+03</rscale>
<asrwt>0</asrwt>
<pdfrwt beam="1">  1        4 0.26844274E-01 0.12499688E+03</pdfrwt>
<pdfrwt beam="2">  1       -4 0.34439749E-02 0.12499688E+03</pdfrwt>
<totfact> 0.90671223E+03</totfact>
</mgrwt>
</event>
<event>
 5    1  0.3312904E-002  0.1250005E+03  0.7818608E-02  0.1235069E+00
          4   -1    0    0  501    0  0.00000000000E+00  0.00000000000E+00  0.18427860861E+01  0.22380260408E+01  0.12700000000E+01 0. -1.
         -4   -1    0    0    0  501 -0.00000000000E+00 -0.00000000000E+00 -0.19140669412E+04  0.19140673625E+04  0.12700000000E+01 0. -1.
         25    2    1    2    0    0  0.00000000000E+00  0.00000000000E+00 -0.19122241551E+04  0.19163053886E+04  0.12500049143E+03 0.  0.
    9000005    1    3    3    0    0  0.40205125307E+02  0.28002465758E+02 -0.36144130556E+03  0.36474841679E+03  0.10000000000E+01 0.  0.
    9000005    1    3    3    0    0 -0.40205125307E+02 -0.28002465758E+02 -0.15507828496E+04  0.15515569718E+04  0.10000000000E+01 0.  0.
<mgrwt>
<rscale>  0 0.12500049E+03</rscale>
<asrwt>0</asrwt>
<pdfrwt beam="1">  1        4 0.31394257E-03 0.12500049E+03</pdfrwt>
<pdfrwt beam="2">  1       -4 0.29450084E+00 0.12500049E+03</pdfrwt>
<totfact> 0.10993462E+03</totfact>
</mgrwt>
</event>
<event>
 5    1  0.3312904E-002  0.1249979E+03  0.7818608E-02  0.1235073E+00
          4   -1    0    0  501    0  0.00000000000E+00  0.00000000000E+00  0.17984252118E+02  0.18029038361E+02  0.12700000000E+01 0.  1.
         -4   -1    0    0    0  501 -0.00000000000E+00 -0.00000000000E+00 -0.21687977911E+03  0.21688349750E+03  0.12700000000E+01 0.  1.
         25    2    1    2    0    0  0.00000000000E+00  0.00000000000E+00 -0.19889552699E+03  0.23491253586E+03  0.12499787537E+03 0.  0.
    9000005    1    3    3    0    0  0.29716172024E+02 -0.47937126544E+02 -0.15001885239E+03  0.16027375036E+03  0.10000000000E+01 0.  0.
    9000005    1    3    3    0    0 -0.29716172024E+02  0.47937126544E+02 -0.48876674602E+02  0.74638785502E+02  0.10000000000E+01 0.  0.
<mgrwt>
<rscale>  0 0.12499788E+03</rscale>
<asrwt>0</asrwt>
<pdfrwt beam="1">  1        4 0.27705393E-02 0.12499788E+03</pdfrwt>
<pdfrwt beam="2">  1       -4 0.33369849E-01 0.12499788E+03</pdfrwt>
<totfact> 0.84564944E+03</totfact>
</mgrwt>
</event>
<event>
 5    1  0.3312904E-002  0.1250061E+03  0.7818608E-02  0.1235060E+00
         -4   -1    0    0    0  501 -0.00000000000E+00  0.00000000000E+00  0.13211181597E+02  0.13272084207E+02  0.12700000000E+01 0. -1.
          4   -1    0    0  501    0  0.00000000000E+00 -0.00000000000E+00 -0.29496434323E+03  0.29496707728E+03  0.12700000000E+01 0. -1.
         25    2    1    2    0    0  0.00000000000E+00  0.00000000000E+00 -0.28175316164E+03  0.30823916149E+03  0.12500614618E+03 0.  0.
    9000005    1    3    3    0    0 -0.43957605429E+02 -0.39897192661E+02 -0.18904335845E+03  0.19814754207E+03  0.10000000000E+01 0.  0.
    9000005    1    3    3    0    0  0.43957605429E+02  0.39897192661E+02 -0.92709803189E+02  0.11009161941E+03  0.10000000000E+01 0.  0.
<mgrwt>
<rscale>  0 0.12500615E+03</rscale>
<asrwt>0</asrwt>
<pdfrwt beam="2">  1        4 0.45384020E-01 0.12500615E+03</pdfrwt>
<pdfrwt beam="1">  1       -4 0.20373848E-02 0.12500615E+03</pdfrwt>
<totfact> 0.74566654E+03</totfact>
</mgrwt>
</event>
<event>
 5    1  0.3312904E-002  0.1249996E+03  0.7818608E-02  0.1235070E+00
         -4   -1    0    0    0  501 -0.00000000000E+00  0.00000000000E+00  0.21921814439E+02  0.21958571181E+02  0.12700000000E+01 0.  1.
          4   -1    0    0  501    0  0.00000000000E+00 -0.00000000000E+00 -0.17800066131E+03  0.17800519185E+03  0.12700000000E+01 0.  1.
         25    2    1    2    0    0  0.00000000000E+00  0.00000000000E+00 -0.15607884687E+03  0.19996376303E+03  0.12499960034E+03 0.  0.
    9000005    1    3    3    0    0 -0.14862294798E+02  0.31869431253E-02  0.19061276917E+02  0.24191322711E+02  0.10000000000E+01 0.  0.
    9000005    1    3    3    0    0  0.14862294798E+02 -0.31869431253E-02 -0.17514012378E+03  0.17577244032E+03  0.10000000000E+01 0.  0.
<mgrwt>
<rscale>  0 0.12499960E+03</rscale>
<asrwt>0</asrwt>
<pdfrwt beam="2">  1        4 0.27387892E-01 0.12499960E+03</pdfrwt>
<pdfrwt beam="1">  1       -4 0.33757629E-02 0.12499960E+03</pdfrwt>
<totfact> 0.90142425E+03</totfact>
</mgrwt>
</event>
<event>
 5    1  0.3312904E-002  0.1249975E+03  0.7818608E-02  0.1235073E+00
         -4   -1    0    0    0  501 -0.00000000000E+00  0.00000000000E+00  0.10051813237E+03  0.10052615498E+03  0.12700000000E+01 0. -1.
          4   -1    0    0  501    0  0.00000000000E+00 -0.00000000000E+00 -0.38839656758E+02  0.38860414783E+02  0.12700000000E+01 0. -1.
         25    2    1    2    0    0  0.00000000000E+00  0.00000000000E+00  0.61678475611E+02  0.13938656976E+03  0.12499752588E+03 0.  0.
    9000005    1    3    3    0    0 -0.30979090609E+02 -0.52145127531E+02  0.47613356394E+02  0.77115822548E+02  0.10000000000E+01 0.  0.
    9000005    1    3    3    0    0  0.30979090609E+02  0.52145127531E+02  0.14065119218E+02  0.62270747215E+02  0.10000000000E+01 0.  0.
<mgrwt>
<rscale>  0 0.12499753E+03</rscale>
<asrwt>0</asrwt>
<pdfrwt beam="2">  1        4 0.59775458E-02 0.12499753E+03</pdfrwt>
<pdfrwt beam="1">  1       -4 0.15466542E-01 0.12499753E+03</pdfrwt>
<totfact> 0.10146881E+04</totfact>
</mgrwt>
</event>
<event>
 5    1  0.3312904E-002  0.1250019E+03  0.7818608E-02  0.1235066E+00
          4   -1    0    0  501    0  0.00000000000E+00  0.00000000000E+00  0.24780694792E+01  0.27845517312E+01  0.12700000000E+01 0. -1.
         -4   -1    0    0    0  501 -0.00000000000E+00 -0.00000000000E+00 -0.14842643918E+04  0.14842649351E+04  0.12700000000E+01 0. -1.
         25    2    1    2    0    0  0.00000000000E+00  0.00000000000E+00 -0.14817863223E+04  0.14870494868E+04  0.12500188545E+03 0.  0.
    9000005    1    3    3    0    0 -0.22854238980E+02  0.19201644493E+02 -0.13940321128E+04  0.13943520183E+04  0.10000000000E+01 0.  0.
    9000005    1    3    3    0    0  0.22854238980E+02 -0.19201644493E+02 -0.87754209427E+02  0.92697468480E+02  0.10000000000E+01 0.  0.
<mgrwt>
<rscale>  0 0.12500189E+03</rscale>
<asrwt>0</asrwt>
<pdfrwt beam="1">  1        4 0.40486000E-03 0.12500189E+03</pdfrwt>
<pdfrwt beam="2">  1       -4 0.22837132E+00 0.12500189E+03</pdfrwt>
<totfact> 0.18185747E+03</totfact>
</mgrwt>
</event>
<event>
 5    1  0.3312904E-002  0.1250003E+03  0.7818608E-02  0.1235069E+00
          4   -1    0    0  501    0  0.00000000000E+00  0.00000000000E+00  0.13379075972E+04  0.13379081999E+04  0.12700000000E+01 0.  1.
         -4   -1    0    0    0  501 -0.00000000000E+00 -0.00000000000E+00 -0.27809465950E+01  0.30572150667E+01  0.12700000000E+01 0.  1.
         25    2    1    2    0    0  0.00000000000E+00  0.00000000000E+00  0.13351266506E+04  0.13409654150E+04  0.12500028467E+03 0.  0.
    9000005    1    3    3    0    0  0.27750488867E+02  0.53203017556E+02  0.85479688834E+03  0.85690102755E+03  0.10000000000E+01 0.  0.
    9000005    1    3    3    0    0 -0.27750488867E+02 -0.53203017556E+02  0.48032976222E+03  0.48406438743E+03  0.10000000000E+01 0.  0.
<mgrwt>
<rscale>  0 0.12500028E+03</rscale>
<asrwt>0</asrwt>
<pdfrwt beam="1">  1        4 0.20585324E+00 0.12500028E+03</pdfrwt>
<pdfrwt beam="2">  1       -4 0.44913572E-03 0.12500028E+03</pdfrwt>
<totfact> 0.21281670E+03</totfact>
</mgrwt>
</event>
<event>
 5    1  0.3312904E-002  0.1250026E+03  0.7818608E-02  0.1235065E+00
         -4   -1    0    0    0  501 -0.00000000000E+00  0.00000000000E+00  0.83946135744E+02  0.83955741950E+02  0.12700000000E+01 0. -1.
          4   -1    0    0  501    0  0.00000000000E+00 -0.00000000000E+00 -0.46513803937E+02  0.46531138571E+02  0.12700000000E+01 0. -1.
         25    2    1    2    0    0  0.00000000000E+00  0.00000000000E+00  0.37432331807E+02  0.13048688052E+03  0.12500258607E+03 0.  0.
    9000005    1    3    3    0    0  0.56170029262E+02 -0.55612098067E+01 -0.92824657644E+01  0.57211567121E+02  0.10000000000E+01 0.  0.
    9000005    1    3    3    0    0 -0.56170029262E+02  0.55612098067E+01  0.46714797572E+02  0.73275313400E+02  0.10000000000E+01 0.  0.
<mgrwt>
<rscale>  0 0.12500259E+03</rscale>
<asrwt>0</asrwt>
<pdfrwt beam="2">  1        4 0.71580423E-02 0.12500259E+03</pdfrwt>
<pdfrwt beam="1">  1       -4 0.12916862E-01 0.12500259E+03</pdfrwt>
<totfact> 0.10333499E+04</totfact>
</mgrwt>
</event>
<event>
 4    1  0.3312904E-002  0.1255703E+03  0.7818608E-02  0.1234181E+00
         -4   -1    0    0    0  501 -0.00000000000E+00  0.00000000000E+00  0.76143548140E+01  0.77195400921E+01  0.12700000000E+01 0.  1.
          4   -1    0    0  501    0  0.00000000000E+00 -0.00000000000E+00 -0.51404624195E+03  0.51404781078E+03  0.12700000000E+01 0.  1.
    9000005    1    1    2    0    0  0.26110831778E+00 -0.51981872913E+02 -0.10696809661E+03  0.11893425487E+03  0.10000000000E+01 0.  0.
    9000005    1    1    2    0    0 -0.26110831778E+00  0.51981872913E+02 -0.39946379053E+03  0.40283309600E+03  0.10000000000E+01 0.  0.
<mgrwt>
<rscale>  0 0.12557035E+03</rscale>
<asrwt>0</asrwt>
<pdfrwt beam="2">  1        4 0.79092222E-01 0.12557035E+03</pdfrwt>
<pdfrwt beam="1">  1       -4 0.11796515E-02 0.12557035E+03</pdfrwt>
<totfact> 0.53540346E+03</totfact>
</mgrwt>
</event>
<event>
 5    1  0.3312904E-002  0.1249997E+03  0.7818608E-02  0.1235070E+00
          4   -1    0    0  501    0  0.00000000000E+00  0.00000000000E+00  0.65206712060E+01  0.66431959911E+01  0.12700000000E+01 0. -1.
         -4   -1    0    0    0  501 -0.00000000000E+00 -0.00000000000E+00 -0.59335464271E+03  0.59335600185E+03  0.12700000000E+01 0. -1.
         25    2    1    2    0    0  0.00000000000E+00  0.00000000000E+00 -0.58683397151E+03  0.59999919784E+03  0.12499970917E+03 0.  0.
    9000005    1    3    3    0    0  0.36309962265E+02  0.28451325128E+02 -0.49577806799E+03  0.49792045947E+03  0.10000000000E+01 0.  0.
    9000005    1    3    3    0    0 -0.36309962265E+02 -0.28451325128E+02 -0.91055903517E+02  0.10207873837E+03  0.10000000000E+01 0.  0.
<mgrwt>
<rscale>  0 0.12499971E+03</rscale>
<asrwt>0</asrwt>
<pdfrwt beam="1">  1        4 0.10127102E-02 0.12499971E+03</pdfrwt>
<pdfrwt beam="2">  1       -4 0.91294817E-01 0.12499971E+03</pdfrwt>
<totfact> 0.48867989E+03</totfact>
</mgrwt>
</event>
<event>
 5    1  0.3312904E-002  0.1249949E+03  0.7818608E-02  0.1235077E+00
         -4   -1    0    0    0  501 -0.00000000000E+00  0.00000000000E+00  0.24378690252E+02  0.24411747959E+02  0.12700000000E+01 0. -1.
          4   -1    0    0  501    0  0.00000000000E+00 -0.00000000000E+00 -0.16007491651E+03  0.16007995438E+03  0.12700000000E+01 0. -1.
         25    2    1    2    0    0  0.00000000000E+00  0.00000000000E+00 -0.13569622626E+03  0.18449170234E+03  0.12499488955E+03 0.  0.
    9000005    1    3    3    0    0 -0.51761104002E+02  0.33379176306E+02 -0.83437104446E+02  0.10371177222E+03  0.10000000000E+01 0.  0.
    9000005    1    3    3    0    0  0.51761104002E+02 -0.33379176306E+02 -0.52259121812E+02  0.80779930124E+02  0.10000000000E+01 0.  0.
<mgrwt>
<rscale>  0 0.12499489E+03</rscale>
<asrwt>0</asrwt>
<pdfrwt beam="2">  1        4 0.24629840E-01 0.12499489E+03</pdfrwt>
<pdfrwt beam="1">  1       -4 0.37534983E-02 0.12499489E+03</pdfrwt>
<totfact> 0.92825305E+03</totfact>
</mgrwt>
</event>
<event>
 5    1  0.3312904E-002  0.1249994E+03  0.7818608E-02  0.1235070E+00
         -4   -1    0    0    0  501 -0.00000000000E+00  0.00000000000E+00  0.58862343144E+02  0.58876042160E+02  0.12700000000E+01 0.  1.
          4   -1    0    0  501    0  0.00000000000E+00 -0.00000000000E+00 -0.66334349345E+02  0.66346505583E+02  0.12700000000E+01 0.  1.
         25    2    1    2    0    0  0.00000000000E+00  0.00000000000E+00 -0.74720062011E+01  0.12522254774E+03  0.12499942234E+03 0.  0.
    9000005    1    3    3    0    0  0.31018207375E+02 -0.45453825595E+02  0.25931626972E+02  0.60841011887E+02  0.10000000000E+01 0.  0.
    9000005    1    3    3    0    0 -0.31018207375E+02  0.45453825595E+02 -0.33403633173E+02  0.64381535856E+02  0.10000000000E+01 0.  0.
<mgrwt>
<rscale>  0 0.12499942E+03</rscale>
<asrwt>0</asrwt>
<pdfrwt beam="2">  1        4 0.10207273E-01 0.12499942E+03</pdfrwt>
<pdfrwt beam="1">  1       -4 0.90577340E-02 0.12499942E+03</pdfrwt>
<totfact> 0.10448167E+04</totfact>
</mgrwt>
</event>
<event>
 5    1  0.3312904E-002  0.1249998E+03  0.7818608E-02  0.1235070E+00
          4   -1    0    0  501    0  0.00000000000E+00  0.00000000000E+00  0.63939455739E+03  0.63939581866E+03  0.12700000000E+01 0.  1.
         -4   -1    0    0    0  501 -0.00000000000E+00 -0.00000000000E+00 -0.60419968143E+01  0.61740283044E+01  0.12700000000E+01 0.  1.
         25    2    1    2    0    0  0.00000000000E+00  0.00000000000E+00  0.63335256057E+03  0.64556984696E+03  0.12499984529E+03 0.  0.
    9000005    1    3    3    0    0  0.14608567708E+02 -0.14398989145E+01  0.63038936348E+03  0.63056104633E+03  0.10000000000E+01 0.  0.
    9000005    1    3    3    0    0 -0.14608567708E+02  0.14398989145E+01  0.29631970909E+01  0.15008800630E+02  0.10000000000E+01 0.  0.
<mgrwt>
<rscale>  0 0.12499985E+03</rscale>
<asrwt>0</asrwt>
<pdfrwt beam="1">  1        4 0.98378698E-01 0.12499985E+03</pdfrwt>
<pdfrwt beam="2">  1       -4 0.93979077E-03 0.12499985E+03</pdfrwt>
<totfact> 0.46111922E+03</totfact>
</mgrwt>
</event>
<event>
 5    1  0.3312904E-002  0.1250000E+03  0.7818608E-02  0.1235069E+00
          4   -1    0    0  501    0  0.00000000000E+00  0.00000000000E+00  0.30849215098E+03  0.30849476513E+03  0.12700000000E+01 0. -1.
         -4   -1    0    0    0  501 -0.00000000000E+00 -0.00000000000E+00 -0.12627867757E+02  0.12691569804E+02  0.12700000000E+01 0. -1.
         25    2    1    2    0    0  0.00000000000E+00  0.00000000000E+00  0.29586428322E+03  0.32118633494E+03  0.12499995066E+03 0.  0.
    9000005    1    3    3    0    0 -0.35630016404E+02 -0.18384742201E+02  0.24763935809E+02  0.47135436049E+02  0.10000000000E+01 0.  0.
    9000005    1    3    3    0    0  0.35630016404E+02  0.18384742201E+02  0.27110034741E+03  0.27405089889E+03  0.10000000000E+01 0.  0.
<mgrwt>
<rscale>  0 0.12499995E+03</rscale>
<asrwt>0</asrwt>
<pdfrwt beam="1">  1        4 0.47465431E-01 0.12499995E+03</pdfrwt>
<pdfrwt beam="2">  1       -4 0.19478502E-02 0.12499995E+03</pdfrwt>
<totfact> 0.73015327E+03</totfact>
</mgrwt>
</event>
<event>
 5    1  0.3312904E-002  0.1250182E+03  0.7818608E-02  0.1235041E+00
          4   -1    0    0  501    0  0.00000000000E+00  0.00000000000E+00  0.31142484467E+02  0.31168369203E+02  0.12700000000E+01 0. -1.
         -4   -1    0    0    0  501 -0.00000000000E+00 -0.00000000000E+00 -0.12538689684E+03  0.12539332836E+03  0.12700000000E+01 0. -1.
         25    2    1    2    0    0  0.00000000000E+00  0.00000000000E+00 -0.94244412369E+02  0.15656169757E+03  0.12501822220E+03 0.  0.
    9000005    1    3    3    0    0  0.11296927699E+02 -0.61083016600E+02 -0.38479129820E+02  0.73078033116E+02  0.10000000000E+01 0.  0.
    9000005    1    3    3    0    0 -0.11296927699E+02  0.61083016600E+02 -0.55765282549E+02  0.83483664451E+02  0.10000000000E+01 0.  0.
<mgrwt>
<rscale>  0 0.12501822E+03</rscale>
<asrwt>0</asrwt>
<pdfrwt beam="1">  1        4 0.47936374E-02 0.12501822E+03</pdfrwt>
<pdfrwt beam="2">  1       -4 0.19292777E-01 0.12501822E+03</pdfrwt>
<totfact> 0.97969640E+03</totfact>
</mgrwt>
</event>
<event>
 5    1  0.3312904E-002  0.1249928E+03  0.7818608E-02  0.1235081E+00
         -4   -1    0    0    0  501 -0.00000000000E+00  0.00000000000E+00  0.74598428714E+03  0.74598536819E+03  0.12700000000E+01 0.  1.
          4   -1    0    0  501    0  0.00000000000E+00 -0.00000000000E+00 -0.51576499114E+01  0.53117090101E+01  0.12700000000E+01 0.  1.
         25    2    1    2    0    0  0.00000000000E+00  0.00000000000E+00  0.74082663723E+03  0.75129707720E+03  0.12499276694E+03 0.  0.
    9000005    1    3    3    0    0 -0.56997299705E+01 -0.30542770540E+02  0.44531695965E+02  0.54308560094E+02  0.10000000000E+01 0.  0.
    9000005    1    3    3    0    0  0.56997299705E+01  0.30542770540E+02  0.69629494126E+03  0.69698851711E+03  0.10000000000E+01 0.  0.
<mgrwt>
<rscale>  0 0.12499277E+03</rscale>
<asrwt>0</asrwt>
<pdfrwt beam="2">  1        4 0.80541831E-03 0.12499277E+03</pdfrwt>
<pdfrwt beam="1">  1       -4 0.11477877E+00 0.12499277E+03</pdfrwt>
<totfact> 0.40518572E+03</totfact>
</mgrwt>
</event>
<event>
 5    1  0.3312904E-002  0.1250012E+03  0.7818608E-02  0.1235067E+00
          4   -1    0    0  501    0  0.00000000000E+00  0.00000000000E+00  0.26466804096E+03  0.26467108797E+03  0.12700000000E+01 0.  1.
         -4   -1    0    0    0  501 -0.00000000000E+00 -0.00000000000E+00 -0.14728891300E+02  0.14783542841E+02  0.12700000000E+01 0.  1.
         25    2    1    2    0    0  0.00000000000E+00  0.00000000000E+00  0.24993914966E+03  0.27945463081E+03  0.12500124858E+03 0.  0.
    9000005    1    3    3    0    0  0.56748169078E+02 -0.25376623817E+02  0.11065460252E+03  0.12692426399E+03  0.10000000000E+01 0.  0.
    9000005    1    3    3    0    0 -0.56748169078E+02  0.25376623817E+02  0.13928454715E+03  0.15253036682E+03  0.10000000000E+01 0.  0.
<mgrwt>
<rscale>  0 0.12500125E+03</rscale>
<asrwt>0</asrwt>
<pdfrwt beam="1">  1        4 0.40722593E-01 0.12500125E+03</pdfrwt>
<pdfrwt beam="2">  1       -4 0.22704219E-02 0.12500125E+03</pdfrwt>
<totfact> 0.78248304E+03</totfact>
</mgrwt>
</event>
<event>
 5    1  0.3312904E-002  0.1249932E+03  0.7818608E-02  0.1235080E+00
         -4   -1    0    0    0  501 -0.00000000000E+00  0.00000000000E+00  0.21097052714E+02  0.21135243865E+02  0.12700000000E+01 0. -1.
          4   -1    0    0  501    0  0.00000000000E+00 -0.00000000000E+00 -0.18492830857E+03  0.18493266940E+03  0.12700000000E+01 0. -1.
         25    2    1    2    0    0  0.00000000000E+00  0.00000000000E+00 -0.16383125585E+03  0.20606791326E+03  0.12499321774E+03 0.  0.
    9000005    1    3    3    0    0 -0.61636158255E+02  0.31129798232E+01 -0.65752343548E+02  0.90183575722E+02  0.10000000000E+01 0.  0.
    9000005    1    3    3    0    0  0.61636158255E+02 -0.31129798232E+01 -0.98078912306E+02  0.11588433754E+03  0.10000000000E+01 0.  0.
<mgrwt>
<rscale>  0 0.12499322E+03</rscale>
<asrwt>0</asrwt>
<pdfrwt beam="2">  1        4 0.28453781E-01 0.12499322E+03</pdfrwt>
<pdfrwt beam="1">  1       -4 0.32489738E-02 0.12499322E+03</pdfrwt>
<totfact> 0.89135616E+03</totfact>
</mgrwt>
</event>
<event>
 5    1  0.3312904E-002  0.1249993E+03  0.7818608E-02  0.1235070E+00
         -4   -1    0    0    0  501 -0.00000000000E+00  0.00000000000E+00  0.93139227225E+02  0.93147885366E+02  0.12700000000E+01 0.  1.
          4   -1    0    0  501    0  0.00000000000E+00 -0.00000000000E+00 -0.41919180244E+02  0.41938414042E+02  0.12700000000E+01 0.  1.
         25    2    1    2    0    0  0.00000000000E+00  0.00000000000E+00  0.51220046981E+02  0.13508629941E+03  0.12499926030E+03 0.  0.
    9000005    1    3    3    0    0 -0.26616379599E+02 -0.68568886931E+01  0.86261623374E+02  0.90540136142E+02  0.10000000000E+01 0.  0.
    9000005    1    3    3    0    0  0.26616379599E+02  0.68568886931E+01 -0.35041576394E+02  0.44546163265E+02  0.10000000000E+01 0.  0.
<mgrwt>
<rscale>  0 0.12499926E+03</rscale>
<asrwt>0</asrwt>
<pdfrwt beam="2">  1        4 0.64512502E-02 0.12499926E+03</pdfrwt>
<pdfrwt beam="1">  1       -4 0.14331257E-01 0.12499926E+03</pdfrwt>
<totfact> 0.10236423E+04</totfact>
</mgrwt>
</event>
<event>
 5    1  0.3312904E-002  0.1250125E+03  0.7818608E-02  0.1235050E+00
         -4   -1    0    0    0  501 -0.00000000000E+00  0.00000000000E+00  0.79753728579E+02  0.79763839691E+02  0.12700000000E+01 0. -1.
          4   -1    0    0  501    0  0.00000000000E+00 -0.00000000000E+00 -0.48967272825E+02  0.48983739219E+02  0.12700000000E+01 0. -1.
         25    2    1    2    0    0  0.00000000000E+00  0.00000000000E+00  0.30786455754E+02  0.12874757891E+03  0.12501253224E+03 0.  0.
    9000005    1    3    3    0    0 -0.41870781353E+02  0.11401866097E+02 -0.30926855893E+02  0.53297610613E+02  0.10000000000E+01 0.  0.
    9000005    1    3    3    0    0  0.41870781353E+02 -0.11401866097E+02  0.61713311647E+02  0.75449968297E+02  0.10000000000E+01 0.  0.
<mgrwt>
<rscale>  0 0.12501253E+03</rscale>
<asrwt>0</asrwt>
<pdfrwt beam="2">  1        4 0.75354711E-02 0.12501253E+03</pdfrwt>
<pdfrwt beam="1">  1       -4 0.12271849E-01 0.12501253E+03</pdfrwt>
<totfact> 0.10368440E+04</totfact>
</mgrwt>
</event>
<event>
 5    1  0.3312904E-002  0.1249981E+03  0.7818608E-02  0.1235072E+00
         -4   -1    0    0    0  501 -0.00000000000E+00  0.00000000000E+00  0.16538605217E+03  0.16539092826E+03  0.12700000000E+01 0. -1.
          4   -1    0    0  501    0  0.00000000000E+00 -0.00000000000E+00 -0.23595951805E+02  0.23630104562E+02  0.12700000000E+01 0. -1.
         25    2    1    2    0    0  0.00000000000E+00  0.00000000000E+00  0.14179010036E+03  0.18902103282E+03  0.12499807314E+03 0.  0.
    9000005    1    3    3    0    0  0.34059225668E+02 -0.49963544456E+02  0.47045389803E+02  0.76620201837E+02  0.10000000000E+01 0.  0.
    9000005    1    3    3    0    0 -0.34059225668E+02  0.49963544456E+02  0.94744710560E+02  0.11240083099E+03  0.10000000000E+01 0.  0.
<mgrwt>
<rscale>  0 0.12499807E+03</rscale>
<asrwt>0</asrwt>
<pdfrwt beam="2">  1        4 0.36331488E-02 0.12499807E+03</pdfrwt>
<pdfrwt beam="1">  1       -4 0.25447009E-01 0.12499807E+03</pdfrwt>
<totfact> 0.92021903E+03</totfact>
</mgrwt>
</event>
<event>
 5    1  0.3312904E-002  0.1249786E+03  0.7818608E-02  0.1235103E+00
          4   -1    0    0  501    0  0.00000000000E+00  0.00000000000E+00  0.61364809827E+02  0.61377950317E+02  0.12700000000E+01 0.  1.
         -4   -1    0    0    0  501 -0.00000000000E+00 -0.00000000000E+00 -0.63608122671E+02  0.63620799820E+02  0.12700000000E+01 0.  1.
         25    2    1    2    0    0  0.00000000000E+00  0.00000000000E+00 -0.22433128448E+01  0.12499875014E+03  0.12497861850E+03 0.  0.
    9000005    1    3    3    0    0  0.53626201488E+02  0.31999384437E+02  0.92407777167E+00  0.62462660927E+02  0.10000000000E+01 0.  0.
    9000005    1    3    3    0    0 -0.53626201488E+02 -0.31999384437E+02 -0.31673906164E+01  0.62536089210E+02  0.10000000000E+01 0.  0.
<mgrwt>
<rscale>  0 0.12497862E+03</rscale>
<asrwt>0</asrwt>
<pdfrwt beam="1">  1        4 0.94427260E-02 0.12497862E+03</pdfrwt>
<pdfrwt beam="2">  1       -4 0.97878510E-02 0.12497862E+03</pdfrwt>
<totfact> 0.10457942E+04</totfact>
</mgrwt>
</event>
<event>
 5    1  0.3312904E-002  0.1249957E+03  0.7818608E-02  0.1235076E+00
          4   -1    0    0  501    0  0.00000000000E+00  0.00000000000E+00  0.37500571257E+03  0.37500786306E+03  0.12700000000E+01 0.  1.
         -4   -1    0    0    0  501 -0.00000000000E+00 -0.00000000000E+00 -0.10374886483E+02  0.10452328426E+02  0.12700000000E+01 0.  1.
         25    2    1    2    0    0  0.00000000000E+00  0.00000000000E+00  0.36463082609E+03  0.38546019149E+03  0.12499567949E+03 0.  0.
    9000005    1    3    3    0    0  0.31851098035E+02  0.49168997138E+02  0.24937608858E+03  0.25616696954E+03  0.10000000000E+01 0.  0.
    9000005    1    3    3    0    0 -0.31851098035E+02 -0.49168997138E+02  0.11525473750E+03  0.12929322195E+03  0.10000000000E+01 0.  0.
<mgrwt>
<rscale>  0 0.12499568E+03</rscale>
<asrwt>0</asrwt>
<pdfrwt beam="1">  1        4 0.57699318E-01 0.12499568E+03</pdfrwt>
<pdfrwt beam="2">  1       -4 0.16022586E-02 0.12499568E+03</pdfrwt>
<totfact> 0.65998205E+03</totfact>
</mgrwt>
</event>
<event>
 5    1  0.3312904E-002  0.1249963E+03  0.7818608E-02  0.1235075E+00
          4   -1    0    0  501    0  0.00000000000E+00  0.00000000000E+00  0.17541558546E+03  0.17542018277E+03  0.12700000000E+01 0. -1.
         -4   -1    0    0    0  501 -0.00000000000E+00 -0.00000000000E+00 -0.22244208889E+02  0.22280433772E+02  0.12700000000E+01 0. -1.
         25    2    1    2    0    0  0.00000000000E+00  0.00000000000E+00  0.15317137657E+03  0.19770061654E+03  0.12499625266E+03 0.  0.
    9000005    1    3    3    0    0  0.42687382918E+02  0.18264779253E+02  0.14273584626E+03  0.15010108803E+03  0.10000000000E+01 0.  0.
    9000005    1    3    3    0    0 -0.42687382918E+02 -0.18264779253E+02  0.10435530317E+02  0.47599528512E+02  0.10000000000E+01 0.  0.
<mgrwt>
<rscale>  0 0.12499625E+03</rscale>
<asrwt>0</asrwt>
<pdfrwt beam="1">  1        4 0.26990155E-01 0.12499625E+03</pdfrwt>
<pdfrwt beam="2">  1       -4 0.34253259E-02 0.12499625E+03</pdfrwt>
<totfact> 0.90532019E+03</totfact>
</mgrwt>
</event>
<event>
 5    1  0.3312904E-002  0.1250011E+03  0.7818608E-02  0.1235067E+00
         -4   -1    0    0    0  501 -0.00000000000E+00  0.00000000000E+00  0.15299295150E+02  0.15351916235E+02  0.12700000000E+01 0.  1.
          4   -1    0    0  501    0  0.00000000000E+00 -0.00000000000E+00 -0.25483436932E+03  0.25483753390E+03  0.12700000000E+01 0.  1.
         25    2    1    2    0    0  0.00000000000E+00  0.00000000000E+00 -0.23953507417E+03  0.27018945014E+03  0.12500114883E+03 0.  0.
    9000005    1    3    3    0    0  0.25658623925E+02  0.42599964977E+02 -0.37966993797E+02  0.62574872080E+02  0.10000000000E+01 0.  0.
    9000005    1    3    3    0    0 -0.25658623925E+02 -0.42599964977E+02 -0.20156808037E+03  0.20761457806E+03  0.10000000000E+01 0.  0.
<mgrwt>
<rscale>  0 0.12500115E+03</rscale>
<asrwt>0</asrwt>
<pdfrwt beam="2">  1        4 0.39209576E-01 0.12500115E+03</pdfrwt>
<pdfrwt beam="1">  1       -4 0.23580291E-02 0.12500115E+03</pdfrwt>
<totfact> 0.79495015E+03</totfact>
</mgrwt>
</event>
<event>
 5    1  0.3312904E-002  0.1249963E+03  0.7818608E-02  0.1235075E+00
         -4   -1    0    0    0  501 -0.00000000000E+00  0.00000000000E+00  0.60990030161E+02  0.61003251381E+02  0.12700000000E+01 0. -1.
          4   -1    0    0  501    0  0.00000000000E+00 -0.00000000000E+00 -0.64017057557E+02  0.64029653741E+02  0.12700000000E+01 0. -1.
         25    2    1    2    0    0  0.00000000000E+00  0.00000000000E+00 -0.30270273962E+01  0.12503290512E+03  0.12499625782E+03 0.  0.
    9000005    1    3    3    0    0 -0.21553412665E+00 -0.61966958799E+02 -0.95822086209E+01  0.62711794424E+02  0.10000000000E+01 0.  0.
    9000005    1    3    3    0    0  0.21553412665E+00  0.61966958799E+02  0.65551812247E+01  0.62321110698E+02  0.10000000000E+01 0.  0.
<mgrwt>
<rscale>  0 0.12499626E+03</rscale>
<asrwt>0</asrwt>
<pdfrwt beam="2">  1        4 0.98507640E-02 0.12499626E+03</pdfrwt>
<pdfrwt beam="1">  1       -4 0.93850675E-02 0.12499626E+03</pdfrwt>
<totfact> 0.10453032E+04</totfact>
</mgrwt>
</event>
<event>
 5    1  0.3312904E-002  0.1249991E+03  0.7818608E-02  0.1235071E+00
         -4   -1    0    0    0  501 -0.00000000000E+00  0.00000000000E+00  0.24363435232E+03  0.24363766238E+03  0.12700000000E+01 0. -1.
          4   -1    0    0  501    0  0.00000000000E+00 -0.00000000000E+00 -0.16004442639E+02  0.16054752698E+02  0.12700000000E+01 0. -1.
         25    2    1    2    0    0  0.00000000000E+00  0.00000000000E+00  0.22762990968E+03  0.25969241508E+03  0.12499909867E+03 0.  0.
    9000005    1    3    3    0    0 -0.20693922370E+02  0.32060508128E+02  0.11000592458E+02  0.39725654670E+02  0.10000000000E+01 0.  0.
    9000005    1    3    3    0    0  0.20693922370E+02 -0.32060508128E+02  0.21662931722E+03  0.21996676041E+03  0.10000000000E+01 0.  0.
<mgrwt>
<rscale>  0 0.12499910E+03</rscale>
<asrwt>0</asrwt>
<pdfrwt beam="2">  1        4 0.24663468E-02 0.12499910E+03</pdfrwt>
<pdfrwt beam="1">  1       -4 0.37486329E-01 0.12499910E+03</pdfrwt>
<totfact> 0.80950871E+03</totfact>
</mgrwt>
</event>
<event>
 5    1  0.3312904E-002  0.1250244E+03  0.7818608E-02  0.1235031E+00
          4   -1    0    0  501    0  0.00000000000E+00  0.00000000000E+00  0.43674306715E+02  0.43692767903E+02  0.12700000000E+01 0.  1.
         -4   -1    0    0    0  501 -0.00000000000E+00 -0.00000000000E+00 -0.89433506813E+02  0.89442523672E+02  0.12700000000E+01 0.  1.
         25    2    1    2    0    0  0.00000000000E+00  0.00000000000E+00 -0.45759200097E+02  0.13313529158E+03  0.12502440349E+03 0.  0.
    9000005    1    3    3    0    0 -0.99406883113E+01 -0.19897912921E+02 -0.85081678397E+02  0.87946780620E+02  0.10000000000E+01 0.  0.
    9000005    1    3    3    0    0  0.99406883113E+01  0.19897912921E+02  0.39322478299E+02  0.45188510955E+02  0.10000000000E+01 0.  0.
<mgrwt>
<rscale>  0 0.12502440E+03</rscale>
<asrwt>0</asrwt>
<pdfrwt beam="1">  1        4 0.67212378E-02 0.12502440E+03</pdfrwt>
<pdfrwt beam="2">  1       -4 0.13761115E-01 0.12502440E+03</pdfrwt>
<totfact> 0.10271870E+04</totfact>
</mgrwt>
</event>
<event>
 5    1  0.3312904E-002  0.1250003E+03  0.7818608E-02  0.1235069E+00
         -4   -1    0    0    0  501 -0.00000000000E+00  0.00000000000E+00  0.28615332042E+02  0.28643500622E+02  0.12700000000E+01 0.  1.
          4   -1    0    0  501    0  0.00000000000E+00 -0.00000000000E+00 -0.13641135501E+03  0.13641726678E+03  0.12700000000E+01 0.  1.
         25    2    1    2    0    0  0.00000000000E+00  0.00000000000E+00 -0.10779602297E+03  0.16506076740E+03  0.12500029747E+03 0.  0.
    9000005    1    3    3    0    0 -0.35883651522E+02 -0.33292955221E+02 -0.10519688569E+03  0.11603207347E+03  0.10000000000E+01 0.  0.
    9000005    1    3    3    0    0  0.35883651522E+02  0.33292955221E+02 -0.25991372713E+01  0.49028693930E+02  0.10000000000E+01 0.  0.
<mgrwt>
<rscale>  0 0.12500030E+03</rscale>
<asrwt>0</asrwt>
<pdfrwt beam="2">  1        4 0.20988984E-01 0.12500030E+03</pdfrwt>
<pdfrwt beam="1">  1       -4 0.44049804E-02 0.12500030E+03</pdfrwt>
<totfact> 0.96375241E+03</totfact>
</mgrwt>
</event>
<event>
 5    1  0.3312904E-002  0.1249992E+03  0.7818608E-02  0.1235070E+00
          4   -1    0    0  501    0  0.00000000000E+00  0.00000000000E+00  0.44440907515E+02  0.44459050380E+02  0.12700000000E+01 0.  1.
         -4   -1    0    0    0  501 -0.00000000000E+00 -0.00000000000E+00 -0.87855858394E+02  0.87865037155E+02  0.12700000000E+01 0.  1.
         25    2    1    2    0    0  0.00000000000E+00  0.00000000000E+00 -0.43414950880E+02  0.13232408754E+03  0.12499922473E+03 0.  0.
    9000005    1    3    3    0    0  0.57468461453E+02 -0.21655816811E+02 -0.94714653372E+01  0.62147462693E+02  0.10000000000E+01 0.  0.
    9000005    1    3    3    0    0 -0.57468461453E+02  0.21655816811E+02 -0.33943485542E+02  0.70176624842E+02  0.10000000000E+01 0.  0.
<mgrwt>
<rscale>  0 0.12499922E+03</rscale>
<asrwt>0</asrwt>
<pdfrwt beam="1">  1        4 0.68391644E-02 0.12499922E+03</pdfrwt>
<pdfrwt beam="2">  1       -4 0.13518388E-01 0.12499922E+03</pdfrwt>
<totfact> 0.10294966E+04</totfact>
</mgrwt>
</event>
<event>
 5    1  0.3312904E-002  0.1250023E+03  0.7818608E-02  0.1235066E+00
         -4   -1    0    0    0  501 -0.00000000000E+00  0.00000000000E+00  0.45110388841E+03  0.45110567613E+03  0.12700000000E+01 0. -1.
          4   -1    0    0  501    0  0.00000000000E+00 -0.00000000000E+00 -0.86112486662E+01  0.87043956476E+01  0.12700000000E+01 0. -1.
         25    2    1    2    0    0  0.00000000000E+00  0.00000000000E+00  0.44249263975E+03  0.45981007178E+03  0.12500226351E+03 0.  0.
    9000005    1    3    3    0    0 -0.61136222614E+02 -0.12760678916E+02  0.21308817421E+03  0.22205414347E+03  0.10000000000E+01 0.  0.
    9000005    1    3    3    0    0  0.61136222614E+02  0.12760678916E+02  0.22940446553E+03  0.23775592831E+03  0.10000000000E+01 0.  0.
<mgrwt>
<rscale>  0 0.12500226E+03</rscale>
<asrwt>0</asrwt>
<pdfrwt beam="2">  1        4 0.13321102E-02 0.12500226E+03</pdfrwt>
<pdfrwt beam="1">  1       -4 0.69407901E-01 0.12500226E+03</pdfrwt>
<totfact> 0.59120323E+03</totfact>
</mgrwt>
</event>
<event>
 5    1  0.3312904E-002  0.1250033E+03  0.7818608E-02  0.1235064E+00
         -4   -1    0    0    0  501 -0.00000000000E+00  0.00000000000E+00  0.16677666198E+02  0.16725951387E+02  0.12700000000E+01 0.  1.
          4   -1    0    0  501    0  0.00000000000E+00 -0.00000000000E+00 -0.23384414616E+03  0.23384759480E+03  0.12700000000E+01 0.  1.
         25    2    1    2    0    0  0.00000000000E+00  0.00000000000E+00 -0.21716647996E+03  0.25057354618E+03  0.12500328807E+03 0.  0.
    9000005    1    3    3    0    0  0.51087120799E+02 -0.21197740979E+02 -0.16689481219E+03  0.17582410662E+03  0.10000000000E+01 0.  0.
    9000005    1    3    3    0    0 -0.51087120799E+02  0.21197740979E+02 -0.50271667770E+02  0.74749439561E+02  0.10000000000E+01 0.  0.
<mgrwt>
<rscale>  0 0.12500329E+03</rscale>
<asrwt>0</asrwt>
<pdfrwt beam="2">  1        4 0.35980000E-01 0.12500329E+03</pdfrwt>
<pdfrwt beam="1">  1       -4 0.25697745E-02 0.12500329E+03</pdfrwt>
<totfact> 0.82241380E+03</totfact>
</mgrwt>
</event>
<event>
 5    1  0.3312904E-002  0.1249969E+03  0.7818608E-02  0.1235074E+00
         -4   -1    0    0    0  501 -0.00000000000E+00  0.00000000000E+00  0.81351410998E+02  0.81361323560E+02  0.12700000000E+01 0. -1.
          4   -1    0    0  501    0  0.00000000000E+00 -0.00000000000E+00 -0.47993365569E+02  0.48010165993E+02  0.12700000000E+01 0. -1.
         25    2    1    2    0    0  0.00000000000E+00  0.00000000000E+00  0.33358045429E+02  0.12937148955E+03  0.12499689242E+03 0.  0.
    9000005    1    3    3    0    0 -0.36087379560E+02 -0.11917561409E+02 -0.34662792124E+02  0.51447413845E+02  0.10000000000E+01 0.  0.
    9000005    1    3    3    0    0  0.36087379560E+02  0.11917561409E+02  0.68020837553E+02  0.77924075708E+02  0.10000000000E+01 0.  0.
<mgrwt>
<rscale>  0 0.12499689E+03</rscale>
<asrwt>0</asrwt>
<pdfrwt beam="2">  1        4 0.73856496E-02 0.12499689E+03</pdfrwt>
<pdfrwt beam="1">  1       -4 0.12517656E-01 0.12499689E+03</pdfrwt>
<totfact> 0.10358698E+04</totfact>
</mgrwt>
</event>
<event>
 5    1  0.3312904E-002  0.1250015E+03  0.7818608E-02  0.1235067E+00
          4   -1    0    0  501    0  0.00000000000E+00  0.00000000000E+00  0.37207779459E+02  0.37229447381E+02  0.12700000000E+01 0. -1.
         -4   -1    0    0    0  501 -0.00000000000E+00 -0.00000000000E+00 -0.10493121621E+03  0.10493890144E+03  0.12700000000E+01 0. -1.
         25    2    1    2    0    0  0.00000000000E+00  0.00000000000E+00 -0.67723436755E+02  0.14216834883E+03  0.12500150208E+03 0.  0.
    9000005    1    3    3    0    0 -0.26391543945E+00  0.43898675796E+02 -0.84446589182E+02  0.95180826917E+02  0.10000000000E+01 0.  0.
    9000005    1    3    3    0    0  0.26391543945E+00 -0.43898675796E+02  0.16723152427E+02  0.46987521909E+02  0.10000000000E+01 0.  0.
<mgrwt>
<rscale>  0 0.12500150E+03</rscale>
<asrwt>0</asrwt>
<pdfrwt beam="1">  1        4 0.57265318E-02 0.12500150E+03</pdfrwt>
<pdfrwt beam="2">  1       -4 0.16145522E-01 0.12500150E+03</pdfrwt>
<totfact> 0.10088500E+04</totfact>
</mgrwt>
</event>
<event>
 5    1  0.3312904E-002  0.1249981E+03  0.7818608E-02  0.1235072E+00
         -4   -1    0    0    0  501 -0.00000000000E+00  0.00000000000E+00  0.34900517659E+02  0.34923617122E+02  0.12700000000E+01 0. -1.
          4   -1    0    0  501    0  0.00000000000E+00 -0.00000000000E+00 -0.11185813653E+03  0.11186534588E+03  0.12700000000E+01 0. -1.
         25    2    1    2    0    0  0.00000000000E+00  0.00000000000E+00 -0.76957618871E+02  0.14678896300E+03  0.12499809821E+03 0.  0.
    9000005    1    3    3    0    0  0.14196965806E+02 -0.33452714732E+02  0.21221652564E+02  0.42095088771E+02  0.10000000000E+01 0.  0.
    9000005    1    3    3    0    0 -0.14196965806E+02  0.33452714732E+02 -0.98179271435E+02  0.10469387423E+03  0.10000000000E+01 0.  0.
<mgrwt>
<rscale>  0 0.12499810E+03</rscale>
<asrwt>0</asrwt>
<pdfrwt beam="2">  1        4 0.17211275E-01 0.12499810E+03</pdfrwt>
<pdfrwt beam="1">  1       -4 0.53716419E-02 0.12499810E+03</pdfrwt>
<totfact> 0.99951945E+03</totfact>
</mgrwt>
</event>
<event>
 5    1  0.3312904E-002  0.1250207E+03  0.7818608E-02  0.1235037E+00
          4   -1    0    0  501    0  0.00000000000E+00  0.00000000000E+00  0.78163484710E+02  0.78173801506E+02  0.12700000000E+01 0.  1.
         -4   -1    0    0    0  501 -0.00000000000E+00 -0.00000000000E+00 -0.49970246879E+02  0.49986382877E+02  0.12700000000E+01 0.  1.
         25    2    1    2    0    0  0.00000000000E+00  0.00000000000E+00  0.28193237831E+02  0.12816018438E+03  0.12502069509E+03 0.  0.
    9000005    1    3    3    0    0  0.49759309699E+02 -0.33369571375E+02  0.32348973540E+02  0.68095324983E+02  0.10000000000E+01 0.  0.
    9000005    1    3    3    0    0 -0.49759309699E+02  0.33369571375E+02 -0.41557357089E+01  0.60064859400E+02  0.10000000000E+01 0.  0.
<mgrwt>
<rscale>  0 0.12502070E+03</rscale>
<asrwt>0</asrwt>
<pdfrwt beam="1">  1        4 0.12027186E-01 0.12502070E+03</pdfrwt>
<pdfrwt beam="2">  1       -4 0.76897652E-02 0.12502070E+03</pdfrwt>
<totfact> 0.10379180E+04</totfact>
</mgrwt>
</event>
<event>
 5    1  0.3312904E-002  0.1250025E+03  0.7818608E-02  0.1235065E+00
         -4   -1    0    0    0  501 -0.00000000000E+00  0.00000000000E+00  0.12470105954E+02  0.12534609787E+02  0.12700000000E+01 0.  1.
          4   -1    0    0  501    0  0.00000000000E+00 -0.00000000000E+00 -0.31238786782E+03  0.31239044937E+03  0.12700000000E+01 0.  1.
         25    2    1    2    0    0  0.00000000000E+00  0.00000000000E+00 -0.29991776187E+03  0.32492505916E+03  0.12500252073E+03 0.  0.
    9000005    1    3    3    0    0 -0.17095069975E+02  0.51632518311E+02 -0.22996009090E+03  0.23630658427E+03  0.10000000000E+01 0.  0.
    9000005    1    3    3    0    0  0.17095069975E+02 -0.51632518311E+02 -0.69957670968E+02  0.88618474890E+02  0.10000000000E+01 0.  0.
<mgrwt>
<rscale>  0 0.12500252E+03</rscale>
<asrwt>0</asrwt>
<pdfrwt beam="2">  1        4 0.48064827E-01 0.12500252E+03</pdfrwt>
<pdfrwt beam="1">  1       -4 0.19236385E-02 0.12500252E+03</pdfrwt>
<totfact> 0.72570107E+03</totfact>
</mgrwt>
</event>
<event>
 5    1  0.3312904E-002  0.1250042E+03  0.7818608E-02  0.1235063E+00
         -4   -1    0    0    0  501 -0.00000000000E+00  0.00000000000E+00  0.51451186901E+02  0.51466858594E+02  0.12700000000E+01 0. -1.
          4   -1    0    0  501    0  0.00000000000E+00 -0.00000000000E+00 -0.75894028048E+02  0.75904653305E+02  0.12700000000E+01 0. -1.
         25    2    1    2    0    0  0.00000000000E+00  0.00000000000E+00 -0.24442841147E+02  0.12737151190E+03  0.12500419817E+03 0.  0.
    9000005    1    3    3    0    0 -0.59620078127E+02 -0.82219328886E+01  0.49306210849E+01  0.60394245757E+02  0.10000000000E+01 0.  0.
    9000005    1    3    3    0    0  0.59620078127E+02  0.82219328886E+01 -0.29373462232E+02  0.66977266141E+02  0.10000000000E+01 0.  0.
<mgrwt>
<rscale>  0 0.12500420E+03</rscale>
<asrwt>0</asrwt>
<pdfrwt beam="2">  1        4 0.11678027E-01 0.12500420E+03</pdfrwt>
<pdfrwt beam="1">  1       -4 0.79175901E-02 0.12500420E+03</pdfrwt>
<totfact> 0.10400099E+04</totfact>
</mgrwt>
</event>
<event>
 5    1  0.3312904E-002  0.1249988E+03  0.7818608E-02  0.1235071E+00
          4   -1    0    0  501    0  0.00000000000E+00  0.00000000000E+00  0.45298359539E+02  0.45316159115E+02  0.12700000000E+01 0. -1.
         -4   -1    0    0    0  501 -0.00000000000E+00 -0.00000000000E+00 -0.86192692641E+02  0.86202048495E+02  0.12700000000E+01 0. -1.
         25    2    1    2    0    0  0.00000000000E+00  0.00000000000E+00 -0.40894333102E+02  0.13151820761E+03  0.12499876981E+03 0.  0.
    9000005    1    3    3    0    0 -0.42133099977E+02 -0.12006513065E+02 -0.67333895414E+02  0.80338085248E+02  0.10000000000E+01 0.  0.
    9000005    1    3    3    0    0  0.42133099977E+02  0.12006513065E+02  0.26439562312E+02  0.51180122362E+02  0.10000000000E+01 0.  0.
<mgrwt>
<rscale>  0 0.12499877E+03</rscale>
<asrwt>0</asrwt>
<pdfrwt beam="1">  1        4 0.69710673E-02 0.12499877E+03</pdfrwt>
<pdfrwt beam="2">  1       -4 0.13262503E-01 0.12499877E+03</pdfrwt>
<totfact> 0.10312279E+04</totfact>
</mgrwt>
</event>
<event>
 5    1  0.3312904E-002  0.1249993E+03  0.7818608E-02  0.1235070E+00
          4   -1    0    0  501    0  0.00000000000E+00  0.00000000000E+00  0.22245750152E+03  0.22246112668E+03  0.12700000000E+01 0.  1.
         -4   -1    0    0    0  501 -0.00000000000E+00 -0.00000000000E+00 -0.17532604880E+02  0.17578541859E+02  0.12700000000E+01 0.  1.
         25    2    1    2    0    0  0.00000000000E+00  0.00000000000E+00  0.20492489664E+03  0.24003966853E+03  0.12499931683E+03 0.  0.
    9000005    1    3    3    0    0 -0.54271706251E+02  0.21885892329E+02  0.60355262465E+02  0.84072397905E+02  0.10000000000E+01 0.  0.
    9000005    1    3    3    0    0  0.54271706251E+02 -0.21885892329E+02  0.14456963417E+03  0.15596727063E+03  0.10000000000E+01 0.  0.
<mgrwt>
<rscale>  0 0.12499932E+03</rscale>
<asrwt>0</asrwt>
<pdfrwt beam="1">  1        4 0.34228045E-01 0.12499932E+03</pdfrwt>
<pdfrwt beam="2">  1       -4 0.27011362E-02 0.12499932E+03</pdfrwt>
<totfact> 0.83792734E+03</totfact>
</mgrwt>
</event>
<event>
 5    1  0.3312904E-002  0.1249991E+03  0.7818608E-02  0.1235071E+00
         -4   -1    0    0    0  501 -0.00000000000E+00  0.00000000000E+00  0.43438331694E+02  0.43456893128E+02  0.12700000000E+01 0.  1.
          4   -1    0    0  501    0  0.00000000000E+00 -0.00000000000E+00 -0.89882721161E+02  0.89891692960E+02  0.12700000000E+01 0.  1.
         25    2    1    2    0    0  0.00000000000E+00  0.00000000000E+00 -0.46444389467E+02  0.13334858609E+03  0.12499905639E+03 0.  0.
    9000005    1    3    3    0    0  0.46192775055E+02 -0.20686698296E+02  0.15879639770E+02  0.53055394758E+02  0.10000000000E+01 0.  0.
    9000005    1    3    3    0    0 -0.46192775055E+02  0.20686698296E+02 -0.62324029237E+02  0.80293191330E+02  0.10000000000E+01 0.  0.
<mgrwt>
<rscale>  0 0.12499906E+03</rscale>
<asrwt>0</asrwt>
<pdfrwt beam="2">  1        4 0.13830229E-01 0.12499906E+03</pdfrwt>
<pdfrwt beam="1">  1       -4 0.66849382E-02 0.12499906E+03</pdfrwt>
<totfact> 0.10273216E+04</totfact>
</mgrwt>
</event>
<event>
 5    1  0.3312904E-002  0.1250121E+03  0.7818608E-02  0.1235050E+00
          4   -1    0    0  501    0  0.00000000000E+00  0.00000000000E+00  0.11201069907E+02  0.11272837578E+02  0.12700000000E+01 0. -1.
         -4   -1    0    0    0  501 -0.00000000000E+00 -0.00000000000E+00 -0.34761968806E+03  0.34762200797E+03  0.12700000000E+01 0. -1.
         25    2    1    2    0    0  0.00000000000E+00  0.00000000000E+00 -0.33641861815E+03  0.35889484555E+03  0.12501209351E+03 0.  0.
    9000005    1    3    3    0    0  0.41292183499E+01  0.60740419142E+02 -0.20876469962E+03  0.21746298252E+03  0.10000000000E+01 0.  0.
    9000005    1    3    3    0    0 -0.41292183499E+01 -0.60740419142E+02 -0.12765391853E+03  0.14143186302E+03  0.10000000000E+01 0.  0.
<mgrwt>
<rscale>  0 0.12501209E+03</rscale>
<asrwt>0</asrwt>
<pdfrwt beam="1">  1        4 0.17289408E-02 0.12501209E+03</pdfrwt>
<pdfrwt beam="2">  1       -4 0.53485643E-01 0.12501209E+03</pdfrwt>
<totfact> 0.68738586E+03</totfact>
</mgrwt>
</event>
<event>
 5    1  0.3312904E-002  0.1250013E+03  0.7818608E-02  0.1235067E+00
         -4   -1    0    0    0  501 -0.00000000000E+00  0.00000000000E+00  0.28634871846E+04  0.28634874662E+04  0.12700000000E+01 0.  1.
          4   -1    0    0  501    0  0.00000000000E+00 -0.00000000000E+00 -0.10682644546E+01  0.16595448005E+01  0.12700000000E+01 0.  1.
         25    2    1    2    0    0  0.00000000000E+00  0.00000000000E+00  0.28624189201E+04  0.28651470110E+04  0.12500128168E+03 0.  0.
    9000005    1    3    3    0    0 -0.29613022769E+01  0.21543056002E+02  0.88336184881E+02  0.90978866405E+02  0.10000000000E+01 0.  0.
    9000005    1    3    3    0    0  0.29613022769E+01 -0.21543056002E+02  0.27740827352E+04  0.27741681446E+04  0.10000000000E+01 0.  0.
<mgrwt>
<rscale>  0 0.12500128E+03</rscale>
<asrwt>0</asrwt>
<pdfrwt beam="2">  1        4 0.20985494E-03 0.12500128E+03</pdfrwt>
<pdfrwt beam="1">  1       -4 0.44057822E+00 0.12500128E+03</pdfrwt>
<totfact> 0.23927961E+02</totfact>
</mgrwt>
</event>
<event>
 5    1  0.3312904E-002  0.1250025E+03  0.7818608E-02  0.1235065E+00
          4   -1    0    0  501    0  0.00000000000E+00  0.00000000000E+00  0.46867386487E+02  0.46884590391E+02  0.12700000000E+01 0.  1.
         -4   -1    0    0    0  501 -0.00000000000E+00 -0.00000000000E+00 -0.83312881033E+02  0.83322560246E+02  0.12700000000E+01 0.  1.
         25    2    1    2    0    0  0.00000000000E+00  0.00000000000E+00 -0.36445494545E+02  0.13020715064E+03  0.12500251199E+03 0.  0.
    9000005    1    3    3    0    0 -0.58702638503E+02 -0.11616198888E+02 -0.36985827851E+02  0.70355435509E+02  0.10000000000E+01 0.  0.
    9000005    1    3    3    0    0  0.58702638503E+02  0.11616198888E+02  0.54033330543E+00  0.59851715129E+02  0.10000000000E+01 0.  0.
<mgrwt>
<rscale>  0 0.12500251E+03</rscale>
<asrwt>0</asrwt>
<pdfrwt beam="1">  1        4 0.72124351E-02 0.12500251E+03</pdfrwt>
<pdfrwt beam="2">  1       -4 0.12819434E-01 0.12500251E+03</pdfrwt>
<totfact> 0.10339492E+04</totfact>
</mgrwt>
</event>
<event>
 5    1  0.3312904E-002  0.1250018E+03  0.7818608E-02  0.1235066E+00
          4   -1    0    0  501    0  0.00000000000E+00  0.00000000000E+00  0.44018321850E+03  0.44018505058E+03  0.12700000000E+01 0. -1.
         -4   -1    0    0    0  501 -0.00000000000E+00 -0.00000000000E+00 -0.88271034316E+01  0.89179961310E+01  0.12700000000E+01 0. -1.
         25    2    1    2    0    0  0.00000000000E+00  0.00000000000E+00  0.43135611507E+03  0.44910304671E+03  0.12500179420E+03 0.  0.
    9000005    1    3    3    0    0  0.50789381037E+02  0.27771807185E+02  0.30028214643E+03  0.30581236398E+03  0.10000000000E+01 0.  0.
    9000005    1    3    3    0    0 -0.50789381037E+02 -0.27771807185E+02  0.13107396864E+03  0.14329068273E+03  0.10000000000E+01 0.  0.
<mgrwt>
<rscale>  0 0.12500179E+03</rscale>
<asrwt>0</asrwt>
<pdfrwt beam="1">  1        4 0.67727600E-01 0.12500179E+03</pdfrwt>
<pdfrwt beam="2">  1       -4 0.13651491E-02 0.12500179E+03</pdfrwt>
<totfact> 0.60039217E+03</totfact>
</mgrwt>
</event>
<event>
 5    1  0.3312904E-002  0.1250020E+03  0.7818608E-02  0.1235066E+00
          4   -1    0    0  501    0  0.00000000000E+00  0.00000000000E+00  0.31189001607E+02  0.31214847769E+02  0.12700000000E+01 0.  1.
         -4   -1    0    0    0  501 -0.00000000000E+00 -0.00000000000E+00 -0.12516758755E+03  0.12517403035E+03  0.12700000000E+01 0.  1.
         25    2    1    2    0    0  0.00000000000E+00  0.00000000000E+00 -0.93978585946E+02  0.15638887812E+03  0.12500202631E+03 0.  0.
    9000005    1    3    3    0    0  0.46932054927E+02  0.40625725898E+02 -0.56037824507E+02  0.83631962550E+02  0.10000000000E+01 0.  0.
    9000005    1    3    3    0    0 -0.46932054927E+02 -0.40625725898E+02 -0.37940761439E+02  0.72756915568E+02  0.10000000000E+01 0.  0.
<mgrwt>
<rscale>  0 0.12500203E+03</rscale>
<asrwt>0</asrwt>
<pdfrwt beam="1">  1        4 0.48007918E-02 0.12500203E+03</pdfrwt>
<pdfrwt beam="2">  1       -4 0.19259035E-01 0.12500203E+03</pdfrwt>
<totfact> 0.98039066E+03</totfact>
</mgrwt>
</event>
<event>
 5    1  0.3312904E-002  0.1250063E+03  0.7818608E-02  0.1235059E+00
          4   -1    0    0  501    0  0.00000000000E+00  0.00000000000E+00  0.35483421544E+02  0.35506141785E+02  0.12700000000E+01 0.  1.
         -4   -1    0    0    0  501 -0.00000000000E+00 -0.00000000000E+00 -0.11003613276E+03  0.11004346148E+03  0.12700000000E+01 0.  1.
         25    2    1    2    0    0  0.00000000000E+00  0.00000000000E+00 -0.74552711221E+02  0.14554960326E+03  0.12500632088E+03 0.  0.
    9000005    1    3    3    0    0 -0.21026518174E+02 -0.20218437064E+02 -0.10162902440E+03  0.10573721324E+03  0.10000000000E+01 0.  0.
    9000005    1    3    3    0    0  0.21026518174E+02  0.20218437064E+02  0.27076313177E+02  0.39812390020E+02  0.10000000000E+01 0.  0.
<mgrwt>
<rscale>  0 0.12500632E+03</rscale>
<asrwt>0</asrwt>
<pdfrwt beam="1">  1        4 0.54612994E-02 0.12500632E+03</pdfrwt>
<pdfrwt beam="2">  1       -4 0.16930947E-01 0.12500632E+03</pdfrwt>
<totfact> 0.10018408E+04</totfact>
</mgrwt>
</event>
<event>
 5    1  0.3312904E-002  0.1250000E+03  0.7818608E-02  0.1235069E+00
          4   -1    0    0  501    0  0.00000000000E+00  0.00000000000E+00  0.84045580302E+02  0.84055175143E+02  0.12700000000E+01 0.  1.
         -4   -1    0    0    0  501 -0.00000000000E+00 -0.00000000000E+00 -0.46456849045E+02  0.46474204923E+02  0.12700000000E+01 0.  1.
         25    2    1    2    0    0  0.00000000000E+00  0.00000000000E+00  0.37588731256E+02  0.13052938007E+03  0.12500002537E+03 0.  0.
    9000005    1    3    3    0    0  0.53635065620E+02  0.14701631966E+02  0.48557684088E+02  0.73835675188E+02  0.10000000000E+01 0.  0.
    9000005    1    3    3    0    0 -0.53635065620E+02 -0.14701631966E+02 -0.10968952831E+02  0.56693704878E+02  0.10000000000E+01 0.  0.
<mgrwt>
<rscale>  0 0.12500003E+03</rscale>
<asrwt>0</asrwt>
<pdfrwt beam="1">  1        4 0.12932162E-01 0.12500003E+03</pdfrwt>
<pdfrwt beam="2">  1       -4 0.71492808E-02 0.12500003E+03</pdfrwt>
<totfact> 0.10333183E+04</totfact>
</mgrwt>
</event>
<event>
 5    1  0.3312904E-002  0.1249950E+03  0.7818608E-02  0.1235077E+00
         -4   -1    0    0    0  501 -0.00000000000E+00  0.00000000000E+00  0.97205840845E+01  0.98031961596E+01  0.12700000000E+01 0.  1.
          4   -1    0    0  501    0  0.00000000000E+00 -0.00000000000E+00 -0.40003765395E+03  0.40003966988E+03  0.12700000000E+01 0.  1.
         25    2    1    2    0    0  0.00000000000E+00  0.00000000000E+00 -0.39031706987E+03  0.40984286604E+03  0.12499503916E+03 0.  0.
    9000005    1    3    3    0    0  0.56281677559E+00  0.48764766891E+02 -0.32327064272E+03  0.32693000427E+03  0.10000000000E+01 0.  0.
    9000005    1    3    3    0    0 -0.56281677559E+00 -0.48764766891E+02 -0.67046427152E+02  0.82912861768E+02  0.10000000000E+01 0.  0.
<mgrwt>
<rscale>  0 0.12499504E+03</rscale>
<asrwt>0</asrwt>
<pdfrwt beam="2">  1        4 0.61550752E-01 0.12499504E+03</pdfrwt>
<pdfrwt beam="1">  1       -4 0.15019846E-02 0.12499504E+03</pdfrwt>
<totfact> 0.63613580E+03</totfact>
</mgrwt>
</event>
<event>
 5    1  0.3312904E-002  0.1249984E+03  0.7818608E-02  0.1235072E+00
         -4   -1    0    0    0  501 -0.00000000000E+00  0.00000000000E+00  0.10049181705E+03  0.10049984176E+03  0.12700000000E+01 0. -1.
          4   -1    0    0  501    0  0.00000000000E+00 -0.00000000000E+00 -0.38850346376E+02  0.38871098693E+02  0.12700000000E+01 0. -1.
         25    2    1    2    0    0  0.00000000000E+00  0.00000000000E+00  0.61641470671E+02  0.13937094045E+03  0.12499835253E+03 0.  0.
    9000005    1    3    3    0    0  0.59266684761E+02 -0.15875211321E+02  0.17600563821E+02  0.63838406182E+02  0.10000000000E+01 0.  0.
    9000005    1    3    3    0    0 -0.59266684761E+02  0.15875211321E+02  0.44040906849E+02  0.75532534269E+02  0.10000000000E+01 0.  0.
<mgrwt>
<rscale>  0 0.12499835E+03</rscale>
<asrwt>0</asrwt>
<pdfrwt beam="2">  1        4 0.59791901E-02 0.12499835E+03</pdfrwt>
<pdfrwt beam="1">  1       -4 0.15462493E-01 0.12499835E+03</pdfrwt>
<totfact> 0.10147017E+04</totfact>
</mgrwt>
</event>
<event>
 5    1  0.3312904E-002  0.1250014E+03  0.7818608E-02  0.1235067E+00
         -4   -1    0    0    0  501 -0.00000000000E+00  0.00000000000E+00  0.33832401978E+02  0.33856230203E+02  0.12700000000E+01 0. -1.
          4   -1    0    0  501    0  0.00000000000E+00 -0.00000000000E+00 -0.11539349010E+03  0.11540047858E+03  0.12700000000E+01 0. -1.
         25    2    1    2    0    0  0.00000000000E+00  0.00000000000E+00 -0.81561088120E+02  0.14925670879E+03  0.12500141608E+03 0.  0.
    9000005    1    3    3    0    0 -0.11420259368E+02  0.46863165890E+02 -0.88224070956E+02  0.10055379325E+03  0.10000000000E+01 0.  0.
    9000005    1    3    3    0    0  0.11420259368E+02 -0.46863165890E+02  0.66629828358E+01  0.48702915534E+02  0.10000000000E+01 0.  0.
<mgrwt>
<rscale>  0 0.12500142E+03</rscale>
<asrwt>0</asrwt>
<pdfrwt beam="2">  1        4 0.17755215E-01 0.12500142E+03</pdfrwt>
<pdfrwt beam="1">  1       -4 0.52073555E-02 0.12500142E+03</pdfrwt>
<totfact> 0.99448899E+03</totfact>
</mgrwt>
</event>
<event>
 5    1  0.3312904E-002  0.1249938E+03  0.7818608E-02  0.1235079E+00
          4   -1    0    0  501    0  0.00000000000E+00  0.00000000000E+00  0.19954447745E+03  0.19954851887E+03  0.12700000000E+01 0.  1.
         -4   -1    0    0    0  501 -0.00000000000E+00 -0.00000000000E+00 -0.19549054941E+02  0.19590264140E+02  0.12700000000E+01 0.  1.
         25    2    1    2    0    0  0.00000000000E+00  0.00000000000E+00  0.17999542251E+03  0.21913878301E+03  0.12499381622E+03 0.  0.
    9000005    1    3    3    0    0 -0.10176090939E+02 -0.60990837206E+02  0.10581816239E+03  0.12256393655E+03  0.10000000000E+01 0.  0.
    9000005    1    3    3    0    0  0.10176090939E+02  0.60990837206E+02  0.74177260120E+02  0.96574846460E+02  0.10000000000E+01 0.  0.
<mgrwt>
<rscale>  0 0.12499382E+03</rscale>
<asrwt>0</asrwt>
<pdfrwt beam="1">  1        4 0.30702630E-01 0.12499382E+03</pdfrwt>
<pdfrwt beam="2">  1       -4 0.30110278E-02 0.12499382E+03</pdfrwt>
<totfact> 0.87016829E+03</totfact>
</mgrwt>
</event>
<event>
 5    1  0.3312904E-002  0.1250000E+03  0.7818608E-02  0.1235069E+00
          4   -1    0    0  501    0  0.00000000000E+00  0.00000000000E+00  0.95190958156E+01  0.96034413180E+01  0.12700000000E+01 0. -1.
         -4   -1    0    0    0  501 -0.00000000000E+00 -0.00000000000E+00 -0.40846385619E+03  0.40846583053E+03  0.12700000000E+01 0. -1.
         25    2    1    2    0    0  0.00000000000E+00  0.00000000000E+00 -0.39894476037E+03  0.41806927185E+03  0.12499997695E+03 0.  0.
    9000005    1    3    3    0    0 -0.49954197037E+02 -0.36105677479E+02 -0.23394025444E+03  0.24192578283E+03  0.10000000000E+01 0.  0.
    9000005    1    3    3    0    0  0.49954197037E+02  0.36105677479E+02 -0.16500450593E+03  0.17614348902E+03  0.10000000000E+01 0.  0.
<mgrwt>
<rscale>  0 0.12499998E+03</rscale>
<asrwt>0</asrwt>
<pdfrwt beam="1">  1        4 0.14711166E-02 0.12499998E+03</pdfrwt>
<pdfrwt beam="2">  1       -4 0.62847220E-01 0.12499998E+03</pdfrwt>
<totfact> 0.62832570E+03</totfact>
</mgrwt>
</event>
<event>
 5    1  0.3312904E-002  0.1250014E+03  0.7818608E-02  0.1235067E+00
         -4   -1    0    0    0  501 -0.00000000000E+00  0.00000000000E+00  0.60531392906E+02  0.60544714279E+02  0.12700000000E+01 0. -1.
          4   -1    0    0  501    0  0.00000000000E+00 -0.00000000000E+00 -0.64507365553E+02  0.64519866015E+02  0.12700000000E+01 0. -1.
         25    2    1    2    0    0  0.00000000000E+00  0.00000000000E+00 -0.39759726469E+01  0.12506458029E+03  0.12500136354E+03 0.  0.
    9000005    1    3    3    0    0 -0.25861595267E+02 -0.56887853007E+02 -0.25223836418E+01  0.62549279363E+02  0.10000000000E+01 0.  0.
    9000005    1    3    3    0    0  0.25861595267E+02  0.56887853007E+02 -0.14535890051E+01  0.62515300931E+02  0.10000000000E+01 0.  0.
<mgrwt>
<rscale>  0 0.12500136E+03</rscale>
<asrwt>0</asrwt>
<pdfrwt beam="2">  1        4 0.99261964E-02 0.12500136E+03</pdfrwt>
<pdfrwt beam="1">  1       -4 0.93145083E-02 0.12500136E+03</pdfrwt>
<totfact> 0.10451138E+04</totfact>
</mgrwt>
</event>
<event>
 5    1  0.3312904E-002  0.1250062E+03  0.7818608E-02  0.1235060E+00
         -4   -1    0    0    0  501 -0.00000000000E+00  0.00000000000E+00  0.93642380913E+02  0.93650992537E+02  0.12700000000E+01 0.  1.
          4   -1    0    0  501    0  0.00000000000E+00 -0.00000000000E+00 -0.41698478127E+02  0.41717813678E+02  0.12700000000E+01 0.  1.
         25    2    1    2    0    0  0.00000000000E+00  0.00000000000E+00  0.51943902786E+02  0.13536880621E+03  0.12500617848E+03 0.  0.
    9000005    1    3    3    0    0  0.15506464062E+02 -0.59332309543E+02  0.39005585654E+02  0.72685687007E+02  0.10000000000E+01 0.  0.
    9000005    1    3    3    0    0 -0.15506464062E+02  0.59332309543E+02  0.12938317133E+02  0.62683119208E+02  0.10000000000E+01 0.  0.
<mgrwt>
<rscale>  0 0.12500618E+03</rscale>
<asrwt>0</asrwt>
<pdfrwt beam="2">  1        4 0.64173003E-02 0.12500618E+03</pdfrwt>
<pdfrwt beam="1">  1       -4 0.14408670E-01 0.12500618E+03</pdfrwt>
<totfact> 0.10228878E+04</totfact>
</mgrwt>
</event>
<event>
 5    1  0.3312904E-002  0.1249930E+03  0.7818608E-02  0.1235080E+00
          4   -1    0    0  501    0  0.00000000000E+00  0.00000000000E+00  0.15860733626E+03  0.15861242075E+03  0.12700000000E+01 0. -1.
         -4   -1    0    0    0  501 -0.00000000000E+00 -0.00000000000E+00 -0.24603814239E+02  0.24636569873E+02  0.12700000000E+01 0. -1.
         25    2    1    2    0    0  0.00000000000E+00  0.00000000000E+00  0.13400352202E+03  0.18324899062E+03  0.12499299440E+03 0.  0.
    9000005    1    3    3    0    0  0.45985166422E+02 -0.41929628970E+02  0.58697665006E+02  0.85552002861E+02  0.10000000000E+01 0.  0.
    9000005    1    3    3    0    0 -0.45985166422E+02  0.41929628970E+02  0.75305857016E+02  0.97696987760E+02  0.10000000000E+01 0.  0.
<mgrwt>
<rscale>  0 0.12499299E+03</rscale>
<asrwt>0</asrwt>
<pdfrwt beam="1">  1        4 0.24404040E-01 0.12499299E+03</pdfrwt>
<pdfrwt beam="2">  1       -4 0.37881129E-02 0.12499299E+03</pdfrwt>
<totfact> 0.93050032E+03</totfact>
</mgrwt>
</event>
<event>
 5    1  0.3312904E-002  0.1249991E+03  0.7818608E-02  0.1235071E+00
         -4   -1    0    0    0  501 -0.00000000000E+00  0.00000000000E+00  0.38893691088E+02  0.38914420289E+02  0.12700000000E+01 0.  1.
          4   -1    0    0  501    0  0.00000000000E+00 -0.00000000000E+00 -0.10038107437E+03  0.10038910793E+03  0.12700000000E+01 0.  1.
         25    2    1    2    0    0  0.00000000000E+00  0.00000000000E+00 -0.61487383279E+02  0.13930352822E+03  0.12499909868E+03 0.  0.
    9000005    1    3    3    0    0 -0.46135958201E+01 -0.61628366231E+02 -0.41069704507E+02  0.74209577677E+02  0.10000000000E+01 0.  0.
    9000005    1    3    3    0    0  0.46135958201E+01  0.61628366231E+02 -0.20417678772E+02  0.65093950542E+02  0.10000000000E+01 0.  0.
<mgrwt>
<rscale>  0 0.12499910E+03</rscale>
<asrwt>0</asrwt>
<pdfrwt beam="2">  1        4 0.15445455E-01 0.12499910E+03</pdfrwt>
<pdfrwt beam="1">  1       -4 0.59858574E-02 0.12499910E+03</pdfrwt>
<totfact> 0.10148247E+04</totfact>
</mgrwt>
</event>
<event>
 5    1  0.3312904E-002  0.1250361E+03  0.7818608E-02  0.1235013E+00
         -4   -1    0    0    0  501 -0.00000000000E+00  0.00000000000E+00  0.43047020934E+02  0.43065751024E+02  0.12700000000E+01 0. -1.
          4   -1    0    0  501    0  0.00000000000E+00 -0.00000000000E+00 -0.90753334129E+02  0.90762219869E+02  0.12700000000E+01 0. -1.
         25    2    1    2    0    0  0.00000000000E+00  0.00000000000E+00 -0.47706313195E+02  0.13382797089E+03  0.12503612868E+03 0.  0.
    9000005    1    3    3    0    0  0.11808331823E+02  0.60058390144E+02 -0.10269798025E+02  0.62071858992E+02  0.10000000000E+01 0.  0.
    9000005    1    3    3    0    0 -0.11808331823E+02 -0.60058390144E+02 -0.37436515170E+02  0.71756111902E+02  0.10000000000E+01 0.  0.
<mgrwt>
<rscale>  0 0.12503613E+03</rscale>
<asrwt>0</asrwt>
<pdfrwt beam="2">  1        4 0.13964176E-01 0.12503613E+03</pdfrwt>
<pdfrwt beam="1">  1       -4 0.66247429E-02 0.12503613E+03</pdfrwt>
<totfact> 0.10254475E+04</totfact>
</mgrwt>
</event>
<event>
 5    1  0.3312904E-002  0.1249989E+03  0.7818608E-02  0.1235071E+00
          4   -1    0    0  501    0  0.00000000000E+00  0.00000000000E+00  0.93229142388E+01  0.94090185409E+01  0.12700000000E+01 0. -1.
         -4   -1    0    0    0  501 -0.00000000000E+00 -0.00000000000E+00 -0.41697414435E+03  0.41697607840E+03  0.12700000000E+01 0. -1.
         25    2    1    2    0    0  0.00000000000E+00  0.00000000000E+00 -0.40765123011E+03  0.42638509694E+03  0.12499890192E+03 0.  0.
    9000005    1    3    3    0    0 -0.12385418716E+02  0.55359661892E+02 -0.11441217066E+03  0.12770761746E+03  0.10000000000E+01 0.  0.
    9000005    1    3    3    0    0  0.12385418716E+02 -0.55359661892E+02 -0.29323905945E+03  0.29867747948E+03  0.10000000000E+01 0.  0.
<mgrwt>
<rscale>  0 0.12499890E+03</rscale>
<asrwt>0</asrwt>
<pdfrwt beam="1">  1        4 0.14410670E-02 0.12499890E+03</pdfrwt>
<pdfrwt beam="2">  1       -4 0.64156626E-01 0.12499890E+03</pdfrwt>
<totfact> 0.62066542E+03</totfact>
</mgrwt>
</event>
<event>
 5    1  0.3312904E-002  0.1249978E+03  0.7818608E-02  0.1235073E+00
          4   -1    0    0  501    0  0.00000000000E+00  0.00000000000E+00  0.51279942146E+02  0.51295666157E+02  0.12700000000E+01 0. -1.
         -4   -1    0    0    0  501 -0.00000000000E+00 -0.00000000000E+00 -0.76139596560E+02  0.76150187553E+02  0.12700000000E+01 0. -1.
         25    2    1    2    0    0  0.00000000000E+00  0.00000000000E+00 -0.24859654414E+02  0.12744585371E+03  0.12499777282E+03 0.  0.
    9000005    1    3    3    0    0 -0.61653236955E+02 -0.79957180792E+01 -0.18882895584E+02  0.64981665724E+02  0.10000000000E+01 0.  0.
    9000005    1    3    3    0    0  0.61653236955E+02  0.79957180792E+01 -0.59767588301E+01  0.62464187986E+02  0.10000000000E+01 0.  0.
<mgrwt>
<rscale>  0 0.12499777E+03</rscale>
<asrwt>0</asrwt>
<pdfrwt beam="1">  1        4 0.78912461E-02 0.12499777E+03</pdfrwt>
<pdfrwt beam="2">  1       -4 0.11715808E-01 0.12499777E+03</pdfrwt>
<totfact> 0.10399996E+04</totfact>
</mgrwt>
</event>
<event>
 5    1  0.3312904E-002  0.1250012E+03  0.7818608E-02  0.1235067E+00
          4   -1    0    0  501    0  0.00000000000E+00  0.00000000000E+00  0.13697986376E+02  0.13756734015E+02  0.12700000000E+01 0.  1.
         -4   -1    0    0    0  501 -0.00000000000E+00 -0.00000000000E+00 -0.28450491026E+03  0.28450774482E+03  0.12700000000E+01 0.  1.
         25    2    1    2    0    0  0.00000000000E+00  0.00000000000E+00 -0.27080692389E+03  0.29826447884E+03  0.12500123724E+03 0.  0.
    9000005    1    3    3    0    0 -0.17166363442E+02  0.58338127670E+02 -0.16975872835E+03  0.18032483752E+03  0.10000000000E+01 0.  0.
    9000005    1    3    3    0    0  0.17166363442E+02 -0.58338127670E+02 -0.10104819553E+03  0.11793964132E+03  0.10000000000E+01 0.  0.
<mgrwt>
<rscale>  0 0.12500124E+03</rscale>
<asrwt>0</asrwt>
<pdfrwt beam="1">  1        4 0.21121198E-02 0.12500124E+03</pdfrwt>
<pdfrwt beam="2">  1       -4 0.43774719E-01 0.12500124E+03</pdfrwt>
<totfact> 0.75814975E+03</totfact>
</mgrwt>
</event>
<event>
 4    1  0.3312904E-002  0.1257960E+03  0.7818608E-02  0.1233831E+00
          4   -1    0    0  501    0  0.00000000000E+00  0.00000000000E+00  0.24016492204E+02  0.24050047771E+02  0.12700000000E+01 0.  1.
         -4   -1    0    0    0  501 -0.00000000000E+00 -0.00000000000E+00 -0.16457561494E+03  0.16458051505E+03  0.12700000000E+01 0.  1.
    9000005    1    1    2    0    0  0.58928258952E+02 -0.21857569306E+02 -0.66973003107E+02  0.91851380960E+02  0.10000000000E+01 0.  0.
    9000005    1    1    2    0    0 -0.58928258952E+02  0.21857569306E+02 -0.73586119630E+02  0.96779181859E+02  0.10000000000E+01 0.  0.
<mgrwt>
<rscale>  0 0.12579595E+03</rscale>
<asrwt>0</asrwt>
<pdfrwt beam="1">  1        4 0.36978032E-02 0.12579595E+03</pdfrwt>
<pdfrwt beam="2">  1       -4 0.25322283E-01 0.12579595E+03</pdfrwt>
<totfact> 0.90463161E+03</totfact>
</mgrwt>
</event>
<event>
 5    1  0.3312904E-002  0.1250000E+03  0.7818608E-02  0.1235069E+00
          4   -1    0    0  501    0  0.00000000000E+00  0.00000000000E+00  0.14067408346E+02  0.14124619555E+02  0.12700000000E+01 0.  1.
         -4   -1    0    0    0  501 -0.00000000000E+00 -0.00000000000E+00 -0.27705875723E+03  0.27706166797E+03  0.12700000000E+01 0.  1.
         25    2    1    2    0    0  0.00000000000E+00  0.00000000000E+00 -0.26299134888E+03  0.29118628752E+03  0.12500001782E+03 0.  0.
    9000005    1    3    3    0    0  0.43837649405E+02 -0.31167463531E+02 -0.57386370545E+02  0.78659683527E+02  0.10000000000E+01 0.  0.
    9000005    1    3    3    0    0 -0.43837649405E+02  0.31167463531E+02 -0.20560497834E+03  0.21252660399E+03  0.10000000000E+01 0.  0.
<mgrwt>
<rscale>  0 0.12500002E+03</rscale>
<asrwt>0</asrwt>
<pdfrwt beam="1">  1        4 0.21688416E-02 0.12500002E+03</pdfrwt>
<pdfrwt beam="2">  1       -4 0.42629045E-01 0.12500002E+03</pdfrwt>
<totfact> 0.76717855E+03</totfact>
</mgrwt>
</event>
<event>
 5    1  0.3312904E-002  0.1250016E+03  0.7818608E-02  0.1235067E+00
          4   -1    0    0  501    0  0.00000000000E+00  0.00000000000E+00  0.38880809125E+02  0.38901545191E+02  0.12700000000E+01 0.  1.
         -4   -1    0    0    0  501 -0.00000000000E+00 -0.00000000000E+00 -0.10041829174E+03  0.10042632232E+03  0.12700000000E+01 0.  1.
         25    2    1    2    0    0  0.00000000000E+00  0.00000000000E+00 -0.61537482610E+02  0.13932786751E+03  0.12500157159E+03 0.  0.
    9000005    1    3    3    0    0  0.58905947617E+02  0.18573451812E+02 -0.41370098937E+02  0.74346276725E+02  0.10000000000E+01 0.  0.
    9000005    1    3    3    0    0 -0.58905947617E+02 -0.18573451812E+02 -0.20167383673E+02  0.64981590786E+02  0.10000000000E+01 0.  0.
<mgrwt>
<rscale>  0 0.12500157E+03</rscale>
<asrwt>0</asrwt>
<pdfrwt beam="1">  1        4 0.59838758E-02 0.12500157E+03</pdfrwt>
<pdfrwt beam="2">  1       -4 0.15451181E-01 0.12500157E+03</pdfrwt>
<totfact> 0.10147176E+04</totfact>
</mgrwt>
</event>
<event>
 5    1  0.3312904E-002  0.1250030E+03  0.7818608E-02  0.1235065E+00
         -4   -1    0    0    0  501 -0.00000000000E+00  0.00000000000E+00  0.27550370938E+02  0.27579627243E+02  0.12700000000E+01 0.  1.
          4   -1    0    0  501    0  0.00000000000E+00 -0.00000000000E+00 -0.14168516917E+03  0.14169086090E+03  0.12700000000E+01 0.  1.
         25    2    1    2    0    0  0.00000000000E+00  0.00000000000E+00 -0.11413479823E+03  0.16927048814E+03  0.12500298392E+03 0.  0.
    9000005    1    3    3    0    0 -0.49867282057E+02  0.31842414796E+02 -0.84310402933E+02  0.10300451079E+03  0.10000000000E+01 0.  0.
    9000005    1    3    3    0    0  0.49867282057E+02 -0.31842414796E+02 -0.29824395296E+02  0.66265977353E+02  0.10000000000E+01 0.  0.
<mgrwt>
<rscale>  0 0.12500298E+03</rscale>
<asrwt>0</asrwt>
<pdfrwt beam="2">  1        4 0.21800406E-01 0.12500298E+03</pdfrwt>
<pdfrwt beam="1">  1       -4 0.42412070E-02 0.12500298E+03</pdfrwt>
<totfact> 0.95578282E+03</totfact>
</mgrwt>
</event>
<event>
 5    1  0.3312904E-002  0.1249997E+03  0.7818608E-02  0.1235070E+00
          4   -1    0    0  501    0  0.00000000000E+00  0.00000000000E+00  0.72338958232E+03  0.72339069714E+03  0.12700000000E+01 0.  1.
         -4   -1    0    0    0  501 -0.00000000000E+00 -0.00000000000E+00 -0.53240931971E+01  0.54734695003E+01  0.12700000000E+01 0.  1.
         25    2    1    2    0    0  0.00000000000E+00  0.00000000000E+00  0.71806548912E+03  0.72886416664E+03  0.12499970697E+03 0.  0.
    9000005    1    3    3    0    0 -0.56506760666E+02  0.45894529726E+01  0.20573872650E+03  0.21340923284E+03  0.10000000000E+01 0.  0.
    9000005    1    3    3    0    0  0.56506760666E+02 -0.45894529726E+01  0.51232676262E+03  0.51545493379E+03  0.10000000000E+01 0.  0.
<mgrwt>
<rscale>  0 0.12499971E+03</rscale>
<asrwt>0</asrwt>
<pdfrwt beam="1">  1        4 0.11130228E+00 0.12499971E+03</pdfrwt>
<pdfrwt beam="2">  1       -4 0.83066749E-03 0.12499971E+03</pdfrwt>
<totfact> 0.41606300E+03</totfact>
</mgrwt>
</event>
<event>
 5    1  0.3312904E-002  0.1249918E+03  0.7818608E-02  0.1235082E+00
         -4   -1    0    0    0  501 -0.00000000000E+00  0.00000000000E+00  0.17727560383E+04  0.17727564932E+04  0.12700000000E+01 0. -1.
          4   -1    0    0  501    0  0.00000000000E+00 -0.00000000000E+00 -0.20196890114E+01  0.23858004323E+01  0.12700000000E+01 0. -1.
         25    2    1    2    0    0  0.00000000000E+00  0.00000000000E+00  0.17707363493E+04  0.17751422936E+04  0.12499177572E+03 0.  0.
    9000005    1    3    3    0    0  0.25148138067E+01  0.30598765754E+02  0.11241428179E+03  0.11653574346E+03  0.10000000000E+01 0.  0.
    9000005    1    3    3    0    0 -0.25148138067E+01 -0.30598765754E+02  0.16583220675E+04  0.16586065502E+04  0.10000000000E+01 0.  0.
<mgrwt>
<rscale>  0 0.12499178E+03</rscale>
<asrwt>0</asrwt>
<pdfrwt beam="2">  1        4 0.33891823E-03 0.12499178E+03</pdfrwt>
<pdfrwt beam="1">  1       -4 0.27276035E+00 0.12499178E+03</pdfrwt>
<totfact> 0.13092692E+03</totfact>
</mgrwt>
</event>
<event>
 5    1  0.3312904E-002  0.1250033E+03  0.7818608E-02  0.1235064E+00
          4   -1    0    0  501    0  0.00000000000E+00  0.00000000000E+00  0.84637239783E+02  0.84646767558E+02  0.12700000000E+01 0.  1.
         -4   -1    0    0    0  501 -0.00000000000E+00 -0.00000000000E+00 -0.46134418605E+02  0.46151895735E+02  0.12700000000E+01 0.  1.
         25    2    1    2    0    0  0.00000000000E+00  0.00000000000E+00  0.38502821178E+02  0.13079866329E+03  0.12500329228E+03 0.  0.
    9000005    1    3    3    0    0  0.52819293200E+02 -0.66469059837E+01 -0.14998307551E+02  0.55317341971E+02  0.10000000000E+01 0.  0.
    9000005    1    3    3    0    0 -0.52819293200E+02  0.66469059837E+01  0.53501128729E+02  0.75481321323E+02  0.10000000000E+01 0.  0.
<mgrwt>
<rscale>  0 0.12500329E+03</rscale>
<asrwt>0</asrwt>
<pdfrwt beam="1">  1        4 0.13023191E-01 0.12500329E+03</pdfrwt>
<pdfrwt beam="2">  1       -4 0.70996803E-02 0.12500329E+03</pdfrwt>
<totfact> 0.10326640E+04</totfact>
</mgrwt>
</event>
<event>
 5    1  0.3312904E-002  0.1249986E+03  0.7818608E-02  0.1235071E+00
          4   -1    0    0  501    0  0.00000000000E+00  0.00000000000E+00  0.38817835255E+01  0.40842555428E+01  0.12700000000E+01 0.  1.
         -4   -1    0    0    0  501 -0.00000000000E+00 -0.00000000000E+00 -0.98050138794E+03  0.98050221043E+03  0.12700000000E+01 0.  1.
         25    2    1    2    0    0  0.00000000000E+00  0.00000000000E+00 -0.97661960442E+03  0.98458646597E+03  0.12499862897E+03 0.  0.
    9000005    1    3    3    0    0 -0.11337672427E+02 -0.47441317450E+01 -0.97092654192E+03  0.97100484005E+03  0.10000000000E+01 0.  0.
    9000005    1    3    3    0    0  0.11337672427E+02  0.47441317450E+01 -0.56930625014E+01  0.13581625923E+02  0.10000000000E+01 0.  0.
<mgrwt>
<rscale>  0 0.12499863E+03</rscale>
<asrwt>0</asrwt>
<pdfrwt beam="1">  1        4 0.61283629E-03 0.12499863E+03</pdfrwt>
<pdfrwt beam="2">  1       -4 0.15086181E+00 0.12499863E+03</pdfrwt>
<totfact> 0.31119918E+03</totfact>
</mgrwt>
</event>
<event>
 4    1  0.3312904E-002  0.1250925E+03  0.7818608E-02  0.1234925E+00
          4   -1    0    0  501    0  0.00000000000E+00  0.00000000000E+00  0.10672494650E+02  0.10747792427E+02  0.12700000000E+01 0. -1.
         -4   -1    0    0    0  501 -0.00000000000E+00 -0.00000000000E+00 -0.36518785402E+03  0.36519006233E+03  0.12700000000E+01 0. -1.
    9000005    1    1    2    0    0  0.55648443126E+02  0.24808195060E+02 -0.21963498194E+03  0.22793139550E+03  0.10000000000E+01 0.  0.
    9000005    1    1    2    0    0 -0.55648443126E+02 -0.24808195060E+02 -0.13488037743E+03  0.14800645925E+03  0.10000000000E+01 0.  0.
<mgrwt>
<rscale>  0 0.12509249E+03</rscale>
<asrwt>0</asrwt>
<pdfrwt beam="1">  1        4 0.16478845E-02 0.12509249E+03</pdfrwt>
<pdfrwt beam="2">  1       -4 0.56188699E-01 0.12509249E+03</pdfrwt>
<totfact> 0.66825577E+03</totfact>
</mgrwt>
</event>
<event>
 5    1  0.3312904E-002  0.1249731E+03  0.7818608E-02  0.1235111E+00
          4   -1    0    0  501    0  0.00000000000E+00  0.00000000000E+00  0.37707491029E+02  0.37728871964E+02  0.12700000000E+01 0. -1.
         -4   -1    0    0    0  501 -0.00000000000E+00 -0.00000000000E+00 -0.10349422101E+03  0.10350201294E+03  0.12700000000E+01 0. -1.
         25    2    1    2    0    0  0.00000000000E+00  0.00000000000E+00 -0.65786729982E+02  0.14123088490E+03  0.12497307314E+03 0.  0.
    9000005    1    3    3    0    0  0.72984958111E+00 -0.54862443213E+02 -0.66666756741E+02  0.86347419244E+02  0.10000000000E+01 0.  0.
    9000005    1    3    3    0    0 -0.72984958111E+00  0.54862443213E+02  0.88002675903E+00  0.54883465660E+02  0.10000000000E+01 0.  0.
<mgrwt>
<rscale>  0 0.12497307E+03</rscale>
<asrwt>0</asrwt>
<pdfrwt beam="1">  1        4 0.58033966E-02 0.12497307E+03</pdfrwt>
<pdfrwt beam="2">  1       -4 0.15924432E-01 0.12497307E+03</pdfrwt>
<totfact> 0.10114272E+04</totfact>
</mgrwt>
</event>
<event>
 5    1  0.3312904E-002  0.1250031E+03  0.7818608E-02  0.1235064E+00
          4   -1    0    0  501    0  0.00000000000E+00  0.00000000000E+00  0.77079920544E+02  0.77090382351E+02  0.12700000000E+01 0. -1.
         -4   -1    0    0    0  501 -0.00000000000E+00 -0.00000000000E+00 -0.50658558196E+02  0.50674475020E+02  0.12700000000E+01 0. -1.
         25    2    1    2    0    0  0.00000000000E+00  0.00000000000E+00  0.26421362348E+02  0.12776485737E+03  0.12500308152E+03 0.  0.
    9000005    1    3    3    0    0  0.39053368370E+02  0.17032741080E+02  0.59939063533E+02  0.73545708148E+02  0.10000000000E+01 0.  0.
    9000005    1    3    3    0    0 -0.39053368370E+02 -0.17032741080E+02 -0.33517701185E+02  0.54219149223E+02  0.10000000000E+01 0.  0.
<mgrwt>
<rscale>  0 0.12500308E+03</rscale>
<asrwt>0</asrwt>
<pdfrwt beam="1">  1        4 0.11860478E-01 0.12500308E+03</pdfrwt>
<pdfrwt beam="2">  1       -4 0.77956535E-02 0.12500308E+03</pdfrwt>
<totfact> 0.10391846E+04</totfact>
</mgrwt>
</event>
<event>
 5    1  0.3312904E-002  0.1250008E+03  0.7818608E-02  0.1235068E+00
          4   -1    0    0  501    0  0.00000000000E+00  0.00000000000E+00  0.17865730802E+02  0.17910813413E+02  0.12700000000E+01 0. -1.
         -4   -1    0    0    0  501 -0.00000000000E+00 -0.00000000000E+00 -0.21832507072E+03  0.21832876449E+03  0.12700000000E+01 0. -1.
         25    2    1    2    0    0  0.00000000000E+00  0.00000000000E+00 -0.20045933992E+03  0.23623957791E+03  0.12500076483E+03 0.  0.
    9000005    1    3    3    0    0  0.11471315550E+02 -0.59387387294E+02 -0.70536804334E+02  0.92924128275E+02  0.10000000000E+01 0.  0.
    9000005    1    3    3    0    0 -0.11471315550E+02  0.59387387294E+02 -0.12992253559E+03  0.14331544963E+03  0.10000000000E+01 0.  0.
<mgrwt>
<rscale>  0 0.12500076E+03</rscale>
<asrwt>0</asrwt>
<pdfrwt beam="1">  1        4 0.27523261E-02 0.12500076E+03</pdfrwt>
<pdfrwt beam="2">  1       -4 0.33592223E-01 0.12500076E+03</pdfrwt>
<totfact> 0.84359184E+03</totfact>
</mgrwt>
</event>
<event>
 5    1  0.3312904E-002  0.1249988E+03  0.7818608E-02  0.1235071E+00
         -4   -1    0    0    0  501 -0.00000000000E+00  0.00000000000E+00  0.72757383573E+02  0.72768466828E+02  0.12700000000E+01 0. -1.
          4   -1    0    0  501    0  0.00000000000E+00 -0.00000000000E+00 -0.53665029624E+02  0.53680054998E+02  0.12700000000E+01 0. -1.
         25    2    1    2    0    0  0.00000000000E+00  0.00000000000E+00  0.19092353949E+02  0.12644852183E+03  0.12499884276E+03 0.  0.
    9000005    1    3    3    0    0 -0.40864517461E+02  0.46249693043E+02 -0.37752679328E+00  0.61725889385E+02  0.10000000000E+01 0.  0.
    9000005    1    3    3    0    0  0.40864517461E+02 -0.46249693043E+02  0.19469880742E+02  0.64722632440E+02  0.10000000000E+01 0.  0.
<mgrwt>
<rscale>  0 0.12499884E+03</rscale>
<asrwt>0</asrwt>
<pdfrwt beam="2">  1        4 0.82581667E-02 0.12499884E+03</pdfrwt>
<pdfrwt beam="1">  1       -4 0.11195452E-01 0.12499884E+03</pdfrwt>
<totfact> 0.10421423E+04</totfact>
</mgrwt>
</event>
<event>
 5    1  0.3312904E-002  0.1249968E+03  0.7818608E-02  0.1235074E+00
         -4   -1    0    0    0  501 -0.00000000000E+00  0.00000000000E+00  0.16984154255E+03  0.16984629073E+03  0.12700000000E+01 0. -1.
          4   -1    0    0  501    0  0.00000000000E+00 -0.00000000000E+00 -0.22975581579E+02  0.23010655116E+02  0.12700000000E+01 0. -1.
         25    2    1    2    0    0  0.00000000000E+00  0.00000000000E+00  0.14686596097E+03  0.19285694585E+03  0.12499676424E+03 0.  0.
    9000005    1    3    3    0    0 -0.37923049874E+02 -0.27425863984E+02  0.13732286643E+03  0.14508240890E+03  0.10000000000E+01 0.  0.
    9000005    1    3    3    0    0  0.37923049874E+02  0.27425863984E+02  0.95430945340E+01  0.47774536945E+02  0.10000000000E+01 0.  0.
<mgrwt>
<rscale>  0 0.12499676E+03</rscale>
<asrwt>0</asrwt>
<pdfrwt beam="2">  1        4 0.35377679E-02 0.12499676E+03</pdfrwt>
<pdfrwt beam="1">  1       -4 0.26132532E-01 0.12499676E+03</pdfrwt>
<totfact> 0.91359197E+03</totfact>
</mgrwt>
</event>
<event>
 5    1  0.3312904E-002  0.1249845E+03  0.7818608E-02  0.1235094E+00
         -4   -1    0    0    0  501 -0.00000000000E+00  0.00000000000E+00  0.92885310049E+02  0.92893991856E+02  0.12700000000E+01 0.  1.
          4   -1    0    0  501    0  0.00000000000E+00 -0.00000000000E+00 -0.42023870953E+02  0.42043056857E+02  0.12700000000E+01 0.  1.
         25    2    1    2    0    0  0.00000000000E+00  0.00000000000E+00  0.50861439096E+02  0.13493704871E+03  0.12498448355E+03 0.  0.
    9000005    1    3    3    0    0 -0.58250515722E+02 -0.11126032285E+02  0.46679675575E+02  0.75477833091E+02  0.10000000000E+01 0.  0.
    9000005    1    3    3    0    0  0.58250515722E+02  0.11126032285E+02  0.41817635209E+01  0.59459215622E+02  0.10000000000E+01 0.  0.
<mgrwt>
<rscale>  0 0.12498448E+03</rscale>
<asrwt>0</asrwt>
<pdfrwt beam="2">  1        4 0.64673546E-02 0.12498448E+03</pdfrwt>
<pdfrwt beam="1">  1       -4 0.14292191E-01 0.12498448E+03</pdfrwt>
<totfact> 0.10242982E+04</totfact>
</mgrwt>
</event>
<event>
 5    1  0.3312904E-002  0.1249992E+03  0.7818608E-02  0.1235071E+00
         -4   -1    0    0    0  501 -0.00000000000E+00  0.00000000000E+00  0.32588176437E+02  0.32612913753E+02  0.12700000000E+01 0. -1.
          4   -1    0    0  501    0  0.00000000000E+00 -0.00000000000E+00 -0.11979188622E+03  0.11979861812E+03  0.12700000000E+01 0. -1.
         25    2    1    2    0    0  0.00000000000E+00  0.00000000000E+00 -0.87203709783E+02  0.15241153188E+03  0.12499915219E+03 0.  0.
    9000005    1    3    3    0    0 -0.22760291400E+02  0.28422644799E+02 -0.10552647114E+03  0.11163652500E+03  0.10000000000E+01 0.  0.
    9000005    1    3    3    0    0  0.22760291400E+02 -0.28422644799E+02  0.18322761359E+02  0.40775006877E+02  0.10000000000E+01 0.  0.
<mgrwt>
<rscale>  0 0.12499915E+03</rscale>
<asrwt>0</asrwt>
<pdfrwt beam="2">  1        4 0.18431941E-01 0.12499915E+03</pdfrwt>
<pdfrwt beam="1">  1       -4 0.50159864E-02 0.12499915E+03</pdfrwt>
<totfact> 0.98827035E+03</totfact>
</mgrwt>
</event>
<event>
 5    1  0.3312904E-002  0.1249997E+03  0.7818608E-02  0.1235070E+00
         -4   -1    0    0    0  501 -0.00000000000E+00  0.00000000000E+00  0.20297655016E+02  0.20337347397E+02  0.12700000000E+01 0. -1.
          4   -1    0    0  501    0  0.00000000000E+00 -0.00000000000E+00 -0.19221754316E+03  0.19222173862E+03  0.12700000000E+01 0. -1.
         25    2    1    2    0    0  0.00000000000E+00  0.00000000000E+00 -0.17191988814E+03  0.21255908602E+03  0.12499966844E+03 0.  0.
    9000005    1    3    3    0    0 -0.27392367546E+02  0.41650018503E+02 -0.15004252232E+03  0.15811016521E+03  0.10000000000E+01 0.  0.
    9000005    1    3    3    0    0  0.27392367546E+02 -0.41650018503E+02 -0.21877365825E+02  0.54448920802E+02  0.10000000000E+01 0.  0.
<mgrwt>
<rscale>  0 0.12499967E+03</rscale>
<asrwt>0</asrwt>
<pdfrwt beam="2">  1        4 0.29575304E-01 0.12499967E+03</pdfrwt>
<pdfrwt beam="1">  1       -4 0.31260923E-02 0.12499967E+03</pdfrwt>
<totfact> 0.88060300E+03</totfact>
</mgrwt>
</event>
<event>
 5    1  0.3312904E-002  0.1249946E+03  0.7818608E-02  0.1235078E+00
         -4   -1    0    0    0  501 -0.00000000000E+00  0.00000000000E+00  0.21840623736E+02  0.21877516888E+02  0.12700000000E+01 0.  1.
          4   -1    0    0  501    0  0.00000000000E+00 -0.00000000000E+00 -0.17864695206E+03  0.17865146621E+03  0.12700000000E+01 0.  1.
         25    2    1    2    0    0  0.00000000000E+00  0.00000000000E+00 -0.15680632832E+03  0.20052898310E+03  0.12499459373E+03 0.  0.
    9000005    1    3    3    0    0 -0.14303464672E+02  0.70878796381E+01 -0.17532852127E+03  0.17605657474E+03  0.10000000000E+01 0.  0.
    9000005    1    3    3    0    0  0.14303464672E+02 -0.70878796381E+01  0.18522192945E+02  0.24472408359E+02  0.10000000000E+01 0.  0.
<mgrwt>
<rscale>  0 0.12499459E+03</rscale>
<asrwt>0</asrwt>
<pdfrwt beam="2">  1        4 0.27487331E-01 0.12499459E+03</pdfrwt>
<pdfrwt beam="1">  1       -4 0.33632813E-02 0.12499459E+03</pdfrwt>
<totfact> 0.90057260E+03</totfact>
</mgrwt>
</event>
<event>
 5    1  0.3312904E-002  0.1250026E+03  0.7818608E-02  0.1235065E+00
         -4   -1    0    0    0  501 -0.00000000000E+00  0.00000000000E+00  0.33590433478E+02  0.33614433228E+02  0.12700000000E+01 0. -1.
          4   -1    0    0  501    0  0.00000000000E+00 -0.00000000000E+00 -0.11622632504E+03  0.11623326345E+03  0.12700000000E+01 0. -1.
         25    2    1    2    0    0  0.00000000000E+00  0.00000000000E+00 -0.82635891559E+02  0.14984769667E+03  0.12500256647E+03 0.  0.
    9000005    1    3    3    0    0 -0.39985121997E+02  0.42870252509E+02 -0.67271570367E+02  0.89236386699E+02  0.10000000000E+01 0.  0.
    9000005    1    3    3    0    0  0.39985121997E+02 -0.42870252509E+02 -0.15364321191E+02  0.60611309976E+02  0.10000000000E+01 0.  0.
<mgrwt>
<rscale>  0 0.12500257E+03</rscale>
<asrwt>0</asrwt>
<pdfrwt beam="2">  1        4 0.17883353E-01 0.12500257E+03</pdfrwt>
<pdfrwt beam="1">  1       -4 0.51701389E-02 0.12500257E+03</pdfrwt>
<totfact> 0.99328329E+03</totfact>
</mgrwt>
</event>
<event>
 5    1  0.3312904E-002  0.1250035E+03  0.7818608E-02  0.1235064E+00
          4   -1    0    0  501    0  0.00000000000E+00  0.00000000000E+00  0.16748969004E+02  0.16797049226E+02  0.12700000000E+01 0.  1.
         -4   -1    0    0    0  501 -0.00000000000E+00 -0.00000000000E+00 -0.23285223630E+03  0.23285569963E+03  0.12700000000E+01 0.  1.
         25    2    1    2    0    0  0.00000000000E+00  0.00000000000E+00 -0.21610326729E+03  0.24965274885E+03  0.12500349145E+03 0.  0.
    9000005    1    3    3    0    0 -0.32261025812E+02 -0.16966707550E+02 -0.20943266245E+03  0.21258335554E+03  0.10000000000E+01 0.  0.
    9000005    1    3    3    0    0  0.32261025812E+02  0.16966707550E+02 -0.66706048417E+01  0.37069393311E+02  0.10000000000E+01 0.  0.
<mgrwt>
<rscale>  0 0.12500349E+03</rscale>
<asrwt>0</asrwt>
<pdfrwt beam="1">  1        4 0.25807295E-02 0.12500349E+03</pdfrwt>
<pdfrwt beam="2">  1       -4 0.35827384E-01 0.12500349E+03</pdfrwt>
<totfact> 0.82374036E+03</totfact>
</mgrwt>
</event>
<event>
 5    1  0.3312904E-002  0.1249961E+03  0.7818608E-02  0.1235075E+00
         -4   -1    0    0    0  501 -0.00000000000E+00  0.00000000000E+00  0.23388732098E+02  0.23423186999E+02  0.12700000000E+01 0. -1.
          4   -1    0    0  501    0  0.00000000000E+00 -0.00000000000E+00 -0.16684392958E+03  0.16684876307E+03  0.12700000000E+01 0. -1.
         25    2    1    2    0    0  0.00000000000E+00  0.00000000000E+00 -0.14345519748E+03  0.19027195007E+03  0.12499608513E+03 0.  0.
    9000005    1    3    3    0    0  0.49677240246E+02 -0.58295742620E+01 -0.12874889583E+03  0.13812708030E+03  0.10000000000E+01 0.  0.
    9000005    1    3    3    0    0 -0.49677240246E+02  0.58295742620E+01 -0.14706301647E+02  0.52144869764E+02  0.10000000000E+01 0.  0.
<mgrwt>
<rscale>  0 0.12499609E+03</rscale>
<asrwt>0</asrwt>
<pdfrwt beam="2">  1        4 0.25671318E-01 0.12499609E+03</pdfrwt>
<pdfrwt beam="1">  1       -4 0.36012888E-02 0.12499609E+03</pdfrwt>
<totfact> 0.91808068E+03</totfact>
</mgrwt>
</event>
<event>
 5    1  0.3312904E-002  0.1249954E+03  0.7818608E-02  0.1235076E+00
         -4   -1    0    0    0  501 -0.00000000000E+00  0.00000000000E+00  0.80965056568E+01  0.81955051004E+01  0.12700000000E+01 0.  1.
          4   -1    0    0  501    0  0.00000000000E+00 -0.00000000000E+00 -0.47939430335E+03  0.47939598557E+03  0.12700000000E+01 0.  1.
         25    2    1    2    0    0  0.00000000000E+00  0.00000000000E+00 -0.47129779769E+03  0.48759149067E+03  0.12499539058E+03 0.  0.
    9000005    1    3    3    0    0 -0.11327394506E+02 -0.25351802329E+01  0.38732885829E+01  0.12277596245E+02  0.10000000000E+01 0.  0.
    9000005    1    3    3    0    0  0.11327394506E+02  0.25351802329E+01 -0.47517108627E+03  0.47531389443E+03  0.10000000000E+01 0.  0.
<mgrwt>
<rscale>  0 0.12499539E+03</rscale>
<asrwt>0</asrwt>
<pdfrwt beam="2">  1        4 0.73760693E-01 0.12499539E+03</pdfrwt>
<pdfrwt beam="1">  1       -4 0.12533614E-02 0.12499539E+03</pdfrwt>
<totfact> 0.56845906E+03</totfact>
</mgrwt>
</event>
<event>
 4    1  0.3312904E-002  0.1251139E+03  0.7818608E-02  0.1234891E+00
          4   -1    0    0  501    0  0.00000000000E+00  0.00000000000E+00  0.19194942665E+02  0.19236910456E+02  0.12700000000E+01 0. -1.
         -4   -1    0    0    0  501 -0.00000000000E+00 -0.00000000000E+00 -0.20360846996E+03  0.20361243071E+03  0.12700000000E+01 0. -1.
    9000005    1    1    2    0    0  0.54533972408E+02 -0.28657295736E+02 -0.11148750683E+03  0.12737997850E+03  0.10000000000E+01 0.  0.
    9000005    1    1    2    0    0 -0.54533972408E+02  0.28657295736E+02 -0.72926020470E+02  0.95469362661E+02  0.10000000000E+01 0.  0.
<mgrwt>
<rscale>  0 0.12511387E+03</rscale>
<asrwt>0</asrwt>
<pdfrwt beam="1">  1        4 0.29566012E-02 0.12511387E+03</pdfrwt>
<pdfrwt beam="2">  1       -4 0.31327912E-01 0.12511387E+03</pdfrwt>
<totfact> 0.86200100E+03</totfact>
</mgrwt>
</event>
<event>
 5    1  0.3312904E-002  0.1249971E+03  0.7818608E-02  0.1235074E+00
          4   -1    0    0  501    0  0.00000000000E+00  0.00000000000E+00  0.10816344005E+03  0.10817089564E+03  0.12700000000E+01 0. -1.
         -4   -1    0    0    0  501 -0.00000000000E+00 -0.00000000000E+00 -0.36092796322E+02  0.36115133204E+02  0.12700000000E+01 0. -1.
         25    2    1    2    0    0  0.00000000000E+00  0.00000000000E+00  0.72070643726E+02  0.14428602884E+03  0.12499712169E+03 0.  0.
    9000005    1    3    3    0    0  0.19317635653E+01  0.20375569354E+02  0.10419049624E+03  0.10618641647E+03  0.10000000000E+01 0.  0.
    9000005    1    3    3    0    0 -0.19317635653E+01 -0.20375569354E+02 -0.32119852514E+02  0.38099612366E+02  0.10000000000E+01 0.  0.
<mgrwt>
<rscale>  0 0.12499712E+03</rscale>
<asrwt>0</asrwt>
<pdfrwt beam="1">  1        4 0.16642821E-01 0.12499712E+03</pdfrwt>
<pdfrwt beam="2">  1       -4 0.55550297E-02 0.12499712E+03</pdfrwt>
<totfact> 0.10046166E+04</totfact>
</mgrwt>
</event>
<event>
 5    1  0.3312904E-002  0.1249968E+03  0.7818608E-02  0.1235074E+00
         -4   -1    0    0    0  501 -0.00000000000E+00  0.00000000000E+00  0.43635738032E+02  0.43654215530E+02  0.12700000000E+01 0.  1.
          4   -1    0    0  501    0  0.00000000000E+00 -0.00000000000E+00 -0.89472949321E+02  0.89481962206E+02  0.12700000000E+01 0.  1.
         25    2    1    2    0    0  0.00000000000E+00  0.00000000000E+00 -0.45837211289E+02  0.13313617774E+03  0.12499676749E+03 0.  0.
    9000005    1    3    3    0    0  0.67949389418E+01 -0.54239813388E+02 -0.55171068803E+02  0.77672230459E+02  0.10000000000E+01 0.  0.
    9000005    1    3    3    0    0 -0.67949389418E+01  0.54239813388E+02  0.93338575139E+01  0.55463947278E+02  0.10000000000E+01 0.  0.
<mgrwt>
<rscale>  0 0.12499677E+03</rscale>
<asrwt>0</asrwt>
<pdfrwt beam="2">  1        4 0.13767184E-01 0.12499677E+03</pdfrwt>
<pdfrwt beam="1">  1       -4 0.67153051E-02 0.12499677E+03</pdfrwt>
<totfact> 0.10278256E+04</totfact>
</mgrwt>
</event>
<event>
 5    1  0.3312904E-002  0.1250004E+03  0.7818608E-02  0.1235069E+00
         -4   -1    0    0    0  501 -0.00000000000E+00  0.00000000000E+00  0.47144980186E+02  0.47162082829E+02  0.12700000000E+01 0. -1.
          4   -1    0    0  501    0  0.00000000000E+00 -0.00000000000E+00 -0.82819626658E+02  0.82829363511E+02  0.12700000000E+01 0. -1.
         25    2    1    2    0    0  0.00000000000E+00  0.00000000000E+00 -0.35674646472E+02  0.12999144634E+03  0.12500038288E+03 0.  0.
    9000005    1    3    3    0    0  0.42412527921E+02 -0.38071895826E+02 -0.44492417267E+02  0.72310904922E+02  0.10000000000E+01 0.  0.
    9000005    1    3    3    0    0 -0.42412527921E+02  0.38071895826E+02  0.88177707953E+01  0.57680541418E+02  0.10000000000E+01 0.  0.
<mgrwt>
<rscale>  0 0.12500038E+03</rscale>
<asrwt>0</asrwt>
<pdfrwt beam="2">  1        4 0.12743546E-01 0.12500038E+03</pdfrwt>
<pdfrwt beam="1">  1       -4 0.72551385E-02 0.12500038E+03</pdfrwt>
<totfact> 0.10344601E+04</totfact>
</mgrwt>
</event>
<event>
 5    1  0.3312904E-002  0.1250018E+03  0.7818608E-02  0.1235066E+00
         -4   -1    0    0    0  501 -0.00000000000E+00  0.00000000000E+00  0.25212134338E+02  0.25244100655E+02  0.12700000000E+01 0. -1.
          4   -1    0    0  501    0  0.00000000000E+00 -0.00000000000E+00 -0.15480701980E+03  0.15481222910E+03  0.12700000000E+01 0. -1.
         25    2    1    2    0    0  0.00000000000E+00  0.00000000000E+00 -0.12959488547E+03  0.18005632976E+03  0.12500179018E+03 0.  0.
    9000005    1    3    3    0    0 -0.58675940946E+02 -0.20139205859E+02 -0.75663692755E+02  0.97849108631E+02  0.10000000000E+01 0.  0.
    9000005    1    3    3    0    0  0.58675940946E+02  0.20139205859E+02 -0.53931192710E+02  0.82207221129E+02  0.10000000000E+01 0.  0.
<mgrwt>
<rscale>  0 0.12500179E+03</rscale>
<asrwt>0</asrwt>
<pdfrwt beam="2">  1        4 0.23819324E-01 0.12500179E+03</pdfrwt>
<pdfrwt beam="1">  1       -4 0.38816497E-02 0.12500179E+03</pdfrwt>
<totfact> 0.93603108E+03</totfact>
</mgrwt>
</event>
<event>
 5    1  0.3312904E-002  0.1249990E+03  0.7818608E-02  0.1235071E+00
          4   -1    0    0  501    0  0.00000000000E+00  0.00000000000E+00  0.52900303807E+02  0.52915546325E+02  0.12700000000E+01 0.  1.
         -4   -1    0    0    0  501 -0.00000000000E+00 -0.00000000000E+00 -0.73809252792E+02  0.73820178120E+02  0.12700000000E+01 0.  1.
         25    2    1    2    0    0  0.00000000000E+00  0.00000000000E+00 -0.20908948984E+02  0.12673572445E+03  0.12499903881E+03 0.  0.
    9000005    1    3    3    0    0  0.59774203762E+02  0.12747691164E+02 -0.23663561003E+02  0.65547106609E+02  0.10000000000E+01 0.  0.
    9000005    1    3    3    0    0 -0.59774203762E+02 -0.12747691164E+02  0.27546120192E+01  0.61188617837E+02  0.10000000000E+01 0.  0.
<mgrwt>
<rscale>  0 0.12499904E+03</rscale>
<asrwt>0</asrwt>
<pdfrwt beam="1">  1        4 0.81405212E-02 0.12499904E+03</pdfrwt>
<pdfrwt beam="2">  1       -4 0.11357283E-01 0.12499904E+03</pdfrwt>
<totfact> 0.10415118E+04</totfact>
</mgrwt>
</event>
<event>
 5    1  0.3312904E-002  0.1250059E+03  0.7818608E-02  0.1235060E+00
          4   -1    0    0  501    0  0.00000000000E+00  0.00000000000E+00  0.74663287075E+02  0.74674087452E+02  0.12700000000E+01 0.  1.
         -4   -1    0    0    0  501 -0.00000000000E+00 -0.00000000000E+00 -0.52300846117E+02  0.52316263289E+02  0.12700000000E+01 0.  1.
         25    2    1    2    0    0  0.00000000000E+00  0.00000000000E+00  0.22362440958E+02  0.12699035074E+03  0.12500588152E+03 0.  0.
    9000005    1    3    3    0    0 -0.22164218364E+00 -0.40694585484E+02  0.59363254166E+02  0.71979819103E+02  0.10000000000E+01 0.  0.
    9000005    1    3    3    0    0  0.22164218364E+00  0.40694585484E+02 -0.37000813208E+02  0.55010531637E+02  0.10000000000E+01 0.  0.
<mgrwt>
<rscale>  0 0.12500588E+03</rscale>
<asrwt>0</asrwt>
<pdfrwt beam="1">  1        4 0.11488676E-01 0.12500588E+03</pdfrwt>
<pdfrwt beam="2">  1       -4 0.80483008E-02 0.12500588E+03</pdfrwt>
<totfact> 0.10407973E+04</totfact>
</mgrwt>
</event>
<event>
 5    1  0.3312904E-002  0.1250002E+03  0.7818608E-02  0.1235069E+00
          4   -1    0    0  501    0  0.00000000000E+00  0.00000000000E+00  0.11179307905E+02  0.11251214389E+02  0.12700000000E+01 0.  1.
         -4   -1    0    0    0  501 -0.00000000000E+00 -0.00000000000E+00 -0.34822566948E+03  0.34822798536E+03  0.12700000000E+01 0.  1.
         25    2    1    2    0    0  0.00000000000E+00  0.00000000000E+00 -0.33704636158E+03  0.35947919975E+03  0.12500018079E+03 0.  0.
    9000005    1    3    3    0    0  0.17429515811E+02  0.24084714738E+02 -0.32659964845E+03  0.32795150842E+03  0.10000000000E+01 0.  0.
    9000005    1    3    3    0    0 -0.17429515811E+02 -0.24084714738E+02 -0.10446713126E+02  0.31527691329E+02  0.10000000000E+01 0.  0.
<mgrwt>
<rscale>  0 0.12500018E+03</rscale>
<asrwt>0</asrwt>
<pdfrwt beam="1">  1        4 0.17256032E-02 0.12500018E+03</pdfrwt>
<pdfrwt beam="2">  1       -4 0.53578881E-01 0.12500018E+03</pdfrwt>
<totfact> 0.68693894E+03</totfact>
</mgrwt>
</event>
<event>
 5    1  0.3312904E-002  0.1249946E+03  0.7818608E-02  0.1235078E+00
          4   -1    0    0  501    0  0.00000000000E+00  0.00000000000E+00  0.84902062124E+02  0.84911560184E+02  0.12700000000E+01 0.  1.
         -4   -1    0    0    0  501 -0.00000000000E+00 -0.00000000000E+00 -0.45984068738E+02  0.46001602991E+02  0.12700000000E+01 0.  1.
         25    2    1    2    0    0  0.00000000000E+00  0.00000000000E+00  0.38917993386E+02  0.13091316318E+03  0.12499458422E+03 0.  0.
    9000005    1    3    3    0    0  0.24870558933E+01 -0.13461550024E+02  0.83317443817E+02  0.84440483301E+02  0.10000000000E+01 0.  0.
    9000005    1    3    3    0    0 -0.24870558933E+01  0.13461550024E+02 -0.44399450431E+02  0.46472679874E+02  0.10000000000E+01 0.  0.
<mgrwt>
<rscale>  0 0.12499458E+03</rscale>
<asrwt>0</asrwt>
<pdfrwt beam="1">  1        4 0.13063935E-01 0.12499458E+03</pdfrwt>
<pdfrwt beam="2">  1       -4 0.70765516E-02 0.12499458E+03</pdfrwt>
<totfact> 0.10326213E+04</totfact>
</mgrwt>
</event>
<event>
 5    1  0.3312904E-002  0.1249993E+03  0.7818608E-02  0.1235070E+00
         -4   -1    0    0    0  501 -0.00000000000E+00  0.00000000000E+00  0.14704151088E+03  0.14704699528E+03  0.12700000000E+01 0.  1.
          4   -1    0    0  501    0  0.00000000000E+00 -0.00000000000E+00 -0.26544149002E+02  0.26574513095E+02  0.12700000000E+01 0.  1.
         25    2    1    2    0    0  0.00000000000E+00  0.00000000000E+00  0.12049736187E+03  0.17362150837E+03  0.12499925580E+03 0.  0.
    9000005    1    3    3    0    0 -0.61445538991E+02 -0.14244259462E+01  0.75939870545E+02  0.97700804447E+02  0.10000000000E+01 0.  0.
    9000005    1    3    3    0    0  0.61445538991E+02  0.14244259462E+01  0.44557491329E+02  0.75920703927E+02  0.10000000000E+01 0.  0.
<mgrwt>
<rscale>  0 0.12499926E+03</rscale>
<asrwt>0</asrwt>
<pdfrwt beam="2">  1        4 0.40864728E-02 0.12499926E+03</pdfrwt>
<pdfrwt beam="1">  1       -4 0.22624528E-01 0.12499926E+03</pdfrwt>
<totfact> 0.94779499E+03</totfact>
</mgrwt>
</event>
<event>
 5    1  0.3312904E-002  0.1249963E+03  0.7818608E-02  0.1235075E+00
         -4   -1    0    0    0  501 -0.00000000000E+00  0.00000000000E+00  0.33465195492E+01  0.35793984261E+01  0.12700000000E+01 0.  1.
          4   -1    0    0  501    0  0.00000000000E+00 -0.00000000000E+00 -0.11277086572E+04  0.11277093723E+04  0.12700000000E+01 0.  1.
         25    2    1    2    0    0  0.00000000000E+00  0.00000000000E+00 -0.11243621376E+04  0.11312887707E+04  0.12499626490E+03 0.  0.
    9000005    1    3    3    0    0 -0.22434484109E+02  0.24745479294E+02 -0.84179151489E+02  0.90569168971E+02  0.10000000000E+01 0.  0.
    9000005    1    3    3    0    0  0.22434484109E+02 -0.24745479294E+02 -0.10401829861E+04  0.10407196018E+04  0.10000000000E+01 0.  0.
<mgrwt>
<rscale>  0 0.12499626E+03</rscale>
<asrwt>0</asrwt>
<pdfrwt beam="2">  1        4 0.17351132E+00 0.12499626E+03</pdfrwt>
<pdfrwt beam="1">  1       -4 0.53281883E-03 0.12499626E+03</pdfrwt>
<totfact> 0.26587374E+03</totfact>
</mgrwt>
</event>
<event>
 5    1  0.3312904E-002  0.1250008E+03  0.7818608E-02  0.1235068E+00
          4   -1    0    0  501    0  0.00000000000E+00  0.00000000000E+00  0.38558911337E+02  0.38579820418E+02  0.12700000000E+01 0.  1.
         -4   -1    0    0    0  501 -0.00000000000E+00 -0.00000000000E+00 -0.10125489523E+03  0.10126285947E+03  0.12700000000E+01 0.  1.
         25    2    1    2    0    0  0.00000000000E+00  0.00000000000E+00 -0.62695983891E+02  0.13984267989E+03  0.12500075489E+03 0.  0.
    9000005    1    3    3    0    0 -0.41376994744E+01 -0.41143667400E+02  0.21070133374E+02  0.46420603664E+02  0.10000000000E+01 0.  0.
    9000005    1    3    3    0    0  0.41376994744E+01  0.41143667400E+02 -0.83766117265E+02  0.93422076223E+02  0.10000000000E+01 0.  0.
<mgrwt>
<rscale>  0 0.12500075E+03</rscale>
<asrwt>0</asrwt>
<pdfrwt beam="1">  1        4 0.59343613E-02 0.12500075E+03</pdfrwt>
<pdfrwt beam="2">  1       -4 0.15579897E-01 0.12500075E+03</pdfrwt>
<totfact> 0.10136675E+04</totfact>
</mgrwt>
</event>
<event>
 5    1  0.3312904E-002  0.1249984E+03  0.7818608E-02  0.1235072E+00
          4   -1    0    0  501    0  0.00000000000E+00  0.00000000000E+00  0.48598972783E+02  0.48615563923E+02  0.12700000000E+01 0. -1.
         -4   -1    0    0    0  501 -0.00000000000E+00 -0.00000000000E+00 -0.80339765533E+02  0.80349802899E+02  0.12700000000E+01 0. -1.
         25    2    1    2    0    0  0.00000000000E+00  0.00000000000E+00 -0.31740792750E+02  0.12896536682E+03  0.12499835165E+03 0.  0.
    9000005    1    3    3    0    0 -0.13279756922E+02 -0.30953646234E+02 -0.70178040528E+02  0.77848812011E+02  0.10000000000E+01 0.  0.
    9000005    1    3    3    0    0  0.13279756922E+02  0.30953646234E+02  0.38437247778E+02  0.51116554812E+02  0.10000000000E+01 0.  0.
<mgrwt>
<rscale>  0 0.12499835E+03</rscale>
<asrwt>0</asrwt>
<pdfrwt beam="1">  1        4 0.74788134E-02 0.12499835E+03</pdfrwt>
<pdfrwt beam="2">  1       -4 0.12362012E-01 0.12499835E+03</pdfrwt>
<totfact> 0.10367077E+04</totfact>
</mgrwt>
</event>
<event>
 5    1  0.3312904E-002  0.1250066E+03  0.7818608E-02  0.1235059E+00
          4   -1    0    0  501    0  0.00000000000E+00  0.00000000000E+00  0.38805259065E+01  0.40830602875E+01  0.12700000000E+01 0.  1.
         -4   -1    0    0    0  501 -0.00000000000E+00 -0.00000000000E+00 -0.98092845665E+03  0.98092927878E+03  0.12700000000E+01 0.  1.
         25    2    1    2    0    0  0.00000000000E+00  0.00000000000E+00 -0.97704793075E+03  0.98501233907E+03  0.12500659640E+03 0.  0.
    9000005    1    3    3    0    0  0.55600689105E+02 -0.27074460727E+02 -0.55952827417E+03  0.56293636643E+03  0.10000000000E+01 0.  0.
    9000005    1    3    3    0    0 -0.55600689105E+02  0.27074460727E+02 -0.41751965658E+03  0.42207597264E+03  0.10000000000E+01 0.  0.
<mgrwt>
<rscale>  0 0.12500660E+03</rscale>
<asrwt>0</asrwt>
<pdfrwt beam="1">  1        4 0.61264758E-03 0.12500660E+03</pdfrwt>
<pdfrwt beam="2">  1       -4 0.15092752E+00 0.12500660E+03</pdfrwt>
<totfact> 0.31100146E+03</totfact>
</mgrwt>
</event>
<event>
 5    1  0.3312904E-002  0.1250055E+03  0.7818608E-02  0.1235061E+00
          4   -1    0    0  501    0  0.00000000000E+00  0.00000000000E+00  0.48155115111E+02  0.48171859123E+02  0.12700000000E+01 0. -1.
         -4   -1    0    0    0  501 -0.00000000000E+00 -0.00000000000E+00 -0.81089442610E+02  0.81099387191E+02  0.12700000000E+01 0. -1.
         25    2    1    2    0    0  0.00000000000E+00  0.00000000000E+00 -0.32934327499E+02  0.12927124631E+03  0.12500554066E+03 0.  0.
    9000005    1    3    3    0    0 -0.45890168724E+02 -0.32574474525E+02  0.11637284764E+02  0.57475476273E+02  0.10000000000E+01 0.  0.
    9000005    1    3    3    0    0  0.45890168724E+02  0.32574474525E+02 -0.44571612263E+02  0.71795770041E+02  0.10000000000E+01 0.  0.
<mgrwt>
<rscale>  0 0.12500554E+03</rscale>
<asrwt>0</asrwt>
<pdfrwt beam="1">  1        4 0.74105323E-02 0.12500554E+03</pdfrwt>
<pdfrwt beam="2">  1       -4 0.12477352E-01 0.12500554E+03</pdfrwt>
<totfact> 0.10358826E+04</totfact>
</mgrwt>
</event>
<event>
 5    1  0.3312904E-002  0.1250011E+03  0.7818608E-02  0.1235068E+00
         -4   -1    0    0    0  501 -0.00000000000E+00  0.00000000000E+00  0.32739078046E+02  0.32763701429E+02  0.12700000000E+01 0. -1.
          4   -1    0    0  501    0  0.00000000000E+00 -0.00000000000E+00 -0.11924386814E+03  0.11925063098E+03  0.12700000000E+01 0. -1.
         25    2    1    2    0    0  0.00000000000E+00  0.00000000000E+00 -0.86504790094E+02  0.15201433241E+03  0.12500111419E+03 0.  0.
    9000005    1    3    3    0    0 -0.60011342813E+02 -0.14279235548E+02 -0.55417190608E+02  0.82929625882E+02  0.10000000000E+01 0.  0.
    9000005    1    3    3    0    0  0.60011342813E+02  0.14279235548E+02 -0.31087599486E+02  0.69084706527E+02  0.10000000000E+01 0.  0.
<mgrwt>
<rscale>  0 0.12500111E+03</rscale>
<asrwt>0</asrwt>
<pdfrwt beam="2">  1        4 0.18347625E-01 0.12500111E+03</pdfrwt>
<pdfrwt beam="1">  1       -4 0.50391956E-02 0.12500111E+03</pdfrwt>
<totfact> 0.98901197E+03</totfact>
</mgrwt>
</event>
<event>
 5    1  0.3312904E-002  0.1250206E+03  0.7818608E-02  0.1235037E+00
          4   -1    0    0  501    0  0.00000000000E+00  0.00000000000E+00  0.13730991226E+02  0.13789598255E+02  0.12700000000E+01 0. -1.
         -4   -1    0    0    0  501 -0.00000000000E+00 -0.00000000000E+00 -0.28391208639E+03  0.28391492687E+03  0.12700000000E+01 0. -1.
         25    2    1    2    0    0  0.00000000000E+00  0.00000000000E+00 -0.27018109517E+03  0.29770452513E+03  0.12502063868E+03 0.  0.
    9000005    1    3    3    0    0 -0.55132732437E+02 -0.19801384225E+02 -0.18697908571E+03  0.19594359264E+03  0.10000000000E+01 0.  0.
    9000005    1    3    3    0    0  0.55132732437E+02  0.19801384225E+02 -0.83202009460E+02  0.10176093249E+03  0.10000000000E+01 0.  0.
<mgrwt>
<rscale>  0 0.12502064E+03</rscale>
<asrwt>0</asrwt>
<pdfrwt beam="1">  1        4 0.21171871E-02 0.12502064E+03</pdfrwt>
<pdfrwt beam="2">  1       -4 0.43683505E-01 0.12502064E+03</pdfrwt>
<totfact> 0.75852922E+03</totfact>
</mgrwt>
</event>
<event>
 5    1  0.3312904E-002  0.1249964E+03  0.7818608E-02  0.1235075E+00
         -4   -1    0    0    0  501 -0.00000000000E+00  0.00000000000E+00  0.41925083223E+02  0.41944314314E+02  0.12700000000E+01 0.  1.
          4   -1    0    0  501    0  0.00000000000E+00 -0.00000000000E+00 -0.93121840378E+02  0.93130500135E+02  0.12700000000E+01 0.  1.
         25    2    1    2    0    0  0.00000000000E+00  0.00000000000E+00 -0.51196757155E+02  0.13507481445E+03  0.12499639017E+03 0.  0.
    9000005    1    3    3    0    0  0.40155138027E+02  0.11262911260E+02  0.24691394663E+02  0.48476316387E+02  0.10000000000E+01 0.  0.
    9000005    1    3    3    0    0 -0.40155138027E+02 -0.11262911260E+02 -0.75888151818E+02  0.86598498061E+02  0.10000000000E+01 0.  0.
<mgrwt>
<rscale>  0 0.12499639E+03</rscale>
<asrwt>0</asrwt>
<pdfrwt beam="2">  1        4 0.14328582E-01 0.12499639E+03</pdfrwt>
<pdfrwt beam="1">  1       -4 0.64521582E-02 0.12499639E+03</pdfrwt>
<totfact> 0.10237328E+04</totfact>
</mgrwt>
</event>
<event>
 5    1  0.3312904E-002  0.1250027E+03  0.7818608E-02  0.1235065E+00
          4   -1    0    0  501    0  0.00000000000E+00  0.00000000000E+00  0.21940961975E+02  0.21977686693E+02  0.12700000000E+01 0. -1.
         -4   -1    0    0    0  501 -0.00000000000E+00 -0.00000000000E+00 -0.17785447189E+03  0.17785900616E+03  0.12700000000E+01 0. -1.
         25    2    1    2    0    0  0.00000000000E+00  0.00000000000E+00 -0.15591350991E+03  0.19983669285E+03  0.12500272491E+03 0.  0.
    9000005    1    3    3    0    0  0.25456716713E+02 -0.38885732826E+02 -0.11170395546E+02  0.47811320625E+02  0.10000000000E+01 0.  0.
    9000005    1    3    3    0    0 -0.25456716713E+02  0.38885732826E+02 -0.14474311437E+03  0.15202537223E+03  0.10000000000E+01 0.  0.
<mgrwt>
<rscale>  0 0.12500272E+03</rscale>
<asrwt>0</asrwt>
<pdfrwt beam="1">  1        4 0.33787065E-02 0.12500272E+03</pdfrwt>
<pdfrwt beam="2">  1       -4 0.27365399E-01 0.12500272E+03</pdfrwt>
<totfact> 0.90157559E+03</totfact>
</mgrwt>
</event>
<event>
 5    1  0.3312904E-002  0.1250009E+03  0.7818608E-02  0.1235068E+00
          4   -1    0    0  501    0  0.00000000000E+00  0.00000000000E+00  0.14815217071E+03  0.14815761400E+03  0.12700000000E+01 0. -1.
         -4   -1    0    0    0  501 -0.00000000000E+00 -0.00000000000E+00 -0.26345641895E+02  0.26376234508E+02  0.12700000000E+01 0. -1.
         25    2    1    2    0    0  0.00000000000E+00  0.00000000000E+00  0.12180652882E+03  0.17453384851E+03  0.12500093525E+03 0.  0.
    9000005    1    3    3    0    0 -0.51818037960E+02  0.19993192907E+01  0.10959657250E+03  0.12124980429E+03  0.10000000000E+01 0.  0.
    9000005    1    3    3    0    0  0.51818037960E+02 -0.19993192907E+01  0.12209956318E+02  0.53284044224E+02  0.10000000000E+01 0.  0.
<mgrwt>
<rscale>  0 0.12500094E+03</rscale>
<asrwt>0</asrwt>
<pdfrwt beam="1">  1        4 0.22795413E-01 0.12500094E+03</pdfrwt>
<pdfrwt beam="2">  1       -4 0.40559477E-02 0.12500094E+03</pdfrwt>
<totfact> 0.94608299E+03</totfact>
</mgrwt>
</event>
<event>
 5    1  0.3312904E-002  0.1249904E+03  0.7818608E-02  0.1235084E+00
          4   -1    0    0  501    0  0.00000000000E+00  0.00000000000E+00  0.37095270850E+03  0.37095488249E+03  0.12700000000E+01 0. -1.
         -4   -1    0    0    0  501 -0.00000000000E+00 -0.00000000000E+00 -0.10488194194E+02  0.10564805604E+02  0.12700000000E+01 0. -1.
         25    2    1    2    0    0  0.00000000000E+00  0.00000000000E+00  0.36046451430E+03  0.38151968809E+03  0.12499042495E+03 0.  0.
    9000005    1    3    3    0    0 -0.21385147594E+02 -0.32238713463E+02  0.33001706465E+03  0.33227838050E+03  0.10000000000E+01 0.  0.
    9000005    1    3    3    0    0  0.21385147594E+02  0.32238713463E+02  0.30447449647E+02  0.49241307592E+02  0.10000000000E+01 0.  0.
<mgrwt>
<rscale>  0 0.12499042E+03</rscale>
<asrwt>0</asrwt>
<pdfrwt beam="1">  1        4 0.57075709E-01 0.12499042E+03</pdfrwt>
<pdfrwt beam="2">  1       -4 0.16196287E-02 0.12499042E+03</pdfrwt>
<totfact> 0.66404782E+03</totfact>
</mgrwt>
</event>
<event>
 5    1  0.3312904E-002  0.1250006E+03  0.7818608E-02  0.1235068E+00
          4   -1    0    0  501    0  0.00000000000E+00  0.00000000000E+00  0.10722928391E+04  0.10722935912E+04  0.12700000000E+01 0.  1.
         -4   -1    0    0    0  501 -0.00000000000E+00 -0.00000000000E+00 -0.35314677030E+01  0.37528874400E+01  0.12700000000E+01 0.  1.
         25    2    1    2    0    0  0.00000000000E+00  0.00000000000E+00  0.10687613714E+04  0.10760464786E+04  0.12500062064E+03 0.  0.
    9000005    1    3    3    0    0 -0.24156931723E+02  0.43985858358E+01  0.39691246183E+02  0.46682972605E+02  0.10000000000E+01 0.  0.
    9000005    1    3    3    0    0  0.24156931723E+02 -0.43985858358E+01  0.10290701252E+04  0.10293635060E+04  0.10000000000E+01 0.  0.
<mgrwt>
<rscale>  0 0.12500062E+03</rscale>
<asrwt>0</asrwt>
<pdfrwt beam="1">  1        4 0.16498544E+00 0.12500062E+03</pdfrwt>
<pdfrwt beam="2">  1       -4 0.56039213E-03 0.12500062E+03</pdfrwt>
<totfact> 0.28194808E+03</totfact>
</mgrwt>
</event>
<event>
 5    1  0.3312904E-002  0.1249916E+03  0.7818608E-02  0.1235082E+00
          4   -1    0    0  501    0  0.00000000000E+00  0.00000000000E+00  0.31679138166E+02  0.31704584762E+02  0.12700000000E+01 0. -1.
         -4   -1    0    0    0  501 -0.00000000000E+00 -0.00000000000E+00 -0.12321199805E+03  0.12321854310E+03  0.12700000000E+01 0. -1.
         25    2    1    2    0    0  0.00000000000E+00  0.00000000000E+00 -0.91532859887E+02  0.15492312786E+03  0.12499164415E+03 0.  0.
    9000005    1    3    3    0    0  0.49110575501E+02 -0.38495302279E+02 -0.49875570385E+02  0.79889357519E+02  0.10000000000E+01 0.  0.
    9000005    1    3    3    0    0 -0.49110575501E+02  0.38495302279E+02 -0.41657289502E+02  0.75033770345E+02  0.10000000000E+01 0.  0.
<mgrwt>
<rscale>  0 0.12499164E+03</rscale>
<asrwt>0</asrwt>
<pdfrwt beam="1">  1        4 0.48761745E-02 0.12499164E+03</pdfrwt>
<pdfrwt beam="2">  1       -4 0.18958153E-01 0.12499164E+03</pdfrwt>
<totfact> 0.98349073E+03</totfact>
</mgrwt>
</event>
<event>
 5    1  0.3312904E-002  0.1250011E+03  0.7818608E-02  0.1235068E+00
          4   -1    0    0  501    0  0.00000000000E+00  0.00000000000E+00  0.26207535446E+02  0.26238289086E+02  0.12700000000E+01 0. -1.
         -4   -1    0    0    0  501 -0.00000000000E+00 -0.00000000000E+00 -0.14893234279E+03  0.14893775756E+03  0.12700000000E+01 0. -1.
         25    2    1    2    0    0  0.00000000000E+00  0.00000000000E+00 -0.12272480734E+03  0.17517604665E+03  0.12500107593E+03 0.  0.
    9000005    1    3    3    0    0 -0.12360379798E+02  0.57041412239E+02 -0.30063367769E+02  0.65660549652E+02  0.10000000000E+01 0.  0.
    9000005    1    3    3    0    0  0.12360379798E+02 -0.57041412239E+02 -0.92661439570E+02  0.10951549700E+03  0.10000000000E+01 0.  0.
<mgrwt>
<rscale>  0 0.12500108E+03</rscale>
<asrwt>0</asrwt>
<pdfrwt beam="1">  1        4 0.40347108E-02 0.12500108E+03</pdfrwt>
<pdfrwt beam="2">  1       -4 0.22915450E-01 0.12500108E+03</pdfrwt>
<totfact> 0.94490327E+03</totfact>
</mgrwt>
</event>
<event>
 5    1  0.3312904E-002  0.1250016E+03  0.7818608E-02  0.1235067E+00
         -4   -1    0    0    0  501 -0.00000000000E+00  0.00000000000E+00  0.56418101544E+02  0.56432393905E+02  0.12700000000E+01 0. -1.
          4   -1    0    0  501    0  0.00000000000E+00 -0.00000000000E+00 -0.69210365424E+02  0.69222016600E+02  0.12700000000E+01 0. -1.
         25    2    1    2    0    0  0.00000000000E+00  0.00000000000E+00 -0.12792263880E+02  0.12565441050E+03  0.12500155545E+03 0.  0.
    9000005    1    3    3    0    0 -0.81556891315E+01 -0.60981264714E+02 -0.17413176579E+02  0.63948796939E+02  0.10000000000E+01 0.  0.
    9000005    1    3    3    0    0  0.81556891315E+01  0.60981264714E+02  0.46209126990E+01  0.61705613566E+02  0.10000000000E+01 0.  0.
<mgrwt>
<rscale>  0 0.12500156E+03</rscale>
<asrwt>0</asrwt>
<pdfrwt beam="2">  1        4 0.10649744E-01 0.12500156E+03</pdfrwt>
<pdfrwt beam="1">  1       -4 0.86817036E-02 0.12500156E+03</pdfrwt>
<totfact> 0.10438182E+04</totfact>
</mgrwt>
</event>
<event>
 5    1  0.3312904E-002  0.1249889E+03  0.7818608E-02  0.1235087E+00
         -4   -1    0    0    0  501 -0.00000000000E+00  0.00000000000E+00  0.87909937911E+01  0.88822560105E+01  0.12700000000E+01 0.  1.
          4   -1    0    0  501    0  0.00000000000E+00 -0.00000000000E+00 -0.44188154902E+03  0.44188337405E+03  0.12700000000E+01 0.  1.
         25    2    1    2    0    0  0.00000000000E+00  0.00000000000E+00 -0.43309055523E+03  0.45076563006E+03  0.12498889638E+03 0.  0.
    9000005    1    3    3    0    0 -0.42080406005E+02  0.39244398806E+02 -0.30441775713E+03  0.30980970653E+03  0.10000000000E+01 0.  0.
    9000005    1    3    3    0    0  0.42080406005E+02 -0.39244398806E+02 -0.12867279810E+03  0.14095592353E+03  0.10000000000E+01 0.  0.
<mgrwt>
<rscale>  0 0.12498890E+03</rscale>
<asrwt>0</asrwt>
<pdfrwt beam="2">  1        4 0.67988920E-01 0.12498890E+03</pdfrwt>
<pdfrwt beam="1">  1       -4 0.13596215E-02 0.12498890E+03</pdfrwt>
<totfact> 0.59912185E+03</totfact>
</mgrwt>
</event>
<event>
 5    1  0.3312904E-002  0.1249992E+03  0.7818608E-02  0.1235071E+00
         -4   -1    0    0    0  501 -0.00000000000E+00  0.00000000000E+00  0.36716400182E+02  0.36738357916E+02  0.12700000000E+01 0. -1.
          4   -1    0    0  501    0  0.00000000000E+00 -0.00000000000E+00 -0.10633080883E+03  0.10633839291E+03  0.12700000000E+01 0. -1.
         25    2    1    2    0    0  0.00000000000E+00  0.00000000000E+00 -0.69614408649E+02  0.14307675083E+03  0.12499916294E+03 0.  0.
    9000005    1    3    3    0    0  0.48605653651E+02 -0.26643476140E+02 -0.17751343838E+01  0.55466525849E+02  0.10000000000E+01 0.  0.
    9000005    1    3    3    0    0 -0.48605653651E+02  0.26643476140E+02 -0.67839274265E+02  0.87610224977E+02  0.10000000000E+01 0.  0.
<mgrwt>
<rscale>  0 0.12499916E+03</rscale>
<asrwt>0</asrwt>
<pdfrwt beam="2">  1        4 0.16360858E-01 0.12499916E+03</pdfrwt>
<pdfrwt beam="1">  1       -4 0.56509495E-02 0.12499916E+03</pdfrwt>
<totfact> 0.10070402E+04</totfact>
</mgrwt>
</event>
<event>
 5    1  0.3312904E-002  0.1250136E+03  0.7818608E-02  0.1235048E+00
         -4   -1    0    0    0  501 -0.00000000000E+00  0.00000000000E+00  0.39085078086E+03  0.39085284417E+03  0.12700000000E+01 0. -1.
          4   -1    0    0  501    0  0.00000000000E+00 -0.00000000000E+00 -0.99539689869E+01  0.10034659864E+02  0.12700000000E+01 0. -1.
         25    2    1    2    0    0  0.00000000000E+00  0.00000000000E+00  0.38089681187E+03  0.40088750404E+03  0.12501363765E+03 0.  0.
    9000005    1    3    3    0    0  0.13720926746E+02 -0.19476208082E+02  0.51627282124E+01  0.24397546488E+02  0.10000000000E+01 0.  0.
    9000005    1    3    3    0    0 -0.13720926746E+02  0.19476208082E+02  0.37573408366E+03  0.37648995755E+03  0.10000000000E+01 0.  0.
<mgrwt>
<rscale>  0 0.12501364E+03</rscale>
<asrwt>0</asrwt>
<pdfrwt beam="2">  1        4 0.15377453E-02 0.12501364E+03</pdfrwt>
<pdfrwt beam="1">  1       -4 0.60137265E-01 0.12501364E+03</pdfrwt>
<totfact> 0.64447150E+03</totfact>
</mgrwt>
</event>
<event>
 5    1  0.3312904E-002  0.1249629E+03  0.7818608E-02  0.1235127E+00
         -4   -1    0    0    0  501 -0.00000000000E+00  0.00000000000E+00  0.34219532279E+02  0.34243091119E+02  0.12700000000E+01 0.  1.
          4   -1    0    0  501    0  0.00000000000E+00 -0.00000000000E+00 -0.11401853085E+03  0.11402560361E+03  0.12700000000E+01 0.  1.
         25    2    1    2    0    0  0.00000000000E+00  0.00000000000E+00 -0.79798998573E+02  0.14826869473E+03  0.12496289714E+03 0.  0.
    9000005    1    3    3    0    0 -0.32691880055E+02  0.11508386390E+02 -0.10157168015E+03  0.10732664248E+03  0.10000000000E+01 0.  0.
    9000005    1    3    3    0    0  0.32691880055E+02 -0.11508386390E+02  0.21772681574E+02  0.40942052242E+02  0.10000000000E+01 0.  0.
<mgrwt>
<rscale>  0 0.12496290E+03</rscale>
<asrwt>0</asrwt>
<pdfrwt beam="2">  1        4 0.17543668E-01 0.12496290E+03</pdfrwt>
<pdfrwt beam="1">  1       -4 0.52668998E-02 0.12496290E+03</pdfrwt>
<totfact> 0.99733205E+03</totfact>
</mgrwt>
</event>
<event>
 5    1  0.3312904E-002  0.1250072E+03  0.7818608E-02  0.1235058E+00
          4   -1    0    0  501    0  0.00000000000E+00  0.00000000000E+00  0.81533841647E+03  0.81533940556E+03  0.12700000000E+01 0. -1.
         -4   -1    0    0    0  501 -0.00000000000E+00 -0.00000000000E+00 -0.47063399719E+01  0.48746831621E+01  0.12700000000E+01 0. -1.
         25    2    1    2    0    0  0.00000000000E+00  0.00000000000E+00  0.81063207649E+03  0.82021408873E+03  0.12500715141E+03 0.  0.
    9000005    1    3    3    0    0  0.60807251735E+02 -0.44048774121E+01  0.31516694829E+03  0.32101110588E+03  0.10000000000E+01 0.  0.
    9000005    1    3    3    0    0 -0.60807251735E+02  0.44048774121E+01  0.49546512821E+03  0.49920298284E+03  0.10000000000E+01 0.  0.
<mgrwt>
<rscale>  0 0.12500715E+03</rscale>
<asrwt>0</asrwt>
<pdfrwt beam="1">  1        4 0.12544977E+00 0.12500715E+03</pdfrwt>
<pdfrwt beam="2">  1       -4 0.73707751E-03 0.12500715E+03</pdfrwt>
<totfact> 0.37372238E+03</totfact>
</mgrwt>
</event>
<event>
 5    1  0.3312904E-002  0.1250028E+03  0.7818608E-02  0.1235065E+00
          4   -1    0    0  501    0  0.00000000000E+00  0.00000000000E+00  0.79245462868E+01  0.80256671904E+01  0.12700000000E+01 0. -1.
         -4   -1    0    0    0  501 -0.00000000000E+00 -0.00000000000E+00 -0.48972531175E+03  0.48972695849E+03  0.12700000000E+01 0. -1.
         25    2    1    2    0    0  0.00000000000E+00  0.00000000000E+00 -0.48180076547E+03  0.49775262568E+03  0.12500279504E+03 0.  0.
    9000005    1    3    3    0    0 -0.18889212842E+02  0.42400001204E+02 -0.40751757917E+03  0.41015380017E+03  0.10000000000E+01 0.  0.
    9000005    1    3    3    0    0  0.18889212842E+02 -0.42400001204E+02 -0.74283186295E+02  0.87598825506E+02  0.10000000000E+01 0.  0.
<mgrwt>
<rscale>  0 0.12500280E+03</rscale>
<asrwt>0</asrwt>
<pdfrwt beam="1">  1        4 0.12270666E-02 0.12500280E+03</pdfrwt>
<pdfrwt beam="2">  1       -4 0.75350237E-01 0.12500280E+03</pdfrwt>
<totfact> 0.56035724E+03</totfact>
</mgrwt>
</event>
<event>
 5    1  0.3312904E-002  0.1250041E+03  0.7818608E-02  0.1235063E+00
         -4   -1    0    0    0  501 -0.00000000000E+00  0.00000000000E+00  0.37573358233E+03  0.37573572866E+03  0.12700000000E+01 0.  1.
          4   -1    0    0  501    0  0.00000000000E+00 -0.00000000000E+00 -0.10356037215E+02  0.10433619065E+02  0.12700000000E+01 0.  1.
         25    2    1    2    0    0  0.00000000000E+00  0.00000000000E+00  0.36537754512E+03  0.38616934773E+03  0.12500405852E+03 0.  0.
    9000005    1    3    3    0    0  0.59600730315E+02 -0.18786514188E+02  0.18093171584E+03  0.19142221910E+03  0.10000000000E+01 0.  0.
    9000005    1    3    3    0    0 -0.59600730315E+02  0.18786514188E+02  0.18444582928E+03  0.19474712863E+03  0.10000000000E+01 0.  0.
<mgrwt>
<rscale>  0 0.12500406E+03</rscale>
<asrwt>0</asrwt>
<pdfrwt beam="2">  1        4 0.15993695E-02 0.12500406E+03</pdfrwt>
<pdfrwt beam="1">  1       -4 0.57811298E-01 0.12500406E+03</pdfrwt>
<totfact> 0.65914632E+03</totfact>
</mgrwt>
</event>
<event>
 5    1  0.3312904E-002  0.1250002E+03  0.7818608E-02  0.1235069E+00
          4   -1    0    0  501    0  0.00000000000E+00  0.00000000000E+00  0.75697534237E+02  0.75708187071E+02  0.12700000000E+01 0.  1.
         -4   -1    0    0    0  501 -0.00000000000E+00 -0.00000000000E+00 -0.51581487325E+02  0.51597119441E+02  0.12700000000E+01 0.  1.
         25    2    1    2    0    0  0.00000000000E+00  0.00000000000E+00  0.24116046912E+02  0.12730530651E+03  0.12500022939E+03 0.  0.
    9000005    1    3    3    0    0  0.15318230838E+02 -0.43051190106E+02 -0.31356835644E+02  0.55428370959E+02  0.10000000000E+01 0.  0.
    9000005    1    3    3    0    0 -0.15318230838E+02  0.43051190106E+02  0.55472882557E+02  0.71876935554E+02  0.10000000000E+01 0.  0.
<mgrwt>
<rscale>  0 0.12500023E+03</rscale>
<asrwt>0</asrwt>
<pdfrwt beam="1">  1        4 0.11647796E-01 0.12500023E+03</pdfrwt>
<pdfrwt beam="2">  1       -4 0.79376354E-02 0.12500023E+03</pdfrwt>
<totfact> 0.10402466E+04</totfact>
</mgrwt>
</event>
<event>
 5    1  0.3312904E-002  0.1250041E+03  0.7818608E-02  0.1235063E+00
          4   -1    0    0  501    0  0.00000000000E+00  0.00000000000E+00  0.31882443312E+02  0.31907727771E+02  0.12700000000E+01 0.  1.
         -4   -1    0    0    0  501 -0.00000000000E+00 -0.00000000000E+00 -0.12245136191E+03  0.12245794761E+03  0.12700000000E+01 0.  1.
         25    2    1    2    0    0  0.00000000000E+00  0.00000000000E+00 -0.90568918599E+02  0.15436567538E+03  0.12500413082E+03 0.  0.
    9000005    1    3    3    0    0 -0.45575325624E+01  0.45957372598E+02  0.67078042460E+01  0.46678108755E+02  0.10000000000E+01 0.  0.
    9000005    1    3    3    0    0  0.45575325624E+01 -0.45957372598E+02 -0.97276722845E+02  0.10768756663E+03  0.10000000000E+01 0.  0.
<mgrwt>
<rscale>  0 0.12500413E+03</rscale>
<asrwt>0</asrwt>
<pdfrwt beam="1">  1        4 0.49074429E-02 0.12500413E+03</pdfrwt>
<pdfrwt beam="2">  1       -4 0.18841122E-01 0.12500413E+03</pdfrwt>
<totfact> 0.98431023E+03</totfact>
</mgrwt>
</event>
<event>
 5    1  0.3312904E-002  0.1250052E+03  0.7818608E-02  0.1235061E+00
         -4   -1    0    0    0  501 -0.00000000000E+00  0.00000000000E+00  0.19843351638E+02  0.19883950921E+02  0.12700000000E+01 0. -1.
          4   -1    0    0  501    0  0.00000000000E+00 -0.00000000000E+00 -0.19662685026E+03  0.19663095164E+03  0.12700000000E+01 0. -1.
         25    2    1    2    0    0  0.00000000000E+00  0.00000000000E+00 -0.17678349863E+03  0.21651490257E+03  0.12500519048E+03 0.  0.
    9000005    1    3    3    0    0  0.41983435263E+01  0.48122444964E+02 -0.19714848282E+02  0.52183053192E+02  0.10000000000E+01 0.  0.
    9000005    1    3    3    0    0 -0.41983435263E+01 -0.48122444964E+02 -0.15706865034E+03  0.16433184937E+03  0.10000000000E+01 0.  0.
<mgrwt>
<rscale>  0 0.12500519E+03</rscale>
<asrwt>0</asrwt>
<pdfrwt beam="2">  1        4 0.30253722E-01 0.12500519E+03</pdfrwt>
<pdfrwt beam="1">  1       -4 0.30562620E-02 0.12500519E+03</pdfrwt>
<totfact> 0.87412705E+03</totfact>
</mgrwt>
</event>
<event>
 5    1  0.3312904E-002  0.1250173E+03  0.7818608E-02  0.1235042E+00
          4   -1    0    0  501    0  0.00000000000E+00  0.00000000000E+00  0.25612773403E+02  0.25644240316E+02  0.12700000000E+01 0.  1.
         -4   -1    0    0    0  501 -0.00000000000E+00 -0.00000000000E+00 -0.15242629926E+03  0.15243158992E+03  0.12700000000E+01 0.  1.
         25    2    1    2    0    0  0.00000000000E+00  0.00000000000E+00 -0.12681352586E+03  0.17807583024E+03  0.12501732270E+03 0.  0.
    9000005    1    3    3    0    0 -0.74616139901E+01 -0.53250629087E+02 -0.18025800568E+02  0.56720672313E+02  0.10000000000E+01 0.  0.
    9000005    1    3    3    0    0  0.74616139901E+01  0.53250629087E+02 -0.10878772529E+03  0.12135515793E+03  0.10000000000E+01 0.  0.
<mgrwt>
<rscale>  0 0.12501732E+03</rscale>
<asrwt>0</asrwt>
<pdfrwt beam="1">  1        4 0.39432543E-02 0.12501732E+03</pdfrwt>
<pdfrwt beam="2">  1       -4 0.23453027E-01 0.12501732E+03</pdfrwt>
<totfact> 0.93928017E+03</totfact>
</mgrwt>
</event>
<event>
 5    1  0.3312904E-002  0.1249990E+03  0.7818608E-02  0.1235071E+00
          4   -1    0    0  501    0  0.00000000000E+00  0.00000000000E+00  0.40496419604E+03  0.40496618745E+03  0.12700000000E+01 0. -1.
         -4   -1    0    0    0  501 -0.00000000000E+00 -0.00000000000E+00 -0.96019355406E+01  0.96855596702E+01  0.12700000000E+01 0. -1.
         25    2    1    2    0    0  0.00000000000E+00  0.00000000000E+00  0.39536226050E+03  0.41465174712E+03  0.12499901743E+03 0.  0.
    9000005    1    3    3    0    0 -0.28331462867E+02  0.76246401153E+01  0.38071288747E+03  0.38184304316E+03  0.10000000000E+01 0.  0.
    9000005    1    3    3    0    0  0.28331462867E+02 -0.76246401153E+01  0.14649373031E+02  0.32808703956E+02  0.10000000000E+01 0.  0.
<mgrwt>
<rscale>  0 0.12499902E+03</rscale>
<asrwt>0</asrwt>
<pdfrwt beam="1">  1        4 0.62308765E-01 0.12499902E+03</pdfrwt>
<pdfrwt beam="2">  1       -4 0.14838068E-02 0.12499902E+03</pdfrwt>
<totfact> 0.63153665E+03</totfact>
</mgrwt>
</event>
<event>
 5    1  0.3312904E-002  0.1250008E+03  0.7818608E-02  0.1235068E+00
          4   -1    0    0  501    0  0.00000000000E+00  0.00000000000E+00  0.82455497117E+01  0.83427807143E+01  0.12700000000E+01 0.  1.
         -4   -1    0    0    0  501 -0.00000000000E+00 -0.00000000000E+00 -0.47087128346E+03  0.47087299613E+03  0.12700000000E+01 0.  1.
         25    2    1    2    0    0  0.00000000000E+00  0.00000000000E+00 -0.46262573375E+03  0.47921577685E+03  0.12500076501E+03 0.  0.
    9000005    1    3    3    0    0  0.42774668006E+02 -0.39557502820E+02 -0.14466528497E+03  0.15595997220E+03  0.10000000000E+01 0.  0.
    9000005    1    3    3    0    0 -0.42774668006E+02  0.39557502820E+02 -0.31796044878E+03  0.32325580465E+03  0.10000000000E+01 0.  0.
<mgrwt>
<rscale>  0 0.12500077E+03</rscale>
<asrwt>0</asrwt>
<pdfrwt beam="1">  1        4 0.12761575E-02 0.12500077E+03</pdfrwt>
<pdfrwt beam="2">  1       -4 0.72449326E-01 0.12500077E+03</pdfrwt>
<totfact> 0.57512855E+03</totfact>
</mgrwt>
</event>
<event>
 5    1  0.3312904E-002  0.1250015E+03  0.7818608E-02  0.1235067E+00
         -4   -1    0    0    0  501 -0.00000000000E+00  0.00000000000E+00  0.97402582677E+01  0.98227048781E+01  0.12700000000E+01 0. -1.
          4   -1    0    0  501    0  0.00000000000E+00 -0.00000000000E+00 -0.39927767576E+03  0.39927969553E+03  0.12700000000E+01 0. -1.
         25    2    1    2    0    0  0.00000000000E+00  0.00000000000E+00 -0.38953741749E+03  0.40910240041E+03  0.12500149755E+03 0.  0.
    9000005    1    3    3    0    0 -0.30544615147E+02  0.87730508226E+01 -0.37087358090E+03  0.37223400294E+03  0.10000000000E+01 0.  0.
    9000005    1    3    3    0    0  0.30544615147E+02 -0.87730508226E+01 -0.18663836590E+02  0.36868397463E+02  0.10000000000E+01 0.  0.
<mgrwt>
<rscale>  0 0.12500150E+03</rscale>
<asrwt>0</asrwt>
<pdfrwt beam="2">  1        4 0.61433820E-01 0.12500150E+03</pdfrwt>
<pdfrwt beam="1">  1       -4 0.15049990E-02 0.12500150E+03</pdfrwt>
<totfact> 0.63674926E+03</totfact>
</mgrwt>
</event>
<event>
 5    1  0.3312904E-002  0.1249990E+03  0.7818608E-02  0.1235071E+00
          4   -1    0    0  501    0  0.00000000000E+00  0.00000000000E+00  0.48381685462E+02  0.48398351089E+02  0.12700000000E+01 0. -1.
         -4   -1    0    0    0  501 -0.00000000000E+00 -0.00000000000E+00 -0.80701381073E+02  0.80711373468E+02  0.12700000000E+01 0. -1.
         25    2    1    2    0    0  0.00000000000E+00  0.00000000000E+00 -0.32319695611E+02  0.12910972456E+03  0.12499903300E+03 0.  0.
    9000005    1    3    3    0    0  0.22086575161E+01 -0.45813561921E+02 -0.59998871009E+02  0.75528968921E+02  0.10000000000E+01 0.  0.
    9000005    1    3    3    0    0 -0.22086575161E+01  0.45813561921E+02  0.27679175398E+02  0.53580755636E+02  0.10000000000E+01 0.  0.
<mgrwt>
<rscale>  0 0.12499903E+03</rscale>
<asrwt>0</asrwt>
<pdfrwt beam="1">  1        4 0.74453868E-02 0.12499903E+03</pdfrwt>
<pdfrwt beam="2">  1       -4 0.12417648E-01 0.12499903E+03</pdfrwt>
<totfact> 0.10363816E+04</totfact>
</mgrwt>
</event>
<event>
 5    1  0.3312904E-002  0.1250003E+03  0.7818608E-02  0.1235069E+00
          4   -1    0    0  501    0  0.00000000000E+00  0.00000000000E+00  0.15470611786E+02  0.15522652126E+02  0.12700000000E+01 0. -1.
         -4   -1    0    0    0  501 -0.00000000000E+00 -0.00000000000E+00 -0.25201840145E+03  0.25202160140E+03  0.12700000000E+01 0. -1.
         25    2    1    2    0    0  0.00000000000E+00  0.00000000000E+00 -0.23654778967E+03  0.26754425352E+03  0.12500028319E+03 0.  0.
    9000005    1    3    3    0    0 -0.39913135854E+02 -0.11025157573E+02 -0.21845173002E+03  0.22234381229E+03  0.10000000000E+01 0.  0.
    9000005    1    3    3    0    0  0.39913135854E+02  0.11025157573E+02 -0.18096059645E+02  0.45200441235E+02  0.10000000000E+01 0.  0.
<mgrwt>
<rscale>  0 0.12500028E+03</rscale>
<asrwt>0</asrwt>
<pdfrwt beam="1">  1        4 0.23843435E-02 0.12500028E+03</pdfrwt>
<pdfrwt beam="2">  1       -4 0.38776308E-01 0.12500028E+03</pdfrwt>
<totfact> 0.79858351E+03</totfact>
</mgrwt>
</event>
<event>
 5    1  0.3312904E-002  0.1249998E+03  0.7818608E-02  0.1235070E+00
          4   -1    0    0  501    0  0.00000000000E+00  0.00000000000E+00  0.46453238757E+03  0.46453412361E+03  0.12700000000E+01 0. -1.
         -4   -1    0    0    0  501 -0.00000000000E+00 -0.00000000000E+00 -0.83592549009E+01  0.84551784427E+01  0.12700000000E+01 0. -1.
         25    2    1    2    0    0  0.00000000000E+00  0.00000000000E+00  0.45617313267E+03  0.47298930206E+03  0.12499981156E+03 0.  0.
    9000005    1    3    3    0    0  0.32781569984E+02  0.30813467600E+02  0.63970089614E+02  0.78213000719E+02  0.10000000000E+01 0.  0.
    9000005    1    3    3    0    0 -0.32781569984E+02 -0.30813467600E+02  0.39220304306E+03  0.39477630134E+03  0.10000000000E+01 0.  0.
<mgrwt>
<rscale>  0 0.12499981E+03</rscale>
<asrwt>0</asrwt>
<pdfrwt beam="1">  1        4 0.71474012E-01 0.12499981E+03</pdfrwt>
<pdfrwt beam="2">  1       -4 0.12935519E-02 0.12499981E+03</pdfrwt>
<totfact> 0.58022958E+03</totfact>
</mgrwt>
</event>
<event>
 5    1  0.3312904E-002  0.1249996E+03  0.7818608E-02  0.1235070E+00
          4   -1    0    0  501    0  0.00000000000E+00  0.00000000000E+00  0.61989072858E+01  0.63276655678E+01  0.12700000000E+01 0.  1.
         -4   -1    0    0    0  501 -0.00000000000E+00 -0.00000000000E+00 -0.62354033596E+03  0.62354162930E+03  0.12700000000E+01 0.  1.
         25    2    1    2    0    0  0.00000000000E+00  0.00000000000E+00 -0.61734142868E+03  0.62986929487E+03  0.12499955623E+03 0.  0.
    9000005    1    3    3    0    0 -0.41170110371E+02 -0.27686955103E+02 -0.11721119942E+03  0.12728319111E+03  0.10000000000E+01 0.  0.
    9000005    1    3    3    0    0  0.41170110371E+02  0.27686955103E+02 -0.50013022926E+03  0.50258610376E+03  0.10000000000E+01 0.  0.
<mgrwt>
<rscale>  0 0.12499956E+03</rscale>
<asrwt>0</asrwt>
<pdfrwt beam="1">  1        4 0.96368250E-03 0.12499956E+03</pdfrwt>
<pdfrwt beam="2">  1       -4 0.95939238E-01 0.12499956E+03</pdfrwt>
<totfact> 0.47035346E+03</totfact>
</mgrwt>
</event>
<event>
 5    1  0.3312904E-002  0.1249800E+03  0.7818608E-02  0.1235100E+00
          4   -1    0    0  501    0  0.00000000000E+00  0.00000000000E+00  0.32740451198E+02  0.32765073549E+02  0.12700000000E+01 0. -1.
         -4   -1    0    0    0  501 -0.00000000000E+00 -0.00000000000E+00 -0.11919865372E+03  0.11920541912E+03  0.12700000000E+01 0. -1.
         25    2    1    2    0    0  0.00000000000E+00  0.00000000000E+00 -0.86458202522E+02  0.15197049267E+03  0.12498003785E+03 0.  0.
    9000005    1    3    3    0    0 -0.57311663843E+02 -0.16908743507E+02 -0.21024292662E+02  0.63352610849E+02  0.10000000000E+01 0.  0.
    9000005    1    3    3    0    0  0.57311663843E+02  0.16908743507E+02 -0.65433909860E+02  0.88617881824E+02  0.10000000000E+01 0.  0.
<mgrwt>
<rscale>  0 0.12498004E+03</rscale>
<asrwt>0</asrwt>
<pdfrwt beam="1">  1        4 0.50394070E-02 0.12498004E+03</pdfrwt>
<pdfrwt beam="2">  1       -4 0.18340669E-01 0.12498004E+03</pdfrwt>
<totfact> 0.98956792E+03</totfact>
</mgrwt>
</event>
<event>
 5    1  0.3312904E-002  0.1250007E+03  0.7818608E-02  0.1235068E+00
          4   -1    0    0  501    0  0.00000000000E+00  0.00000000000E+00  0.98040201607E+01  0.98859350246E+01  0.12700000000E+01 0. -1.
         -4   -1    0    0    0  501 -0.00000000000E+00 -0.00000000000E+00 -0.39669750494E+03  0.39669953784E+03  0.12700000000E+01 0. -1.
         25    2    1    2    0    0  0.00000000000E+00  0.00000000000E+00 -0.38689348477E+03  0.40658547286E+03  0.12500071273E+03 0.  0.
    9000005    1    3    3    0    0  0.55635921417E+01  0.59184433907E+02 -0.13075008886E+03  0.14363264431E+03  0.10000000000E+01 0.  0.
    9000005    1    3    3    0    0 -0.55635921417E+01 -0.59184433907E+02 -0.25614339591E+03  0.26295282855E+03  0.10000000000E+01 0.  0.
<mgrwt>
<rscale>  0 0.12500071E+03</rscale>
<asrwt>0</asrwt>
<pdfrwt beam="1">  1        4 0.15147686E-02 0.12500071E+03</pdfrwt>
<pdfrwt beam="2">  1       -4 0.61036831E-01 0.12500071E+03</pdfrwt>
<totfact> 0.63916295E+03</totfact>
</mgrwt>
</event>
<event>
 5    1  0.3312904E-002  0.1249991E+03  0.7818608E-02  0.1235071E+00
          4   -1    0    0  501    0  0.00000000000E+00  0.00000000000E+00  0.11769479090E+03  0.11770164274E+03  0.12700000000E+01 0. -1.
         -4   -1    0    0    0  501 -0.00000000000E+00 -0.00000000000E+00 -0.33169203764E+02  0.33193508075E+02  0.12700000000E+01 0. -1.
         25    2    1    2    0    0  0.00000000000E+00  0.00000000000E+00  0.84525587133E+02  0.15089515082E+03  0.12499908664E+03 0.  0.
    9000005    1    3    3    0    0 -0.27418098362E+02  0.48201647314E+02  0.77041904528E+02  0.94929478956E+02  0.10000000000E+01 0.  0.
    9000005    1    3    3    0    0  0.27418098362E+02 -0.48201647314E+02  0.74836826050E+01  0.55965671861E+02  0.10000000000E+01 0.  0.
<mgrwt>
<rscale>  0 0.12499909E+03</rscale>
<asrwt>0</asrwt>
<pdfrwt beam="1">  1        4 0.18109287E-01 0.12499909E+03</pdfrwt>
<pdfrwt beam="2">  1       -4 0.51053511E-02 0.12499909E+03</pdfrwt>
<totfact> 0.99127599E+03</totfact>
</mgrwt>
</event>
<event>
 5    1  0.3312904E-002  0.1250037E+03  0.7818608E-02  0.1235064E+00
         -4   -1    0    0    0  501 -0.00000000000E+00  0.00000000000E+00  0.11902706796E+02  0.11970268547E+02  0.12700000000E+01 0. -1.
          4   -1    0    0  501    0  0.00000000000E+00 -0.00000000000E+00 -0.32720326746E+03  0.32720573213E+03  0.12700000000E+01 0. -1.
         25    2    1    2    0    0  0.00000000000E+00  0.00000000000E+00 -0.31530056066E+03  0.33917600067E+03  0.12500366346E+03 0.  0.
    9000005    1    3    3    0    0 -0.11994298234E+02  0.55851354562E+02 -0.22641278960E+03  0.23351014601E+03  0.10000000000E+01 0.  0.
    9000005    1    3    3    0    0  0.11994298234E+02 -0.55851354562E+02 -0.88887771063E+02  0.10566585466E+03  0.10000000000E+01 0.  0.
<mgrwt>
<rscale>  0 0.12500366E+03</rscale>
<asrwt>0</asrwt>
<pdfrwt beam="2">  1        4 0.50344344E-01 0.12500366E+03</pdfrwt>
<pdfrwt beam="1">  1       -4 0.18365726E-02 0.12500366E+03</pdfrwt>
<totfact> 0.70926225E+03</totfact>
</mgrwt>
</event>
<event>
 5    1  0.3312904E-002  0.1250018E+03  0.7818608E-02  0.1235066E+00
          4   -1    0    0  501    0  0.00000000000E+00  0.00000000000E+00  0.12511810465E+02  0.12576100394E+02  0.12700000000E+01 0.  1.
         -4   -1    0    0    0  501 -0.00000000000E+00 -0.00000000000E+00 -0.31134856889E+03  0.31135115906E+03  0.12700000000E+01 0.  1.
         25    2    1    2    0    0  0.00000000000E+00  0.00000000000E+00 -0.29883675843E+03  0.32392725946E+03  0.12500184492E+03 0.  0.
    9000005    1    3    3    0    0 -0.74951180144E+01  0.58435195785E+02 -0.95400918576E+02  0.11213021076E+03  0.10000000000E+01 0.  0.
    9000005    1    3    3    0    0  0.74951180144E+01 -0.58435195785E+02 -0.20343583985E+03  0.21179704870E+03  0.10000000000E+01 0.  0.
<mgrwt>
<rscale>  0 0.12500184E+03</rscale>
<asrwt>0</asrwt>
<pdfrwt beam="1">  1        4 0.19300388E-02 0.12500184E+03</pdfrwt>
<pdfrwt beam="2">  1       -4 0.47904918E-01 0.12500184E+03</pdfrwt>
<totfact> 0.72688482E+03</totfact>
</mgrwt>
</event>
<event>
 5    1  0.3312904E-002  0.1250037E+03  0.7818608E-02  0.1235063E+00
          4   -1    0    0  501    0  0.00000000000E+00  0.00000000000E+00  0.58515028210E+02  0.58528808517E+02  0.12700000000E+01 0. -1.
         -4   -1    0    0    0  501 -0.00000000000E+00 -0.00000000000E+00 -0.66732628629E+02  0.66744712328E+02  0.12700000000E+01 0. -1.
         25    2    1    2    0    0  0.00000000000E+00  0.00000000000E+00 -0.82176004188E+01  0.12527352085E+03  0.12500370422E+03 0.  0.
    9000005    1    3    3    0    0 -0.44086421835E+01 -0.51016241243E+02 -0.40010538450E+02  0.64991816281E+02  0.10000000000E+01 0.  0.
    9000005    1    3    3    0    0  0.44086421835E+01  0.51016241243E+02  0.31792938032E+02  0.60281704564E+02  0.10000000000E+01 0.  0.
<mgrwt>
<rscale>  0 0.12500370E+03</rscale>
<asrwt>0</asrwt>
<pdfrwt beam="1">  1        4 0.90043015E-02 0.12500370E+03</pdfrwt>
<pdfrwt beam="2">  1       -4 0.10268548E-01 0.12500370E+03</pdfrwt>
<totfact> 0.10446050E+04</totfact>
</mgrwt>
</event>
<event>
 5    1  0.3312904E-002  0.1250023E+03  0.7818608E-02  0.1235066E+00
          4   -1    0    0  501    0  0.00000000000E+00  0.00000000000E+00  0.99569079545E+02  0.99577178617E+02  0.12700000000E+01 0. -1.
         -4   -1    0    0    0  501 -0.00000000000E+00 -0.00000000000E+00 -0.39213041456E+02  0.39233601928E+02  0.12700000000E+01 0. -1.
         25    2    1    2    0    0  0.00000000000E+00  0.00000000000E+00  0.60356038088E+02  0.13881078055E+03  0.12500232583E+03 0.  0.
    9000005    1    3    3    0    0  0.19883661618E+02  0.20195004232E+02  0.92028032906E+02  0.96298271198E+02  0.10000000000E+01 0.  0.
    9000005    1    3    3    0    0 -0.19883661618E+02 -0.20195004232E+02 -0.31671994818E+02  0.42512509347E+02  0.10000000000E+01 0.  0.
<mgrwt>
<rscale>  0 0.12500233E+03</rscale>
<asrwt>0</asrwt>
<pdfrwt beam="1">  1        4 0.15320525E-01 0.12500233E+03</pdfrwt>
<pdfrwt beam="2">  1       -4 0.60349802E-02 0.12500233E+03</pdfrwt>
<totfact> 0.10157760E+04</totfact>
</mgrwt>
</event>
<event>
 5    1  0.3312904E-002  0.1250008E+03  0.7818608E-02  0.1235068E+00
         -4   -1    0    0    0  501 -0.00000000000E+00  0.00000000000E+00  0.60631659558E+02  0.60644958907E+02  0.12700000000E+01 0.  1.
          4   -1    0    0  501    0  0.00000000000E+00 -0.00000000000E+00 -0.64400073208E+02  0.64412594492E+02  0.12700000000E+01 0.  1.
         25    2    1    2    0    0  0.00000000000E+00  0.00000000000E+00 -0.37684136497E+01  0.12505755340E+03  0.12500076288E+03 0.  0.
    9000005    1    3    3    0    0  0.48010355892E+02  0.36668337087E+02  0.14114820908E+02  0.62046671038E+02  0.10000000000E+01 0.  0.
    9000005    1    3    3    0    0 -0.48010355892E+02 -0.36668337087E+02 -0.17883234557E+02  0.63010882361E+02  0.10000000000E+01 0.  0.
<mgrwt>
<rscale>  0 0.12500076E+03</rscale>
<asrwt>0</asrwt>
<pdfrwt beam="2">  1        4 0.99096898E-02 0.12500076E+03</pdfrwt>
<pdfrwt beam="1">  1       -4 0.93299338E-02 0.12500076E+03</pdfrwt>
<totfact> 0.10451432E+04</totfact>
</mgrwt>
</event>
<event>
 5    1  0.3312904E-002  0.1250029E+03  0.7818608E-02  0.1235065E+00
          4   -1    0    0  501    0  0.00000000000E+00  0.00000000000E+00  0.29180077189E+01  0.31823998880E+01  0.12700000000E+01 0. -1.
         -4   -1    0    0    0  501 -0.00000000000E+00 -0.00000000000E+00 -0.12804461179E+04  0.12804467477E+04  0.12700000000E+01 0. -1.
         25    2    1    2    0    0  0.00000000000E+00  0.00000000000E+00 -0.12775281101E+04  0.12836291476E+04  0.12500286510E+03 0.  0.
    9000005    1    3    3    0    0  0.49501057461E+02  0.17054327664E+01 -0.24744795458E+03  0.25235838289E+03  0.10000000000E+01 0.  0.
    9000005    1    3    3    0    0 -0.49501057461E+02 -0.17054327664E+01 -0.10300801556E+04  0.10312707647E+04  0.10000000000E+01 0.  0.
<mgrwt>
<rscale>  0 0.12500287E+03</rscale>
<asrwt>0</asrwt>
<pdfrwt beam="1">  1        4 0.46931159E-03 0.12500287E+03</pdfrwt>
<pdfrwt beam="2">  1       -4 0.19701167E+00 0.12500287E+03</pdfrwt>
<totfact> 0.22616877E+03</totfact>
</mgrwt>
</event>
<event>
 5    1  0.3312904E-002  0.1250021E+03  0.7818608E-02  0.1235066E+00
          4   -1    0    0  501    0  0.00000000000E+00  0.00000000000E+00  0.11407660193E+03  0.11408367108E+03  0.12700000000E+01 0. -1.
         -4   -1    0    0    0  501 -0.00000000000E+00 -0.00000000000E+00 -0.34223595405E+02  0.34247151450E+02  0.12700000000E+01 0. -1.
         25    2    1    2    0    0  0.00000000000E+00  0.00000000000E+00  0.79853006526E+02  0.14833082253E+03  0.12500212103E+03 0.  0.
    9000005    1    3    3    0    0 -0.48673104743E+02 -0.10014328345E+02 -0.50406063533E+01  0.49957638154E+02  0.10000000000E+01 0.  0.
    9000005    1    3    3    0    0  0.48673104743E+02  0.10014328345E+02  0.84893612879E+02  0.98373184381E+02  0.10000000000E+01 0.  0.
<mgrwt>
<rscale>  0 0.12500212E+03</rscale>
<asrwt>0</asrwt>
<pdfrwt beam="1">  1        4 0.17552602E-01 0.12500212E+03</pdfrwt>
<pdfrwt beam="2">  1       -4 0.52675243E-02 0.12500212E+03</pdfrwt>
<totfact> 0.99632712E+03</totfact>
</mgrwt>
</event>
<event>
 5    1  0.3312904E-002  0.1250147E+03  0.7818608E-02  0.1235046E+00
         -4   -1    0    0    0  501 -0.00000000000E+00  0.00000000000E+00  0.41985257058E+02  0.42004460599E+02  0.12700000000E+01 0.  1.
          4   -1    0    0  501    0  0.00000000000E+00 -0.00000000000E+00 -0.93015709534E+02  0.93024379171E+02  0.12700000000E+01 0.  1.
         25    2    1    2    0    0  0.00000000000E+00  0.00000000000E+00 -0.51030452477E+02  0.13502883977E+03  0.12501472109E+03 0.  0.
    9000005    1    3    3    0    0  0.46354435296E+02  0.29474791191E+02 -0.57713782980E+02  0.79682982708E+02  0.10000000000E+01 0.  0.
    9000005    1    3    3    0    0 -0.46354435296E+02 -0.29474791191E+02  0.66833305036E+01  0.55345857062E+02  0.10000000000E+01 0.  0.
<mgrwt>
<rscale>  0 0.12501472E+03</rscale>
<asrwt>0</asrwt>
<pdfrwt beam="2">  1        4 0.14312253E-01 0.12501472E+03</pdfrwt>
<pdfrwt beam="1">  1       -4 0.64614144E-02 0.12501472E+03</pdfrwt>
<totfact> 0.10234065E+04</totfact>
</mgrwt>
</event>
<event>
 5    1  0.3312904E-002  0.1250009E+03  0.7818608E-02  0.1235068E+00
         -4   -1    0    0    0  501 -0.00000000000E+00  0.00000000000E+00  0.95150252500E+02  0.95158727665E+02  0.12700000000E+01 0.  1.
          4   -1    0    0  501    0  0.00000000000E+00 -0.00000000000E+00 -0.41033976184E+02  0.41053624705E+02  0.12700000000E+01 0.  1.
         25    2    1    2    0    0  0.00000000000E+00  0.00000000000E+00  0.54116276316E+02  0.13621235237E+03  0.12500093430E+03 0.  0.
    9000005    1    3    3    0    0  0.11422722057E+02  0.61157088025E+02  0.33471631931E+02  0.70654215296E+02  0.10000000000E+01 0.  0.
    9000005    1    3    3    0    0 -0.11422722057E+02 -0.61157088025E+02  0.20644644386E+02  0.65558137075E+02  0.10000000000E+01 0.  0.
<mgrwt>
<rscale>  0 0.12500093E+03</rscale>
<asrwt>0</asrwt>
<pdfrwt beam="2">  1        4 0.63150829E-02 0.12500093E+03</pdfrwt>
<pdfrwt beam="1">  1       -4 0.14640664E-01 0.12500093E+03</pdfrwt>
<totfact> 0.10212365E+04</totfact>
</mgrwt>
</event>
<event>
 5    1  0.3312904E-002  0.1250011E+03  0.7818608E-02  0.1235068E+00
          4   -1    0    0  501    0  0.00000000000E+00  0.00000000000E+00  0.32661788326E+02  0.32686469932E+02  0.12700000000E+01 0. -1.
         -4   -1    0    0    0  501 -0.00000000000E+00 -0.00000000000E+00 -0.11952587791E+03  0.11953262480E+03  0.12700000000E+01 0. -1.
         25    2    1    2    0    0  0.00000000000E+00  0.00000000000E+00 -0.86864089588E+02  0.15221909473E+03  0.12500113096E+03 0.  0.
    9000005    1    3    3    0    0  0.53424512458E+02 -0.20865659414E+02 -0.73649868981E+02  0.93353400983E+02  0.10000000000E+01 0.  0.
    9000005    1    3    3    0    0 -0.53424512458E+02  0.20865659414E+02 -0.13214220607E+02  0.58865693748E+02  0.10000000000E+01 0.  0.
<mgrwt>
<rscale>  0 0.12500113E+03</rscale>
<asrwt>0</asrwt>
<pdfrwt beam="1">  1        4 0.50273081E-02 0.12500113E+03</pdfrwt>
<pdfrwt beam="2">  1       -4 0.18391014E-01 0.12500113E+03</pdfrwt>
<totfact> 0.98860665E+03</totfact>
</mgrwt>
</event>
<event>
 5    1  0.3312904E-002  0.1250039E+03  0.7818608E-02  0.1235063E+00
          4   -1    0    0  501    0  0.00000000000E+00  0.00000000000E+00  0.39887987450E+03  0.39888189628E+03  0.12700000000E+01 0.  1.
         -4   -1    0    0    0  501 -0.00000000000E+00 -0.00000000000E+00 -0.97504276507E+01  0.98327889925E+01  0.12700000000E+01 0.  1.
         25    2    1    2    0    0  0.00000000000E+00  0.00000000000E+00  0.38912944685E+03  0.40871468528E+03  0.12500387015E+03 0.  0.
    9000005    1    3    3    0    0 -0.60537923445E+02  0.15512925735E+02  0.19465996226E+03  0.20444801772E+03  0.10000000000E+01 0.  0.
    9000005    1    3    3    0    0  0.60537923445E+02 -0.15512925735E+02  0.19446948459E+03  0.20426666756E+03  0.10000000000E+01 0.  0.
<mgrwt>
<rscale>  0 0.12500387E+03</rscale>
<asrwt>0</asrwt>
<pdfrwt beam="1">  1        4 0.61372620E-01 0.12500387E+03</pdfrwt>
<pdfrwt beam="2">  1       -4 0.15065569E-02 0.12500387E+03</pdfrwt>
<totfact> 0.63708504E+03</totfact>
</mgrwt>
</event>
<event>
 5    1  0.3312904E-002  0.1249979E+03  0.7818608E-02  0.1235073E+00
          4   -1    0    0  501    0  0.00000000000E+00  0.00000000000E+00  0.25250377666E+03  0.25250697045E+03  0.12700000000E+01 0. -1.
         -4   -1    0    0    0  501 -0.00000000000E+00 -0.00000000000E+00 -0.15440186355E+02  0.15492328898E+02  0.12700000000E+01 0. -1.
         25    2    1    2    0    0  0.00000000000E+00  0.00000000000E+00  0.23706359030E+03  0.26799929935E+03  0.12499791440E+03 0.  0.
    9000005    1    3    3    0    0  0.10159662593E+01  0.23828840986E+02  0.24237202070E+03  0.24354474388E+03  0.10000000000E+01 0.  0.
    9000005    1    3    3    0    0 -0.10159662593E+01 -0.23828840986E+02 -0.53084303980E+01  0.24454555475E+02  0.10000000000E+01 0.  0.
<mgrwt>
<rscale>  0 0.12499791E+03</rscale>
<asrwt>0</asrwt>
<pdfrwt beam="1">  1        4 0.38850987E-01 0.12499791E+03</pdfrwt>
<pdfrwt beam="2">  1       -4 0.23796702E-02 0.12499791E+03</pdfrwt>
<totfact> 0.79800121E+03</totfact>
</mgrwt>
</event>
<event>
 5    1  0.3312904E-002  0.1249869E+03  0.7818608E-02  0.1235090E+00
         -4   -1    0    0    0  501 -0.00000000000E+00  0.00000000000E+00  0.10380731146E+02  0.10458129810E+02  0.12700000000E+01 0.  1.
          4   -1    0    0  501    0  0.00000000000E+00 -0.00000000000E+00 -0.37474327707E+03  0.37474542907E+03  0.12700000000E+01 0.  1.
         25    2    1    2    0    0  0.00000000000E+00  0.00000000000E+00 -0.36436254592E+03  0.38520355888E+03  0.12498686692E+03 0.  0.
    9000005    1    3    3    0    0 -0.57143887041E+02 -0.51345104259E+01 -0.10589799193E+03  0.12044572105E+03  0.10000000000E+01 0.  0.
    9000005    1    3    3    0    0  0.57143887041E+02  0.51345104259E+01 -0.25846455399E+03  0.26475783783E+03  0.10000000000E+01 0.  0.
<mgrwt>
<rscale>  0 0.12498687E+03</rscale>
<asrwt>0</asrwt>
<pdfrwt beam="2">  1        4 0.57658921E-01 0.12498687E+03</pdfrwt>
<pdfrwt beam="1">  1       -4 0.16031551E-02 0.12498687E+03</pdfrwt>
<totfact> 0.66036934E+03</totfact>
</mgrwt>
</event>
<event>
 5    1  0.3312904E-002  0.1250009E+03  0.7818608E-02  0.1235068E+00
         -4   -1    0    0    0  501 -0.00000000000E+00  0.00000000000E+00  0.33236901151E+02  0.33261155995E+02  0.12700000000E+01 0.  1.
          4   -1    0    0  501    0  0.00000000000E+00 -0.00000000000E+00 -0.11745870892E+03  0.11746557454E+03  0.12700000000E+01 0.  1.
         25    2    1    2    0    0  0.00000000000E+00  0.00000000000E+00 -0.84221807769E+02  0.15072673053E+03  0.12500093757E+03 0.  0.
    9000005    1    3    3    0    0  0.60961410688E+02 -0.74655241130E+01 -0.56031603299E+02  0.83141855955E+02  0.10000000000E+01 0.  0.
    9000005    1    3    3    0    0 -0.60961410688E+02  0.74655241130E+01 -0.28190204470E+02  0.67584874576E+02  0.10000000000E+01 0.  0.
<mgrwt>
<rscale>  0 0.12500094E+03</rscale>
<asrwt>0</asrwt>
<pdfrwt beam="2">  1        4 0.18072964E-01 0.12500094E+03</pdfrwt>
<pdfrwt beam="1">  1       -4 0.51157634E-02 0.12500094E+03</pdfrwt>
<totfact> 0.99156940E+03</totfact>
</mgrwt>
</event>
<event>
 5    1  0.3312904E-002  0.1249814E+03  0.7818608E-02  0.1235098E+00
         -4   -1    0    0    0  501 -0.00000000000E+00  0.00000000000E+00  0.34181793693E+02  0.34205378525E+02  0.12700000000E+01 0.  1.
          4   -1    0    0  501    0  0.00000000000E+00 -0.00000000000E+00 -0.11417817996E+03  0.11418524283E+03  0.12700000000E+01 0.  1.
         25    2    1    2    0    0  0.00000000000E+00  0.00000000000E+00 -0.79996386271E+02  0.14839062135E+03  0.12498141738E+03 0.  0.
    9000005    1    3    3    0    0  0.38722797154E+02 -0.34046132196E+02  0.19035336721E+01  0.51606371480E+02  0.10000000000E+01 0.  0.
    9000005    1    3    3    0    0 -0.38722797154E+02  0.34046132196E+02 -0.81899919943E+02  0.96784249874E+02  0.10000000000E+01 0.  0.
<mgrwt>
<rscale>  0 0.12498142E+03</rscale>
<asrwt>0</asrwt>
<pdfrwt beam="2">  1        4 0.17568231E-01 0.12498142E+03</pdfrwt>
<pdfrwt beam="1">  1       -4 0.52610951E-02 0.12498142E+03</pdfrwt>
<totfact> 0.99667159E+03</totfact>
</mgrwt>
</event>
<event>
 5    1  0.3312904E-002  0.1249973E+03  0.7818608E-02  0.1235074E+00
          4   -1    0    0  501    0  0.00000000000E+00  0.00000000000E+00  0.68696086560E+01  0.69860162530E+01  0.12700000000E+01 0.  1.
         -4   -1    0    0    0  501 -0.00000000000E+00 -0.00000000000E+00 -0.56370850716E+03  0.56370993778E+03  0.12700000000E+01 0.  1.
         25    2    1    2    0    0  0.00000000000E+00  0.00000000000E+00 -0.55683889851E+03  0.57069595403E+03  0.12499725219E+03 0.  0.
    9000005    1    3    3    0    0 -0.54412581239E+02  0.23989206524E+02 -0.19073160994E+03  0.19978928414E+03  0.10000000000E+01 0.  0.
    9000005    1    3    3    0    0  0.54412581239E+02 -0.23989206524E+02 -0.36610728857E+03  0.37090666989E+03  0.10000000000E+01 0.  0.
<mgrwt>
<rscale>  0 0.12499725E+03</rscale>
<asrwt>0</asrwt>
<pdfrwt beam="1">  1        4 0.10659278E-02 0.12499725E+03</pdfrwt>
<pdfrwt beam="2">  1       -4 0.86733414E-01 0.12499725E+03</pdfrwt>
<totfact> 0.50774277E+03</totfact>
</mgrwt>
</event>
<event>
 5    1  0.3312904E-002  0.1249988E+03  0.7818608E-02  0.1235071E+00
          4   -1    0    0  501    0  0.00000000000E+00  0.00000000000E+00  0.17004089985E+03  0.17004564247E+03  0.12700000000E+01 0.  1.
         -4   -1    0    0    0  501 -0.00000000000E+00 -0.00000000000E+00 -0.22949367128E+02  0.22984480668E+02  0.12700000000E+01 0.  1.
         25    2    1    2    0    0  0.00000000000E+00  0.00000000000E+00  0.14709153272E+03  0.19303012313E+03  0.12499883775E+03 0.  0.
    9000005    1    3    3    0    0  0.62401312153E+02 -0.28728175301E+01  0.70870805474E+02  0.94476705634E+02  0.10000000000E+01 0.  0.
    9000005    1    3    3    0    0 -0.62401312153E+02  0.28728175301E+01  0.76220727248E+02  0.98553417501E+02  0.10000000000E+01 0.  0.
<mgrwt>
<rscale>  0 0.12499884E+03</rscale>
<asrwt>0</asrwt>
<pdfrwt beam="1">  1        4 0.26163204E-01 0.12499884E+03</pdfrwt>
<pdfrwt beam="2">  1       -4 0.35337378E-02 0.12499884E+03</pdfrwt>
<totfact> 0.91325117E+03</totfact>
</mgrwt>
</event>
<event>
 5    1  0.3312904E-002  0.1250043E+03  0.7818608E-02  0.1235063E+00
         -4   -1    0    0    0  501 -0.00000000000E+00  0.00000000000E+00  0.63375277323E+02  0.63388001039E+02  0.12700000000E+01 0. -1.
          4   -1    0    0  501    0  0.00000000000E+00 -0.00000000000E+00 -0.61615556661E+02  0.61628643687E+02  0.12700000000E+01 0. -1.
         25    2    1    2    0    0  0.00000000000E+00  0.00000000000E+00  0.17597206617E+01  0.12501664473E+03  0.12500425929E+03 0.  0.
    9000005    1    3    3    0    0  0.92916011353E+01 -0.24518102522E+02 -0.55853575379E+02  0.61709748707E+02  0.10000000000E+01 0.  0.
    9000005    1    3    3    0    0 -0.92916011353E+01  0.24518102522E+02  0.57613296041E+02  0.63306896019E+02  0.10000000000E+01 0.  0.
<mgrwt>
<rscale>  0 0.12500426E+03</rscale>
<asrwt>0</asrwt>
<pdfrwt beam="2">  1        4 0.94813018E-02 0.12500426E+03</pdfrwt>
<pdfrwt beam="1">  1       -4 0.97520281E-02 0.12500426E+03</pdfrwt>
<totfact> 0.10451495E+04</totfact>
</mgrwt>
</event>
<event>
 5    1  0.3312904E-002  0.1249999E+03  0.7818608E-02  0.1235069E+00
          4   -1    0    0  501    0  0.00000000000E+00  0.00000000000E+00  0.77972402161E+02  0.77982744237E+02  0.12700000000E+01 0. -1.
         -4   -1    0    0    0  501 -0.00000000000E+00 -0.00000000000E+00 -0.50076074785E+02  0.50092176693E+02  0.12700000000E+01 0. -1.
         25    2    1    2    0    0  0.00000000000E+00  0.00000000000E+00  0.27896327377E+02  0.12807492093E+03  0.12499992116E+03 0.  0.
    9000005    1    3    3    0    0  0.24651058103E+01 -0.50808020902E+02 -0.23245146173E+02  0.55936290146E+02  0.10000000000E+01 0.  0.
    9000005    1    3    3    0    0 -0.24651058103E+01  0.50808020902E+02  0.51141473550E+02  0.72138630785E+02  0.10000000000E+01 0.  0.
<mgrwt>
<rscale>  0 0.12499992E+03</rscale>
<asrwt>0</asrwt>
<pdfrwt beam="1">  1        4 0.11997788E-01 0.12499992E+03</pdfrwt>
<pdfrwt beam="2">  1       -4 0.77060457E-02 0.12499992E+03</pdfrwt>
<totfact> 0.10385888E+04</totfact>
</mgrwt>
</event>
<event>
 5    1  0.3312904E-002  0.1249987E+03  0.7818608E-02  0.1235071E+00
         -4   -1    0    0    0  501 -0.00000000000E+00  0.00000000000E+00  0.18337734182E+03  0.18338173953E+03  0.12700000000E+01 0. -1.
          4   -1    0    0  501    0  0.00000000000E+00 -0.00000000000E+00 -0.21277679017E+02  0.21315546541E+02  0.12700000000E+01 0. -1.
         25    2    1    2    0    0  0.00000000000E+00  0.00000000000E+00  0.16209966280E+03  0.20469728607E+03  0.12499871297E+03 0.  0.
    9000005    1    3    3    0    0  0.81038751546E+01 -0.51283005507E+02  0.13800307680E+03  0.14744988523E+03  0.10000000000E+01 0.  0.
    9000005    1    3    3    0    0 -0.81038751546E+01  0.51283005507E+02  0.24096585997E+02  0.57247400841E+02  0.10000000000E+01 0.  0.
<mgrwt>
<rscale>  0 0.12499871E+03</rscale>
<asrwt>0</asrwt>
<pdfrwt beam="2">  1        4 0.32767402E-02 0.12499871E+03</pdfrwt>
<pdfrwt beam="1">  1       -4 0.28215150E-01 0.12499871E+03</pdfrwt>
<totfact> 0.89351844E+03</totfact>
</mgrwt>
</event>
<event>
 5    1  0.3312904E-002  0.1250013E+03  0.7818608E-02  0.1235067E+00
          4   -1    0    0  501    0  0.00000000000E+00  0.00000000000E+00  0.16289713470E+01  0.20655381016E+01  0.12700000000E+01 0.  1.
         -4   -1    0    0    0  501 -0.00000000000E+00 -0.00000000000E+00 -0.21142311332E+04  0.21142315146E+04  0.12700000000E+01 0.  1.
         25    2    1    2    0    0  0.00000000000E+00  0.00000000000E+00 -0.21126021619E+04  0.21162970527E+04  0.12500128468E+03 0.  0.
    9000005    1    3    3    0    0  0.20015982702E+02 -0.54193446864E+02 -0.14597094901E+04  0.14608526157E+04  0.10000000000E+01 0.  0.
    9000005    1    3    3    0    0 -0.20015982702E+02  0.54193446864E+02 -0.65289267171E+03  0.65544443702E+03  0.10000000000E+01 0.  0.
<mgrwt>
<rscale>  0 0.12500128E+03</rscale>
<asrwt>0</asrwt>
<pdfrwt beam="1">  1        4 0.28422407E-03 0.12500128E+03</pdfrwt>
<pdfrwt beam="2">  1       -4 0.32529800E+00 0.12500128E+03</pdfrwt>
<totfact> 0.84185840E+02</totfact>
</mgrwt>
</event>
<event>
 5    1  0.3312904E-002  0.1250013E+03  0.7818608E-02  0.1235067E+00
         -4   -1    0    0    0  501 -0.00000000000E+00  0.00000000000E+00  0.12823629508E+03  0.12824258371E+03  0.12700000000E+01 0. -1.
          4   -1    0    0  501    0  0.00000000000E+00 -0.00000000000E+00 -0.30441701239E+02  0.30468181343E+02  0.12700000000E+01 0. -1.
         25    2    1    2    0    0  0.00000000000E+00  0.00000000000E+00  0.97794593846E+02  0.15871076505E+03  0.12500129743E+03 0.  0.
    9000005    1    3    3    0    0  0.38039754057E+02  0.22614838019E+01  0.11178385157E+03  0.11810489689E+03  0.10000000000E+01 0.  0.
    9000005    1    3    3    0    0 -0.38039754057E+02 -0.22614838019E+01 -0.13989257724E+02  0.40605868164E+02  0.10000000000E+01 0.  0.
<mgrwt>
<rscale>  0 0.12500130E+03</rscale>
<asrwt>0</asrwt>
<pdfrwt beam="2">  1        4 0.46858592E-02 0.12500130E+03</pdfrwt>
<pdfrwt beam="1">  1       -4 0.19731182E-01 0.12500130E+03</pdfrwt>
<totfact> 0.97589069E+03</totfact>
</mgrwt>
</event>
<event>
 5    1  0.3312904E-002  0.1249978E+03  0.7818608E-02  0.1235073E+00
          4   -1    0    0  501    0  0.00000000000E+00  0.00000000000E+00  0.19596249958E+02  0.19637360118E+02  0.12700000000E+01 0.  1.
         -4   -1    0    0    0  501 -0.00000000000E+00 -0.00000000000E+00 -0.19907763919E+03  0.19908169008E+03  0.12700000000E+01 0.  1.
         25    2    1    2    0    0  0.00000000000E+00  0.00000000000E+00 -0.17948138924E+03  0.21871905020E+03  0.12499781534E+03 0.  0.
    9000005    1    3    3    0    0 -0.48259503769E+02  0.31535058398E+02 -0.13194181273E+03  0.14398986617E+03  0.10000000000E+01 0.  0.
    9000005    1    3    3    0    0  0.48259503769E+02 -0.31535058398E+02 -0.47539576502E+02  0.74729184033E+02  0.10000000000E+01 0.  0.
<mgrwt>
<rscale>  0 0.12499782E+03</rscale>
<asrwt>0</asrwt>
<pdfrwt beam="1">  1        4 0.30182818E-02 0.12499782E+03</pdfrwt>
<pdfrwt beam="2">  1       -4 0.30630802E-01 0.12499782E+03</pdfrwt>
<totfact> 0.87075700E+03</totfact>
</mgrwt>
</event>
<event>
 5    1  0.3312904E-002  0.1250024E+03  0.7818608E-02  0.1235065E+00
          4   -1    0    0  501    0  0.00000000000E+00  0.00000000000E+00  0.18694425556E+03  0.18694856937E+03  0.12700000000E+01 0. -1.
         -4   -1    0    0    0  501 -0.00000000000E+00 -0.00000000000E+00 -0.20872229102E+02  0.20910830871E+02  0.12700000000E+01 0. -1.
         25    2    1    2    0    0  0.00000000000E+00  0.00000000000E+00  0.16607202646E+03  0.20785940024E+03  0.12500244915E+03 0.  0.
    9000005    1    3    3    0    0  0.18926567894E+02  0.42268519657E+02  0.13264746844E+02  0.48185020858E+02  0.10000000000E+01 0.  0.
    9000005    1    3    3    0    0 -0.18926567894E+02 -0.42268519657E+02  0.15280727962E+03  0.15967437938E+03  0.10000000000E+01 0.  0.
<mgrwt>
<rscale>  0 0.12500245E+03</rscale>
<asrwt>0</asrwt>
<pdfrwt beam="1">  1        4 0.28763957E-01 0.12500245E+03</pdfrwt>
<pdfrwt beam="2">  1       -4 0.32144132E-02 0.12500245E+03</pdfrwt>
<totfact> 0.88821800E+03</totfact>
</mgrwt>
</event>
<event>
 4    1  0.3312904E-002  0.1249216E+03  0.7818608E-02  0.1235192E+00
         -4   -1    0    0    0  501 -0.00000000000E+00  0.00000000000E+00  0.36813648015E+02  0.36835547779E+02  0.12700000000E+01 0.  1.
          4   -1    0    0  501    0  0.00000000000E+00 -0.00000000000E+00 -0.10591851604E+03  0.10592612964E+03  0.12700000000E+01 0.  1.
    9000005    1    1    2    0    0  0.25514915248E+02 -0.36822815910E+02 -0.84280067940E+02  0.95451875433E+02  0.10000000000E+01 0.  0.
    9000005    1    1    2    0    0 -0.25514915248E+02  0.36822815910E+02  0.15175199913E+02  0.47309801987E+02  0.10000000000E+01 0.  0.
<mgrwt>
<rscale>  0 0.12492163E+03</rscale>
<asrwt>0</asrwt>
<pdfrwt beam="2">  1        4 0.16297426E-01 0.12492163E+03</pdfrwt>
<pdfrwt beam="1">  1       -4 0.56659085E-02 0.12492163E+03</pdfrwt>
<totfact> 0.10094473E+04</totfact>
</mgrwt>
</event>
<event>
 5    1  0.3312904E-002  0.1249951E+03  0.7818608E-02  0.1235077E+00
         -4   -1    0    0    0  501 -0.00000000000E+00  0.00000000000E+00  0.22072516577E+02  0.22109022774E+02  0.12700000000E+01 0. -1.
          4   -1    0    0  501    0  0.00000000000E+00 -0.00000000000E+00 -0.17677466055E+03  0.17677922251E+03  0.12700000000E+01 0. -1.
         25    2    1    2    0    0  0.00000000000E+00  0.00000000000E+00 -0.15470214397E+03  0.19888824529E+03  0.12499512296E+03 0.  0.
    9000005    1    3    3    0    0  0.11873833714E+02  0.48891585104E+02 -0.13632247676E+03  0.14531411732E+03  0.10000000000E+01 0.  0.
    9000005    1    3    3    0    0 -0.11873833714E+02 -0.48891585104E+02 -0.18379667211E+02  0.53574127971E+02  0.10000000000E+01 0.  0.
<mgrwt>
<rscale>  0 0.12499512E+03</rscale>
<asrwt>0</asrwt>
<pdfrwt beam="2">  1        4 0.27199260E-01 0.12499512E+03</pdfrwt>
<pdfrwt beam="1">  1       -4 0.33989310E-02 0.12499512E+03</pdfrwt>
<totfact> 0.90333212E+03</totfact>
</mgrwt>
</event>
<event>
 5    1  0.3312904E-002  0.1250026E+03  0.7818608E-02  0.1235065E+00
          4   -1    0    0  501    0  0.00000000000E+00  0.00000000000E+00  0.14034402735E+02  0.14091747945E+02  0.12700000000E+01 0. -1.
         -4   -1    0    0    0  501 -0.00000000000E+00 -0.00000000000E+00 -0.27771900457E+03  0.27772190839E+03  0.12700000000E+01 0. -1.
         25    2    1    2    0    0  0.00000000000E+00  0.00000000000E+00 -0.26368460184E+03  0.29181365634E+03  0.12500256309E+03 0.  0.
    9000005    1    3    3    0    0 -0.44442272783E+02  0.36490158112E+02 -0.74718887316E+02  0.94289762810E+02  0.10000000000E+01 0.  0.
    9000005    1    3    3    0    0  0.44442272783E+02 -0.36490158112E+02 -0.18896571452E+03  0.19752389353E+03  0.10000000000E+01 0.  0.
<mgrwt>
<rscale>  0 0.12500256E+03</rscale>
<asrwt>0</asrwt>
<pdfrwt beam="1">  1        4 0.21637736E-02 0.12500256E+03</pdfrwt>
<pdfrwt beam="2">  1       -4 0.42730631E-01 0.12500256E+03</pdfrwt>
<totfact> 0.76632967E+03</totfact>
</mgrwt>
</event>
<event>
 5    1  0.3312904E-002  0.1249998E+03  0.7818608E-02  0.1235070E+00
         -4   -1    0    0    0  501 -0.00000000000E+00  0.00000000000E+00  0.28673309480E+02  0.28701421159E+02  0.12700000000E+01 0.  1.
          4   -1    0    0  501    0  0.00000000000E+00 -0.00000000000E+00 -0.13613476365E+03  0.13614068743E+03  0.12700000000E+01 0.  1.
         25    2    1    2    0    0  0.00000000000E+00  0.00000000000E+00 -0.10746145417E+03  0.16484210859E+03  0.12499982653E+03 0.  0.
    9000005    1    3    3    0    0 -0.21783961081E+02  0.41847828962E+02  0.31274564379E+00  0.47189824741E+02  0.10000000000E+01 0.  0.
    9000005    1    3    3    0    0  0.21783961081E+02 -0.41847828962E+02 -0.10777419981E+03  0.11765228385E+03  0.10000000000E+01 0.  0.
<mgrwt>
<rscale>  0 0.12499983E+03</rscale>
<asrwt>0</asrwt>
<pdfrwt beam="2">  1        4 0.20946428E-01 0.12499983E+03</pdfrwt>
<pdfrwt beam="1">  1       -4 0.44138966E-02 0.12499983E+03</pdfrwt>
<totfact> 0.96417679E+03</totfact>
</mgrwt>
</event>
<event>
 5    1  0.3312904E-002  0.1249984E+03  0.7818608E-02  0.1235072E+00
         -4   -1    0    0    0  501 -0.00000000000E+00  0.00000000000E+00  0.67078201716E+02  0.67090223173E+02  0.12700000000E+01 0. -1.
          4   -1    0    0  501    0  0.00000000000E+00 -0.00000000000E+00 -0.58208575686E+02  0.58222428525E+02  0.12700000000E+01 0. -1.
         25    2    1    2    0    0  0.00000000000E+00  0.00000000000E+00  0.88696260299E+01  0.12531265170E+03  0.12499836163E+03 0.  0.
    9000005    1    3    3    0    0  0.45124400172E+02 -0.18587144504E+02  0.43564402927E+02  0.65425917144E+02  0.10000000000E+01 0.  0.
    9000005    1    3    3    0    0 -0.45124400172E+02  0.18587144504E+02 -0.34694776897E+02  0.59886734555E+02  0.10000000000E+01 0.  0.
<mgrwt>
<rscale>  0 0.12499836E+03</rscale>
<asrwt>0</asrwt>
<pdfrwt beam="2">  1        4 0.89571558E-02 0.12499836E+03</pdfrwt>
<pdfrwt beam="1">  1       -4 0.10321714E-01 0.12499836E+03</pdfrwt>
<totfact> 0.10446462E+04</totfact>
</mgrwt>
</event>
<event>
 5    1  0.3312904E-002  0.1249994E+03  0.7818608E-02  0.1235070E+00
          4   -1    0    0  501    0  0.00000000000E+00  0.00000000000E+00  0.15687330128E+03  0.15687844197E+03  0.12700000000E+01 0. -1.
         -4   -1    0    0    0  501 -0.00000000000E+00 -0.00000000000E+00 -0.24878682764E+02  0.24911076976E+02  0.12700000000E+01 0. -1.
         25    2    1    2    0    0  0.00000000000E+00  0.00000000000E+00  0.13199461852E+03  0.18178951895E+03  0.12499939952E+03 0.  0.
    9000005    1    3    3    0    0 -0.39874643232E+02  0.45839636597E+02  0.44724731578E+02  0.75449062757E+02  0.10000000000E+01 0.  0.
    9000005    1    3    3    0    0  0.39874643232E+02 -0.45839636597E+02  0.87269886942E+02  0.10634045619E+03  0.10000000000E+01 0.  0.
<mgrwt>
<rscale>  0 0.12499940E+03</rscale>
<asrwt>0</asrwt>
<pdfrwt beam="1">  1        4 0.24137241E-01 0.12499940E+03</pdfrwt>
<pdfrwt beam="2">  1       -4 0.38303770E-02 0.12499940E+03</pdfrwt>
<totfact> 0.93297128E+03</totfact>
</mgrwt>
</event>
<event>
 5    1  0.3312904E-002  0.1249917E+03  0.7818608E-02  0.1235082E+00
         -4   -1    0    0    0  501 -0.00000000000E+00  0.00000000000E+00  0.53924678578E+02  0.53939631624E+02  0.12700000000E+01 0. -1.
          4   -1    0    0  501    0  0.00000000000E+00 -0.00000000000E+00 -0.72398839506E+02  0.72409977640E+02  0.12700000000E+01 0. -1.
         25    2    1    2    0    0  0.00000000000E+00  0.00000000000E+00 -0.18474160929E+02  0.12634960926E+03  0.12499171628E+03 0.  0.
    9000005    1    3    3    0    0 -0.63187190556E+01 -0.38457360446E+01 -0.71959667213E+02  0.72345764227E+02  0.10000000000E+01 0.  0.
    9000005    1    3    3    0    0  0.63187190556E+01  0.38457360446E+01  0.53485506285E+02  0.54003845037E+02  0.10000000000E+01 0.  0.
<mgrwt>
<rscale>  0 0.12499172E+03</rscale>
<asrwt>0</asrwt>
<pdfrwt beam="2">  1        4 0.11140290E-01 0.12499172E+03</pdfrwt>
<pdfrwt beam="1">  1       -4 0.82981114E-02 0.12499172E+03</pdfrwt>
<totfact> 0.10425259E+04</totfact>
</mgrwt>
</event>
<event>
 5    1  0.3312904E-002  0.1250001E+03  0.7818608E-02  0.1235069E+00
         -4   -1    0    0    0  501 -0.00000000000E+00  0.00000000000E+00  0.20030414268E+03  0.20030816877E+03  0.12700000000E+01 0. -1.
          4   -1    0    0  501    0  0.00000000000E+00 -0.00000000000E+00 -0.19476714696E+02  0.19518076631E+02  0.12700000000E+01 0. -1.
         25    2    1    2    0    0  0.00000000000E+00  0.00000000000E+00  0.18082742798E+03  0.21982624540E+03  0.12500007782E+03 0.  0.
    9000005    1    3    3    0    0 -0.41702531899E+02  0.45957333164E+02  0.77481393507E+02  0.99275092436E+02  0.10000000000E+01 0.  0.
    9000005    1    3    3    0    0  0.41702531899E+02 -0.45957333164E+02  0.10334603447E+03  0.12055115296E+03  0.10000000000E+01 0.  0.
<mgrwt>
<rscale>  0 0.12500008E+03</rscale>
<asrwt>0</asrwt>
<pdfrwt beam="2">  1        4 0.29999093E-02 0.12500008E+03</pdfrwt>
<pdfrwt beam="1">  1       -4 0.30819511E-01 0.12500008E+03</pdfrwt>
<totfact> 0.86895702E+03</totfact>
</mgrwt>
</event>
<event>
 5    1  0.3312904E-002  0.1250040E+03  0.7818608E-02  0.1235063E+00
         -4   -1    0    0    0  501 -0.00000000000E+00  0.00000000000E+00  0.30058282823E+01  0.32631125728E+01  0.12700000000E+01 0. -1.
          4   -1    0    0  501    0  0.00000000000E+00 -0.00000000000E+00 -0.12460455801E+04  0.12460462273E+04  0.12700000000E+01 0. -1.
         25    2    1    2    0    0  0.00000000000E+00  0.00000000000E+00 -0.12430397518E+04  0.12493093399E+04  0.12500400839E+03 0.  0.
    9000005    1    3    3    0    0  0.23084249285E+02 -0.58042491340E+02 -0.64071063555E+03  0.64374912184E+03  0.10000000000E+01 0.  0.
    9000005    1    3    3    0    0 -0.23084249285E+02  0.58042491340E+02 -0.60232911628E+03  0.60556021805E+03  0.10000000000E+01 0.  0.
<mgrwt>
<rscale>  0 0.12500401E+03</rscale>
<asrwt>0</asrwt>
<pdfrwt beam="2">  1        4 0.19171877E+00 0.12500401E+03</pdfrwt>
<pdfrwt beam="1">  1       -4 0.48227700E-03 0.12500401E+03</pdfrwt>
<totfact> 0.23455304E+03</totfact>
</mgrwt>
</event>
<event>
 5    1  0.3312904E-002  0.1249993E+03  0.7818608E-02  0.1235070E+00
          4   -1    0    0  501    0  0.00000000000E+00  0.00000000000E+00  0.90740010142E+03  0.90740099017E+03  0.12700000000E+01 0.  1.
         -4   -1    0    0    0  501 -0.00000000000E+00 -0.00000000000E+00 -0.42102518785E+01  0.43976267328E+01  0.12700000000E+01 0.  1.
         25    2    1    2    0    0  0.00000000000E+00  0.00000000000E+00  0.90318984955E+03  0.91179861691E+03  0.12499925386E+03 0.  0.
    9000005    1    3    3    0    0  0.44895704516E+02 -0.43455413554E+02  0.44358393890E+03  0.44796395849E+03  0.10000000000E+01 0.  0.
    9000005    1    3    3    0    0 -0.44895704516E+02  0.43455413554E+02  0.45960591065E+03  0.46383465842E+03  0.10000000000E+01 0.  0.
<mgrwt>
<rscale>  0 0.12499925E+03</rscale>
<asrwt>0</asrwt>
<pdfrwt beam="1">  1        4 0.13961434E+00 0.12499925E+03</pdfrwt>
<pdfrwt beam="2">  1       -4 0.66221360E-03 0.12499925E+03</pdfrwt>
<totfact> 0.33712735E+03</totfact>
</mgrwt>
</event>
<event>
 5    1  0.3312904E-002  0.1249998E+03  0.7818608E-02  0.1235070E+00
         -4   -1    0    0    0  501 -0.00000000000E+00  0.00000000000E+00  0.12272690725E+03  0.12273347816E+03  0.12700000000E+01 0.  1.
          4   -1    0    0  501    0  0.00000000000E+00 -0.00000000000E+00 -0.31808583139E+02  0.31833926263E+02  0.12700000000E+01 0.  1.
         25    2    1    2    0    0  0.00000000000E+00  0.00000000000E+00  0.90918324107E+02  0.15456740443E+03  0.12499976341E+03 0.  0.
    9000005    1    3    3    0    0  0.23112174661E+02 -0.48865141687E+02  0.66849461057E+01  0.54476262666E+02  0.10000000000E+01 0.  0.
    9000005    1    3    3    0    0 -0.23112174661E+02  0.48865141687E+02  0.84233378001E+02  0.10009114176E+03  0.10000000000E+01 0.  0.
<mgrwt>
<rscale>  0 0.12499976E+03</rscale>
<asrwt>0</asrwt>
<pdfrwt beam="2">  1        4 0.48960830E-02 0.12499976E+03</pdfrwt>
<pdfrwt beam="1">  1       -4 0.18883518E-01 0.12499976E+03</pdfrwt>
<totfact> 0.98401013E+03</totfact>
</mgrwt>
</event>
<event>
 5    1  0.3312904E-002  0.1250013E+03  0.7818608E-02  0.1235067E+00
          4   -1    0    0  501    0  0.00000000000E+00  0.00000000000E+00  0.70033838185E+03  0.70033953337E+03  0.12700000000E+01 0. -1.
         -4   -1    0    0    0  501 -0.00000000000E+00 -0.00000000000E+00 -0.55043117793E+01  0.56489245139E+01  0.12700000000E+01 0. -1.
         25    2    1    2    0    0  0.00000000000E+00  0.00000000000E+00  0.69483407007E+03  0.70598845788E+03  0.12500127090E+03 0.  0.
    9000005    1    3    3    0    0 -0.32330557906E+02 -0.16278001189E+02  0.59704039095E+02  0.69827004673E+02  0.10000000000E+01 0.  0.
    9000005    1    3    3    0    0  0.32330557906E+02  0.16278001189E+02  0.63513003098E+03  0.63616145321E+03  0.10000000000E+01 0.  0.
<mgrwt>
<rscale>  0 0.12500127E+03</rscale>
<asrwt>0</asrwt>
<pdfrwt beam="1">  1        4 0.10775561E+00 0.12500127E+03</pdfrwt>
<pdfrwt beam="2">  1       -4 0.85802962E-03 0.12500127E+03</pdfrwt>
<totfact> 0.42771254E+03</totfact>
</mgrwt>
</event>
<event>
 5    1  0.3312904E-002  0.1250025E+03  0.7818608E-02  0.1235065E+00
          4   -1    0    0  501    0  0.00000000000E+00  0.00000000000E+00  0.12038099367E+03  0.12038769263E+03  0.12700000000E+01 0.  1.
         -4   -1    0    0    0  501 -0.00000000000E+00 -0.00000000000E+00 -0.32430348863E+02  0.32455206475E+02  0.12700000000E+01 0.  1.
         25    2    1    2    0    0  0.00000000000E+00  0.00000000000E+00  0.87950644808E+02  0.15284289911E+03  0.12500254352E+03 0.  0.
    9000005    1    3    3    0    0  0.24574455148E+02  0.22595552327E+02  0.10857080460E+03  0.11359173580E+03  0.10000000000E+01 0.  0.
    9000005    1    3    3    0    0 -0.24574455148E+02 -0.22595552327E+02 -0.20620159794E+02  0.39251163304E+02  0.10000000000E+01 0.  0.
<mgrwt>
<rscale>  0 0.12500254E+03</rscale>
<asrwt>0</asrwt>
<pdfrwt beam="1">  1        4 0.18522580E-01 0.12500254E+03</pdfrwt>
<pdfrwt beam="2">  1       -4 0.49917119E-02 0.12500254E+03</pdfrwt>
<totfact> 0.98734348E+03</totfact>
</mgrwt>
</event>
<event>
 5    1  0.3312904E-002  0.1249956E+03  0.7818608E-02  0.1235076E+00
          4   -1    0    0  501    0  0.00000000000E+00  0.00000000000E+00  0.78309005136E+02  0.78319302764E+02  0.12700000000E+01 0. -1.
         -4   -1    0    0    0  501 -0.00000000000E+00 -0.00000000000E+00 -0.49857343803E+02  0.49873516329E+02  0.12700000000E+01 0. -1.
         25    2    1    2    0    0  0.00000000000E+00  0.00000000000E+00  0.28451661334E+02  0.12819281909E+03  0.12499560726E+03 0.  0.
    9000005    1    3    3    0    0  0.58745626630E+02  0.15314981990E+02  0.29416105083E+02  0.67467803875E+02  0.10000000000E+01 0.  0.
    9000005    1    3    3    0    0 -0.58745626630E+02 -0.15314981990E+02 -0.96444374980E+00  0.60725015218E+02  0.10000000000E+01 0.  0.
<mgrwt>
<rscale>  0 0.12499561E+03</rscale>
<asrwt>0</asrwt>
<pdfrwt beam="1">  1        4 0.12049575E-01 0.12499561E+03</pdfrwt>
<pdfrwt beam="2">  1       -4 0.76723967E-02 0.12499561E+03</pdfrwt>
<totfact> 0.10384355E+04</totfact>
</mgrwt>
</event>
<event>
 5    1  0.3312904E-002  0.1249996E+03  0.7818608E-02  0.1235070E+00
          4   -1    0    0  501    0  0.00000000000E+00  0.00000000000E+00  0.29263466083E+03  0.29263741665E+03  0.12700000000E+01 0.  1.
         -4   -1    0    0    0  501 -0.00000000000E+00 -0.00000000000E+00 -0.13315438438E+02  0.13375866357E+02  0.12700000000E+01 0.  1.
         25    2    1    2    0    0  0.00000000000E+00  0.00000000000E+00  0.27931922240E+03  0.30601328300E+03  0.12499960550E+03 0.  0.
    9000005    1    3    3    0    0  0.62345633798E+02  0.33889784541E+01  0.13329351917E+03  0.14719587454E+03  0.10000000000E+01 0.  0.
    9000005    1    3    3    0    0 -0.62345633798E+02 -0.33889784541E+01  0.14602570322E+03  0.15881740846E+03  0.10000000000E+01 0.  0.
<mgrwt>
<rscale>  0 0.12499961E+03</rscale>
<asrwt>0</asrwt>
<pdfrwt beam="1">  1        4 0.45025573E-01 0.12499961E+03</pdfrwt>
<pdfrwt beam="2">  1       -4 0.20533895E-02 0.12499961E+03</pdfrwt>
<totfact> 0.74851339E+03</totfact>
</mgrwt>
</event>
<event>
 5    1  0.3312904E-002  0.1250001E+03  0.7818608E-02  0.1235069E+00
          4   -1    0    0  501    0  0.00000000000E+00  0.00000000000E+00  0.85965610901E+02  0.85974991466E+02  0.12700000000E+01 0.  1.
         -4   -1    0    0    0  501 -0.00000000000E+00 -0.00000000000E+00 -0.45419027176E+02  0.45436779481E+02  0.12700000000E+01 0.  1.
         25    2    1    2    0    0  0.00000000000E+00  0.00000000000E+00  0.40546583726E+02  0.13141177095E+03  0.12500011237E+03 0.  0.
    9000005    1    3    3    0    0  0.17524456336E+02 -0.57230110921E+02  0.39163391666E+02  0.71534351278E+02  0.10000000000E+01 0.  0.
    9000005    1    3    3    0    0 -0.17524456336E+02  0.57230110921E+02  0.13831920595E+01  0.59877419669E+02  0.10000000000E+01 0.  0.
<mgrwt>
<rscale>  0 0.12500011E+03</rscale>
<asrwt>0</asrwt>
<pdfrwt beam="1">  1        4 0.13227566E-01 0.12500011E+03</pdfrwt>
<pdfrwt beam="2">  1       -4 0.69896298E-02 0.12500011E+03</pdfrwt>
<totfact> 0.10314244E+04</totfact>
</mgrwt>
</event>
<event>
 5    1  0.3312904E-002  0.1250010E+03  0.7818608E-02  0.1235068E+00
          4   -1    0    0  501    0  0.00000000000E+00  0.00000000000E+00  0.47200462034E+02  0.47217544581E+02  0.12700000000E+01 0. -1.
         -4   -1    0    0    0  501 -0.00000000000E+00 -0.00000000000E+00 -0.82723157560E+02  0.82732905768E+02  0.12700000000E+01 0. -1.
         25    2    1    2    0    0  0.00000000000E+00  0.00000000000E+00 -0.35522695526E+02  0.12995045035E+03  0.12500103059E+03 0.  0.
    9000005    1    3    3    0    0  0.50673373921E+01  0.61002260970E+02 -0.46789350046E+01  0.61399073157E+02  0.10000000000E+01 0.  0.
    9000005    1    3    3    0    0 -0.50673373921E+01 -0.61002260970E+02 -0.30843760522E+02  0.68551377192E+02  0.10000000000E+01 0.  0.
<mgrwt>
<rscale>  0 0.12500103E+03</rscale>
<asrwt>0</asrwt>
<pdfrwt beam="1">  1        4 0.72636735E-02 0.12500103E+03</pdfrwt>
<pdfrwt beam="2">  1       -4 0.12728703E-01 0.12500103E+03</pdfrwt>
<totfact> 0.10345327E+04</totfact>
</mgrwt>
</event>
<event>
 5    1  0.3312904E-002  0.1250031E+03  0.7818608E-02  0.1235064E+00
         -4   -1    0    0    0  501 -0.00000000000E+00  0.00000000000E+00  0.19161693946E+03  0.19162114807E+03  0.12700000000E+01 0.  1.
          4   -1    0    0  501    0  0.00000000000E+00 -0.00000000000E+00 -0.20362508920E+02  0.20402075128E+02  0.12700000000E+01 0.  1.
         25    2    1    2    0    0  0.00000000000E+00  0.00000000000E+00  0.17125443054E+03  0.21202322320E+03  0.12500306875E+03 0.  0.
    9000005    1    3    3    0    0 -0.21169576962E+02 -0.27159670168E+02  0.17408146788E+03  0.17745747697E+03  0.10000000000E+01 0.  0.
    9000005    1    3    3    0    0  0.21169576962E+02  0.27159670168E+02 -0.28270373409E+01  0.34565746231E+02  0.10000000000E+01 0.  0.
<mgrwt>
<rscale>  0 0.12500307E+03</rscale>
<asrwt>0</asrwt>
<pdfrwt beam="2">  1        4 0.31360610E-02 0.12500307E+03</pdfrwt>
<pdfrwt beam="1">  1       -4 0.29482896E-01 0.12500307E+03</pdfrwt>
<totfact> 0.88140478E+03</totfact>
</mgrwt>
</event>
<event>
 5    1  0.3312904E-002  0.1250007E+03  0.7818608E-02  0.1235068E+00
         -4   -1    0    0    0  501 -0.00000000000E+00  0.00000000000E+00  0.79241497727E+01  0.80252756726E+01  0.12700000000E+01 0. -1.
          4   -1    0    0  501    0  0.00000000000E+00 -0.00000000000E+00 -0.48973327392E+03  0.48973492063E+03  0.12700000000E+01 0. -1.
         25    2    1    2    0    0  0.00000000000E+00  0.00000000000E+00 -0.48180912414E+03  0.49776019630E+03  0.12500072364E+03 0.  0.
    9000005    1    3    3    0    0 -0.49355610168E+02 -0.11099578606E+02 -0.94804884839E+02  0.10746228682E+03  0.10000000000E+01 0.  0.
    9000005    1    3    3    0    0  0.49355610168E+02  0.11099578606E+02 -0.38700423931E+03  0.39029790948E+03  0.10000000000E+01 0.  0.
<mgrwt>
<rscale>  0 0.12500072E+03</rscale>
<asrwt>0</asrwt>
<pdfrwt beam="2">  1        4 0.75351463E-01 0.12500072E+03</pdfrwt>
<pdfrwt beam="1">  1       -4 0.12270059E-02 0.12500072E+03</pdfrwt>
<totfact> 0.56037686E+03</totfact>
</mgrwt>
</event>
<event>
 5    1  0.3312904E-002  0.1249967E+03  0.7818608E-02  0.1235074E+00
          4   -1    0    0  501    0  0.00000000000E+00  0.00000000000E+00  0.12604025272E+03  0.12604665091E+03  0.12700000000E+01 0. -1.
         -4   -1    0    0    0  501 -0.00000000000E+00 -0.00000000000E+00 -0.30970229963E+02  0.30996258548E+02  0.12700000000E+01 0. -1.
         25    2    1    2    0    0  0.00000000000E+00  0.00000000000E+00  0.95070022758E+02  0.15704290946E+03  0.12499666469E+03 0.  0.
    9000005    1    3    3    0    0  0.43533931524E+02  0.48193688922E+01 -0.84634944222E+01  0.44621298146E+02  0.10000000000E+01 0.  0.
    9000005    1    3    3    0    0 -0.43533931524E+02 -0.48193688922E+01  0.10353351718E+03  0.11242161131E+03  0.10000000000E+01 0.  0.
<mgrwt>
<rscale>  0 0.12499666E+03</rscale>
<asrwt>0</asrwt>
<pdfrwt beam="1">  1        4 0.19393302E-01 0.12499666E+03</pdfrwt>
<pdfrwt beam="2">  1       -4 0.47671452E-02 0.12499666E+03</pdfrwt>
<totfact> 0.97923280E+03</totfact>
</mgrwt>
</event>
<event>
 5    1  0.3312904E-002  0.1250012E+03  0.7818608E-02  0.1235067E+00
          4   -1    0    0  501    0  0.00000000000E+00  0.00000000000E+00  0.12838812854E+02  0.12901473385E+02  0.12700000000E+01 0.  1.
         -4   -1    0    0    0  501 -0.00000000000E+00 -0.00000000000E+00 -0.30345425442E+03  0.30345691198E+03  0.12700000000E+01 0.  1.
         25    2    1    2    0    0  0.00000000000E+00  0.00000000000E+00 -0.29061544157E+03  0.31635838536E+03  0.12500117244E+03 0.  0.
    9000005    1    3    3    0    0 -0.24153886741E+02  0.53629532233E+02 -0.91872374850E+02  0.10909202644E+03  0.10000000000E+01 0.  0.
    9000005    1    3    3    0    0  0.24153886741E+02 -0.53629532233E+02 -0.19874306672E+03  0.20726635892E+03  0.10000000000E+01 0.  0.
<mgrwt>
<rscale>  0 0.12500117E+03</rscale>
<asrwt>0</asrwt>
<pdfrwt beam="1">  1        4 0.19802267E-02 0.12500117E+03</pdfrwt>
<pdfrwt beam="2">  1       -4 0.46690289E-01 0.12500117E+03</pdfrwt>
<totfact> 0.73589440E+03</totfact>
</mgrwt>
</event>
<event>
 5    1  0.3312904E-002  0.1250005E+03  0.7818608E-02  0.1235069E+00
         -4   -1    0    0    0  501 -0.00000000000E+00  0.00000000000E+00  0.90767489221E+02  0.90776373575E+02  0.12700000000E+01 0. -1.
          4   -1    0    0  501    0  0.00000000000E+00 -0.00000000000E+00 -0.43015751979E+02  0.43034495679E+02  0.12700000000E+01 0. -1.
         25    2    1    2    0    0  0.00000000000E+00  0.00000000000E+00  0.47751737241E+02  0.13381086925E+03  0.12500048128E+03 0.  0.
    9000005    1    3    3    0    0 -0.25274397660E+02  0.16181510878E+01 -0.37281092819E+02  0.45080965737E+02  0.10000000000E+01 0.  0.
    9000005    1    3    3    0    0  0.25274397660E+02 -0.16181510878E+01  0.85032830060E+02  0.88729903517E+02  0.10000000000E+01 0.  0.
<mgrwt>
<rscale>  0 0.12500048E+03</rscale>
<asrwt>0</asrwt>
<pdfrwt beam="2">  1        4 0.66199332E-02 0.12500048E+03</pdfrwt>
<pdfrwt beam="1">  1       -4 0.13966354E-01 0.12500048E+03</pdfrwt>
<totfact> 0.10263084E+04</totfact>
</mgrwt>
</event>
<event>
 5    1  0.3312904E-002  0.1249997E+03  0.7818608E-02  0.1235070E+00
         -4   -1    0    0    0  501 -0.00000000000E+00  0.00000000000E+00  0.16758985122E+03  0.16759466320E+03  0.12700000000E+01 0.  1.
          4   -1    0    0  501    0  0.00000000000E+00 -0.00000000000E+00 -0.23285837071E+02  0.23320443994E+02  0.12700000000E+01 0.  1.
         25    2    1    2    0    0  0.00000000000E+00  0.00000000000E+00  0.14430401415E+03  0.19091510719E+03  0.12499971862E+03 0.  0.
    9000005    1    3    3    0    0 -0.40654744828E+02  0.33105817874E+02  0.12409066694E+03  0.13471561556E+03  0.10000000000E+01 0.  0.
    9000005    1    3    3    0    0  0.40654744828E+02 -0.33105817874E+02  0.20213347209E+02  0.56199491630E+02  0.10000000000E+01 0.  0.
<mgrwt>
<rscale>  0 0.12499972E+03</rscale>
<asrwt>0</asrwt>
<pdfrwt beam="2">  1        4 0.35854687E-02 0.12499972E+03</pdfrwt>
<pdfrwt beam="1">  1       -4 0.25786086E-01 0.12499972E+03</pdfrwt>
<totfact> 0.91688910E+03</totfact>
</mgrwt>
</event>
<event>
 5    1  0.3312904E-002  0.1249989E+03  0.7818608E-02  0.1235071E+00
          4   -1    0    0  501    0  0.00000000000E+00  0.00000000000E+00  0.10968178632E+03  0.10968913871E+03  0.12700000000E+01 0. -1.
         -4   -1    0    0    0  501 -0.00000000000E+00 -0.00000000000E+00 -0.35593893993E+02  0.35616543763E+02  0.12700000000E+01 0. -1.
         25    2    1    2    0    0  0.00000000000E+00  0.00000000000E+00  0.74087892330E+02  0.14530568247E+03  0.12499890227E+03 0.  0.
    9000005    1    3    3    0    0  0.92403109766E+01  0.39590385995E+02  0.92213452681E+02  0.10078245316E+03  0.10000000000E+01 0.  0.
    9000005    1    3    3    0    0 -0.92403109766E+01 -0.39590385995E+02 -0.18125560352E+02  0.44523229310E+02  0.10000000000E+01 0.  0.
<mgrwt>
<rscale>  0 0.12499890E+03</rscale>
<asrwt>0</asrwt>
<pdfrwt beam="1">  1        4 0.16876429E-01 0.12499890E+03</pdfrwt>
<pdfrwt beam="2">  1       -4 0.54782915E-02 0.12499890E+03</pdfrwt>
<totfact> 0.10025029E+04</totfact>
</mgrwt>
</event>
<event>
 5    1  0.3312904E-002  0.1249989E+03  0.7818608E-02  0.1235071E+00
         -4   -1    0    0    0  501 -0.00000000000E+00  0.00000000000E+00  0.17027251603E+03  0.17027725219E+03  0.12700000000E+01 0.  1.
          4   -1    0    0  501    0  0.00000000000E+00 -0.00000000000E+00 -0.22918117738E+02  0.22953279083E+02  0.12700000000E+01 0.  1.
         25    2    1    2    0    0  0.00000000000E+00  0.00000000000E+00  0.14735439829E+03  0.19323053128E+03  0.12499887808E+03 0.  0.
    9000005    1    3    3    0    0  0.38108856129E+02  0.14527283115E+02  0.48358369244E+00  0.40799028461E+02  0.10000000000E+01 0.  0.
    9000005    1    3    3    0    0 -0.38108856129E+02 -0.14527283115E+02  0.14687081460E+03  0.15243150282E+03  0.10000000000E+01 0.  0.
<mgrwt>
<rscale>  0 0.12499888E+03</rscale>
<asrwt>0</asrwt>
<pdfrwt beam="2">  1        4 0.35289334E-02 0.12499888E+03</pdfrwt>
<pdfrwt beam="1">  1       -4 0.26198840E-01 0.12499888E+03</pdfrwt>
<totfact> 0.91290525E+03</totfact>
</mgrwt>
</event>
<event>
 4    1  0.3312904E-002  0.1250750E+03  0.7818608E-02  0.1234952E+00
         -4   -1    0    0    0  501 -0.00000000000E+00  0.00000000000E+00  0.80685878553E+01  0.81679256839E+01  0.12700000000E+01 0. -1.
          4   -1    0    0  501    0  0.00000000000E+00 -0.00000000000E+00 -0.48164589559E+03  0.48164756995E+03  0.12700000000E+01 0. -1.
    9000005    1    1    2    0    0  0.34077914935E+02  0.49235234086E+02 -0.30733696805E+03  0.31311726956E+03  0.10000000000E+01 0.  0.
    9000005    1    1    2    0    0 -0.34077914935E+02 -0.49235234086E+02 -0.16624033968E+03  0.17669822608E+03  0.10000000000E+01 0.  0.
<mgrwt>
<rscale>  0 0.12507499E+03</rscale>
<asrwt>0</asrwt>
<pdfrwt beam="2">  1        4 0.74107116E-01 0.12507499E+03</pdfrwt>
<pdfrwt beam="1">  1       -4 0.12490918E-02 0.12507499E+03</pdfrwt>
<totfact> 0.56569955E+03</totfact>
</mgrwt>
</event>
<event>
 5    1  0.3312904E-002  0.1250003E+03  0.7818608E-02  0.1235069E+00
         -4   -1    0    0    0  501 -0.00000000000E+00  0.00000000000E+00  0.60049603016E+02  0.60063031246E+02  0.12700000000E+01 0. -1.
          4   -1    0    0  501    0  0.00000000000E+00 -0.00000000000E+00 -0.65023822654E+02  0.65036223849E+02  0.12700000000E+01 0. -1.
         25    2    1    2    0    0  0.00000000000E+00  0.00000000000E+00 -0.49742196375E+01  0.12509925509E+03  0.12500032306E+03 0.  0.
    9000005    1    3    3    0    0 -0.48467855381E+02 -0.37947382712E+02  0.82979368785E+01  0.62120790533E+02  0.10000000000E+01 0.  0.
    9000005    1    3    3    0    0  0.48467855381E+02  0.37947382712E+02 -0.13272156516E+02  0.62978464562E+02  0.10000000000E+01 0.  0.
<mgrwt>
<rscale>  0 0.12500032E+03</rscale>
<asrwt>0</asrwt>
<pdfrwt beam="2">  1        4 0.10005652E-01 0.12500032E+03</pdfrwt>
<pdfrwt beam="1">  1       -4 0.92403874E-02 0.12500032E+03</pdfrwt>
<totfact> 0.10450631E+04</totfact>
</mgrwt>
</event>
<event>
 5    1  0.3312904E-002  0.1250009E+03  0.7818608E-02  0.1235068E+00
          4   -1    0    0  501    0  0.00000000000E+00  0.00000000000E+00  0.16913917964E+02  0.16961530618E+02  0.12700000000E+01 0. -1.
         -4   -1    0    0    0  501 -0.00000000000E+00 -0.00000000000E+00 -0.23057820610E+03  0.23058170358E+03  0.12700000000E+01 0. -1.
         25    2    1    2    0    0  0.00000000000E+00  0.00000000000E+00 -0.21366428813E+03  0.24754323420E+03  0.12500089910E+03 0.  0.
    9000005    1    3    3    0    0  0.38343242942E+02 -0.29521694039E+02 -0.28525827414E+02  0.56182359579E+02  0.10000000000E+01 0.  0.
    9000005    1    3    3    0    0 -0.38343242942E+02  0.29521694039E+02 -0.18513846072E+03  0.19136087462E+03  0.10000000000E+01 0.  0.
<mgrwt>
<rscale>  0 0.12500090E+03</rscale>
<asrwt>0</asrwt>
<pdfrwt beam="1">  1        4 0.26060729E-02 0.12500090E+03</pdfrwt>
<pdfrwt beam="2">  1       -4 0.35477500E-01 0.12500090E+03</pdfrwt>
<totfact> 0.82684953E+03</totfact>
</mgrwt>
</event>
<event>
 5    1  0.3312904E-002  0.1250019E+03  0.7818608E-02  0.1235066E+00
          4   -1    0    0  501    0  0.00000000000E+00  0.00000000000E+00  0.72008044748E+02  0.72019243320E+02  0.12700000000E+01 0.  1.
         -4   -1    0    0    0  501 -0.00000000000E+00 -0.00000000000E+00 -0.54226189595E+02  0.54241059522E+02  0.12700000000E+01 0.  1.
         25    2    1    2    0    0  0.00000000000E+00  0.00000000000E+00  0.17781855153E+02  0.12626030284E+03  0.12500187879E+03 0.  0.
    9000005    1    3    3    0    0  0.91004915120E+00 -0.32468803679E+02 -0.45034896834E+02  0.55535514175E+02  0.10000000000E+01 0.  0.
    9000005    1    3    3    0    0 -0.91004915120E+00  0.32468803679E+02  0.62816751987E+02  0.70724788667E+02  0.10000000000E+01 0.  0.
<mgrwt>
<rscale>  0 0.12500188E+03</rscale>
<asrwt>0</asrwt>
<pdfrwt beam="1">  1        4 0.11080166E-01 0.12500188E+03</pdfrwt>
<pdfrwt beam="2">  1       -4 0.83444960E-02 0.12500188E+03</pdfrwt>
<totfact> 0.10424819E+04</totfact>
</mgrwt>
</event>
<event>
 5    1  0.3312904E-002  0.1249991E+03  0.7818608E-02  0.1235071E+00
          4   -1    0    0  501    0  0.00000000000E+00  0.00000000000E+00  0.16784727829E+01  0.21047971120E+01  0.12700000000E+01 0.  1.
         -4   -1    0    0    0  501 -0.00000000000E+00 -0.00000000000E+00 -0.20645549910E+04  0.20645553816E+04  0.12700000000E+01 0.  1.
         25    2    1    2    0    0  0.00000000000E+00  0.00000000000E+00 -0.20628765182E+04  0.20666601787E+04  0.12499905972E+03 0.  0.
    9000005    1    3    3    0    0  0.16012311022E+01 -0.26508490689E+02 -0.19666982907E+04  0.19668778383E+04  0.10000000000E+01 0.  0.
    9000005    1    3    3    0    0 -0.16012311022E+01  0.26508490689E+02 -0.96178227483E+02  0.99782340429E+02  0.10000000000E+01 0.  0.
<mgrwt>
<rscale>  0 0.12499906E+03</rscale>
<asrwt>0</asrwt>
<pdfrwt beam="1">  1        4 0.29105246E-03 0.12499906E+03</pdfrwt>
<pdfrwt beam="2">  1       -4 0.31765487E+00 0.12499906E+03</pdfrwt>
<totfact> 0.90164521E+02</totfact>
</mgrwt>
</event>
<event>
 5    1  0.3312904E-002  0.1250008E+03  0.7818608E-02  0.1235068E+00
         -4   -1    0    0    0  501 -0.00000000000E+00  0.00000000000E+00  0.50558608615E+02  0.50574556895E+02  0.12700000000E+01 0. -1.
          4   -1    0    0  501    0  0.00000000000E+00 -0.00000000000E+00 -0.77229395101E+02  0.77239836662E+02  0.12700000000E+01 0. -1.
         25    2    1    2    0    0  0.00000000000E+00  0.00000000000E+00 -0.26670786486E+02  0.12781439356E+03  0.12500075339E+03 0.  0.
    9000005    1    3    3    0    0 -0.29835722110E+02 -0.25868566619E+02  0.36189774688E+02  0.53572874150E+02  0.10000000000E+01 0.  0.
    9000005    1    3    3    0    0  0.29835722110E+02  0.25868566619E+02 -0.62860561174E+02  0.74241519407E+02  0.10000000000E+01 0.  0.
<mgrwt>
<rscale>  0 0.12500075E+03</rscale>
<asrwt>0</asrwt>
<pdfrwt beam="2">  1        4 0.11883475E-01 0.12500075E+03</pdfrwt>
<pdfrwt beam="1">  1       -4 0.77802775E-02 0.12500075E+03</pdfrwt>
<totfact> 0.10391321E+04</totfact>
</mgrwt>
</event>
<event>
 5    1  0.3312904E-002  0.1249994E+03  0.7818608E-02  0.1235070E+00
         -4   -1    0    0    0  501 -0.00000000000E+00  0.00000000000E+00  0.51435219684E+03  0.51435376473E+03  0.12700000000E+01 0.  1.
          4   -1    0    0  501    0  0.00000000000E+00 -0.00000000000E+00 -0.75397490802E+01  0.76459607763E+01  0.12700000000E+01 0.  1.
         25    2    1    2    0    0  0.00000000000E+00  0.00000000000E+00  0.50681244776E+03  0.52199972550E+03  0.12499942490E+03 0.  0.
    9000005    1    3    3    0    0  0.23066363848E+02  0.57934018628E+02  0.27052606070E+03  0.27762160791E+03  0.10000000000E+01 0.  0.
    9000005    1    3    3    0    0 -0.23066363848E+02 -0.57934018628E+02  0.23628638705E+03  0.24437811760E+03  0.10000000000E+01 0.  0.
<mgrwt>
<rscale>  0 0.12499942E+03</rscale>
<asrwt>0</asrwt>
<pdfrwt beam="2">  1        4 0.11682521E-02 0.12499942E+03</pdfrwt>
<pdfrwt beam="1">  1       -4 0.79139400E-01 0.12499942E+03</pdfrwt>
<totfact> 0.54197649E+03</totfact>
</mgrwt>
</event>
<event>
 5    1  0.3312904E-002  0.1249948E+03  0.7818608E-02  0.1235077E+00
         -4   -1    0    0    0  501 -0.00000000000E+00  0.00000000000E+00  0.22354256594E+02  0.22390303434E+02  0.12700000000E+01 0.  1.
          4   -1    0    0  501    0  0.00000000000E+00 -0.00000000000E+00 -0.17454942074E+03  0.17455404086E+03  0.12700000000E+01 0.  1.
         25    2    1    2    0    0  0.00000000000E+00  0.00000000000E+00 -0.15219516414E+03  0.19694434429E+03  0.12499482693E+03 0.  0.
    9000005    1    3    3    0    0 -0.53337844246E+02 -0.18199817403E+02 -0.33562621533E+02  0.65601894382E+02  0.10000000000E+01 0.  0.
    9000005    1    3    3    0    0  0.53337844246E+02  0.18199817403E+02 -0.11863254261E+03  0.13134244991E+03  0.10000000000E+01 0.  0.
<mgrwt>
<rscale>  0 0.12499483E+03</rscale>
<asrwt>0</asrwt>
<pdfrwt beam="2">  1        4 0.26856884E-01 0.12499483E+03</pdfrwt>
<pdfrwt beam="1">  1       -4 0.34422447E-02 0.12499483E+03</pdfrwt>
<totfact> 0.90663362E+03</totfact>
</mgrwt>
</event>
<event>
 5    1  0.3312904E-002  0.1249976E+03  0.7818608E-02  0.1235073E+00
         -4   -1    0    0    0  501 -0.00000000000E+00  0.00000000000E+00  0.33029659155E+03  0.33029903313E+03  0.12700000000E+01 0. -1.
          4   -1    0    0  501    0  0.00000000000E+00 -0.00000000000E+00 -0.11789441017E+02  0.11857648143E+02  0.12700000000E+01 0. -1.
         25    2    1    2    0    0  0.00000000000E+00  0.00000000000E+00  0.31850715053E+03  0.34215668128E+03  0.12499755838E+03 0.  0.
    9000005    1    3    3    0    0 -0.17020756153E+02 -0.21200815820E+02  0.52349528149E+01  0.27705332743E+02  0.10000000000E+01 0.  0.
    9000005    1    3    3    0    0  0.17020756153E+02  0.21200815820E+02  0.31327219772E+03  0.31445134853E+03  0.10000000000E+01 0.  0.
<mgrwt>
<rscale>  0 0.12499756E+03</rscale>
<asrwt>0</asrwt>
<pdfrwt beam="2">  1        4 0.18191949E-02 0.12499756E+03</pdfrwt>
<pdfrwt beam="1">  1       -4 0.50820289E-01 0.12499756E+03</pdfrwt>
<totfact> 0.70599942E+03</totfact>
</mgrwt>
</event>
<event>
 5    1  0.3312904E-002  0.1249989E+03  0.7818608E-02  0.1235071E+00
          4   -1    0    0  501    0  0.00000000000E+00  0.00000000000E+00  0.32077313863E+02  0.32102444839E+02  0.12700000000E+01 0.  1.
         -4   -1    0    0    0  501 -0.00000000000E+00 -0.00000000000E+00 -0.12169786340E+03  0.12170448988E+03  0.12700000000E+01 0.  1.
         25    2    1    2    0    0  0.00000000000E+00  0.00000000000E+00 -0.89620549542E+02  0.15380693472E+03  0.12499892107E+03 0.  0.
    9000005    1    3    3    0    0 -0.58123046015E+02  0.12029720804E+02 -0.68865175971E+02  0.90919827992E+02  0.10000000000E+01 0.  0.
    9000005    1    3    3    0    0  0.58123046015E+02 -0.12029720804E+02 -0.20755373571E+02  0.62887106729E+02  0.10000000000E+01 0.  0.
<mgrwt>
<rscale>  0 0.12499892E+03</rscale>
<asrwt>0</asrwt>
<pdfrwt beam="1">  1        4 0.49374143E-02 0.12499892E+03</pdfrwt>
<pdfrwt beam="2">  1       -4 0.18725191E-01 0.12499892E+03</pdfrwt>
<totfact> 0.98552576E+03</totfact>
</mgrwt>
</event>
<event>
 5    1  0.3312904E-002  0.1249989E+03  0.7818608E-02  0.1235071E+00
          4   -1    0    0  501    0  0.00000000000E+00  0.00000000000E+00  0.13129666773E+01  0.18266859324E+01  0.12700000000E+01 0. -1.
         -4   -1    0    0    0  501 -0.00000000000E+00 -0.00000000000E+00 -0.24877748103E+04  0.24877751345E+04  0.12700000000E+01 0. -1.
         25    2    1    2    0    0  0.00000000000E+00  0.00000000000E+00 -0.24864618437E+04  0.24896018204E+04  0.12499889734E+03 0.  0.
    9000005    1    3    3    0    0 -0.32149595558E+02  0.49124458891E+02 -0.16696462541E+04  0.16706784319E+04  0.10000000000E+01 0.  0.
    9000005    1    3    3    0    0  0.32149595558E+02 -0.49124458891E+02 -0.81681558957E+03  0.81892338856E+03  0.10000000000E+01 0.  0.
<mgrwt>
<rscale>  0 0.12499890E+03</rscale>
<asrwt>0</asrwt>
<pdfrwt beam="1">  1        4 0.24153867E-03 0.12499890E+03</pdfrwt>
<pdfrwt beam="2">  1       -4 0.38277097E+00 0.12499890E+03</pdfrwt>
<totfact> 0.47518383E+02</totfact>
</mgrwt>
</event>
<event>
 5    1  0.3312904E-002  0.1250022E+03  0.7818608E-02  0.1235066E+00
         -4   -1    0    0    0  501 -0.00000000000E+00  0.00000000000E+00  0.51951940583E+01  0.53481717721E+01  0.12700000000E+01 0.  1.
          4   -1    0    0  501    0  0.00000000000E+00 -0.00000000000E+00 -0.74086018266E+03  0.74086127119E+03  0.12700000000E+01 0.  1.
         25    2    1    2    0    0  0.00000000000E+00  0.00000000000E+00 -0.73566498860E+03  0.74620944296E+03  0.12500222923E+03 0.  0.
    9000005    1    3    3    0    0 -0.15424024694E+02  0.32732890378E+02 -0.63674503300E+02  0.73244692782E+02  0.10000000000E+01 0.  0.
    9000005    1    3    3    0    0  0.15424024694E+02 -0.32732890378E+02 -0.67199048530E+03  0.67296475018E+03  0.10000000000E+01 0.  0.
<mgrwt>
<rscale>  0 0.12500223E+03</rscale>
<asrwt>0</asrwt>
<pdfrwt beam="2">  1        4 0.11399026E+00 0.12500223E+03</pdfrwt>
<pdfrwt beam="1">  1       -4 0.81111246E-03 0.12500223E+03</pdfrwt>
<totfact> 0.40754135E+03</totfact>
</mgrwt>
</event>
<event>
 5    1  0.3312904E-002  0.1249979E+03  0.7818608E-02  0.1235073E+00
          4   -1    0    0  501    0  0.00000000000E+00  0.00000000000E+00  0.19963224632E+03  0.19963628595E+03  0.12700000000E+01 0.  1.
         -4   -1    0    0    0  501 -0.00000000000E+00 -0.00000000000E+00 -0.19541724446E+02  0.19582949071E+02  0.12700000000E+01 0.  1.
         25    2    1    2    0    0  0.00000000000E+00  0.00000000000E+00  0.18009052187E+03  0.21921923502E+03  0.12499790773E+03 0.  0.
    9000005    1    3    3    0    0 -0.42892816557E+02  0.37806104335E+02  0.45815696232E+02  0.73274642670E+02  0.10000000000E+01 0.  0.
    9000005    1    3    3    0    0  0.42892816557E+02 -0.37806104335E+02  0.13427482564E+03  0.14594459235E+03  0.10000000000E+01 0.  0.
<mgrwt>
<rscale>  0 0.12499791E+03</rscale>
<asrwt>0</asrwt>
<pdfrwt beam="1">  1        4 0.30716135E-01 0.12499791E+03</pdfrwt>
<pdfrwt beam="2">  1       -4 0.30099011E-02 0.12499791E+03</pdfrwt>
<totfact> 0.86996112E+03</totfact>
</mgrwt>
</event>
<event>
 5    1  0.3312904E-002  0.1250031E+03  0.7818608E-02  0.1235064E+00
         -4   -1    0    0    0  501 -0.00000000000E+00  0.00000000000E+00  0.15285544527E+02  0.15338212786E+02  0.12700000000E+01 0.  1.
          4   -1    0    0  501    0  0.00000000000E+00 -0.00000000000E+00 -0.25507096178E+03  0.25507412343E+03  0.12700000000E+01 0.  1.
         25    2    1    2    0    0  0.00000000000E+00  0.00000000000E+00 -0.23978541725E+03  0.27041233622E+03  0.12500314096E+03 0.  0.
    9000005    1    3    3    0    0  0.49018781860E+02 -0.11933429590E+02 -0.19967504232E+03  0.20595234945E+03  0.10000000000E+01 0.  0.
    9000005    1    3    3    0    0 -0.49018781860E+02  0.11933429590E+02 -0.40110374930E+02  0.64459986766E+02  0.10000000000E+01 0.  0.
<mgrwt>
<rscale>  0 0.12500314E+03</rscale>
<asrwt>0</asrwt>
<pdfrwt beam="2">  1        4 0.39245978E-01 0.12500314E+03</pdfrwt>
<pdfrwt beam="1">  1       -4 0.23559170E-02 0.12500314E+03</pdfrwt>
<totfact> 0.79461134E+03</totfact>
</mgrwt>
</event>
<event>
 5    1  0.3312904E-002  0.1249928E+03  0.7818608E-02  0.1235081E+00
          4   -1    0    0  501    0  0.00000000000E+00  0.00000000000E+00  0.83545142025E+03  0.83545238553E+03  0.12700000000E+01 0.  1.
         -4   -1    0    0    0  501 -0.00000000000E+00 -0.00000000000E+00 -0.45878415722E+01  0.47603771165E+01  0.12700000000E+01 0.  1.
         25    2    1    2    0    0  0.00000000000E+00  0.00000000000E+00  0.83086357868E+03  0.84021276265E+03  0.12499280040E+03 0.  0.
    9000005    1    3    3    0    0  0.57536143500E+02  0.17242567315E+02  0.29956860961E+03  0.30553243003E+03  0.10000000000E+01 0.  0.
    9000005    1    3    3    0    0 -0.57536143500E+02 -0.17242567315E+02  0.53129496906E+03  0.53468033262E+03  0.10000000000E+01 0.  0.
<mgrwt>
<rscale>  0 0.12499280E+03</rscale>
<asrwt>0</asrwt>
<pdfrwt beam="1">  1        4 0.12854423E+00 0.12499280E+03</pdfrwt>
<pdfrwt beam="2">  1       -4 0.71916861E-03 0.12499280E+03</pdfrwt>
<totfact> 0.36536981E+03</totfact>
</mgrwt>
</event>
<event>
 5    1  0.3312904E-002  0.1249996E+03  0.7818608E-02  0.1235070E+00
          4   -1    0    0  501    0  0.00000000000E+00  0.00000000000E+00  0.35901341227E+02  0.35923797153E+02  0.12700000000E+01 0.  1.
         -4   -1    0    0    0  501 -0.00000000000E+00 -0.00000000000E+00 -0.10874424721E+03  0.10875166298E+03  0.12700000000E+01 0.  1.
         25    2    1    2    0    0  0.00000000000E+00  0.00000000000E+00 -0.72842905983E+02  0.14467546013E+03  0.12499959925E+03 0.  0.
    9000005    1    3    3    0    0  0.15456660661E+02  0.58522117254E+02 -0.54407071788E+02  0.81393341418E+02  0.10000000000E+01 0.  0.
    9000005    1    3    3    0    0 -0.15456660661E+02 -0.58522117254E+02 -0.18435834195E+02  0.63282118716E+02  0.10000000000E+01 0.  0.
<mgrwt>
<rscale>  0 0.12499960E+03</rscale>
<asrwt>0</asrwt>
<pdfrwt beam="1">  1        4 0.55255811E-02 0.12499960E+03</pdfrwt>
<pdfrwt beam="2">  1       -4 0.16732182E-01 0.12499960E+03</pdfrwt>
<totfact> 0.10037677E+04</totfact>
</mgrwt>
</event>
<event>
 5    1  0.3312904E-002  0.1249971E+03  0.7818608E-02  0.1235074E+00
         -4   -1    0    0    0  501 -0.00000000000E+00  0.00000000000E+00  0.10686801024E+02  0.10761998705E+02  0.12700000000E+01 0.  1.
          4   -1    0    0  501    0  0.00000000000E+00 -0.00000000000E+00 -0.36414621353E+03  0.36414842815E+03  0.12700000000E+01 0.  1.
         25    2    1    2    0    0  0.00000000000E+00  0.00000000000E+00 -0.35345941251E+03  0.37491042686E+03  0.12499708748E+03 0.  0.
    9000005    1    3    3    0    0  0.56317733400E+02 -0.10821296491E+00 -0.95504850644E+02  0.11087774935E+03  0.10000000000E+01 0.  0.
    9000005    1    3    3    0    0 -0.56317733400E+02  0.10821296491E+00 -0.25795456186E+03  0.26403267751E+03  0.10000000000E+01 0.  0.
<mgrwt>
<rscale>  0 0.12499709E+03</rscale>
<asrwt>0</asrwt>
<pdfrwt beam="2">  1        4 0.56028440E-01 0.12499709E+03</pdfrwt>
<pdfrwt beam="1">  1       -4 0.16500783E-02 0.12499709E+03</pdfrwt>
<totfact> 0.67072646E+03</totfact>
</mgrwt>
</event>
<event>
 5    1  0.3312904E-002  0.1249956E+03  0.7818608E-02  0.1235076E+00
         -4   -1    0    0    0  501 -0.00000000000E+00  0.00000000000E+00  0.13413542585E+03  0.13414143793E+03  0.12700000000E+01 0. -1.
          4   -1    0    0  501    0  0.00000000000E+00 -0.00000000000E+00 -0.29099118005E+02  0.29126818719E+02  0.12700000000E+01 0. -1.
         25    2    1    2    0    0  0.00000000000E+00  0.00000000000E+00  0.10503630785E+03  0.16326825664E+03  0.12499559057E+03 0.  0.
    9000005    1    3    3    0    0 -0.22014678779E+02  0.55257665694E+02  0.77538424098E+02  0.97730562831E+02  0.10000000000E+01 0.  0.
    9000005    1    3    3    0    0  0.22014678779E+02 -0.55257665694E+02  0.27497883749E+02  0.65537693813E+02  0.10000000000E+01 0.  0.
<mgrwt>
<rscale>  0 0.12499559E+03</rscale>
<asrwt>0</asrwt>
<pdfrwt beam="2">  1        4 0.44793807E-02 0.12499559E+03</pdfrwt>
<pdfrwt beam="1">  1       -4 0.20638812E-01 0.12499559E+03</pdfrwt>
<totfact> 0.96725949E+03</totfact>
</mgrwt>
</event>
<event>
 5    1  0.3312904E-002  0.1250031E+03  0.7818608E-02  0.1235064E+00
          4   -1    0    0  501    0  0.00000000000E+00  0.00000000000E+00  0.12418149120E+03  0.12418798515E+03  0.12700000000E+01 0. -1.
         -4   -1    0    0    0  501 -0.00000000000E+00 -0.00000000000E+00 -0.31437413912E+02  0.31463056009E+02  0.12700000000E+01 0. -1.
         25    2    1    2    0    0  0.00000000000E+00  0.00000000000E+00  0.92744077286E+02  0.15565104116E+03  0.12500313093E+03 0.  0.
    9000005    1    3    3    0    0  0.47988058718E+02  0.36454257564E+02  0.66971311277E+02  0.90099518357E+02  0.10000000000E+01 0.  0.
    9000005    1    3    3    0    0 -0.47988058718E+02 -0.36454257564E+02  0.25772766009E+02  0.65551522803E+02  0.10000000000E+01 0.  0.
<mgrwt>
<rscale>  0 0.12500313E+03</rscale>
<asrwt>0</asrwt>
<pdfrwt beam="1">  1        4 0.19107317E-01 0.12500313E+03</pdfrwt>
<pdfrwt beam="2">  1       -4 0.48389973E-02 0.12500313E+03</pdfrwt>
<totfact> 0.98180930E+03</totfact>
</mgrwt>
</event>
<event>
 5    1  0.3312904E-002  0.1249977E+03  0.7818608E-02  0.1235073E+00
         -4   -1    0    0    0  501 -0.00000000000E+00  0.00000000000E+00  0.12709863758E+02  0.12773156883E+02  0.12700000000E+01 0. -1.
          4   -1    0    0  501    0  0.00000000000E+00 -0.00000000000E+00 -0.30650088054E+03  0.30650351168E+03  0.12700000000E+01 0. -1.
         25    2    1    2    0    0  0.00000000000E+00  0.00000000000E+00 -0.29379101678E+03  0.31927666856E+03  0.12499771816E+03 0.  0.
    9000005    1    3    3    0    0  0.56616474550E+02 -0.12651606263E+02 -0.20623020646E+03  0.21423675312E+03  0.10000000000E+01 0.  0.
    9000005    1    3    3    0    0 -0.56616474550E+02  0.12651606263E+02 -0.87560810318E+02  0.10503991544E+03  0.10000000000E+01 0.  0.
<mgrwt>
<rscale>  0 0.12499772E+03</rscale>
<asrwt>0</asrwt>
<pdfrwt beam="2">  1        4 0.47159047E-01 0.12499772E+03</pdfrwt>
<pdfrwt beam="1">  1       -4 0.19604350E-02 0.12499772E+03</pdfrwt>
<totfact> 0.73245946E+03</totfact>
</mgrwt>
</event>
<event>
 5    1  0.3312904E-002  0.1249996E+03  0.7818608E-02  0.1235070E+00
         -4   -1    0    0    0  501 -0.00000000000E+00  0.00000000000E+00  0.97249556995E+01  0.98075309511E+01  0.12700000000E+01 0.  1.
          4   -1    0    0  501    0  0.00000000000E+00 -0.00000000000E+00 -0.39988853421E+03  0.39989055090E+03  0.12700000000E+01 0.  1.
         25    2    1    2    0    0  0.00000000000E+00  0.00000000000E+00 -0.39016357852E+03  0.40969808185E+03  0.12499960108E+03 0.  0.
    9000005    1    3    3    0    0 -0.55691517943E+02 -0.14567957726E+02 -0.27479237040E+03  0.28075900234E+03  0.10000000000E+01 0.  0.
    9000005    1    3    3    0    0  0.55691517943E+02  0.14567957726E+02 -0.11537120811E+03  0.12893907951E+03  0.10000000000E+01 0.  0.
<mgrwt>
<rscale>  0 0.12499960E+03</rscale>
<asrwt>0</asrwt>
<pdfrwt beam="2">  1        4 0.61527807E-01 0.12499960E+03</pdfrwt>
<pdfrwt beam="1">  1       -4 0.15026544E-02 0.12499960E+03</pdfrwt>
<totfact> 0.63620935E+03</totfact>
</mgrwt>
</event>
<event>
 5    1  0.3312904E-002  0.1249855E+03  0.7818608E-02  0.1235092E+00
         -4   -1    0    0    0  501 -0.00000000000E+00  0.00000000000E+00  0.17869362972E+03  0.17869814269E+03  0.12700000000E+01 0.  1.
          4   -1    0    0  501    0  0.00000000000E+00 -0.00000000000E+00 -0.21831733597E+02  0.21868641747E+02  0.12700000000E+01 0.  1.
         25    2    1    2    0    0  0.00000000000E+00  0.00000000000E+00  0.15686189612E+03  0.20056678444E+03  0.12498552142E+03 0.  0.
    9000005    1    3    3    0    0 -0.46080302993E+02 -0.42158274941E+02  0.75373262761E+02  0.97891997677E+02  0.10000000000E+01 0.  0.
    9000005    1    3    3    0    0  0.46080302993E+02  0.42158274941E+02  0.81488633362E+02  0.10267478676E+03  0.10000000000E+01 0.  0.
<mgrwt>
<rscale>  0 0.12498552E+03</rscale>
<asrwt>0</asrwt>
<pdfrwt beam="2">  1        4 0.33619146E-02 0.12498552E+03</pdfrwt>
<pdfrwt beam="1">  1       -4 0.27494513E-01 0.12498552E+03</pdfrwt>
<totfact> 0.90069179E+03</totfact>
</mgrwt>
</event>
<event>
 5    1  0.3312904E-002  0.1249905E+03  0.7818608E-02  0.1235084E+00
         -4   -1    0    0    0  501 -0.00000000000E+00  0.00000000000E+00  0.86408778286E+02  0.86418110746E+02  0.12700000000E+01 0.  1.
          4   -1    0    0  501    0  0.00000000000E+00 -0.00000000000E+00 -0.45179055826E+02  0.45196902386E+02  0.12700000000E+01 0.  1.
         25    2    1    2    0    0  0.00000000000E+00  0.00000000000E+00  0.41229722461E+02  0.13161501313E+03  0.12499048631E+03 0.  0.
    9000005    1    3    3    0    0 -0.37632296096E+01  0.62326945465E+02  0.23160725090E+02  0.66605023945E+02  0.10000000000E+01 0.  0.
    9000005    1    3    3    0    0  0.37632296096E+01 -0.62326945465E+02  0.18068997370E+02  0.65009989187E+02  0.10000000000E+01 0.  0.
<mgrwt>
<rscale>  0 0.12499049E+03</rscale>
<asrwt>0</asrwt>
<pdfrwt beam="2">  1        4 0.69527147E-02 0.12499049E+03</pdfrwt>
<pdfrwt beam="1">  1       -4 0.13295749E-01 0.12499049E+03</pdfrwt>
<totfact> 0.10312136E+04</totfact>
</mgrwt>
</event>
<event>
 5    1  0.3312904E-002  0.1249995E+03  0.7818608E-02  0.1235070E+00
          4   -1    0    0  501    0  0.00000000000E+00  0.00000000000E+00  0.52401236856E+03  0.52401390755E+03  0.12700000000E+01 0. -1.
         -4   -1    0    0    0  501 -0.00000000000E+00 -0.00000000000E+00 -0.73987908641E+01  0.75069971527E+01  0.12700000000E+01 0. -1.
         25    2    1    2    0    0  0.00000000000E+00  0.00000000000E+00  0.51661357770E+03  0.53152090471E+03  0.12499953390E+03 0.  0.
    9000005    1    3    3    0    0  0.54932362600E+02 -0.29793416172E+02  0.25870478572E+03  0.26614728678E+03  0.10000000000E+01 0.  0.
    9000005    1    3    3    0    0 -0.54932362600E+02  0.29793416172E+02  0.25790879198E+03  0.26537361792E+03  0.10000000000E+01 0.  0.
<mgrwt>
<rscale>  0 0.12499953E+03</rscale>
<asrwt>0</asrwt>
<pdfrwt beam="1">  1        4 0.80625743E-01 0.12499953E+03</pdfrwt>
<pdfrwt beam="2">  1       -4 0.11467173E-02 0.12499953E+03</pdfrwt>
<totfact> 0.53499609E+03</totfact>
</mgrwt>
</event>
<event>
 5    1  0.3312904E-002  0.1250059E+03  0.7818608E-02  0.1235060E+00
         -4   -1    0    0    0  501 -0.00000000000E+00  0.00000000000E+00  0.10792396380E+03  0.10793143593E+03  0.12700000000E+01 0. -1.
          4   -1    0    0  501    0  0.00000000000E+00 -0.00000000000E+00 -0.36177991549E+02  0.36200275863E+02  0.12700000000E+01 0. -1.
         25    2    1    2    0    0  0.00000000000E+00  0.00000000000E+00  0.71745972249E+02  0.14413171179E+03  0.12500586310E+03 0.  0.
    9000005    1    3    3    0    0  0.47191676180E+02 -0.38870689721E+02  0.50801175947E+02  0.79496819419E+02  0.10000000000E+01 0.  0.
    9000005    1    3    3    0    0 -0.47191676180E+02  0.38870689721E+02  0.20944796302E+02  0.64634892374E+02  0.10000000000E+01 0.  0.
<mgrwt>
<rscale>  0 0.12500586E+03</rscale>
<asrwt>0</asrwt>
<pdfrwt beam="2">  1        4 0.55681338E-02 0.12500586E+03</pdfrwt>
<pdfrwt beam="1">  1       -4 0.16605976E-01 0.12500586E+03</pdfrwt>
<totfact> 0.10047333E+04</totfact>
</mgrwt>
</event>
<event>
 5    1  0.3312904E-002  0.1250009E+03  0.7818608E-02  0.1235068E+00
         -4   -1    0    0    0  501 -0.00000000000E+00  0.00000000000E+00  0.50455696141E+01  0.52029484651E+01  0.12700000000E+01 0.  1.
          4   -1    0    0  501    0  0.00000000000E+00 -0.00000000000E+00 -0.76215807955E+03  0.76215913766E+03  0.12700000000E+01 0.  1.
         25    2    1    2    0    0  0.00000000000E+00  0.00000000000E+00 -0.75711250994E+03  0.76736208613E+03  0.12500087410E+03 0.  0.
    9000005    1    3    3    0    0 -0.19624660284E+02  0.33553095627E+02 -0.78168201053E+02  0.87305241385E+02  0.10000000000E+01 0.  0.
    9000005    1    3    3    0    0  0.19624660284E+02 -0.33553095627E+02 -0.67894430888E+03  0.68005684474E+03  0.10000000000E+01 0.  0.
<mgrwt>
<rscale>  0 0.12500087E+03</rscale>
<asrwt>0</asrwt>
<pdfrwt beam="2">  1        4 0.11726719E+00 0.12500087E+03</pdfrwt>
<pdfrwt beam="1">  1       -4 0.78842954E-03 0.12500087E+03</pdfrwt>
<totfact> 0.39756420E+03</totfact>
</mgrwt>
</event>
<event>
 5    1  0.3312904E-002  0.1250054E+03  0.7818608E-02  0.1235061E+00
          4   -1    0    0  501    0  0.00000000000E+00  0.00000000000E+00  0.99361144485E+01  0.10016949153E+02  0.12700000000E+01 0. -1.
         -4   -1    0    0    0  501 -0.00000000000E+00 -0.00000000000E+00 -0.39149590841E+03  0.39149796832E+03  0.12700000000E+01 0. -1.
         25    2    1    2    0    0  0.00000000000E+00  0.00000000000E+00 -0.38155979396E+03  0.40151491748E+03  0.12500541024E+03 0.  0.
    9000005    1    3    3    0    0  0.18191595122E+02 -0.59318277248E+00  0.12498486502E+01  0.18271511173E+02  0.10000000000E+01 0.  0.
    9000005    1    3    3    0    0 -0.18191595122E+02  0.59318277248E+00 -0.38280964261E+03  0.38324340630E+03  0.10000000000E+01 0.  0.
<mgrwt>
<rscale>  0 0.12500541E+03</rscale>
<asrwt>0</asrwt>
<pdfrwt beam="1">  1        4 0.15350098E-02 0.12500541E+03</pdfrwt>
<pdfrwt beam="2">  1       -4 0.60236505E-01 0.12500541E+03</pdfrwt>
<totfact> 0.64398030E+03</totfact>
</mgrwt>
</event>
<event>
 5    1  0.3312904E-002  0.1250018E+03  0.7818608E-02  0.1235066E+00
         -4   -1    0    0    0  501 -0.00000000000E+00  0.00000000000E+00  0.19459746909E+03  0.19460161324E+03  0.12700000000E+01 0. -1.
          4   -1    0    0  501    0  0.00000000000E+00 -0.00000000000E+00 -0.20049632402E+02  0.20089814819E+02  0.12700000000E+01 0. -1.
         25    2    1    2    0    0  0.00000000000E+00  0.00000000000E+00  0.17454783669E+03  0.21469142806E+03  0.12500184795E+03 0.  0.
    9000005    1    3    3    0    0 -0.11355942451E+02 -0.25928378223E+02 -0.84164069779E+01  0.29547827884E+02  0.10000000000E+01 0.  0.
    9000005    1    3    3    0    0  0.11355942451E+02  0.25928378223E+02  0.18296424366E+03  0.18514360018E+03  0.10000000000E+01 0.  0.
<mgrwt>
<rscale>  0 0.12500185E+03</rscale>
<asrwt>0</asrwt>
<pdfrwt beam="2">  1        4 0.30879687E-02 0.12500185E+03</pdfrwt>
<pdfrwt beam="1">  1       -4 0.29941480E-01 0.12500185E+03</pdfrwt>
<totfact> 0.87711774E+03</totfact>
</mgrwt>
</event>
<event>
 5    1  0.3312904E-002  0.1249967E+03  0.7818608E-02  0.1235074E+00
         -4   -1    0    0    0  501 -0.00000000000E+00  0.00000000000E+00  0.31691062972E+01  0.34141081885E+01  0.12700000000E+01 0.  1.
          4   -1    0    0  501    0  0.00000000000E+00 -0.00000000000E+00 -0.11864230491E+04  0.11864237289E+04  0.12700000000E+01 0.  1.
         25    2    1    2    0    0  0.00000000000E+00  0.00000000000E+00 -0.11832539428E+04  0.11898378371E+04  0.12499674095E+03 0.  0.
    9000005    1    3    3    0    0  0.32282439482E+02 -0.16025861567E+02 -0.10568828874E+03  0.11166914755E+03  0.10000000000E+01 0.  0.
    9000005    1    3    3    0    0 -0.32282439482E+02  0.16025861567E+02 -0.10775656541E+04  0.10781686895E+04  0.10000000000E+01 0.  0.
<mgrwt>
<rscale>  0 0.12499674E+03</rscale>
<asrwt>0</asrwt>
<pdfrwt beam="2">  1        4 0.18254518E+00 0.12499674E+03</pdfrwt>
<pdfrwt beam="1">  1       -4 0.50645435E-03 0.12499674E+03</pdfrwt>
<totfact> 0.24982136E+03</totfact>
</mgrwt>
</event>
<event>
 5    1  0.3312904E-002  0.1250002E+03  0.7818608E-02  0.1235069E+00
         -4   -1    0    0    0  501 -0.00000000000E+00  0.00000000000E+00  0.17469599979E+03  0.17470061603E+03  0.12700000000E+01 0. -1.
          4   -1    0    0  501    0  0.00000000000E+00 -0.00000000000E+00 -0.22337402959E+02  0.22373476952E+02  0.12700000000E+01 0. -1.
         25    2    1    2    0    0  0.00000000000E+00  0.00000000000E+00  0.15235859683E+03  0.19707409298E+03  0.12500022439E+03 0.  0.
    9000005    1    3    3    0    0 -0.60792404692E+01 -0.60635617365E+02  0.54354557544E+02  0.81664271158E+02  0.10000000000E+01 0.  0.
    9000005    1    3    3    0    0  0.60792404692E+01  0.60635617365E+02  0.98004039283E+02  0.11540982182E+03  0.10000000000E+01 0.  0.
<mgrwt>
<rscale>  0 0.12500022E+03</rscale>
<asrwt>0</asrwt>
<pdfrwt beam="2">  1        4 0.34396533E-02 0.12500022E+03</pdfrwt>
<pdfrwt beam="1">  1       -4 0.26879439E-01 0.12500022E+03</pdfrwt>
<totfact> 0.90630349E+03</totfact>
</mgrwt>
</event>
<event>
 5    1  0.3312904E-002  0.1250007E+03  0.7818608E-02  0.1235068E+00
         -4   -1    0    0    0  501 -0.00000000000E+00  0.00000000000E+00  0.27127615791E+03  0.27127913069E+03  0.12700000000E+01 0.  1.
          4   -1    0    0  501    0  0.00000000000E+00 -0.00000000000E+00 -0.14368624247E+02  0.14424640819E+02  0.12700000000E+01 0.  1.
         25    2    1    2    0    0  0.00000000000E+00  0.00000000000E+00  0.25690753366E+03  0.28570377151E+03  0.12500065681E+03 0.  0.
    9000005    1    3    3    0    0  0.41217435605E+02 -0.15755655469E+02  0.27312299738E+02  0.51904521904E+02  0.10000000000E+01 0.  0.
    9000005    1    3    3    0    0 -0.41217435605E+02  0.15755655469E+02  0.22959523392E+03  0.23379924960E+03  0.10000000000E+01 0.  0.
<mgrwt>
<rscale>  0 0.12500066E+03</rscale>
<asrwt>0</asrwt>
<pdfrwt beam="2">  1        4 0.22150952E-02 0.12500066E+03</pdfrwt>
<pdfrwt beam="1">  1       -4 0.41739332E-01 0.12500066E+03</pdfrwt>
<totfact> 0.77426722E+03</totfact>
</mgrwt>
</event>
<event>
 5    1  0.3312904E-002  0.1250016E+03  0.7818608E-02  0.1235067E+00
          4   -1    0    0  501    0  0.00000000000E+00  0.00000000000E+00  0.12793369813E+03  0.12794000163E+03  0.12700000000E+01 0. -1.
         -4   -1    0    0    0  501 -0.00000000000E+00 -0.00000000000E+00 -0.30513896085E+02  0.30540313592E+02  0.12700000000E+01 0. -1.
         25    2    1    2    0    0  0.00000000000E+00  0.00000000000E+00  0.97419802048E+02  0.15848031523E+03  0.12500156992E+03 0.  0.
    9000005    1    3    3    0    0 -0.42433764743E+02 -0.22816655526E+02  0.99170736922E+02  0.11025905505E+03  0.10000000000E+01 0.  0.
    9000005    1    3    3    0    0  0.42433764743E+02  0.22816655526E+02 -0.17509348739E+01  0.48221260172E+02  0.10000000000E+01 0.  0.
<mgrwt>
<rscale>  0 0.12500157E+03</rscale>
<asrwt>0</asrwt>
<pdfrwt beam="1">  1        4 0.19684624E-01 0.12500157E+03</pdfrwt>
<pdfrwt beam="2">  1       -4 0.46969627E-02 0.12500157E+03</pdfrwt>
<totfact> 0.97633125E+03</totfact>
</mgrwt>
</event>
<event>
 5    1  0.3312904E-002  0.1250005E+03  0.7818608E-02  0.1235069E+00
          4   -1    0    0  501    0  0.00000000000E+00  0.00000000000E+00  0.20597317659E+02  0.20636433673E+02  0.12700000000E+01 0. -1.
         -4   -1    0    0    0  501 -0.00000000000E+00 -0.00000000000E+00 -0.18942876895E+03  0.18943302617E+03  0.12700000000E+01 0. -1.
         25    2    1    2    0    0  0.00000000000E+00  0.00000000000E+00 -0.16883145129E+03  0.21006945985E+03  0.12500047606E+03 0.  0.
    9000005    1    3    3    0    0 -0.90307536286E+01  0.58924619704E+02 -0.52903099286E+02  0.79708238171E+02  0.10000000000E+01 0.  0.
    9000005    1    3    3    0    0  0.90307536286E+01 -0.58924619704E+02 -0.11592835200E+03  0.13036122167E+03  0.10000000000E+01 0.  0.
<mgrwt>
<rscale>  0 0.12500048E+03</rscale>
<asrwt>0</asrwt>
<pdfrwt beam="1">  1        4 0.31721546E-02 0.12500048E+03</pdfrwt>
<pdfrwt beam="2">  1       -4 0.29146223E-01 0.12500048E+03</pdfrwt>
<totfact> 0.88463597E+03</totfact>
</mgrwt>
</event>
<event>
 5    1  0.3312904E-002  0.1250094E+03  0.7818608E-02  0.1235055E+00
          4   -1    0    0  501    0  0.00000000000E+00  0.00000000000E+00  0.48180022769E+02  0.48196758127E+02  0.12700000000E+01 0.  1.
         -4   -1    0    0    0  501 -0.00000000000E+00 -0.00000000000E+00 -0.81052592926E+02  0.81062542028E+02  0.12700000000E+01 0.  1.
         25    2    1    2    0    0  0.00000000000E+00  0.00000000000E+00 -0.32872570157E+02  0.12925930015E+03  0.12500944287E+03 0.  0.
    9000005    1    3    3    0    0  0.28240589813E+02 -0.51935958687E+02 -0.37397751161E+02  0.69960463903E+02  0.10000000000E+01 0.  0.
    9000005    1    3    3    0    0 -0.28240589813E+02  0.51935958687E+02  0.45251810036E+01  0.59298836252E+02  0.10000000000E+01 0.  0.
<mgrwt>
<rscale>  0 0.12500944E+03</rscale>
<asrwt>0</asrwt>
<pdfrwt beam="1">  1        4 0.74143639E-02 0.12500944E+03</pdfrwt>
<pdfrwt beam="2">  1       -4 0.12471682E-01 0.12500944E+03</pdfrwt>
<totfact> 0.10358170E+04</totfact>
</mgrwt>
</event>
<event>
 5    1  0.3312904E-002  0.1249979E+03  0.7818608E-02  0.1235073E+00
          4   -1    0    0  501    0  0.00000000000E+00  0.00000000000E+00  0.40331410938E+01  0.42283716822E+01  0.12700000000E+01 0.  1.
         -4   -1    0    0    0  501 -0.00000000000E+00 -0.00000000000E+00 -0.94542209419E+03  0.94542294719E+03  0.12700000000E+01 0.  1.
         25    2    1    2    0    0  0.00000000000E+00  0.00000000000E+00 -0.94138895309E+03  0.94965131887E+03  0.12499786571E+03 0.  0.
    9000005    1    3    3    0    0  0.11415204445E+02  0.21134380052E+02 -0.90898580025E+03  0.90930366434E+03  0.10000000000E+01 0.  0.
    9000005    1    3    3    0    0 -0.11415204445E+02 -0.21134380052E+02 -0.32403152837E+02  0.40347654536E+02  0.10000000000E+01 0.  0.
<mgrwt>
<rscale>  0 0.12499787E+03</rscale>
<asrwt>0</asrwt>
<pdfrwt beam="1">  1        4 0.63556735E-03 0.12499787E+03</pdfrwt>
<pdfrwt beam="2">  1       -4 0.14546446E+00 0.12499787E+03</pdfrwt>
<totfact> 0.32329896E+03</totfact>
</mgrwt>
</event>
<event>
 5    1  0.3312904E-002  0.1249999E+03  0.7818608E-02  0.1235070E+00
         -4   -1    0    0    0  501 -0.00000000000E+00  0.00000000000E+00  0.15623828574E+02  0.15675360261E+02  0.12700000000E+01 0.  1.
          4   -1    0    0  501    0  0.00000000000E+00 -0.00000000000E+00 -0.24955337216E+03  0.24955660371E+03  0.12700000000E+01 0.  1.
         25    2    1    2    0    0  0.00000000000E+00  0.00000000000E+00 -0.23392954358E+03  0.26523196397E+03  0.12499985340E+03 0.  0.
    9000005    1    3    3    0    0 -0.37355080191E+02  0.18955315886E+02 -0.18566018277E+02  0.45830154387E+02  0.10000000000E+01 0.  0.
    9000005    1    3    3    0    0  0.37355080191E+02 -0.18955315886E+02 -0.21536352530E+03  0.21940180958E+03  0.10000000000E+01 0.  0.
<mgrwt>
<rscale>  0 0.12499985E+03</rscale>
<asrwt>0</asrwt>
<pdfrwt beam="2">  1        4 0.38397036E-01 0.12499985E+03</pdfrwt>
<pdfrwt beam="1">  1       -4 0.24078787E-02 0.12499985E+03</pdfrwt>
<totfact> 0.80177653E+03</totfact>
</mgrwt>
</event>
<event>
 5    1  0.3312904E-002  0.1250000E+03  0.7818608E-02  0.1235069E+00
         -4   -1    0    0    0  501 -0.00000000000E+00  0.00000000000E+00  0.40233265194E+01  0.42190112920E+01  0.12700000000E+01 0. -1.
          4   -1    0    0  501    0  0.00000000000E+00 -0.00000000000E+00 -0.94765421659E+03  0.94765506758E+03  0.12700000000E+01 0. -1.
         25    2    1    2    0    0  0.00000000000E+00  0.00000000000E+00 -0.94363089007E+03  0.95187407887E+03  0.12500002138E+03 0.  0.
    9000005    1    3    3    0    0  0.27860863077E+02  0.55108753057E+02 -0.39875557322E+03  0.40350986299E+03  0.10000000000E+01 0.  0.
    9000005    1    3    3    0    0 -0.27860863077E+02 -0.55108753057E+02 -0.54487531685E+03  0.54836421589E+03  0.10000000000E+01 0.  0.
<mgrwt>
<rscale>  0 0.12500002E+03</rscale>
<asrwt>0</asrwt>
<pdfrwt beam="2">  1        4 0.14580790E+00 0.12500002E+03</pdfrwt>
<pdfrwt beam="1">  1       -4 0.63409220E-03 0.12500002E+03</pdfrwt>
<totfact> 0.32249549E+03</totfact>
</mgrwt>
</event>
<event>
 5    1  0.3312904E-002  0.1249998E+03  0.7818608E-02  0.1235070E+00
         -4   -1    0    0    0  501 -0.00000000000E+00  0.00000000000E+00  0.18420183306E+03  0.18420621108E+03  0.12700000000E+01 0. -1.
          4   -1    0    0  501    0  0.00000000000E+00 -0.00000000000E+00 -0.21182636392E+02  0.21220673517E+02  0.12700000000E+01 0. -1.
         25    2    1    2    0    0  0.00000000000E+00  0.00000000000E+00  0.16301919667E+03  0.20542688460E+03  0.12499978574E+03 0.  0.
    9000005    1    3    3    0    0  0.49583858926E+02  0.19287686094E+02  0.27634993132E+02  0.59960543245E+02  0.10000000000E+01 0.  0.
    9000005    1    3    3    0    0 -0.49583858926E+02 -0.19287686094E+02  0.13538420353E+03  0.14546634136E+03  0.10000000000E+01 0.  0.
<mgrwt>
<rscale>  0 0.12499979E+03</rscale>
<asrwt>0</asrwt>
<pdfrwt beam="2">  1        4 0.32621299E-02 0.12499979E+03</pdfrwt>
<pdfrwt beam="1">  1       -4 0.28342006E-01 0.12499979E+03</pdfrwt>
<totfact> 0.89228647E+03</totfact>
</mgrwt>
</event>
<event>
 5    1  0.3312904E-002  0.1250036E+03  0.7818608E-02  0.1235064E+00
          4   -1    0    0  501    0  0.00000000000E+00  0.00000000000E+00  0.47107148547E+02  0.47124264919E+02  0.12700000000E+01 0.  1.
         -4   -1    0    0    0  501 -0.00000000000E+00 -0.00000000000E+00 -0.82890435529E+02  0.82900164066E+02  0.12700000000E+01 0.  1.
         25    2    1    2    0    0  0.00000000000E+00  0.00000000000E+00 -0.35783286982E+02  0.13002442899E+03  0.12500363397E+03 0.  0.
    9000005    1    3    3    0    0  0.45207124850E+02 -0.21340451749E+02  0.21116327904E+02  0.54277051524E+02  0.10000000000E+01 0.  0.
    9000005    1    3    3    0    0 -0.45207124850E+02  0.21340451749E+02 -0.56899614886E+02  0.75747377461E+02  0.10000000000E+01 0.  0.
<mgrwt>
<rscale>  0 0.12500363E+03</rscale>
<asrwt>0</asrwt>
<pdfrwt beam="1">  1        4 0.72493187E-02 0.12500363E+03</pdfrwt>
<pdfrwt beam="2">  1       -4 0.12754440E-01 0.12500363E+03</pdfrwt>
<totfact> 0.10343137E+04</totfact>
</mgrwt>
</event>
<event>
 5    1  0.3312904E-002  0.1250000E+03  0.7818608E-02  0.1235069E+00
         -4   -1    0    0    0  501 -0.00000000000E+00  0.00000000000E+00  0.90559247579E+02  0.90568152361E+02  0.12700000000E+01 0.  1.
          4   -1    0    0  501    0  0.00000000000E+00 -0.00000000000E+00 -0.43114400777E+02  0.43133101609E+02  0.12700000000E+01 0.  1.
         25    2    1    2    0    0  0.00000000000E+00  0.00000000000E+00  0.47444846801E+02  0.13370125397E+03  0.12500004730E+03 0.  0.
    9000005    1    3    3    0    0 -0.23635552364E+02 -0.21048805980E+02 -0.33913175365E+02  0.46398222295E+02  0.10000000000E+01 0.  0.
    9000005    1    3    3    0    0  0.23635552364E+02  0.21048805980E+02  0.81358022167E+02  0.87303031675E+02  0.10000000000E+01 0.  0.
<mgrwt>
<rscale>  0 0.12500005E+03</rscale>
<asrwt>0</asrwt>
<pdfrwt beam="2">  1        4 0.66351083E-02 0.12500005E+03</pdfrwt>
<pdfrwt beam="1">  1       -4 0.13934315E-01 0.12500005E+03</pdfrwt>
<totfact> 0.10265507E+04</totfact>
</mgrwt>
</event>
<event>
 5    1  0.3312904E-002  0.1250008E+03  0.7818608E-02  0.1235068E+00
          4   -1    0    0  501    0  0.00000000000E+00  0.00000000000E+00  0.15008603950E+02  0.15062240621E+02  0.12700000000E+01 0.  1.
         -4   -1    0    0    0  501 -0.00000000000E+00 -0.00000000000E+00 -0.25975143325E+03  0.25975453793E+03  0.12700000000E+01 0.  1.
         25    2    1    2    0    0  0.00000000000E+00  0.00000000000E+00 -0.24474282930E+03  0.27481677855E+03  0.12500083712E+03 0.  0.
    9000005    1    3    3    0    0 -0.23078309351E+02 -0.46326423302E+02 -0.45374363049E+02  0.68837334932E+02  0.10000000000E+01 0.  0.
    9000005    1    3    3    0    0  0.23078309351E+02  0.46326423302E+02 -0.19936846625E+03  0.20597944362E+03  0.10000000000E+01 0.  0.
<mgrwt>
<rscale>  0 0.12500084E+03</rscale>
<asrwt>0</asrwt>
<pdfrwt beam="1">  1        4 0.23133809E-02 0.12500084E+03</pdfrwt>
<pdfrwt beam="2">  1       -4 0.39966120E-01 0.12500084E+03</pdfrwt>
<totfact> 0.78868954E+03</totfact>
</mgrwt>
</event>
<event>
 5    1  0.3312904E-002  0.1249940E+03  0.7818608E-02  0.1235079E+00
         -4   -1    0    0    0  501 -0.00000000000E+00  0.00000000000E+00  0.76203568043E+03  0.76203673872E+03  0.12700000000E+01 0.  1.
          4   -1    0    0  501    0  0.00000000000E+00 -0.00000000000E+00 -0.50458292385E+01  0.52032002368E+01  0.12700000000E+01 0.  1.
         25    2    1    2    0    0  0.00000000000E+00  0.00000000000E+00  0.75698985119E+03  0.76723993895E+03  0.12499395630E+03 0.  0.
    9000005    1    3    3    0    0  0.30962740658E+02 -0.19493761545E+01  0.71145459684E+03  0.71213140272E+03  0.10000000000E+01 0.  0.
    9000005    1    3    3    0    0 -0.30962740658E+02  0.19493761545E+01  0.45535254352E+02  0.55108536229E+02  0.10000000000E+01 0.  0.
<mgrwt>
<rscale>  0 0.12499396E+03</rscale>
<asrwt>0</asrwt>
<pdfrwt beam="2">  1        4 0.78846842E-03 0.12499396E+03</pdfrwt>
<pdfrwt beam="1">  1       -4 0.11724843E+00 0.12499396E+03</pdfrwt>
<totfact> 0.39768068E+03</totfact>
</mgrwt>
</event>
<event>
 5    1  0.3312904E-002  0.1249974E+03  0.7818608E-02  0.1235073E+00
          4   -1    0    0  501    0  0.00000000000E+00  0.00000000000E+00  0.36293273678E+02  0.36315487251E+02  0.12700000000E+01 0.  1.
         -4   -1    0    0    0  501 -0.00000000000E+00 -0.00000000000E+00 -0.10756669762E+03  0.10757419457E+03  0.12700000000E+01 0.  1.
         25    2    1    2    0    0  0.00000000000E+00  0.00000000000E+00 -0.71273423947E+02  0.14388968182E+03  0.12499735827E+03 0.  0.
    9000005    1    3    3    0    0  0.30069574153E+02  0.73957310514E+01  0.26846101447E+02  0.40994991041E+02  0.10000000000E+01 0.  0.
    9000005    1    3    3    0    0 -0.30069574153E+02 -0.73957310514E+01 -0.98119525394E+02  0.10289469078E+03  0.10000000000E+01 0.  0.
<mgrwt>
<rscale>  0 0.12499736E+03</rscale>
<asrwt>0</asrwt>
<pdfrwt beam="1">  1        4 0.55858661E-02 0.12499736E+03</pdfrwt>
<pdfrwt beam="2">  1       -4 0.16551008E-01 0.12499736E+03</pdfrwt>
<totfact> 0.10054195E+04</totfact>
</mgrwt>
</event>
<event>
 5    1  0.3312904E-002  0.1250087E+03  0.7818608E-02  0.1235056E+00
          4   -1    0    0  501    0  0.00000000000E+00  0.00000000000E+00  0.23650290674E+03  0.23650631661E+03  0.12700000000E+01 0.  1.
         -4   -1    0    0    0  501 -0.00000000000E+00 -0.00000000000E+00 -0.16491071998E+02  0.16539901923E+02  0.12700000000E+01 0.  1.
         25    2    1    2    0    0  0.00000000000E+00  0.00000000000E+00  0.22001183474E+03  0.25304621853E+03  0.12500872484E+03 0.  0.
    9000005    1    3    3    0    0  0.29641089033E+02 -0.23095469490E+02  0.89200653059E+01  0.38633695592E+02  0.10000000000E+01 0.  0.
    9000005    1    3    3    0    0 -0.29641089033E+02  0.23095469490E+02  0.21109176944E+03  0.21441252294E+03  0.10000000000E+01 0.  0.
<mgrwt>
<rscale>  0 0.12500872E+03</rscale>
<asrwt>0</asrwt>
<pdfrwt beam="1">  1        4 0.36389081E-01 0.12500872E+03</pdfrwt>
<pdfrwt beam="2">  1       -4 0.25411064E-02 0.12500872E+03</pdfrwt>
<totfact> 0.81876027E+03</totfact>
</mgrwt>
</event>
<event>
 5    1  0.3312904E-002  0.1250007E+03  0.7818608E-02  0.1235068E+00
         -4   -1    0    0    0  501 -0.00000000000E+00  0.00000000000E+00  0.46289066359E+02  0.46306485122E+02  0.12700000000E+01 0. -1.
          4   -1    0    0  501    0  0.00000000000E+00 -0.00000000000E+00 -0.84350985581E+02  0.84360545686E+02  0.12700000000E+01 0. -1.
         25    2    1    2    0    0  0.00000000000E+00  0.00000000000E+00 -0.38061919222E+02  0.13066703081E+03  0.12500065298E+03 0.  0.
    9000005    1    3    3    0    0  0.47989341140E+01 -0.50419824471E+01 -0.83949615829E+02  0.84243630937E+02  0.10000000000E+01 0.  0.
    9000005    1    3    3    0    0 -0.47989341140E+01  0.50419824471E+01  0.45887696607E+02  0.46423399871E+02  0.10000000000E+01 0.  0.
<mgrwt>
<rscale>  0 0.12500065E+03</rscale>
<asrwt>0</asrwt>
<pdfrwt beam="2">  1        4 0.12979150E-01 0.12500065E+03</pdfrwt>
<pdfrwt beam="1">  1       -4 0.71234701E-02 0.12500065E+03</pdfrwt>
<totfact> 0.10330081E+04</totfact>
</mgrwt>
</event>
<event>
 5    1  0.3312904E-002  0.1250101E+03  0.7818608E-02  0.1235054E+00
          4   -1    0    0  501    0  0.00000000000E+00  0.00000000000E+00  0.36148852578E+03  0.36149075669E+03  0.12700000000E+01 0. -1.
         -4   -1    0    0    0  501 -0.00000000000E+00 -0.00000000000E+00 -0.10768175460E+02  0.10842808803E+02  0.12700000000E+01 0. -1.
         25    2    1    2    0    0  0.00000000000E+00  0.00000000000E+00  0.35072035032E+03  0.37233356549E+03  0.12501007904E+03 0.  0.
    9000005    1    3    3    0    0 -0.26512572204E+02  0.45659832935E+02  0.75765559347E+02  0.92353434217E+02  0.10000000000E+01 0.  0.
    9000005    1    3    3    0    0  0.26512572204E+02 -0.45659832935E+02  0.27495479097E+03  0.27998013127E+03  0.10000000000E+01 0.  0.
<mgrwt>
<rscale>  0 0.12501008E+03</rscale>
<asrwt>0</asrwt>
<pdfrwt beam="1">  1        4 0.55619540E-01 0.12501008E+03</pdfrwt>
<pdfrwt beam="2">  1       -4 0.16625548E-02 0.12501008E+03</pdfrwt>
<totfact> 0.67320500E+03</totfact>
</mgrwt>
</event>
<event>
 4    1  0.3312904E-002  0.1248656E+03  0.7818608E-02  0.1235279E+00
         -4   -1    0    0    0  501 -0.00000000000E+00  0.00000000000E+00  0.12393743475E+03  0.12394394149E+03  0.12700000000E+01 0.  1.
          4   -1    0    0  501    0  0.00000000000E+00 -0.00000000000E+00 -0.31430036994E+02  0.31455685105E+02  0.12700000000E+01 0.  1.
    9000005    1    1    2    0    0  0.27073672369E+02 -0.73425213335E+00  0.11625071863E+03  0.11936813831E+03  0.10000000000E+01 0.  0.
    9000005    1    1    2    0    0 -0.27073672369E+02  0.73425213335E+00 -0.23743320876E+02  0.36031488284E+02  0.10000000000E+01 0.  0.
<mgrwt>
<rscale>  0 0.12486563E+03</rscale>
<asrwt>0</asrwt>
<pdfrwt beam="2">  1        4 0.48378637E-02 0.12486563E+03</pdfrwt>
<pdfrwt beam="1">  1       -4 0.19069771E-01 0.12486563E+03</pdfrwt>
<totfact> 0.98534551E+03</totfact>
</mgrwt>
</event>
<event>
 5    1  0.3312904E-002  0.1250059E+03  0.7818608E-02  0.1235060E+00
         -4   -1    0    0    0  501 -0.00000000000E+00  0.00000000000E+00  0.38185852099E+02  0.38206965341E+02  0.12700000000E+01 0.  1.
          4   -1    0    0  501    0  0.00000000000E+00 -0.00000000000E+00 -0.10225207589E+03  0.10225996247E+03  0.12700000000E+01 0.  1.
         25    2    1    2    0    0  0.00000000000E+00  0.00000000000E+00 -0.64066223793E+02  0.14046692781E+03  0.12500590697E+03 0.  0.
    9000005    1    3    3    0    0 -0.27291409781E+02  0.43221963336E+02  0.83672921924E+01  0.51807053005E+02  0.10000000000E+01 0.  0.
    9000005    1    3    3    0    0  0.27291409781E+02 -0.43221963336E+02 -0.72433515986E+02  0.88659874805E+02  0.10000000000E+01 0.  0.
<mgrwt>
<rscale>  0 0.12500591E+03</rscale>
<asrwt>0</asrwt>
<pdfrwt beam="2">  1        4 0.15733319E-01 0.12500591E+03</pdfrwt>
<pdfrwt beam="1">  1       -4 0.58769772E-02 0.12500591E+03</pdfrwt>
<totfact> 0.10122571E+04</totfact>
</mgrwt>
</event>
<event>
 5    1  0.3312904E-002  0.1249994E+03  0.7818608E-02  0.1235070E+00
         -4   -1    0    0    0  501 -0.00000000000E+00  0.00000000000E+00  0.14830668682E+02  0.14884946542E+02  0.12700000000E+01 0.  1.
          4   -1    0    0  501    0  0.00000000000E+00 -0.00000000000E+00 -0.26285059874E+03  0.26285366681E+03  0.12700000000E+01 0.  1.
         25    2    1    2    0    0  0.00000000000E+00  0.00000000000E+00 -0.24801993005E+03  0.27773861335E+03  0.12499940657E+03 0.  0.
    9000005    1    3    3    0    0 -0.19379471244E+02 -0.11277864897E+02  0.55959275128E+01  0.23131548739E+02  0.10000000000E+01 0.  0.
    9000005    1    3    3    0    0  0.19379471244E+02  0.11277864897E+02 -0.25361585757E+03  0.25460706461E+03  0.10000000000E+01 0.  0.
<mgrwt>
<rscale>  0 0.12499941E+03</rscale>
<asrwt>0</asrwt>
<pdfrwt beam="2">  1        4 0.40442962E-01 0.12499941E+03</pdfrwt>
<pdfrwt beam="1">  1       -4 0.22860527E-02 0.12499941E+03</pdfrwt>
<totfact> 0.78479944E+03</totfact>
</mgrwt>
</event>
<event>
 5    1  0.3312904E-002  0.1250008E+03  0.7818608E-02  0.1235068E+00
         -4   -1    0    0    0  501 -0.00000000000E+00  0.00000000000E+00  0.11869737508E+03  0.11870416905E+03  0.12700000000E+01 0. -1.
          4   -1    0    0  501    0  0.00000000000E+00 -0.00000000000E+00 -0.32889771686E+02  0.32914282334E+02  0.12700000000E+01 0. -1.
         25    2    1    2    0    0  0.00000000000E+00  0.00000000000E+00  0.85807603391E+02  0.15161845139E+03  0.12500084000E+03 0.  0.
    9000005    1    3    3    0    0  0.44523541021E+02  0.37400885236E+02  0.15134889069E+02  0.60093566949E+02  0.10000000000E+01 0.  0.
    9000005    1    3    3    0    0 -0.44523541021E+02 -0.37400885236E+02  0.70672714322E+02  0.91524884437E+02  0.10000000000E+01 0.  0.
<mgrwt>
<rscale>  0 0.12500084E+03</rscale>
<asrwt>0</asrwt>
<pdfrwt beam="2">  1        4 0.50623729E-02 0.12500084E+03</pdfrwt>
<pdfrwt beam="1">  1       -4 0.18263543E-01 0.12500084E+03</pdfrwt>
<totfact> 0.98980186E+03</totfact>
</mgrwt>
</event>
<event>
 5    1  0.3312904E-002  0.1250018E+03  0.7818608E-02  0.1235067E+00
          4   -1    0    0  501    0  0.00000000000E+00  0.00000000000E+00  0.13721568166E+04  0.13721574044E+04  0.12700000000E+01 0. -1.
         -4   -1    0    0    0  501 -0.00000000000E+00 -0.00000000000E+00 -0.27046203959E+01  0.29879543983E+01  0.12700000000E+01 0. -1.
         25    2    1    2    0    0  0.00000000000E+00  0.00000000000E+00  0.13694521962E+04  0.13751453588E+04  0.12500175970E+03 0.  0.
    9000005    1    3    3    0    0 -0.56915933894E+01  0.59484129169E+02  0.88595859924E+03  0.88797206906E+03  0.10000000000E+01 0.  0.
    9000005    1    3    3    0    0  0.56915933894E+01 -0.59484129169E+02  0.48349359700E+03  0.48717328970E+03  0.10000000000E+01 0.  0.
<mgrwt>
<rscale>  0 0.12500176E+03</rscale>
<asrwt>0</asrwt>
<pdfrwt beam="1">  1        4 0.21112293E+00 0.12500176E+03</pdfrwt>
<pdfrwt beam="2">  1       -4 0.43793550E-03 0.12500176E+03</pdfrwt>
<totfact> 0.20519845E+03</totfact>
</mgrwt>
</event>
<event>
 5    1  0.3312904E-002  0.1250015E+03  0.7818608E-02  0.1235067E+00
         -4   -1    0    0    0  501 -0.00000000000E+00  0.00000000000E+00  0.63724152293E+02  0.63736806364E+02  0.12700000000E+01 0.  1.
          4   -1    0    0  501    0  0.00000000000E+00 -0.00000000000E+00 -0.61275471259E+02  0.61288630903E+02  0.12700000000E+01 0.  1.
         25    2    1    2    0    0  0.00000000000E+00  0.00000000000E+00  0.24486810343E+01  0.12502543727E+03  0.12500145569E+03 0.  0.
    9000005    1    3    3    0    0  0.46008315555E+01 -0.59042219234E+02  0.21182859463E+02  0.62903615462E+02  0.10000000000E+01 0.  0.
    9000005    1    3    3    0    0 -0.46008315555E+01  0.59042219234E+02 -0.18734178429E+02  0.62121821806E+02  0.10000000000E+01 0.  0.
<mgrwt>
<rscale>  0 0.12500146E+03</rscale>
<asrwt>0</asrwt>
<pdfrwt beam="2">  1        4 0.94289813E-02 0.12500146E+03</pdfrwt>
<pdfrwt beam="1">  1       -4 0.98057014E-02 0.12500146E+03</pdfrwt>
<totfact> 0.10451966E+04</totfact>
</mgrwt>
</event>
<event>
 5    1  0.3312904E-002  0.1250009E+03  0.7818608E-02  0.1235068E+00
          4   -1    0    0  501    0  0.00000000000E+00  0.00000000000E+00  0.52425410511E+03  0.52425564338E+03  0.12700000000E+01 0.  1.
         -4   -1    0    0    0  501 -0.00000000000E+00 -0.00000000000E+00 -0.73954971199E+01  0.75037509054E+01  0.12700000000E+01 0.  1.
         25    2    1    2    0    0  0.00000000000E+00  0.00000000000E+00  0.51685860799E+03  0.53175939429E+03  0.12500093106E+03 0.  0.
    9000005    1    3    3    0    0 -0.39854812701E+02  0.24547980127E+02  0.82294500287E+02  0.94680484796E+02  0.10000000000E+01 0.  0.
    9000005    1    3    3    0    0  0.39854812701E+02 -0.24547980127E+02  0.43456410770E+03  0.43707890949E+03  0.10000000000E+01 0.  0.
<mgrwt>
<rscale>  0 0.12500093E+03</rscale>
<asrwt>0</asrwt>
<pdfrwt beam="1">  1        4 0.80662939E-01 0.12500093E+03</pdfrwt>
<pdfrwt beam="2">  1       -4 0.11462141E-02 0.12500093E+03</pdfrwt>
<totfact> 0.53480663E+03</totfact>
</mgrwt>
</event>
<event>
 5    1  0.3312904E-002  0.1249982E+03  0.7818608E-02  0.1235072E+00
          4   -1    0    0  501    0  0.00000000000E+00  0.00000000000E+00  0.13277478986E+02  0.13338078880E+02  0.12700000000E+01 0.  1.
         -4   -1    0    0    0  501 -0.00000000000E+00 -0.00000000000E+00 -0.29346090037E+03  0.29346364842E+03  0.12700000000E+01 0.  1.
         25    2    1    2    0    0  0.00000000000E+00  0.00000000000E+00 -0.28018342138E+03  0.30680172730E+03  0.12499820102E+03 0.  0.
    9000005    1    3    3    0    0  0.14821460595E+02  0.40704344341E+02 -0.25064055298E+03  0.25435842062E+03  0.10000000000E+01 0.  0.
    9000005    1    3    3    0    0 -0.14821460595E+02 -0.40704344341E+02 -0.29542868406E+02  0.52443306685E+02  0.10000000000E+01 0.  0.
<mgrwt>
<rscale>  0 0.12499820E+03</rscale>
<asrwt>0</asrwt>
<pdfrwt beam="1">  1        4 0.20475622E-02 0.12499820E+03</pdfrwt>
<pdfrwt beam="2">  1       -4 0.45152699E-01 0.12499820E+03</pdfrwt>
<totfact> 0.74756474E+03</totfact>
</mgrwt>
</event>
<event>
 5    1  0.3312904E-002  0.1250158E+03  0.7818608E-02  0.1235045E+00
         -4   -1    0    0    0  501 -0.00000000000E+00  0.00000000000E+00  0.22349466196E+02  0.22385520750E+02  0.12700000000E+01 0. -1.
          4   -1    0    0  501    0  0.00000000000E+00 -0.00000000000E+00 -0.17464534821E+03  0.17464996580E+03  0.12700000000E+01 0. -1.
         25    2    1    2    0    0  0.00000000000E+00  0.00000000000E+00 -0.15229588202E+03  0.19703548655E+03  0.12501578812E+03 0.  0.
    9000005    1    3    3    0    0  0.10092181643E+02  0.16366406311E+02  0.17579763419E+02  0.26072197217E+02  0.10000000000E+01 0.  0.
    9000005    1    3    3    0    0 -0.10092181643E+02 -0.16366406311E+02 -0.16987564544E+03  0.17096328933E+03  0.10000000000E+01 0.  0.
<mgrwt>
<rscale>  0 0.12501579E+03</rscale>
<asrwt>0</asrwt>
<pdfrwt beam="2">  1        4 0.26871643E-01 0.12501579E+03</pdfrwt>
<pdfrwt beam="1">  1       -4 0.34415081E-02 0.12501579E+03</pdfrwt>
<totfact> 0.90605344E+03</totfact>
</mgrwt>
</event>
<event>
 5    1  0.3312904E-002  0.1249967E+03  0.7818608E-02  0.1235074E+00
         -4   -1    0    0    0  501 -0.00000000000E+00  0.00000000000E+00  0.31423001010E+03  0.31423257652E+03  0.12700000000E+01 0.  1.
          4   -1    0    0  501    0  0.00000000000E+00 -0.00000000000E+00 -0.12395461007E+02  0.12460351262E+02  0.12700000000E+01 0.  1.
         25    2    1    2    0    0  0.00000000000E+00  0.00000000000E+00  0.30183454909E+03  0.32669292778E+03  0.12499669611E+03 0.  0.
    9000005    1    3    3    0    0 -0.46381505159E+02  0.95422551443E+01  0.25749194672E+03  0.26181176689E+03  0.10000000000E+01 0.  0.
    9000005    1    3    3    0    0  0.46381505159E+02 -0.95422551443E+01  0.44342602369E+02  0.64881160894E+02  0.10000000000E+01 0.  0.
<mgrwt>
<rscale>  0 0.12499670E+03</rscale>
<asrwt>0</asrwt>
<pdfrwt beam="2">  1        4 0.19121830E-02 0.12499670E+03</pdfrwt>
<pdfrwt beam="1">  1       -4 0.48348267E-01 0.12499670E+03</pdfrwt>
<totfact> 0.72372396E+03</totfact>
</mgrwt>
</event>
<event>
 5    1  0.3312904E-002  0.1250108E+03  0.7818608E-02  0.1235052E+00
         -4   -1    0    0    0  501 -0.00000000000E+00  0.00000000000E+00  0.23162245462E+03  0.23162593633E+03  0.12700000000E+01 0. -1.
          4   -1    0    0  501    0  0.00000000000E+00 -0.00000000000E+00 -0.16840136242E+02  0.16887956912E+02  0.12700000000E+01 0. -1.
         25    2    1    2    0    0  0.00000000000E+00  0.00000000000E+00  0.21478231837E+03  0.24851389325E+03  0.12501084293E+03 0.  0.
    9000005    1    3    3    0    0  0.46467731254E+02 -0.41733116974E+02  0.11184725237E+03  0.12810820022E+03  0.10000000000E+01 0.  0.
    9000005    1    3    3    0    0 -0.46467731254E+02  0.41733116974E+02  0.10293506601E+03  0.12040569303E+03  0.10000000000E+01 0.  0.
<mgrwt>
<rscale>  0 0.12501084E+03</rscale>
<asrwt>0</asrwt>
<pdfrwt beam="2">  1        4 0.25947369E-02 0.12501084E+03</pdfrwt>
<pdfrwt beam="1">  1       -4 0.35638165E-01 0.12501084E+03</pdfrwt>
<totfact> 0.82525558E+03</totfact>
</mgrwt>
</event>
<event>
 5    1  0.3312904E-002  0.1249979E+03  0.7818608E-02  0.1235073E+00
          4   -1    0    0  501    0  0.00000000000E+00  0.00000000000E+00  0.93189769003E+02  0.93198422448E+02  0.12700000000E+01 0.  1.
         -4   -1    0    0    0  501 -0.00000000000E+00 -0.00000000000E+00 -0.41895514964E+02  0.41914759621E+02  0.12700000000E+01 0.  1.
         25    2    1    2    0    0  0.00000000000E+00  0.00000000000E+00  0.51294254039E+02  0.13511318207E+03  0.12499788587E+03 0.  0.
    9000005    1    3    3    0    0 -0.40333383779E+02 -0.22929907961E+02 -0.19604158877E+02  0.50377431171E+02  0.10000000000E+01 0.  0.
    9000005    1    3    3    0    0  0.40333383779E+02  0.22929907961E+02  0.70898412916E+02  0.84735750897E+02  0.10000000000E+01 0.  0.
<mgrwt>
<rscale>  0 0.12499789E+03</rscale>
<asrwt>0</asrwt>
<pdfrwt beam="1">  1        4 0.14339033E-01 0.12499789E+03</pdfrwt>
<pdfrwt beam="2">  1       -4 0.64476099E-02 0.12499789E+03</pdfrwt>
<totfact> 0.10236174E+04</totfact>
</mgrwt>
</event>
<event>
 5    1  0.3312904E-002  0.1250010E+03  0.7818608E-02  0.1235068E+00
          4   -1    0    0  501    0  0.00000000000E+00  0.00000000000E+00  0.76499525803E+01  0.77546550201E+01  0.12700000000E+01 0.  1.
         -4   -1    0    0    0  501 -0.00000000000E+00 -0.00000000000E+00 -0.50705624766E+03  0.50705783812E+03  0.12700000000E+01 0.  1.
         25    2    1    2    0    0  0.00000000000E+00  0.00000000000E+00 -0.49940629508E+03  0.51481249314E+03  0.12500102208E+03 0.  0.
    9000005    1    3    3    0    0  0.35042222072E+02  0.29724777197E+02 -0.42413340344E+03  0.42661652994E+03  0.10000000000E+01 0.  0.
    9000005    1    3    3    0    0 -0.35042222072E+02 -0.29724777197E+02 -0.75272891645E+02  0.88195963195E+02  0.10000000000E+01 0.  0.
<mgrwt>
<rscale>  0 0.12500102E+03</rscale>
<asrwt>0</asrwt>
<pdfrwt beam="1">  1        4 0.11850926E-02 0.12500102E+03</pdfrwt>
<pdfrwt beam="2">  1       -4 0.78016804E-01 0.12500102E+03</pdfrwt>
<totfact> 0.54731922E+03</totfact>
</mgrwt>
</event>
<event>
 5    1  0.3312904E-002  0.1250020E+03  0.7818608E-02  0.1235066E+00
          4   -1    0    0  501    0  0.00000000000E+00  0.00000000000E+00  0.11489789399E+02  0.11559764722E+02  0.12700000000E+01 0. -1.
         -4   -1    0    0    0  501 -0.00000000000E+00 -0.00000000000E+00 -0.33888326683E+03  0.33888564655E+03  0.12700000000E+01 0. -1.
         25    2    1    2    0    0  0.00000000000E+00  0.00000000000E+00 -0.32739347744E+03  0.35044541128E+03  0.12500198885E+03 0.  0.
    9000005    1    3    3    0    0 -0.45494958209E+02  0.40739242696E+02 -0.12651472549E+03  0.14048648648E+03  0.10000000000E+01 0.  0.
    9000005    1    3    3    0    0  0.45494958209E+02 -0.40739242696E+02 -0.20087875194E+03  0.20995892479E+03  0.10000000000E+01 0.  0.
<mgrwt>
<rscale>  0 0.12500199E+03</rscale>
<asrwt>0</asrwt>
<pdfrwt beam="1">  1        4 0.17732259E-02 0.12500199E+03</pdfrwt>
<pdfrwt beam="2">  1       -4 0.52141445E-01 0.12500199E+03</pdfrwt>
<totfact> 0.69672520E+03</totfact>
</mgrwt>
</event>
<event>
 5    1  0.3312904E-002  0.1249994E+03  0.7818608E-02  0.1235070E+00
         -4   -1    0    0    0  501 -0.00000000000E+00  0.00000000000E+00  0.32616421042E+02  0.32641136953E+02  0.12700000000E+01 0.  1.
          4   -1    0    0  501    0  0.00000000000E+00 -0.00000000000E+00 -0.11968868043E+03  0.11969541813E+03  0.12700000000E+01 0.  1.
         25    2    1    2    0    0  0.00000000000E+00  0.00000000000E+00 -0.87072259386E+02  0.15233655509E+03  0.12499939064E+03 0.  0.
    9000005    1    3    3    0    0 -0.22411160416E+02  0.12355450885E+02  0.25943516796E+02  0.36455223789E+02  0.10000000000E+01 0.  0.
    9000005    1    3    3    0    0  0.22411160416E+02 -0.12355450885E+02 -0.11301577618E+03  0.11588133130E+03  0.10000000000E+01 0.  0.
<mgrwt>
<rscale>  0 0.12499939E+03</rscale>
<asrwt>0</asrwt>
<pdfrwt beam="2">  1        4 0.18416062E-01 0.12499939E+03</pdfrwt>
<pdfrwt beam="1">  1       -4 0.50203305E-02 0.12499939E+03</pdfrwt>
<totfact> 0.98841319E+03</totfact>
</mgrwt>
</event>
<event>
 5    1  0.3312904E-002  0.1250054E+03  0.7818608E-02  0.1235061E+00
         -4   -1    0    0    0  501 -0.00000000000E+00  0.00000000000E+00  0.78500771210E+02  0.78511043686E+02  0.12700000000E+01 0.  1.
          4   -1    0    0  501    0  0.00000000000E+00 -0.00000000000E+00 -0.49743288025E+02  0.49759497621E+02  0.12700000000E+01 0.  1.
         25    2    1    2    0    0  0.00000000000E+00  0.00000000000E+00  0.28757483185E+02  0.12827054131E+03  0.12500535560E+03 0.  0.
    9000005    1    3    3    0    0 -0.83146603281E+01 -0.25768159078E+02  0.72174493094E+02  0.77092730216E+02  0.10000000000E+01 0.  0.
    9000005    1    3    3    0    0  0.83146603281E+01  0.25768159078E+02 -0.43417009909E+02  0.51177811091E+02  0.10000000000E+01 0.  0.
<mgrwt>
<rscale>  0 0.12500536E+03</rscale>
<asrwt>0</asrwt>
<pdfrwt beam="2">  1        4 0.76548507E-02 0.12500536E+03</pdfrwt>
<pdfrwt beam="1">  1       -4 0.12079079E-01 0.12500536E+03</pdfrwt>
<totfact> 0.10380394E+04</totfact>
</mgrwt>
</event>
<event>
 5    1  0.3312904E-002  0.1250016E+03  0.7818608E-02  0.1235067E+00
         -4   -1    0    0    0  501 -0.00000000000E+00  0.00000000000E+00  0.62498945728E+02  0.62511847813E+02  0.12700000000E+01 0.  1.
          4   -1    0    0  501    0  0.00000000000E+00 -0.00000000000E+00 -0.62476810974E+02  0.62489717630E+02  0.12700000000E+01 0.  1.
         25    2    1    2    0    0  0.00000000000E+00  0.00000000000E+00  0.22134753285E-01  0.12500156544E+03  0.12500156348E+03 0.  0.
    9000005    1    3    3    0    0 -0.25679767717E+02 -0.52687527304E+02  0.21688745520E+02  0.62504621314E+02  0.10000000000E+01 0.  0.
    9000005    1    3    3    0    0  0.25679767717E+02  0.52687527304E+02 -0.21666610767E+02  0.62496944129E+02  0.10000000000E+01 0.  0.
<mgrwt>
<rscale>  0 0.12500156E+03</rscale>
<asrwt>0</asrwt>
<pdfrwt beam="2">  1        4 0.96138024E-02 0.12500156E+03</pdfrwt>
<pdfrwt beam="1">  1       -4 0.96172077E-02 0.12500156E+03</pdfrwt>
<totfact> 0.10452459E+04</totfact>
</mgrwt>
</event>
<event>
 5    1  0.3312904E-002  0.1249942E+03  0.7818608E-02  0.1235078E+00
         -4   -1    0    0    0  501 -0.00000000000E+00  0.00000000000E+00  0.36740683015E+02  0.36762626245E+02  0.12700000000E+01 0. -1.
          4   -1    0    0  501    0  0.00000000000E+00 -0.00000000000E+00 -0.10625218483E+03  0.10625977452E+03  0.12700000000E+01 0. -1.
         25    2    1    2    0    0  0.00000000000E+00  0.00000000000E+00 -0.69511501812E+02  0.14302240076E+03  0.12499423281E+03 0.  0.
    9000005    1    3    3    0    0 -0.36283210097E+02  0.47612527033E+02 -0.55271211393E+02  0.81482089285E+02  0.10000000000E+01 0.  0.
    9000005    1    3    3    0    0  0.36283210097E+02 -0.47612527033E+02 -0.14240290419E+02  0.61540311477E+02  0.10000000000E+01 0.  0.
<mgrwt>
<rscale>  0 0.12499423E+03</rscale>
<asrwt>0</asrwt>
<pdfrwt beam="2">  1        4 0.16348762E-01 0.12499423E+03</pdfrwt>
<pdfrwt beam="1">  1       -4 0.56546846E-02 0.12499423E+03</pdfrwt>
<totfact> 0.10072633E+04</totfact>
</mgrwt>
</event>
<event>
 5    1  0.3312904E-002  0.1250000E+03  0.7818608E-02  0.1235069E+00
         -4   -1    0    0    0  501 -0.00000000000E+00  0.00000000000E+00  0.11847555135E+03  0.11848235804E+03  0.12700000000E+01 0.  1.
          4   -1    0    0  501    0  0.00000000000E+00 -0.00000000000E+00 -0.32950964722E+02  0.32975429885E+02  0.12700000000E+01 0.  1.
         25    2    1    2    0    0  0.00000000000E+00  0.00000000000E+00  0.85524586628E+02  0.15145778793E+03  0.12500002643E+03 0.  0.
    9000005    1    3    3    0    0 -0.27146868534E+02  0.52107468723E+02  0.68554217988E+02  0.90292976315E+02  0.10000000000E+01 0.  0.
    9000005    1    3    3    0    0  0.27146868534E+02 -0.52107468723E+02  0.16970368641E+02  0.61164811614E+02  0.10000000000E+01 0.  0.
<mgrwt>
<rscale>  0 0.12500003E+03</rscale>
<asrwt>0</asrwt>
<pdfrwt beam="2">  1        4 0.50717846E-02 0.12500003E+03</pdfrwt>
<pdfrwt beam="1">  1       -4 0.18229414E-01 0.12500003E+03</pdfrwt>
<totfact> 0.99013841E+03</totfact>
</mgrwt>
</event>
<event>
 5    1  0.3312904E-002  0.1249986E+03  0.7818608E-02  0.1235071E+00
          4   -1    0    0  501    0  0.00000000000E+00  0.00000000000E+00  0.40962913581E+02  0.40982596173E+02  0.12700000000E+01 0.  1.
         -4   -1    0    0    0  501 -0.00000000000E+00 -0.00000000000E+00 -0.95311743256E+02  0.95320204063E+02  0.12700000000E+01 0.  1.
         25    2    1    2    0    0  0.00000000000E+00  0.00000000000E+00 -0.54348829675E+02  0.13630280024E+03  0.12499863225E+03 0.  0.
    9000005    1    3    3    0    0  0.26752395079E+02 -0.67601888603E+01  0.33965546091E+02  0.43772698308E+02  0.10000000000E+01 0.  0.
    9000005    1    3    3    0    0 -0.26752395079E+02  0.67601888603E+01 -0.88314375766E+02  0.92530101928E+02  0.10000000000E+01 0.  0.
<mgrwt>
<rscale>  0 0.12499863E+03</rscale>
<asrwt>0</asrwt>
<pdfrwt beam="1">  1        4 0.63041516E-02 0.12499863E+03</pdfrwt>
<pdfrwt beam="2">  1       -4 0.14665510E-01 0.12499863E+03</pdfrwt>
<totfact> 0.10210999E+04</totfact>
</mgrwt>
</event>
<event>
 5    1  0.3312904E-002  0.1250058E+03  0.7818608E-02  0.1235060E+00
         -4   -1    0    0    0  501 -0.00000000000E+00  0.00000000000E+00  0.25096650848E+03  0.25096972184E+03  0.12700000000E+01 0.  1.
          4   -1    0    0  501    0  0.00000000000E+00 -0.00000000000E+00 -0.15537038452E+02  0.15588857041E+02  0.12700000000E+01 0.  1.
         25    2    1    2    0    0  0.00000000000E+00  0.00000000000E+00  0.23542947003E+03  0.26655857888E+03  0.12500576233E+03 0.  0.
    9000005    1    3    3    0    0 -0.39128947572E+02  0.48157903762E+02  0.13357932969E+03  0.14729119306E+03  0.10000000000E+01 0.  0.
    9000005    1    3    3    0    0  0.39128947572E+02 -0.48157903762E+02  0.10185014034E+03  0.11926738582E+03  0.10000000000E+01 0.  0.
<mgrwt>
<rscale>  0 0.12500576E+03</rscale>
<asrwt>0</asrwt>
<pdfrwt beam="2">  1        4 0.23945469E-02 0.12500576E+03</pdfrwt>
<pdfrwt beam="1">  1       -4 0.38614463E-01 0.12500576E+03</pdfrwt>
<totfact> 0.79984123E+03</totfact>
</mgrwt>
</event>
<event>
 5    1  0.3312904E-002  0.1250030E+03  0.7818608E-02  0.1235065E+00
          4   -1    0    0  501    0  0.00000000000E+00  0.00000000000E+00  0.67288469272E+03  0.67288589122E+03  0.12700000000E+01 0. -1.
         -4   -1    0    0    0  501 -0.00000000000E+00 -0.00000000000E+00 -0.57348308503E+01  0.58737709251E+01  0.12700000000E+01 0. -1.
         25    2    1    2    0    0  0.00000000000E+00  0.00000000000E+00  0.66714986187E+03  0.67875966214E+03  0.12500296299E+03 0.  0.
    9000005    1    3    3    0    0 -0.11855958075E+02 -0.15146936052E+02  0.10712463031E+02  0.22039743143E+02  0.10000000000E+01 0.  0.
    9000005    1    3    3    0    0  0.11855958075E+02  0.15146936052E+02  0.65643739884E+03  0.65671991900E+03  0.10000000000E+01 0.  0.
<mgrwt>
<rscale>  0 0.12500296E+03</rscale>
<asrwt>0</asrwt>
<pdfrwt beam="1">  1        4 0.10353154E+00 0.12500296E+03</pdfrwt>
<pdfrwt beam="2">  1       -4 0.89306125E-03 0.12500296E+03</pdfrwt>
<totfact> 0.44229034E+03</totfact>
</mgrwt>
</event>
<event>
 5    1  0.3312904E-002  0.1249997E+03  0.7818608E-02  0.1235070E+00
         -4   -1    0    0    0  501 -0.00000000000E+00  0.00000000000E+00  0.49351085796E+03  0.49351249206E+03  0.12700000000E+01 0.  1.
          4   -1    0    0  501    0  0.00000000000E+00 -0.00000000000E+00 -0.78625931551E+01  0.79645006825E+01  0.12700000000E+01 0.  1.
         25    2    1    2    0    0  0.00000000000E+00  0.00000000000E+00  0.48564826480E+03  0.50147699274E+03  0.12499974859E+03 0.  0.
    9000005    1    3    3    0    0  0.47003555340E+02 -0.38924742295E+02  0.29676258172E+03  0.30297442085E+03  0.10000000000E+01 0.  0.
    9000005    1    3    3    0    0 -0.47003555340E+02  0.38924742295E+02  0.18888568308E+03  0.19850257189E+03  0.10000000000E+01 0.  0.
<mgrwt>
<rscale>  0 0.12499975E+03</rscale>
<asrwt>0</asrwt>
<pdfrwt beam="2">  1        4 0.12175943E-02 0.12499975E+03</pdfrwt>
<pdfrwt beam="1">  1       -4 0.75932723E-01 0.12499975E+03</pdfrwt>
<totfact> 0.55750253E+03</totfact>
</mgrwt>
</event>
<event>
 5    1  0.3312904E-002  0.1250008E+03  0.7818608E-02  0.1235068E+00
         -4   -1    0    0    0  501 -0.00000000000E+00  0.00000000000E+00  0.16670124942E+02  0.16718431911E+02  0.12700000000E+01 0. -1.
          4   -1    0    0  501    0  0.00000000000E+00 -0.00000000000E+00 -0.23394031902E+03  0.23394376624E+03  0.12700000000E+01 0. -1.
         25    2    1    2    0    0  0.00000000000E+00  0.00000000000E+00 -0.21727019408E+03  0.25066219815E+03  0.12500080139E+03 0.  0.
    9000005    1    3    3    0    0  0.56647152585E+02  0.80433987659E+01 -0.58234830291E+02  0.81644911774E+02  0.10000000000E+01 0.  0.
    9000005    1    3    3    0    0 -0.56647152585E+02 -0.80433987659E+01 -0.15903536379E+03  0.16901728638E+03  0.10000000000E+01 0.  0.
<mgrwt>
<rscale>  0 0.12500080E+03</rscale>
<asrwt>0</asrwt>
<pdfrwt beam="2">  1        4 0.35994797E-01 0.12500080E+03</pdfrwt>
<pdfrwt beam="1">  1       -4 0.25686159E-02 0.12500080E+03</pdfrwt>
<totfact> 0.82233147E+03</totfact>
</mgrwt>
</event>
<event>
 5    1  0.3312904E-002  0.1250469E+03  0.7818608E-02  0.1234996E+00
         -4   -1    0    0    0  501 -0.00000000000E+00  0.00000000000E+00  0.14639332771E+04  0.14639338280E+04  0.12700000000E+01 0.  1.
          4   -1    0    0  501    0  0.00000000000E+00 -0.00000000000E+00 -0.25187454247E+01  0.28208116765E+01  0.12700000000E+01 0.  1.
         25    2    1    2    0    0  0.00000000000E+00  0.00000000000E+00  0.14614145317E+04  0.14667546396E+04  0.12504694942E+03 0.  0.
    9000005    1    3    3    0    0 -0.30254401263E+02 -0.52324856802E+02  0.91800177263E+03  0.91998993146E+03  0.10000000000E+01 0.  0.
    9000005    1    3    3    0    0  0.30254401263E+02  0.52324856802E+02  0.54341275904E+03  0.54676470819E+03  0.10000000000E+01 0.  0.
<mgrwt>
<rscale>  0 0.12504695E+03</rscale>
<asrwt>0</asrwt>
<pdfrwt beam="2">  1        4 0.41077892E-03 0.12504695E+03</pdfrwt>
<pdfrwt beam="1">  1       -4 0.22524302E+00 0.12504695E+03</pdfrwt>
<totfact> 0.18573201E+03</totfact>
</mgrwt>
</event>
<event>
 5    1  0.3312904E-002  0.1249998E+03  0.7818608E-02  0.1235070E+00
         -4   -1    0    0    0  501 -0.00000000000E+00  0.00000000000E+00  0.63217916799E+02  0.63230672181E+02  0.12700000000E+01 0. -1.
          4   -1    0    0  501    0  0.00000000000E+00 -0.00000000000E+00 -0.61764499028E+02  0.61777554501E+02  0.12700000000E+01 0. -1.
         25    2    1    2    0    0  0.00000000000E+00  0.00000000000E+00  0.14534177718E+01  0.12500822668E+03  0.12499977726E+03 0.  0.
    9000005    1    3    3    0    0  0.30145506762E+02 -0.47367768509E+02  0.28165381952E+02  0.62823131186E+02  0.10000000000E+01 0.  0.
    9000005    1    3    3    0    0 -0.30145506762E+02  0.47367768509E+02 -0.26711964180E+02  0.62185095496E+02  0.10000000000E+01 0.  0.
<mgrwt>
<rscale>  0 0.12499978E+03</rscale>
<asrwt>0</asrwt>
<pdfrwt beam="2">  1        4 0.95042162E-02 0.12499978E+03</pdfrwt>
<pdfrwt beam="1">  1       -4 0.97278187E-02 0.12499978E+03</pdfrwt>
<totfact> 0.10452736E+04</totfact>
</mgrwt>
</event>
<event>
 5    1  0.3312904E-002  0.1250009E+03  0.7818608E-02  0.1235068E+00
          4   -1    0    0  501    0  0.00000000000E+00  0.00000000000E+00  0.27380552166E+02  0.27409989728E+02  0.12700000000E+01 0.  1.
         -4   -1    0    0    0  501 -0.00000000000E+00 -0.00000000000E+00 -0.14255827991E+03  0.14256393678E+03  0.12700000000E+01 0.  1.
         25    2    1    2    0    0  0.00000000000E+00  0.00000000000E+00 -0.11517772774E+03  0.16997392651E+03  0.12500090690E+03 0.  0.
    9000005    1    3    3    0    0 -0.53748422612E+02  0.22366471744E+02 -0.88481792560E+02  0.10592062880E+03  0.10000000000E+01 0.  0.
    9000005    1    3    3    0    0  0.53748422612E+02 -0.22366471744E+02 -0.26695935181E+02  0.64053297704E+02  0.10000000000E+01 0.  0.
<mgrwt>
<rscale>  0 0.12500091E+03</rscale>
<asrwt>0</asrwt>
<pdfrwt beam="1">  1        4 0.42150923E-02 0.12500091E+03</pdfrwt>
<pdfrwt beam="2">  1       -4 0.21934742E-01 0.12500091E+03</pdfrwt>
<totfact> 0.95451554E+03</totfact>
</mgrwt>
</event>
<event>
 5    1  0.3312904E-002  0.1250016E+03  0.7818608E-02  0.1235067E+00
         -4   -1    0    0    0  501 -0.00000000000E+00  0.00000000000E+00  0.32279704829E+03  0.32279954660E+03  0.12700000000E+01 0. -1.
          4   -1    0    0  501    0  0.00000000000E+00 -0.00000000000E+00 -0.12065690583E+02  0.12132344754E+02  0.12700000000E+01 0. -1.
         25    2    1    2    0    0  0.00000000000E+00  0.00000000000E+00  0.31073135771E+03  0.33493189136E+03  0.12500158072E+03 0.  0.
    9000005    1    3    3    0    0 -0.55092593375E+02 -0.24789191631E+02  0.19820718049E+03  0.20721193079E+03  0.10000000000E+01 0.  0.
    9000005    1    3    3    0    0  0.55092593375E+02  0.24789191631E+02  0.11252417722E+03  0.12771996056E+03  0.10000000000E+01 0.  0.
<mgrwt>
<rscale>  0 0.12500158E+03</rscale>
<asrwt>0</asrwt>
<pdfrwt beam="2">  1        4 0.18615795E-02 0.12500158E+03</pdfrwt>
<pdfrwt beam="1">  1       -4 0.49666405E-01 0.12500158E+03</pdfrwt>
<totfact> 0.71412173E+03</totfact>
</mgrwt>
</event>
<event>
 5    1  0.3312904E-002  0.1249994E+03  0.7818608E-02  0.1235070E+00
          4   -1    0    0  501    0  0.00000000000E+00  0.00000000000E+00  0.91576639713E+03  0.91576727776E+03  0.12700000000E+01 0. -1.
         -4   -1    0    0    0  501 -0.00000000000E+00 -0.00000000000E+00 -0.41700789604E+01  0.43591809478E+01  0.12700000000E+01 0. -1.
         25    2    1    2    0    0  0.00000000000E+00  0.00000000000E+00  0.91159631817E+03  0.92012645871E+03  0.12499941084E+03 0.  0.
    9000005    1    3    3    0    0  0.33374145936E+02 -0.22354342362E+02  0.10341517921E+03  0.11094705733E+03  0.10000000000E+01 0.  0.
    9000005    1    3    3    0    0 -0.33374145936E+02  0.22354342362E+02  0.80818113896E+03  0.80917940138E+03  0.10000000000E+01 0.  0.
<mgrwt>
<rscale>  0 0.12499941E+03</rscale>
<asrwt>0</asrwt>
<pdfrwt beam="1">  1        4 0.14090193E+00 0.12499941E+03</pdfrwt>
<pdfrwt beam="2">  1       -4 0.65616381E-03 0.12499941E+03</pdfrwt>
<totfact> 0.33401264E+03</totfact>
</mgrwt>
</event>
<event>
 5    1  0.3312904E-002  0.1250065E+03  0.7818608E-02  0.1235059E+00
         -4   -1    0    0    0  501 -0.00000000000E+00  0.00000000000E+00  0.20531142426E+03  0.20531535216E+03  0.12700000000E+01 0.  1.
          4   -1    0    0  501    0  0.00000000000E+00 -0.00000000000E+00 -0.19002657085E+02  0.19045048603E+02  0.12700000000E+01 0.  1.
         25    2    1    2    0    0  0.00000000000E+00  0.00000000000E+00  0.18630876718E+03  0.22436040076E+03  0.12500653064E+03 0.  0.
    9000005    1    3    3    0    0  0.62486488504E+02 -0.84203654932E+00  0.92036552867E+02  0.11125195430E+03  0.10000000000E+01 0.  0.
    9000005    1    3    3    0    0 -0.62486488504E+02  0.84203654932E+00  0.94272214311E+02  0.11310844647E+03  0.10000000000E+01 0.  0.
<mgrwt>
<rscale>  0 0.12500653E+03</rscale>
<asrwt>0</asrwt>
<pdfrwt beam="2">  1        4 0.29270487E-02 0.12500653E+03</pdfrwt>
<pdfrwt beam="1">  1       -4 0.31589936E-01 0.12500653E+03</pdfrwt>
<totfact> 0.86170475E+03</totfact>
</mgrwt>
</event>
<event>
 5    1  0.3312904E-002  0.1249980E+03  0.7818608E-02  0.1235072E+00
         -4   -1    0    0    0  501 -0.00000000000E+00  0.00000000000E+00  0.12890754647E+04  0.12890760903E+04  0.12700000000E+01 0. -1.
          4   -1    0    0  501    0  0.00000000000E+00 -0.00000000000E+00 -0.28964501415E+01  0.31626450042E+01  0.12700000000E+01 0. -1.
         25    2    1    2    0    0  0.00000000000E+00  0.00000000000E+00  0.12861790145E+04  0.12922387353E+04  0.12499796614E+03 0.  0.
    9000005    1    3    3    0    0  0.30827032097E+02  0.15503170240E+01  0.81358497616E+02  0.87022494363E+02  0.10000000000E+01 0.  0.
    9000005    1    3    3    0    0 -0.30827032097E+02 -0.15503170240E+01  0.12048205169E+04  0.12052162409E+04  0.10000000000E+01 0.  0.
<mgrwt>
<rscale>  0 0.12499797E+03</rscale>
<asrwt>0</asrwt>
<pdfrwt beam="2">  1        4 0.46613243E-03 0.12499797E+03</pdfrwt>
<pdfrwt beam="1">  1       -4 0.19833980E+00 0.12499797E+03</pdfrwt>
<totfact> 0.22413437E+03</totfact>
</mgrwt>
</event>
<event>
 5    1  0.3312904E-002  0.1250021E+03  0.7818608E-02  0.1235066E+00
          4   -1    0    0  501    0  0.00000000000E+00  0.00000000000E+00  0.33685135127E+01  0.35999699006E+01  0.12700000000E+01 0.  1.
         -4   -1    0    0    0  501 -0.00000000000E+00 -0.00000000000E+00 -0.11209258318E+04  0.11209265513E+04  0.12700000000E+01 0.  1.
         25    2    1    2    0    0  0.00000000000E+00  0.00000000000E+00 -0.11175573183E+04  0.11245265212E+04  0.12500214843E+03 0.  0.
    9000005    1    3    3    0    0  0.51835847635E+02 -0.30088995618E+02 -0.71795588902E+03  0.72045399668E+03  0.10000000000E+01 0.  0.
    9000005    1    3    3    0    0 -0.51835847635E+02  0.30088995618E+02 -0.39960142929E+03  0.40407252449E+03  0.10000000000E+01 0.  0.
<mgrwt>
<rscale>  0 0.12500215E+03</rscale>
<asrwt>0</asrwt>
<pdfrwt beam="1">  1        4 0.53609342E-03 0.12500215E+03</pdfrwt>
<pdfrwt beam="2">  1       -4 0.17246770E+00 0.12500215E+03</pdfrwt>
<totfact> 0.26775228E+03</totfact>
</mgrwt>
</event>
<event>
 5    1  0.3312904E-002  0.1250056E+03  0.7818608E-02  0.1235061E+00
         -4   -1    0    0    0  501 -0.00000000000E+00  0.00000000000E+00  0.59981606853E+01  0.61311362411E+01  0.12700000000E+01 0.  1.
          4   -1    0    0  501    0  0.00000000000E+00 -0.00000000000E+00 -0.64402558947E+03  0.64402684167E+03  0.12700000000E+01 0.  1.
         25    2    1    2    0    0  0.00000000000E+00  0.00000000000E+00 -0.63802742878E+03  0.65015797791E+03  0.12500558532E+03 0.  0.
    9000005    1    3    3    0    0 -0.11836438657E+02 -0.60480895920E+02 -0.26507346697E+03  0.27214515051E+03  0.10000000000E+01 0.  0.
    9000005    1    3    3    0    0  0.11836438657E+02  0.60480895920E+02 -0.37295396181E+03  0.37801282740E+03  0.10000000000E+01 0.  0.
<mgrwt>
<rscale>  0 0.12500559E+03</rscale>
<asrwt>0</asrwt>
<pdfrwt beam="2">  1        4 0.99091131E-01 0.12500559E+03</pdfrwt>
<pdfrwt beam="1">  1       -4 0.93311967E-03 0.12500559E+03</pdfrwt>
<totfact> 0.45841432E+03</totfact>
</mgrwt>
</event>
<event>
 5    1  0.3312904E-002  0.1249995E+03  0.7818608E-02  0.1235070E+00
          4   -1    0    0  501    0  0.00000000000E+00  0.00000000000E+00  0.10458976743E+02  0.10535800610E+02  0.12700000000E+01 0. -1.
         -4   -1    0    0    0  501 -0.00000000000E+00 -0.00000000000E+00 -0.37203546961E+03  0.37203763727E+03  0.12700000000E+01 0. -1.
         25    2    1    2    0    0  0.00000000000E+00  0.00000000000E+00 -0.36157649287E+03  0.38257343788E+03  0.12499950072E+03 0.  0.
    9000005    1    3    3    0    0 -0.57658688967E+02 -0.23108022232E+02 -0.15986983873E+03  0.17151638534E+03  0.10000000000E+01 0.  0.
    9000005    1    3    3    0    0  0.57658688967E+02  0.23108022232E+02 -0.20170665413E+03  0.21105705254E+03  0.10000000000E+01 0.  0.
<mgrwt>
<rscale>  0 0.12499950E+03</rscale>
<asrwt>0</asrwt>
<pdfrwt beam="1">  1        4 0.16151499E-02 0.12499950E+03</pdfrwt>
<pdfrwt beam="2">  1       -4 0.57242292E-01 0.12499950E+03</pdfrwt>
<totfact> 0.66284451E+03</totfact>
</mgrwt>
</event>
<event>
 5    1  0.3312904E-002  0.1250003E+03  0.7818608E-02  0.1235069E+00
          4   -1    0    0  501    0  0.00000000000E+00  0.00000000000E+00  0.60274493923E+03  0.60274627719E+03  0.12700000000E+01 0.  1.
         -4   -1    0    0    0  501 -0.00000000000E+00 -0.00000000000E+00 -0.64172216294E+01  0.65416842970E+01  0.12700000000E+01 0.  1.
         25    2    1    2    0    0  0.00000000000E+00  0.00000000000E+00  0.59632771760E+03  0.60928796149E+03  0.12500029294E+03 0.  0.
    9000005    1    3    3    0    0  0.42595095176E+02  0.19463491473E+02  0.96477761581E+02  0.10724797487E+03  0.10000000000E+01 0.  0.
    9000005    1    3    3    0    0 -0.42595095176E+02 -0.19463491473E+02  0.49984995602E+03  0.50203998662E+03  0.10000000000E+01 0.  0.
<mgrwt>
<rscale>  0 0.12500029E+03</rscale>
<asrwt>0</asrwt>
<pdfrwt beam="1">  1        4 0.92739655E-01 0.12500029E+03</pdfrwt>
<pdfrwt beam="2">  1       -4 0.99694197E-03 0.12500029E+03</pdfrwt>
<totfact> 0.48286222E+03</totfact>
</mgrwt>
</event>
<event>
 5    1  0.3312904E-002  0.1249997E+03  0.7818608E-02  0.1235070E+00
          4   -1    0    0  501    0  0.00000000000E+00  0.00000000000E+00  0.50688565828E+02  0.50704473231E+02  0.12700000000E+01 0. -1.
         -4   -1    0    0    0  501 -0.00000000000E+00 -0.00000000000E+00 -0.77030097447E+02  0.77040566020E+02  0.12700000000E+01 0. -1.
         25    2    1    2    0    0  0.00000000000E+00  0.00000000000E+00 -0.26341531619E+02  0.12774503925E+03  0.12499967506E+03 0.  0.
    9000005    1    3    3    0    0 -0.62342988471E+02  0.38385726247E+01 -0.15175178870E+02  0.64285837515E+02  0.10000000000E+01 0.  0.
    9000005    1    3    3    0    0  0.62342988471E+02 -0.38385726247E+01 -0.11166352750E+02  0.63459201736E+02  0.10000000000E+01 0.  0.
<mgrwt>
<rscale>  0 0.12499968E+03</rscale>
<asrwt>0</asrwt>
<pdfrwt beam="1">  1        4 0.78002698E-02 0.12499968E+03</pdfrwt>
<pdfrwt beam="2">  1       -4 0.11852813E-01 0.12499968E+03</pdfrwt>
<totfact> 0.10393074E+04</totfact>
</mgrwt>
</event>
<event>
 5    1  0.3312904E-002  0.1250009E+03  0.7818608E-02  0.1235068E+00
         -4   -1    0    0    0  501 -0.00000000000E+00  0.00000000000E+00  0.83214954967E+01  0.84178493275E+01  0.12700000000E+01 0. -1.
          4   -1    0    0  501    0  0.00000000000E+00 -0.00000000000E+00 -0.46662458660E+03  0.46662631486E+03  0.12700000000E+01 0. -1.
         25    2    1    2    0    0  0.00000000000E+00  0.00000000000E+00 -0.45830309111E+03  0.47504416419E+03  0.12500093845E+03 0.  0.
    9000005    1    3    3    0    0  0.54552172726E+02  0.14802963325E+02 -0.12787154388E+03  0.13981129785E+03  0.10000000000E+01 0.  0.
    9000005    1    3    3    0    0 -0.54552172726E+02 -0.14802963325E+02 -0.33043154723E+03  0.33523286634E+03  0.10000000000E+01 0.  0.
<mgrwt>
<rscale>  0 0.12500094E+03</rscale>
<asrwt>0</asrwt>
<pdfrwt beam="2">  1        4 0.71795922E-01 0.12500094E+03</pdfrwt>
<pdfrwt beam="1">  1       -4 0.12877752E-02 0.12500094E+03</pdfrwt>
<totfact> 0.57852805E+03</totfact>
</mgrwt>
</event>
<event>
 5    1  0.3312904E-002  0.1249991E+03  0.7818608E-02  0.1235071E+00
         -4   -1    0    0    0  501 -0.00000000000E+00  0.00000000000E+00  0.18450891409E+02  0.18494547677E+02  0.12700000000E+01 0. -1.
          4   -1    0    0  501    0  0.00000000000E+00 -0.00000000000E+00 -0.21141177533E+03  0.21141558989E+03  0.12700000000E+01 0. -1.
         25    2    1    2    0    0  0.00000000000E+00  0.00000000000E+00 -0.19296088392E+03  0.22991013757E+03  0.12499907453E+03 0.  0.
    9000005    1    3    3    0    0  0.42329878591E+02  0.45325989174E+02 -0.11059973871E+03  0.12680522907E+03  0.10000000000E+01 0.  0.
    9000005    1    3    3    0    0 -0.42329878591E+02 -0.45325989174E+02 -0.82361145211E+02  0.10310490850E+03  0.10000000000E+01 0.  0.
<mgrwt>
<rscale>  0 0.12499907E+03</rscale>
<asrwt>0</asrwt>
<pdfrwt beam="2">  1        4 0.32528538E-01 0.12499907E+03</pdfrwt>
<pdfrwt beam="1">  1       -4 0.28422504E-02 0.12499907E+03</pdfrwt>
<totfact> 0.85325160E+03</totfact>
</mgrwt>
</event>
<event>
 5    1  0.3312904E-002  0.1250066E+03  0.7818608E-02  0.1235059E+00
         -4   -1    0    0    0  501 -0.00000000000E+00  0.00000000000E+00  0.22410147097E+04  0.22410150696E+04  0.12700000000E+01 0. -1.
          4   -1    0    0  501    0  0.00000000000E+00 -0.00000000000E+00 -0.15115433500E+01  0.19742500598E+01  0.12700000000E+01 0. -1.
         25    2    1    2    0    0  0.00000000000E+00  0.00000000000E+00  0.22395031664E+04  0.22429893196E+04  0.12500662316E+03 0.  0.
    9000005    1    3    3    0    0  0.79222875981E+01  0.56494054013E+02  0.66182859201E+03  0.66428339283E+03  0.10000000000E+01 0.  0.
    9000005    1    3    3    0    0 -0.79222875981E+01 -0.56494054013E+02  0.15776745743E+04  0.15787059268E+04  0.10000000000E+01 0.  0.
<mgrwt>
<rscale>  0 0.12500662E+03</rscale>
<asrwt>0</asrwt>
<pdfrwt beam="2">  1        4 0.26816586E-03 0.12500662E+03</pdfrwt>
<pdfrwt beam="1">  1       -4 0.34480683E+00 0.12500662E+03</pdfrwt>
<totfact> 0.70126950E+02</totfact>
</mgrwt>
</event>
<event>
 5    1  0.3312904E-002  0.1249968E+03  0.7818608E-02  0.1235074E+00
          4   -1    0    0  501    0  0.00000000000E+00  0.00000000000E+00  0.18820284255E+02  0.18863085629E+02  0.12700000000E+01 0. -1.
         -4   -1    0    0    0  501 -0.00000000000E+00 -0.00000000000E+00 -0.20726433091E+03  0.20726822180E+03  0.12700000000E+01 0. -1.
         25    2    1    2    0    0  0.00000000000E+00  0.00000000000E+00 -0.18844404666E+03  0.22613130743E+03  0.12499683788E+03 0.  0.
    9000005    1    3    3    0    0 -0.56513183956E+02  0.58662940828E+01 -0.47154255306E+02  0.73842245094E+02  0.10000000000E+01 0.  0.
    9000005    1    3    3    0    0  0.56513183956E+02 -0.58662940828E+01 -0.14128979135E+03  0.15228906234E+03  0.10000000000E+01 0.  0.
<mgrwt>
<rscale>  0 0.12499684E+03</rscale>
<asrwt>0</asrwt>
<pdfrwt beam="1">  1        4 0.28990202E-02 0.12499684E+03</pdfrwt>
<pdfrwt beam="2">  1       -4 0.31890410E-01 0.12499684E+03</pdfrwt>
<totfact> 0.85913264E+03</totfact>
</mgrwt>
</event>
<event>
 5    1  0.3312904E-002  0.1250018E+03  0.7818608E-02  0.1235066E+00
         -4   -1    0    0    0  501 -0.00000000000E+00  0.00000000000E+00  0.19518355714E+02  0.19559629592E+02  0.12700000000E+01 0.  1.
          4   -1    0    0  501    0  0.00000000000E+00 -0.00000000000E+00 -0.19988323403E+03  0.19988726860E+03  0.12700000000E+01 0.  1.
         25    2    1    2    0    0  0.00000000000E+00  0.00000000000E+00 -0.18036487832E+03  0.21944689819E+03  0.12500180716E+03 0.  0.
    9000005    1    3    3    0    0  0.21440696735E+02  0.57100013112E+02 -0.66288382500E+02  0.90084763574E+02  0.10000000000E+01 0.  0.
    9000005    1    3    3    0    0 -0.21440696735E+02 -0.57100013112E+02 -0.11407649582E+03  0.12936213462E+03  0.10000000000E+01 0.  0.
<mgrwt>
<rscale>  0 0.12500181E+03</rscale>
<asrwt>0</asrwt>
<pdfrwt beam="2">  1        4 0.30754751E-01 0.12500181E+03</pdfrwt>
<pdfrwt beam="1">  1       -4 0.30063094E-02 0.12500181E+03</pdfrwt>
<totfact> 0.86952437E+03</totfact>
</mgrwt>
</event>
<event>
 5    1  0.3312904E-002  0.1249981E+03  0.7818608E-02  0.1235072E+00
          4   -1    0    0  501    0  0.00000000000E+00  0.00000000000E+00  0.15844172192E+03  0.15844681172E+03  0.12700000000E+01 0. -1.
         -4   -1    0    0    0  501 -0.00000000000E+00 -0.00000000000E+00 -0.24631564952E+02  0.24664283731E+02  0.12700000000E+01 0. -1.
         25    2    1    2    0    0  0.00000000000E+00  0.00000000000E+00  0.13381015697E+03  0.18311109546E+03  0.12499806067E+03 0.  0.
    9000005    1    3    3    0    0  0.61809984434E+02  0.19567236988E+01  0.53735055768E+02  0.81931429634E+02  0.10000000000E+01 0.  0.
    9000005    1    3    3    0    0 -0.61809984434E+02 -0.19567236988E+01  0.80075101202E+02  0.10117966582E+03  0.10000000000E+01 0.  0.
<mgrwt>
<rscale>  0 0.12499806E+03</rscale>
<asrwt>0</asrwt>
<pdfrwt beam="1">  1        4 0.24378558E-01 0.12499806E+03</pdfrwt>
<pdfrwt beam="2">  1       -4 0.37923798E-02 0.12499806E+03</pdfrwt>
<totfact> 0.93064019E+03</totfact>
</mgrwt>
</event>
<event>
 5    1  0.3312904E-002  0.1249981E+03  0.7818608E-02  0.1235072E+00
          4   -1    0    0  501    0  0.00000000000E+00  0.00000000000E+00  0.62594860333E+01  0.63870232035E+01  0.12700000000E+01 0.  1.
         -4   -1    0    0    0  501 -0.00000000000E+00 -0.00000000000E+00 -0.61761287123E+03  0.61761417699E+03  0.12700000000E+01 0.  1.
         25    2    1    2    0    0  0.00000000000E+00  0.00000000000E+00 -0.61135338520E+03  0.62400120019E+03  0.12499814495E+03 0.  0.
    9000005    1    3    3    0    0  0.10624455405E+02 -0.55207738821E+02 -0.16947781127E+03  0.17856231963E+03  0.10000000000E+01 0.  0.
    9000005    1    3    3    0    0 -0.10624455405E+02  0.55207738821E+02 -0.44187557394E+03  0.44543888056E+03  0.10000000000E+01 0.  0.
<mgrwt>
<rscale>  0 0.12499814E+03</rscale>
<asrwt>0</asrwt>
<pdfrwt beam="1">  1        4 0.97290933E-03 0.12499814E+03</pdfrwt>
<pdfrwt beam="2">  1       -4 0.95027229E-01 0.12499814E+03</pdfrwt>
<totfact> 0.47388750E+03</totfact>
</mgrwt>
</event>
<event>
 5    1  0.3312904E-002  0.1250017E+03  0.7818608E-02  0.1235067E+00
         -4   -1    0    0    0  501 -0.00000000000E+00  0.00000000000E+00  0.66009211182E+01  0.67219833092E+01  0.12700000000E+01 0.  1.
          4   -1    0    0  501    0  0.00000000000E+00 -0.00000000000E+00 -0.58628999909E+03  0.58629137460E+03  0.12700000000E+01 0.  1.
         25    2    1    2    0    0  0.00000000000E+00  0.00000000000E+00 -0.57968907797E+03  0.59301335791E+03  0.12500166215E+03 0.  0.
    9000005    1    3    3    0    0 -0.22175948195E+02 -0.56777148969E+02 -0.35522575213E+03  0.36041885675E+03  0.10000000000E+01 0.  0.
    9000005    1    3    3    0    0  0.22175948195E+02  0.56777148969E+02 -0.22446332584E+03  0.23259450116E+03  0.10000000000E+01 0.  0.
<mgrwt>
<rscale>  0 0.12500166E+03</rscale>
<asrwt>0</asrwt>
<pdfrwt beam="2">  1        4 0.90207839E-01 0.12500166E+03</pdfrwt>
<pdfrwt beam="1">  1       -4 0.10249451E-02 0.12500166E+03</pdfrwt>
<totfact> 0.49309837E+03</totfact>
</mgrwt>
</event>
<event>
 5    1  0.3312904E-002  0.1249996E+03  0.7818608E-02  0.1235070E+00
          4   -1    0    0  501    0  0.00000000000E+00  0.00000000000E+00  0.31091011135E+03  0.31091270518E+03  0.12700000000E+01 0.  1.
         -4   -1    0    0    0  501 -0.00000000000E+00 -0.00000000000E+00 -0.12529099102E+02  0.12593300771E+02  0.12700000000E+01 0.  1.
         25    2    1    2    0    0  0.00000000000E+00  0.00000000000E+00  0.29838101225E+03  0.32350600595E+03  0.12499962965E+03 0.  0.
    9000005    1    3    3    0    0  0.12694417265E+02 -0.36233915084E+02  0.21581196450E+02  0.44054430790E+02  0.10000000000E+01 0.  0.
    9000005    1    3    3    0    0 -0.12694417265E+02  0.36233915084E+02  0.27679981580E+03  0.27945157516E+03  0.10000000000E+01 0.  0.
<mgrwt>
<rscale>  0 0.12499963E+03</rscale>
<asrwt>0</asrwt>
<pdfrwt beam="1">  1        4 0.47837464E-01 0.12499963E+03</pdfrwt>
<pdfrwt beam="2">  1       -4 0.19326918E-02 0.12499963E+03</pdfrwt>
<totfact> 0.72741658E+03</totfact>
</mgrwt>
</event>
<event>
 5    1  0.3312904E-002  0.1249928E+03  0.7818608E-02  0.1235081E+00
          4   -1    0    0  501    0  0.00000000000E+00  0.00000000000E+00  0.23982361520E+03  0.23982697785E+03  0.12700000000E+01 0.  1.
         -4   -1    0    0    0  501 -0.00000000000E+00 -0.00000000000E+00 -0.16257891782E+02  0.16307419943E+02  0.12700000000E+01 0.  1.
         25    2    1    2    0    0  0.00000000000E+00  0.00000000000E+00  0.22356572342E+03  0.25613439780E+03  0.12499278799E+03 0.  0.
    9000005    1    3    3    0    0  0.59260878324E+02  0.18408531910E+02  0.12685154319E+03  0.14121982778E+03  0.10000000000E+01 0.  0.
    9000005    1    3    3    0    0 -0.59260878324E+02 -0.18408531910E+02  0.96714180221E+02  0.11491457002E+03  0.10000000000E+01 0.  0.
<mgrwt>
<rscale>  0 0.12499279E+03</rscale>
<asrwt>0</asrwt>
<pdfrwt beam="1">  1        4 0.36900006E-01 0.12499279E+03</pdfrwt>
<pdfrwt beam="2">  1       -4 0.25052829E-02 0.12499279E+03</pdfrwt>
<totfact> 0.81464705E+03</totfact>
</mgrwt>
</event>
<event>
 5    1  0.3312904E-002  0.1249954E+03  0.7818608E-02  0.1235076E+00
          4   -1    0    0  501    0  0.00000000000E+00  0.00000000000E+00  0.22245737497E+03  0.22246100013E+03  0.12700000000E+01 0. -1.
         -4   -1    0    0    0  501 -0.00000000000E+00 -0.00000000000E+00 -0.17531511033E+02  0.17577450870E+02  0.12700000000E+01 0. -1.
         25    2    1    2    0    0  0.00000000000E+00  0.00000000000E+00  0.20492586393E+03  0.24003845100E+03  0.12499539290E+03 0.  0.
    9000005    1    3    3    0    0 -0.12220005069E+02  0.45764709506E+02  0.24191906133E+02  0.53197607863E+02  0.10000000000E+01 0.  0.
    9000005    1    3    3    0    0  0.12220005069E+02 -0.45764709506E+02  0.18073395780E+03  0.18684084313E+03  0.10000000000E+01 0.  0.
<mgrwt>
<rscale>  0 0.12499539E+03</rscale>
<asrwt>0</asrwt>
<pdfrwt beam="1">  1        4 0.34228024E-01 0.12499539E+03</pdfrwt>
<pdfrwt beam="2">  1       -4 0.27009683E-02 0.12499539E+03</pdfrwt>
<totfact> 0.83800247E+03</totfact>
</mgrwt>
</event>
<event>
 5    1  0.3312904E-002  0.1249988E+03  0.7818608E-02  0.1235071E+00
          4   -1    0    0  501    0  0.00000000000E+00  0.00000000000E+00  0.70606840202E+03  0.70606954419E+03  0.12700000000E+01 0. -1.
         -4   -1    0    0    0  501 -0.00000000000E+00 -0.00000000000E+00 -0.54582463611E+01  0.56040479422E+01  0.12700000000E+01 0. -1.
         25    2    1    2    0    0  0.00000000000E+00  0.00000000000E+00  0.70061015566E+03  0.71167359213E+03  0.12499884609E+03 0.  0.
    9000005    1    3    3    0    0 -0.52445106803E+02 -0.89742909069E+01  0.53690328479E+03  0.53953421054E+03  0.10000000000E+01 0.  0.
    9000005    1    3    3    0    0  0.52445106803E+02  0.89742909069E+01  0.16370687087E+03  0.17213938159E+03  0.10000000000E+01 0.  0.
<mgrwt>
<rscale>  0 0.12499885E+03</rscale>
<asrwt>0</asrwt>
<pdfrwt beam="1">  1        4 0.10863716E+00 0.12499885E+03</pdfrwt>
<pdfrwt beam="2">  1       -4 0.85103397E-03 0.12499885E+03</pdfrwt>
<totfact> 0.42478676E+03</totfact>
</mgrwt>
</event>
<event>
 5    1  0.3312904E-002  0.1249982E+03  0.7818608E-02  0.1235072E+00
          4   -1    0    0  501    0  0.00000000000E+00  0.00000000000E+00  0.36829390499E+03  0.36829609467E+03  0.12700000000E+01 0. -1.
         -4   -1    0    0    0  501 -0.00000000000E+00 -0.00000000000E+00 -0.10565789409E+02  0.10641842220E+02  0.12700000000E+01 0. -1.
         25    2    1    2    0    0  0.00000000000E+00  0.00000000000E+00  0.35772811558E+03  0.37893793689E+03  0.12499822135E+03 0.  0.
    9000005    1    3    3    0    0 -0.35787144788E+02  0.50999975652E+02  0.16419262901E+03  0.17561872528E+03  0.10000000000E+01 0.  0.
    9000005    1    3    3    0    0  0.35787144788E+02 -0.50999975652E+02  0.19353548657E+03  0.20331921161E+03  0.10000000000E+01 0.  0.
<mgrwt>
<rscale>  0 0.12499822E+03</rscale>
<asrwt>0</asrwt>
<pdfrwt beam="1">  1        4 0.56666608E-01 0.12499822E+03</pdfrwt>
<pdfrwt beam="2">  1       -4 0.16315251E-02 0.12499822E+03</pdfrwt>
<totfact> 0.66656739E+03</totfact>
</mgrwt>
</event>
<event>
 5    1  0.3312904E-002  0.1249993E+03  0.7818608E-02  0.1235070E+00
          4   -1    0    0  501    0  0.00000000000E+00  0.00000000000E+00  0.19392470279E+02  0.19434011514E+02  0.12700000000E+01 0. -1.
         -4   -1    0    0    0  501 -0.00000000000E+00 -0.00000000000E+00 -0.20116982023E+03  0.20117382900E+03  0.12700000000E+01 0. -1.
         25    2    1    2    0    0  0.00000000000E+00  0.00000000000E+00 -0.18177734996E+03  0.22060784051E+03  0.12499925735E+03 0.  0.
    9000005    1    3    3    0    0  0.47207016212E+01  0.58409094113E+02 -0.12920294178E+03  0.14187426639E+03  0.10000000000E+01 0.  0.
    9000005    1    3    3    0    0 -0.47207016212E+01 -0.58409094113E+02 -0.52574408178E+02  0.78733574123E+02  0.10000000000E+01 0.  0.
<mgrwt>
<rscale>  0 0.12499926E+03</rscale>
<asrwt>0</asrwt>
<pdfrwt beam="1">  1        4 0.29869609E-02 0.12499926E+03</pdfrwt>
<pdfrwt beam="2">  1       -4 0.30952706E-01 0.12499926E+03</pdfrwt>
<totfact> 0.86773698E+03</totfact>
</mgrwt>
</event>
<event>
 5    1  0.3312904E-002  0.1249811E+03  0.7818608E-02  0.1235099E+00
         -4   -1    0    0    0  501 -0.00000000000E+00  0.00000000000E+00  0.68003280153E+01  0.69179014965E+01  0.12700000000E+01 0. -1.
          4   -1    0    0  501    0  0.00000000000E+00 -0.00000000000E+00 -0.56920762505E+03  0.56920904184E+03  0.12700000000E+01 0. -1.
         25    2    1    2    0    0  0.00000000000E+00  0.00000000000E+00 -0.56240729704E+03  0.57612694334E+03  0.12498114691E+03 0.  0.
    9000005    1    3    3    0    0  0.25817480024E+02  0.18721125430E+02 -0.52888924651E+03  0.52985078832E+03  0.10000000000E+01 0.  0.
    9000005    1    3    3    0    0 -0.25817480024E+02 -0.18721125430E+02 -0.33518050527E+02  0.46276155019E+02  0.10000000000E+01 0.  0.
<mgrwt>
<rscale>  0 0.12498115E+03</rscale>
<asrwt>0</asrwt>
<pdfrwt beam="2">  1        4 0.87579519E-01 0.12498115E+03</pdfrwt>
<pdfrwt beam="1">  1       -4 0.10553579E-02 0.12498115E+03</pdfrwt>
<totfact> 0.50430948E+03</totfact>
</mgrwt>
</event>
<event>
 5    1  0.3312904E-002  0.1250041E+03  0.7818608E-02  0.1235063E+00
         -4   -1    0    0    0  501 -0.00000000000E+00  0.00000000000E+00  0.74139403333E+01  0.75219286932E+01  0.12700000000E+01 0.  1.
          4   -1    0    0  501    0  0.00000000000E+00 -0.00000000000E+00 -0.52299505466E+03  0.52299659665E+03  0.12700000000E+01 0.  1.
         25    2    1    2    0    0  0.00000000000E+00  0.00000000000E+00 -0.51558111433E+03  0.53051852534E+03  0.12500408103E+03 0.  0.
    9000005    1    3    3    0    0 -0.28662766501E+02  0.30482537890E+02 -0.45479517028E+03  0.45671696510E+03  0.10000000000E+01 0.  0.
    9000005    1    3    3    0    0  0.28662766501E+02 -0.30482537890E+02 -0.60785944056E+02  0.73801560244E+02  0.10000000000E+01 0.  0.
<mgrwt>
<rscale>  0 0.12500408E+03</rscale>
<asrwt>0</asrwt>
<pdfrwt beam="2">  1        4 0.80469174E-01 0.12500408E+03</pdfrwt>
<pdfrwt beam="1">  1       -4 0.11490320E-02 0.12500408E+03</pdfrwt>
<totfact> 0.53567098E+03</totfact>
</mgrwt>
</event>
<event>
 5    1  0.3312904E-002  0.1250058E+03  0.7818608E-02  0.1235060E+00
         -4   -1    0    0    0  501 -0.00000000000E+00  0.00000000000E+00  0.28654043923E+03  0.28654325365E+03  0.12700000000E+01 0.  1.
          4   -1    0    0  501    0  0.00000000000E+00 -0.00000000000E+00 -0.13601248292E+02  0.13660411966E+02  0.12700000000E+01 0.  1.
         25    2    1    2    0    0  0.00000000000E+00  0.00000000000E+00  0.27293919094E+03  0.30020366562E+03  0.12500575547E+03 0.  0.
    9000005    1    3    3    0    0  0.13842223839E+02 -0.56570954866E+01 -0.92533242155E+01  0.17613457900E+02  0.10000000000E+01 0.  0.
    9000005    1    3    3    0    0 -0.13842223839E+02  0.56570954866E+01  0.28219251516E+03  0.28259020772E+03  0.10000000000E+01 0.  0.
<mgrwt>
<rscale>  0 0.12500576E+03</rscale>
<asrwt>0</asrwt>
<pdfrwt beam="2">  1        4 0.20972674E-02 0.12500576E+03</pdfrwt>
<pdfrwt beam="1">  1       -4 0.44087910E-01 0.12500576E+03</pdfrwt>
<totfact> 0.75563644E+03</totfact>
</mgrwt>
</event>
<event>
 5    1  0.3312904E-002  0.1250003E+03  0.7818608E-02  0.1235069E+00
         -4   -1    0    0    0  501 -0.00000000000E+00  0.00000000000E+00  0.46732907401E+02  0.46750160793E+02  0.12700000000E+01 0.  1.
          4   -1    0    0  501    0  0.00000000000E+00 -0.00000000000E+00 -0.83549665201E+02  0.83559316986E+02  0.12700000000E+01 0.  1.
         25    2    1    2    0    0  0.00000000000E+00  0.00000000000E+00 -0.36816757800E+02  0.13030947778E+03  0.12500034538E+03 0.  0.
    9000005    1    3    3    0    0  0.45805835239E+02  0.29362304811E+02 -0.50454073441E+02  0.74208712511E+02  0.10000000000E+01 0.  0.
    9000005    1    3    3    0    0 -0.45805835239E+02 -0.29362304811E+02  0.13637315641E+02  0.56100765268E+02  0.10000000000E+01 0.  0.
<mgrwt>
<rscale>  0 0.12500035E+03</rscale>
<asrwt>0</asrwt>
<pdfrwt beam="2">  1        4 0.12855864E-01 0.12500035E+03</pdfrwt>
<pdfrwt beam="1">  1       -4 0.71917477E-02 0.12500035E+03</pdfrwt>
<totfact> 0.10337811E+04</totfact>
</mgrwt>
</event>
<event>
 5    1  0.3312904E-002  0.1250013E+03  0.7818608E-02  0.1235067E+00
          4   -1    0    0  501    0  0.00000000000E+00  0.00000000000E+00  0.18152740078E+02  0.18197111648E+02  0.12700000000E+01 0. -1.
         -4   -1    0    0    0  501 -0.00000000000E+00 -0.00000000000E+00 -0.21488360198E+03  0.21488735491E+03  0.12700000000E+01 0. -1.
         25    2    1    2    0    0  0.00000000000E+00  0.00000000000E+00 -0.19673086190E+03  0.23308446656E+03  0.12500134609E+03 0.  0.
    9000005    1    3    3    0    0  0.59947606061E+02  0.82620896046E+00 -0.65485252041E+02  0.88790294113E+02  0.10000000000E+01 0.  0.
    9000005    1    3    3    0    0 -0.59947606061E+02 -0.82620896046E+00 -0.13124560986E+03  0.14429417244E+03  0.10000000000E+01 0.  0.
<mgrwt>
<rscale>  0 0.12500135E+03</rscale>
<asrwt>0</asrwt>
<pdfrwt beam="1">  1        4 0.27964313E-02 0.12500135E+03</pdfrwt>
<pdfrwt beam="2">  1       -4 0.33062716E-01 0.12500135E+03</pdfrwt>
<totfact> 0.84835667E+03</totfact>
</mgrwt>
</event>
<event>
 5    1  0.3312904E-002  0.1249998E+03  0.7818608E-02  0.1235070E+00
          4   -1    0    0  501    0  0.00000000000E+00  0.00000000000E+00  0.33228697775E+02  0.33252958603E+02  0.12700000000E+01 0. -1.
         -4   -1    0    0    0  501 -0.00000000000E+00 -0.00000000000E+00 -0.11748552039E+03  0.11749238444E+03  0.12700000000E+01 0. -1.
         25    2    1    2    0    0  0.00000000000E+00  0.00000000000E+00 -0.84256822613E+02  0.15074534304E+03  0.12499978517E+03 0.  0.
    9000005    1    3    3    0    0  0.36461660689E+02  0.47793301787E+02 -0.21535553805E+02  0.63862606223E+02  0.10000000000E+01 0.  0.
    9000005    1    3    3    0    0 -0.36461660689E+02 -0.47793301787E+02 -0.62721268809E+02  0.86882736818E+02  0.10000000000E+01 0.  0.
<mgrwt>
<rscale>  0 0.12499979E+03</rscale>
<asrwt>0</asrwt>
<pdfrwt beam="1">  1        4 0.51145016E-02 0.12499979E+03</pdfrwt>
<pdfrwt beam="2">  1       -4 0.18077089E-01 0.12499979E+03</pdfrwt>
<totfact> 0.99155812E+03</totfact>
</mgrwt>
</event>
<event>
 5    1  0.3312904E-002  0.1249999E+03  0.7818608E-02  0.1235069E+00
          4   -1    0    0  501    0  0.00000000000E+00  0.00000000000E+00  0.17582210679E+04  0.17582215266E+04  0.12700000000E+01 0.  1.
         -4   -1    0    0    0  501 -0.00000000000E+00 -0.00000000000E+00 -0.20397127731E+01  0.24027751032E+01  0.12700000000E+01 0.  1.
         25    2    1    2    0    0  0.00000000000E+00  0.00000000000E+00  0.17561813552E+04  0.17606243017E+04  0.12499991824E+03 0.  0.
    9000005    1    3    3    0    0 -0.18963740190E+01  0.62307776345E+02  0.81606920265E+03  0.81844718750E+03  0.10000000000E+01 0.  0.
    9000005    1    3    3    0    0  0.18963740190E+01 -0.62307776345E+02  0.94011215252E+03  0.94217711421E+03  0.10000000000E+01 0.  0.
<mgrwt>
<rscale>  0 0.12499992E+03</rscale>
<asrwt>0</asrwt>
<pdfrwt beam="1">  1        4 0.27052411E+00 0.12499992E+03</pdfrwt>
<pdfrwt beam="2">  1       -4 0.34176437E-03 0.12499992E+03</pdfrwt>
<totfact> 0.13319965E+03</totfact>
</mgrwt>
</event>
<event>
 5    1  0.3312904E-002  0.1250014E+03  0.7818608E-02  0.1235067E+00
         -4   -1    0    0    0  501 -0.00000000000E+00  0.00000000000E+00  0.53497462037E+01  0.54984256332E+01  0.12700000000E+01 0.  1.
          4   -1    0    0  501    0  0.00000000000E+00 -0.00000000000E+00 -0.72003448686E+03  0.72003560687E+03  0.12700000000E+01 0.  1.
         25    2    1    2    0    0  0.00000000000E+00  0.00000000000E+00 -0.71468474065E+03  0.72553403251E+03  0.12500141519E+03 0.  0.
    9000005    1    3    3    0    0  0.29947704728E+02 -0.19538820002E+02 -0.59868548880E+02  0.69741477261E+02  0.10000000000E+01 0.  0.
    9000005    1    3    3    0    0 -0.29947704728E+02  0.19538820002E+02 -0.65481619177E+03  0.65579255524E+03  0.10000000000E+01 0.  0.
<mgrwt>
<rscale>  0 0.12500142E+03</rscale>
<asrwt>0</asrwt>
<pdfrwt beam="2">  1        4 0.11078598E+00 0.12500142E+03</pdfrwt>
<pdfrwt beam="1">  1       -4 0.83456148E-03 0.12500142E+03</pdfrwt>
<totfact> 0.41771286E+03</totfact>
</mgrwt>
</event>
<event>
 5    1  0.3312904E-002  0.1249987E+03  0.7818608E-02  0.1235071E+00
          4   -1    0    0  501    0  0.00000000000E+00  0.00000000000E+00  0.19464352394E+03  0.19464766711E+03  0.12700000000E+01 0. -1.
         -4   -1    0    0    0  501 -0.00000000000E+00 -0.00000000000E+00 -0.20043858326E+02  0.20084052295E+02  0.12700000000E+01 0. -1.
         25    2    1    2    0    0  0.00000000000E+00  0.00000000000E+00  0.17459966561E+03  0.21473171941E+03  0.12499867234E+03 0.  0.
    9000005    1    3    3    0    0 -0.13067851645E+02 -0.53713073080E+02  0.37236195408E+02  0.66658811981E+02  0.10000000000E+01 0.  0.
    9000005    1    3    3    0    0  0.13067851645E+02  0.53713073080E+02  0.13736347021E+03  0.14807290742E+03  0.10000000000E+01 0.  0.
<mgrwt>
<rscale>  0 0.12499867E+03</rscale>
<asrwt>0</asrwt>
<pdfrwt beam="1">  1        4 0.29948567E-01 0.12499867E+03</pdfrwt>
<pdfrwt beam="2">  1       -4 0.30870812E-02 0.12499867E+03</pdfrwt>
<totfact> 0.87711516E+03</totfact>
</mgrwt>
</event>
<event>
 5    1  0.3312904E-002  0.1250033E+03  0.7818608E-02  0.1235064E+00
          4   -1    0    0  501    0  0.00000000000E+00  0.00000000000E+00  0.78650598923E+02  0.78660851832E+02  0.12700000000E+01 0.  1.
         -4   -1    0    0    0  501 -0.00000000000E+00 -0.00000000000E+00 -0.49646870647E+02  0.49663111713E+02  0.12700000000E+01 0.  1.
         25    2    1    2    0    0  0.00000000000E+00  0.00000000000E+00  0.29003728276E+02  0.12832396354E+03  0.12500329342E+03 0.  0.
    9000005    1    3    3    0    0  0.16693657789E+02 -0.35533702326E+00  0.76323317982E+02  0.78134840772E+02  0.10000000000E+01 0.  0.
    9000005    1    3    3    0    0 -0.16693657789E+02  0.35533702326E+00 -0.47319589706E+02  0.50189122773E+02  0.10000000000E+01 0.  0.
<mgrwt>
<rscale>  0 0.12500329E+03</rscale>
<asrwt>0</asrwt>
<pdfrwt beam="1">  1        4 0.12102130E-01 0.12500329E+03</pdfrwt>
<pdfrwt beam="2">  1       -4 0.76400182E-02 0.12500329E+03</pdfrwt>
<totfact> 0.10379726E+04</totfact>
</mgrwt>
</event>
<event>
 5    1  0.3312904E-002  0.1250003E+03  0.7818608E-02  0.1235069E+00
          4   -1    0    0  501    0  0.00000000000E+00  0.00000000000E+00  0.12157225720E+02  0.12223380760E+02  0.12700000000E+01 0. -1.
         -4   -1    0    0    0  501 -0.00000000000E+00 -0.00000000000E+00 -0.32037342642E+03  0.32037594363E+03  0.12700000000E+01 0. -1.
         25    2    1    2    0    0  0.00000000000E+00  0.00000000000E+00 -0.30821620070E+03  0.33259932439E+03  0.12500033684E+03 0.  0.
    9000005    1    3    3    0    0 -0.35487722226E+02  0.51213345655E+02 -0.14132361885E+03  0.15445242130E+03  0.10000000000E+01 0.  0.
    9000005    1    3    3    0    0  0.35487722226E+02 -0.51213345655E+02 -0.16689258186E+03  0.17814690309E+03  0.10000000000E+01 0.  0.
<mgrwt>
<rscale>  0 0.12500034E+03</rscale>
<asrwt>0</asrwt>
<pdfrwt beam="1">  1        4 0.18756251E-02 0.12500034E+03</pdfrwt>
<pdfrwt beam="2">  1       -4 0.49293496E-01 0.12500034E+03</pdfrwt>
<totfact> 0.71681710E+03</totfact>
</mgrwt>
</event>
<event>
 5    1  0.3312904E-002  0.1250026E+03  0.7818608E-02  0.1235065E+00
         -4   -1    0    0    0  501 -0.00000000000E+00  0.00000000000E+00  0.87544764684E+01  0.88461154320E+01  0.12700000000E+01 0. -1.
          4   -1    0    0  501    0  0.00000000000E+00 -0.00000000000E+00 -0.44380287320E+03  0.44380469034E+03  0.12700000000E+01 0. -1.
         25    2    1    2    0    0  0.00000000000E+00  0.00000000000E+00 -0.43504839674E+03  0.45265080577E+03  0.12500257781E+03 0.  0.
    9000005    1    3    3    0    0  0.60605063554E+02 -0.53324540778E+01 -0.26924459920E+03  0.27603453225E+03  0.10000000000E+01 0.  0.
    9000005    1    3    3    0    0 -0.60605063554E+02  0.53324540778E+01 -0.16580379753E+03  0.17661627352E+03  0.10000000000E+01 0.  0.
<mgrwt>
<rscale>  0 0.12500258E+03</rscale>
<asrwt>0</asrwt>
<pdfrwt beam="2">  1        4 0.68284537E-01 0.12500258E+03</pdfrwt>
<pdfrwt beam="1">  1       -4 0.13540318E-02 0.12500258E+03</pdfrwt>
<totfact> 0.59731458E+03</totfact>
</mgrwt>
</event>
<event>
 5    1  0.3312904E-002  0.1250398E+03  0.7818608E-02  0.1235007E+00
          4   -1    0    0  501    0  0.00000000000E+00  0.00000000000E+00  0.12581761935E+02  0.12645696239E+02  0.12700000000E+01 0. -1.
         -4   -1    0    0    0  501 -0.00000000000E+00 -0.00000000000E+00 -0.30981451747E+03  0.30981712046E+03  0.12700000000E+01 0. -1.
         25    2    1    2    0    0  0.00000000000E+00  0.00000000000E+00 -0.29723275553E+03  0.32246281670E+03  0.12503982244E+03 0.  0.
    9000005    1    3    3    0    0 -0.20424217303E+02  0.21268371395E+02 -0.29076505920E+03  0.29225812551E+03  0.10000000000E+01 0.  0.
    9000005    1    3    3    0    0  0.20424217303E+02 -0.21268371395E+02 -0.64676963289E+01  0.30204691192E+02  0.10000000000E+01 0.  0.
<mgrwt>
<rscale>  0 0.12503982E+03</rscale>
<asrwt>0</asrwt>
<pdfrwt beam="1">  1        4 0.19407742E-02 0.12503982E+03</pdfrwt>
<pdfrwt beam="2">  1       -4 0.47668885E-01 0.12503982E+03</pdfrwt>
<totfact> 0.72799888E+03</totfact>
</mgrwt>
</event>
<event>
 4    1  0.3312904E-002  0.1252693E+03  0.7818608E-02  0.1234649E+00
          4   -1    0    0  501    0  0.00000000000E+00  0.00000000000E+00  0.56597259108E+02  0.56611506238E+02  0.12700000000E+01 0.  1.
         -4   -1    0    0    0  501 -0.00000000000E+00 -0.00000000000E+00 -0.69287259099E+02  0.69298897346E+02  0.12700000000E+01 0.  1.
    9000005    1    1    2    0    0 -0.43387515339E+02 -0.21658931206E+02  0.33487515562E+02  0.58940643760E+02  0.10000000000E+01 0.  0.
    9000005    1    1    2    0    0  0.43387515339E+02  0.21658931206E+02 -0.46177515553E+02  0.66969759824E+02  0.10000000000E+01 0.  0.
<mgrwt>
<rscale>  0 0.12526928E+03</rscale>
<asrwt>0</asrwt>
<pdfrwt beam="1">  1        4 0.87092618E-02 0.12526928E+03</pdfrwt>
<pdfrwt beam="2">  1       -4 0.10661569E-01 0.12526928E+03</pdfrwt>
<totfact> 0.10369786E+04</totfact>
</mgrwt>
</event>
<event>
 5    1  0.3312904E-002  0.1249940E+03  0.7818608E-02  0.1235079E+00
         -4   -1    0    0    0  501 -0.00000000000E+00  0.00000000000E+00  0.24780052182E+01  0.27844945433E+01  0.12700000000E+01 0. -1.
          4   -1    0    0  501    0  0.00000000000E+00 -0.00000000000E+00 -0.14841125215E+04  0.14841130649E+04  0.12700000000E+01 0. -1.
         25    2    1    2    0    0  0.00000000000E+00  0.00000000000E+00 -0.14816345163E+04  0.14868975595E+04  0.12499404949E+03 0.  0.
    9000005    1    3    3    0    0 -0.32526542993E+02 -0.42687098853E+02 -0.36002072977E+03  0.36400012400E+03  0.10000000000E+01 0.  0.
    9000005    1    3    3    0    0  0.32526542993E+02  0.42687098853E+02 -0.11216137865E+04  0.11228974355E+04  0.10000000000E+01 0.  0.
<mgrwt>
<rscale>  0 0.12499405E+03</rscale>
<asrwt>0</asrwt>
<pdfrwt beam="2">  1        4 0.22834795E+00 0.12499405E+03</pdfrwt>
<pdfrwt beam="1">  1       -4 0.40485066E-03 0.12499405E+03</pdfrwt>
<totfact> 0.18191873E+03</totfact>
</mgrwt>
</event>
<event>
 5    1  0.3312904E-002  0.1249943E+03  0.7818608E-02  0.1235078E+00
          4   -1    0    0  501    0  0.00000000000E+00  0.00000000000E+00  0.10509413457E+04  0.10509421131E+04  0.12700000000E+01 0. -1.
         -4   -1    0    0    0  501 -0.00000000000E+00 -0.00000000000E+00 -0.36072844289E+01  0.38243170568E+01  0.12700000000E+01 0. -1.
         25    2    1    2    0    0  0.00000000000E+00  0.00000000000E+00  0.10473340613E+04  0.10547664301E+04  0.12499434468E+03 0.  0.
    9000005    1    3    3    0    0 -0.62333815068E+02  0.43967664680E+01  0.52159153238E+03  0.52532234172E+03  0.10000000000E+01 0.  0.
    9000005    1    3    3    0    0  0.62333815068E+02 -0.43967664680E+01  0.52574252891E+03  0.52944408842E+03  0.10000000000E+01 0.  0.
<mgrwt>
<rscale>  0 0.12499434E+03</rscale>
<asrwt>0</asrwt>
<pdfrwt beam="1">  1        4 0.16169984E+00 0.12499434E+03</pdfrwt>
<pdfrwt beam="2">  1       -4 0.57172138E-03 0.12499434E+03</pdfrwt>
<totfact> 0.28850005E+03</totfact>
</mgrwt>
</event>
<event>
 5    1  0.3312904E-002  0.1249955E+03  0.7818608E-02  0.1235076E+00
         -4   -1    0    0    0  501 -0.00000000000E+00  0.00000000000E+00  0.15864761810E+03  0.15865270130E+03  0.12700000000E+01 0. -1.
          4   -1    0    0  501    0  0.00000000000E+00 -0.00000000000E+00 -0.24598535469E+02  0.24631298123E+02  0.12700000000E+01 0. -1.
         25    2    1    2    0    0  0.00000000000E+00  0.00000000000E+00  0.13404908263E+03  0.18328399942E+03  0.12499547148E+03 0.  0.
    9000005    1    3    3    0    0  0.46696913433E+02  0.72081562244E+01  0.70590553847E+01  0.47784825031E+02  0.10000000000E+01 0.  0.
    9000005    1    3    3    0    0 -0.46696913433E+02 -0.72081562244E+01  0.12699002725E+03  0.13549917439E+03  0.10000000000E+01 0.  0.
<mgrwt>
<rscale>  0 0.12499547E+03</rscale>
<asrwt>0</asrwt>
<pdfrwt beam="2">  1        4 0.37873014E-02 0.12499547E+03</pdfrwt>
<pdfrwt beam="1">  1       -4 0.24410236E-01 0.12499547E+03</pdfrwt>
<totfact> 0.93038634E+03</totfact>
</mgrwt>
</event>
<event>
 5    1  0.3312904E-002  0.1250003E+03  0.7818608E-02  0.1235069E+00
          4   -1    0    0  501    0  0.00000000000E+00  0.00000000000E+00  0.18841236514E+02  0.18883990398E+02  0.12700000000E+01 0. -1.
         -4   -1    0    0    0  501 -0.00000000000E+00 -0.00000000000E+00 -0.20704588765E+03  0.20704978264E+03  0.12700000000E+01 0. -1.
         25    2    1    2    0    0  0.00000000000E+00  0.00000000000E+00 -0.18820465113E+03  0.22593377304E+03  0.12500031637E+03 0.  0.
    9000005    1    3    3    0    0 -0.60694998532E+02  0.46928215687E+01 -0.68581554292E+02  0.91707878670E+02  0.10000000000E+01 0.  0.
    9000005    1    3    3    0    0  0.60694998532E+02 -0.46928215687E+01 -0.11962309684E+03  0.13422589437E+03  0.10000000000E+01 0.  0.
<mgrwt>
<rscale>  0 0.12500032E+03</rscale>
<asrwt>0</asrwt>
<pdfrwt beam="1">  1        4 0.29022403E-02 0.12500032E+03</pdfrwt>
<pdfrwt beam="2">  1       -4 0.31856800E-01 0.12500032E+03</pdfrwt>
<totfact> 0.85937300E+03</totfact>
</mgrwt>
</event>
<event>
 5    1  0.3312904E-002  0.1249951E+03  0.7818608E-02  0.1235077E+00
          4   -1    0    0  501    0  0.00000000000E+00  0.00000000000E+00  0.53198188179E+03  0.53198339772E+03  0.12700000000E+01 0.  1.
         -4   -1    0    0    0  501 -0.00000000000E+00 -0.00000000000E+00 -0.72857991374E+01  0.73956587989E+01  0.12700000000E+01 0.  1.
         25    2    1    2    0    0  0.00000000000E+00  0.00000000000E+00  0.52469608265E+03  0.53937905652E+03  0.12499514976E+03 0.  0.
    9000005    1    3    3    0    0 -0.34970760366E+02 -0.46334119576E+01  0.48492721784E+03  0.48620965559E+03  0.10000000000E+01 0.  0.
    9000005    1    3    3    0    0  0.34970760366E+02  0.46334119576E+01  0.39768864812E+02  0.53169400931E+02  0.10000000000E+01 0.  0.
<mgrwt>
<rscale>  0 0.12499515E+03</rscale>
<asrwt>0</asrwt>
<pdfrwt beam="1">  1        4 0.81851962E-01 0.12499515E+03</pdfrwt>
<pdfrwt beam="2">  1       -4 0.11294591E-02 0.12499515E+03</pdfrwt>
<totfact> 0.52939076E+03</totfact>
</mgrwt>
</event>
<event>
 5    1  0.3312904E-002  0.1249960E+03  0.7818608E-02  0.1235076E+00
         -4   -1    0    0    0  501 -0.00000000000E+00  0.00000000000E+00  0.43200470881E+02  0.43219134470E+02  0.12700000000E+01 0. -1.
          4   -1    0    0  501    0  0.00000000000E+00 -0.00000000000E+00 -0.90372993515E+02  0.90381916647E+02  0.12700000000E+01 0. -1.
         25    2    1    2    0    0  0.00000000000E+00  0.00000000000E+00 -0.47172522634E+02  0.13360105112E+03  0.12499597581E+03 0.  0.
    9000005    1    3    3    0    0 -0.43087044260E+02 -0.33196673486E+02  0.92967010889E+01  0.55190045885E+02  0.10000000000E+01 0.  0.
    9000005    1    3    3    0    0  0.43087044260E+02  0.33196673486E+02 -0.56469223723E+02  0.78411005232E+02  0.10000000000E+01 0.  0.
<mgrwt>
<rscale>  0 0.12499598E+03</rscale>
<asrwt>0</asrwt>
<pdfrwt beam="2">  1        4 0.13905660E-01 0.12499598E+03</pdfrwt>
<pdfrwt beam="1">  1       -4 0.66483483E-02 0.12499598E+03</pdfrwt>
<totfact> 0.10268574E+04</totfact>
</mgrwt>
</event>
<event>
 5    1  0.3312904E-002  0.1250013E+03  0.7818608E-02  0.1235067E+00
         -4   -1    0    0    0  501 -0.00000000000E+00  0.00000000000E+00  0.21089866536E+02  0.21128070677E+02  0.12700000000E+01 0. -1.
          4   -1    0    0  501    0  0.00000000000E+00 -0.00000000000E+00 -0.18501503171E+03  0.18501939049E+03  0.12700000000E+01 0. -1.
         25    2    1    2    0    0  0.00000000000E+00  0.00000000000E+00 -0.16392516517E+03  0.20614746117E+03  0.12500126387E+03 0.  0.
    9000005    1    3    3    0    0  0.27620112328E+02  0.32294845363E+02 -0.63974122601E+01  0.42985515300E+02  0.10000000000E+01 0.  0.
    9000005    1    3    3    0    0 -0.27620112328E+02 -0.32294845363E+02 -0.15752775291E+03  0.16316194587E+03  0.10000000000E+01 0.  0.
<mgrwt>
<rscale>  0 0.12500126E+03</rscale>
<asrwt>0</asrwt>
<pdfrwt beam="2">  1        4 0.28467124E-01 0.12500126E+03</pdfrwt>
<pdfrwt beam="1">  1       -4 0.32478691E-02 0.12500126E+03</pdfrwt>
<totfact> 0.89106423E+03</totfact>
</mgrwt>
</event>
<event>
 5    1  0.3312904E-002  0.1249986E+03  0.7818608E-02  0.1235072E+00
          4   -1    0    0  501    0  0.00000000000E+00  0.00000000000E+00  0.38837645358E+02  0.38858404457E+02  0.12700000000E+01 0.  1.
         -4   -1    0    0    0  501 -0.00000000000E+00 -0.00000000000E+00 -0.10052501801E+03  0.10053304007E+03  0.12700000000E+01 0.  1.
         25    2    1    2    0    0  0.00000000000E+00  0.00000000000E+00 -0.61687372649E+02  0.13939144453E+03  0.12499857144E+03 0.  0.
    9000005    1    3    3    0    0 -0.53147460844E+02  0.12977144031E+02 -0.64522186178E+02  0.84600067202E+02  0.10000000000E+01 0.  0.
    9000005    1    3    3    0    0  0.53147460844E+02 -0.12977144031E+02  0.28348135288E+01  0.54791377324E+02  0.10000000000E+01 0.  0.
<mgrwt>
<rscale>  0 0.12499857E+03</rscale>
<asrwt>0</asrwt>
<pdfrwt beam="1">  1        4 0.59772363E-02 0.12499857E+03</pdfrwt>
<pdfrwt beam="2">  1       -4 0.15467601E-01 0.12499857E+03</pdfrwt>
<totfact> 0.10146541E+04</totfact>
</mgrwt>
</event>
<event>
 5    1  0.3312904E-002  0.1249978E+03  0.7818608E-02  0.1235073E+00
         -4   -1    0    0    0  501 -0.00000000000E+00  0.00000000000E+00  0.38624770791E+02  0.38645644239E+02  0.12700000000E+01 0. -1.
          4   -1    0    0  501    0  0.00000000000E+00 -0.00000000000E+00 -0.10107761886E+03  0.10108559707E+03  0.12700000000E+01 0. -1.
         25    2    1    2    0    0  0.00000000000E+00  0.00000000000E+00 -0.62452848068E+02  0.13973124130E+03  0.12499784624E+03 0.  0.
    9000005    1    3    3    0    0  0.18689654520E+02 -0.41671381424E+02  0.16454440650E+02  0.48554668498E+02  0.10000000000E+01 0.  0.
    9000005    1    3    3    0    0 -0.18689654520E+02  0.41671381424E+02 -0.78907288718E+02  0.91176572806E+02  0.10000000000E+01 0.  0.
<mgrwt>
<rscale>  0 0.12499785E+03</rscale>
<asrwt>0</asrwt>
<pdfrwt beam="2">  1        4 0.15552622E-01 0.12499785E+03</pdfrwt>
<pdfrwt beam="1">  1       -4 0.59444918E-02 0.12499785E+03</pdfrwt>
<totfact> 0.10139651E+04</totfact>
</mgrwt>
</event>
<event>
 5    1  0.3312904E-002  0.1250014E+03  0.7818608E-02  0.1235067E+00
         -4   -1    0    0    0  501 -0.00000000000E+00  0.00000000000E+00  0.26860907117E+02  0.26890913543E+02  0.12700000000E+01 0.  1.
          4   -1    0    0  501    0  0.00000000000E+00 -0.00000000000E+00 -0.14531443855E+03  0.14531998813E+03  0.12700000000E+01 0.  1.
         25    2    1    2    0    0  0.00000000000E+00  0.00000000000E+00 -0.11845353143E+03  0.17221090168E+03  0.12500142218E+03 0.  0.
    9000005    1    3    3    0    0 -0.29659862090E+02 -0.39649000602E+02 -0.67017266947E+01  0.49976632626E+02  0.10000000000E+01 0.  0.
    9000005    1    3    3    0    0  0.29659862090E+02  0.39649000602E+02 -0.11175180474E+03  0.12223426905E+03  0.10000000000E+01 0.  0.
<mgrwt>
<rscale>  0 0.12500142E+03</rscale>
<asrwt>0</asrwt>
<pdfrwt beam="2">  1        4 0.22358802E-01 0.12500142E+03</pdfrwt>
<pdfrwt beam="1">  1       -4 0.41351824E-02 0.12500142E+03</pdfrwt>
<totfact> 0.95035121E+03</totfact>
</mgrwt>
</event>
<event>
 5    1  0.3312904E-002  0.1249933E+03  0.7818608E-02  0.1235080E+00
         -4   -1    0    0    0  501 -0.00000000000E+00  0.00000000000E+00  0.16687719017E+02  0.16735975203E+02  0.12700000000E+01 0.  1.
          4   -1    0    0  501    0  0.00000000000E+00 -0.00000000000E+00 -0.23366616833E+03  0.23366961960E+03  0.12700000000E+01 0.  1.
         25    2    1    2    0    0  0.00000000000E+00  0.00000000000E+00 -0.21697844932E+03  0.25040559480E+03  0.12499325758E+03 0.  0.
    9000005    1    3    3    0    0 -0.19429314663E+02 -0.58771449888E+02 -0.91343635158E+02  0.11034600706E+03  0.10000000000E+01 0.  0.
    9000005    1    3    3    0    0  0.19429314663E+02  0.58771449888E+02 -0.12563481416E+03  0.14005958774E+03  0.10000000000E+01 0.  0.
<mgrwt>
<rscale>  0 0.12499326E+03</rscale>
<asrwt>0</asrwt>
<pdfrwt beam="2">  1        4 0.35952617E-01 0.12499326E+03</pdfrwt>
<pdfrwt beam="1">  1       -4 0.25713190E-02 0.12499326E+03</pdfrwt>
<totfact> 0.82284001E+03</totfact>
</mgrwt>
</event>
<event>
 5    1  0.3312904E-002  0.1249797E+03  0.7818608E-02  0.1235101E+00
          4   -1    0    0  501    0  0.00000000000E+00  0.00000000000E+00  0.41719577707E+02  0.41738903484E+02  0.12700000000E+01 0. -1.
         -4   -1    0    0    0  501 -0.00000000000E+00 -0.00000000000E+00 -0.93555313167E+02  0.93563932804E+02  0.12700000000E+01 0. -1.
         25    2    1    2    0    0  0.00000000000E+00  0.00000000000E+00 -0.51835735459E+02  0.13530283629E+03  0.12497965449E+03 0.  0.
    9000005    1    3    3    0    0  0.42854017002E+02  0.40495773409E+02 -0.48304486163E+02  0.76227933336E+02  0.10000000000E+01 0.  0.
    9000005    1    3    3    0    0 -0.42854017002E+02 -0.40495773409E+02 -0.35312492962E+01  0.59074902952E+02  0.10000000000E+01 0.  0.
<mgrwt>
<rscale>  0 0.12497965E+03</rscale>
<asrwt>0</asrwt>
<pdfrwt beam="1">  1        4 0.64205462E-02 0.12497965E+03</pdfrwt>
<pdfrwt beam="2">  1       -4 0.14395275E-01 0.12497965E+03</pdfrwt>
<totfact> 0.10236388E+04</totfact>
</mgrwt>
</event>
<event>
 5    1  0.3312904E-002  0.1249930E+03  0.7818608E-02  0.1235080E+00
         -4   -1    0    0    0  501 -0.00000000000E+00  0.00000000000E+00  0.37408189118E+01  0.39505222605E+01  0.12700000000E+01 0. -1.
          4   -1    0    0  501    0  0.00000000000E+00 -0.00000000000E+00 -0.10154282513E+04  0.10154290455E+04  0.12700000000E+01 0. -1.
         25    2    1    2    0    0  0.00000000000E+00  0.00000000000E+00 -0.10116874324E+04  0.10193795677E+04  0.12499296903E+03 0.  0.
    9000005    1    3    3    0    0  0.61258448176E+02  0.67869514004E+01 -0.42181820812E+03  0.42629832381E+03  0.10000000000E+01 0.  0.
    9000005    1    3    3    0    0 -0.61258448176E+02 -0.67869514004E+01 -0.58986922424E+03  0.59308124392E+03  0.10000000000E+01 0.  0.
<mgrwt>
<rscale>  0 0.12499297E+03</rscale>
<asrwt>0</asrwt>
<pdfrwt beam="2">  1        4 0.15623571E+00 0.12499297E+03</pdfrwt>
<pdfrwt beam="1">  1       -4 0.59170353E-03 0.12499297E+03</pdfrwt>
<totfact> 0.29975070E+03</totfact>
</mgrwt>
</event>
<event>
 5    1  0.3312904E-002  0.1250015E+03  0.7818608E-02  0.1235067E+00
          4   -1    0    0  501    0  0.00000000000E+00  0.00000000000E+00  0.22448858972E+03  0.22449218208E+03  0.12700000000E+01 0. -1.
         -4   -1    0    0    0  501 -0.00000000000E+00 -0.00000000000E+00 -0.17374167537E+02  0.17420522311E+02  0.12700000000E+01 0. -1.
         25    2    1    2    0    0  0.00000000000E+00  0.00000000000E+00  0.20711442219E+03  0.24191270439E+03  0.12500149067E+03 0.  0.
    9000005    1    3    3    0    0  0.16275901561E+02  0.46894425678E+02  0.17703031154E+03  0.18386060844E+03  0.10000000000E+01 0.  0.
    9000005    1    3    3    0    0 -0.16275901561E+02 -0.46894425678E+02  0.30084110645E+02  0.58052095954E+02  0.10000000000E+01 0.  0.
<mgrwt>
<rscale>  0 0.12500149E+03</rscale>
<asrwt>0</asrwt>
<pdfrwt beam="1">  1        4 0.34540546E-01 0.12500149E+03</pdfrwt>
<pdfrwt beam="2">  1       -4 0.26767911E-02 0.12500149E+03</pdfrwt>
<totfact> 0.83510553E+03</totfact>
</mgrwt>
</event>
<event>
 5    1  0.3312904E-002  0.1250008E+03  0.7818608E-02  0.1235068E+00
          4   -1    0    0  501    0  0.00000000000E+00  0.00000000000E+00  0.77134438771E+02  0.77144893185E+02  0.12700000000E+01 0.  1.
         -4   -1    0    0    0  501 -0.00000000000E+00 -0.00000000000E+00 -0.50620884912E+02  0.50636813577E+02  0.12700000000E+01 0.  1.
         25    2    1    2    0    0  0.00000000000E+00  0.00000000000E+00  0.26513553859E+02  0.12778170676E+03  0.12500078418E+03 0.  0.
    9000005    1    3    3    0    0  0.24730725273E+02  0.18625565442E+02  0.68748689983E+02  0.75404925800E+02  0.10000000000E+01 0.  0.
    9000005    1    3    3    0    0 -0.24730725273E+02 -0.18625565442E+02 -0.42235136124E+02  0.52376780962E+02  0.10000000000E+01 0.  0.
<mgrwt>
<rscale>  0 0.12500078E+03</rscale>
<asrwt>0</asrwt>
<pdfrwt beam="1">  1        4 0.11868866E-01 0.12500078E+03</pdfrwt>
<pdfrwt beam="2">  1       -4 0.77898580E-02 0.12500078E+03</pdfrwt>
<totfact> 0.10392021E+04</totfact>
</mgrwt>
</event>
<event>
 5    1  0.3312904E-002  0.1250026E+03  0.7818608E-02  0.1235065E+00
          4   -1    0    0  501    0  0.00000000000E+00  0.00000000000E+00  0.14180500733E+03  0.14181069425E+03  0.12700000000E+01 0. -1.
         -4   -1    0    0    0  501 -0.00000000000E+00 -0.00000000000E+00 -0.27526891711E+02  0.27556172943E+02  0.12700000000E+01 0. -1.
         25    2    1    2    0    0  0.00000000000E+00  0.00000000000E+00  0.11427811562E+03  0.16936686719E+03  0.12500259195E+03 0.  0.
    9000005    1    3    3    0    0  0.33300476170E+02 -0.44563076063E+02  0.95715198157E+02  0.11071218822E+03  0.10000000000E+01 0.  0.
    9000005    1    3    3    0    0 -0.33300476170E+02  0.44563076063E+02  0.18562917462E+02  0.58654678978E+02  0.10000000000E+01 0.  0.
<mgrwt>
<rscale>  0 0.12500259E+03</rscale>
<asrwt>0</asrwt>
<pdfrwt beam="1">  1        4 0.21818845E-01 0.12500259E+03</pdfrwt>
<pdfrwt beam="2">  1       -4 0.42375963E-02 0.12500259E+03</pdfrwt>
<totfact> 0.95561147E+03</totfact>
</mgrwt>
</event>
<event>
 5    1  0.3312904E-002  0.1249983E+03  0.7818608E-02  0.1235072E+00
          4   -1    0    0  501    0  0.00000000000E+00  0.00000000000E+00  0.51065216127E+02  0.51081006236E+02  0.12700000000E+01 0.  1.
         -4   -1    0    0    0  501 -0.00000000000E+00 -0.00000000000E+00 -0.76460307097E+02  0.76470853673E+02  0.12700000000E+01 0.  1.
         25    2    1    2    0    0  0.00000000000E+00  0.00000000000E+00 -0.25395090970E+02  0.12755185991E+03  0.12499826527E+03 0.  0.
    9000005    1    3    3    0    0 -0.31297391170E+02 -0.25250235497E+02  0.36113112590E+02  0.54057913275E+02  0.10000000000E+01 0.  0.
    9000005    1    3    3    0    0  0.31297391170E+02  0.25250235497E+02 -0.61508203560E+02  0.73493946634E+02  0.10000000000E+01 0.  0.
<mgrwt>
<rscale>  0 0.12499827E+03</rscale>
<asrwt>0</asrwt>
<pdfrwt beam="1">  1        4 0.78582130E-02 0.12499827E+03</pdfrwt>
<pdfrwt beam="2">  1       -4 0.11765150E-01 0.12499827E+03</pdfrwt>
<totfact> 0.10397585E+04</totfact>
</mgrwt>
</event>
<event>
 5    1  0.3312904E-002  0.1250002E+03  0.7818608E-02  0.1235069E+00
         -4   -1    0    0    0  501 -0.00000000000E+00  0.00000000000E+00  0.92364649233E+02  0.92373379974E+02  0.12700000000E+01 0. -1.
          4   -1    0    0  501    0  0.00000000000E+00 -0.00000000000E+00 -0.42271458410E+02  0.42290531991E+02  0.12700000000E+01 0. -1.
         25    2    1    2    0    0  0.00000000000E+00  0.00000000000E+00  0.50093190823E+02  0.13466391197E+03  0.12500016568E+03 0.  0.
    9000005    1    3    3    0    0  0.29165869285E+02 -0.25308246489E+02  0.77978646517E+02  0.87021977593E+02  0.10000000000E+01 0.  0.
    9000005    1    3    3    0    0 -0.29165869285E+02  0.25308246489E+02 -0.27885455694E+02  0.47641934373E+02  0.10000000000E+01 0.  0.
<mgrwt>
<rscale>  0 0.12500017E+03</rscale>
<asrwt>0</asrwt>
<pdfrwt beam="2">  1        4 0.65054402E-02 0.12500017E+03</pdfrwt>
<pdfrwt beam="1">  1       -4 0.14212085E-01 0.12500017E+03</pdfrwt>
<totfact> 0.10245121E+04</totfact>
</mgrwt>
</event>
<event>
 5    1  0.3312904E-002  0.1249988E+03  0.7818608E-02  0.1235071E+00
          4   -1    0    0  501    0  0.00000000000E+00  0.00000000000E+00  0.10431684320E+04  0.10431692051E+04  0.12700000000E+01 0.  1.
         -4   -1    0    0    0  501 -0.00000000000E+00 -0.00000000000E+00 -0.36360496871E+01  0.38514617130E+01  0.12700000000E+01 0.  1.
         25    2    1    2    0    0  0.00000000000E+00  0.00000000000E+00  0.10395323823E+04  0.10470206668E+04  0.12499881123E+03 0.  0.
    9000005    1    3    3    0    0  0.41602743672E+02 -0.44110967275E+02  0.39311858919E+03  0.39776851419E+03  0.10000000000E+01 0.  0.
    9000005    1    3    3    0    0 -0.41602743672E+02  0.44110967275E+02  0.64641379311E+03  0.64925215259E+03  0.10000000000E+01 0.  0.
<mgrwt>
<rscale>  0 0.12499881E+03</rscale>
<asrwt>0</asrwt>
<pdfrwt beam="1">  1        4 0.16050428E+00 0.12499881E+03</pdfrwt>
<pdfrwt beam="2">  1       -4 0.57602116E-03 0.12499881E+03</pdfrwt>
<totfact> 0.29088689E+03</totfact>
</mgrwt>
</event>
<event>
 5    1  0.3312904E-002  0.1250011E+03  0.7818608E-02  0.1235068E+00
          4   -1    0    0  501    0  0.00000000000E+00  0.00000000000E+00  0.54104035445E+02  0.54118938935E+02  0.12700000000E+01 0.  1.
         -4   -1    0    0    0  501 -0.00000000000E+00 -0.00000000000E+00 -0.72169665230E+02  0.72180838728E+02  0.12700000000E+01 0.  1.
         25    2    1    2    0    0  0.00000000000E+00  0.00000000000E+00 -0.18065629785E+02  0.12629977766E+03  0.12500106743E+03 0.  0.
    9000005    1    3    3    0    0 -0.25569910484E+02 -0.54217716669E+02 -0.26878011190E+02  0.65702424677E+02  0.10000000000E+01 0.  0.
    9000005    1    3    3    0    0  0.25569910484E+02  0.54217716669E+02  0.88123814050E+01  0.60597352986E+02  0.10000000000E+01 0.  0.
<mgrwt>
<rscale>  0 0.12500107E+03</rscale>
<asrwt>0</asrwt>
<pdfrwt beam="1">  1        4 0.83257037E-02 0.12500107E+03</pdfrwt>
<pdfrwt beam="2">  1       -4 0.11105031E-01 0.12500107E+03</pdfrwt>
<totfact> 0.10424147E+04</totfact>
</mgrwt>
</event>
<event>
 5    1  0.3312904E-002  0.1249986E+03  0.7818608E-02  0.1235071E+00
         -4   -1    0    0    0  501 -0.00000000000E+00  0.00000000000E+00  0.88280778119E+02  0.88289912704E+02  0.12700000000E+01 0. -1.
          4   -1    0    0  501    0  0.00000000000E+00 -0.00000000000E+00 -0.44226486911E+02  0.44244717702E+02  0.12700000000E+01 0. -1.
         25    2    1    2    0    0  0.00000000000E+00  0.00000000000E+00  0.44054291208E+02  0.13253463041E+03  0.12499859072E+03 0.  0.
    9000005    1    3    3    0    0 -0.60349992988E+02 -0.13571712354E+02  0.12612108217E+02  0.63137772400E+02  0.10000000000E+01 0.  0.
    9000005    1    3    3    0    0  0.60349992988E+02  0.13571712354E+02  0.31442182990E+02  0.69396858006E+02  0.10000000000E+01 0.  0.
<mgrwt>
<rscale>  0 0.12499859E+03</rscale>
<asrwt>0</asrwt>
<pdfrwt beam="2">  1        4 0.68061800E-02 0.12499859E+03</pdfrwt>
<pdfrwt beam="1">  1       -4 0.13583763E-01 0.12499859E+03</pdfrwt>
<totfact> 0.10290627E+04</totfact>
</mgrwt>
</event>
<event>
 5    1  0.3312904E-002  0.1249891E+03  0.7818608E-02  0.1235086E+00
         -4   -1    0    0    0  501 -0.00000000000E+00  0.00000000000E+00  0.10660858829E+03  0.10661615261E+03  0.12700000000E+01 0.  1.
          4   -1    0    0  501    0  0.00000000000E+00 -0.00000000000E+00 -0.36614763049E+02  0.36636781698E+02  0.12700000000E+01 0.  1.
         25    2    1    2    0    0  0.00000000000E+00  0.00000000000E+00  0.69993825240E+02  0.14325293431E+03  0.12498906998E+03 0.  0.
    9000005    1    3    3    0    0 -0.36903186452E+02  0.36043396422E+02  0.75414559698E+02  0.91374654092E+02  0.10000000000E+01 0.  0.
    9000005    1    3    3    0    0  0.36903186452E+02 -0.36043396422E+02 -0.54207344583E+01  0.51878280214E+02  0.10000000000E+01 0.  0.
<mgrwt>
<rscale>  0 0.12498907E+03</rscale>
<asrwt>0</asrwt>
<pdfrwt beam="2">  1        4 0.56353161E-02 0.12498907E+03</pdfrwt>
<pdfrwt beam="1">  1       -4 0.16403597E-01 0.12498907E+03</pdfrwt>
<totfact> 0.10069085E+04</totfact>
</mgrwt>
</event>
<event>
 5    1  0.3312904E-002  0.1249977E+03  0.7818608E-02  0.1235073E+00
          4   -1    0    0  501    0  0.00000000000E+00  0.00000000000E+00  0.16220344079E+02  0.16269986541E+02  0.12700000000E+01 0.  1.
         -4   -1    0    0    0  501 -0.00000000000E+00 -0.00000000000E+00 -0.24039614779E+03  0.24039950243E+03  0.12700000000E+01 0.  1.
         25    2    1    2    0    0  0.00000000000E+00  0.00000000000E+00 -0.22417580371E+03  0.25666948898E+03  0.12499774239E+03 0.  0.
    9000005    1    3    3    0    0  0.21461947069E+02 -0.49609584407E+02 -0.17648012135E+03  0.18457507759E+03  0.10000000000E+01 0.  0.
    9000005    1    3    3    0    0 -0.21461947069E+02  0.49609584407E+02 -0.47695682359E+02  0.72094411384E+02  0.10000000000E+01 0.  0.
<mgrwt>
<rscale>  0 0.12499774E+03</rscale>
<asrwt>0</asrwt>
<pdfrwt beam="1">  1        4 0.24995144E-02 0.12499774E+03</pdfrwt>
<pdfrwt beam="2">  1       -4 0.36988097E-01 0.12499774E+03</pdfrwt>
<totfact> 0.81379826E+03</totfact>
</mgrwt>
</event>
<event>
 5    1  0.3312904E-002  0.1250016E+03  0.7818608E-02  0.1235067E+00
         -4   -1    0    0    0  501 -0.00000000000E+00  0.00000000000E+00  0.10699319255E+03  0.10700072968E+03  0.12700000000E+01 0.  1.
          4   -1    0    0  501    0  0.00000000000E+00 -0.00000000000E+00 -0.36490378985E+02  0.36512472642E+02  0.12700000000E+01 0.  1.
         25    2    1    2    0    0  0.00000000000E+00  0.00000000000E+00  0.70502813568E+02  0.14351320232E+03  0.12500157007E+03 0.  0.
    9000005    1    3    3    0    0 -0.22751199405E+02 -0.57164210364E+02  0.22675530590E+02  0.65578530850E+02  0.10000000000E+01 0.  0.
    9000005    1    3    3    0    0  0.22751199405E+02  0.57164210364E+02  0.47827282977E+02  0.77934671475E+02  0.10000000000E+01 0.  0.
<mgrwt>
<rscale>  0 0.12500157E+03</rscale>
<asrwt>0</asrwt>
<pdfrwt beam="2">  1        4 0.56161837E-02 0.12500157E+03</pdfrwt>
<pdfrwt beam="1">  1       -4 0.16462771E-01 0.12500157E+03</pdfrwt>
<totfact> 0.10060929E+04</totfact>
</mgrwt>
</event>
<event>
 5    1  0.3312904E-002  0.1249905E+03  0.7818608E-02  0.1235084E+00
         -4   -1    0    0    0  501 -0.00000000000E+00  0.00000000000E+00  0.10018102596E+02  0.10098281024E+02  0.12700000000E+01 0. -1.
          4   -1    0    0  501    0  0.00000000000E+00 -0.00000000000E+00 -0.38822467316E+03  0.38822675043E+03  0.12700000000E+01 0. -1.
         25    2    1    2    0    0  0.00000000000E+00  0.00000000000E+00 -0.37820657057E+03  0.39832503146E+03  0.12499048230E+03 0.  0.
    9000005    1    3    3    0    0  0.15946096459E+02 -0.58323204710E+02 -0.13883787513E+03  0.15143589327E+03  0.10000000000E+01 0.  0.
    9000005    1    3    3    0    0 -0.15946096459E+02  0.58323204710E+02 -0.23936869544E+03  0.24688913819E+03  0.10000000000E+01 0.  0.
<mgrwt>
<rscale>  0 0.12499048E+03</rscale>
<asrwt>0</asrwt>
<pdfrwt beam="2">  1        4 0.59733189E-01 0.12499048E+03</pdfrwt>
<pdfrwt beam="1">  1       -4 0.15475742E-02 0.12499048E+03</pdfrwt>
<totfact> 0.64729628E+03</totfact>
</mgrwt>
</event>
<event>
 5    1  0.3312904E-002  0.1249973E+03  0.7818608E-02  0.1235074E+00
          4   -1    0    0  501    0  0.00000000000E+00  0.00000000000E+00  0.11026455685E+03  0.11027187038E+03  0.12700000000E+01 0.  1.
         -4   -1    0    0    0  501 -0.00000000000E+00 -0.00000000000E+00 -0.35404742519E+02  0.35427513219E+02  0.12700000000E+01 0.  1.
         25    2    1    2    0    0  0.00000000000E+00  0.00000000000E+00  0.74859814327E+02  0.14569938360E+03  0.12499727429E+03 0.  0.
    9000005    1    3    3    0    0  0.31660192535E+02  0.53226761842E+02  0.27703876145E+02  0.67852492371E+02  0.10000000000E+01 0.  0.
    9000005    1    3    3    0    0 -0.31660192535E+02 -0.53226761842E+02  0.47155938182E+02  0.77846891225E+02  0.10000000000E+01 0.  0.
<mgrwt>
<rscale>  0 0.12499727E+03</rscale>
<asrwt>0</asrwt>
<pdfrwt beam="1">  1        4 0.16966092E-01 0.12499727E+03</pdfrwt>
<pdfrwt beam="2">  1       -4 0.54491978E-02 0.12499727E+03</pdfrwt>
<totfact> 0.10017413E+04</totfact>
</mgrwt>
</event>
<event>
 5    1  0.3312904E-002  0.1249998E+03  0.7818608E-02  0.1235070E+00
         -4   -1    0    0    0  501 -0.00000000000E+00  0.00000000000E+00  0.13392309381E+03  0.13392911542E+03  0.12700000000E+01 0. -1.
          4   -1    0    0  501    0  0.00000000000E+00 -0.00000000000E+00 -0.29147253190E+02  0.29174908201E+02  0.12700000000E+01 0. -1.
         25    2    1    2    0    0  0.00000000000E+00  0.00000000000E+00  0.10477584062E+03  0.16310402362E+03  0.12499978297E+03 0.  0.
    9000005    1    3    3    0    0  0.35151968478E+02 -0.34908606272E+02  0.26847778654E+01  0.49623378683E+02  0.10000000000E+01 0.  0.
    9000005    1    3    3    0    0 -0.35151968478E+02  0.34908606272E+02  0.10209106276E+03  0.11348064494E+03  0.10000000000E+01 0.  0.
<mgrwt>
<rscale>  0 0.12499978E+03</rscale>
<asrwt>0</asrwt>
<pdfrwt beam="2">  1        4 0.44867835E-02 0.12499978E+03</pdfrwt>
<pdfrwt beam="1">  1       -4 0.20606142E-01 0.12499978E+03</pdfrwt>
<totfact> 0.96748142E+03</totfact>
</mgrwt>
</event>
<event>
 5    1  0.3312904E-002  0.1250001E+03  0.7818608E-02  0.1235069E+00
         -4   -1    0    0    0  501 -0.00000000000E+00  0.00000000000E+00  0.21280479101E+03  0.21280858060E+03  0.12700000000E+01 0.  1.
          4   -1    0    0  501    0  0.00000000000E+00 -0.00000000000E+00 -0.18330132320E+02  0.18374075510E+02  0.12700000000E+01 0.  1.
         25    2    1    2    0    0  0.00000000000E+00  0.00000000000E+00  0.19447465869E+03  0.23118265611E+03  0.12500011045E+03 0.  0.
    9000005    1    3    3    0    0 -0.14094992950E+01  0.46649411392E+02  0.20376701921E+02  0.50934902107E+02  0.10000000000E+01 0.  0.
    9000005    1    3    3    0    0  0.14094992950E+01 -0.46649411392E+02  0.17409795677E+03  0.18024775400E+03  0.10000000000E+01 0.  0.
<mgrwt>
<rscale>  0 0.12500011E+03</rscale>
<asrwt>0</asrwt>
<pdfrwt beam="2">  1        4 0.28236921E-02 0.12500011E+03</pdfrwt>
<pdfrwt beam="1">  1       -4 0.32742871E-01 0.12500011E+03</pdfrwt>
<totfact> 0.85128118E+03</totfact>
</mgrwt>
</event>
<event>
 5    1  0.3312904E-002  0.1250010E+03  0.7818608E-02  0.1235068E+00
         -4   -1    0    0    0  501 -0.00000000000E+00  0.00000000000E+00  0.14870396501E+02  0.14924529879E+02  0.12700000000E+01 0. -1.
          4   -1    0    0  501    0  0.00000000000E+00 -0.00000000000E+00 -0.26215761634E+03  0.26216069253E+03  0.12700000000E+01 0. -1.
         25    2    1    2    0    0  0.00000000000E+00  0.00000000000E+00 -0.24728721984E+03  0.27708522241E+03  0.12500100551E+03 0.  0.
    9000005    1    3    3    0    0  0.16468779863E+02 -0.53268626832E+02 -0.18620482288E+03  0.19437593313E+03  0.10000000000E+01 0.  0.
    9000005    1    3    3    0    0 -0.16468779863E+02  0.53268626832E+02 -0.61082396958E+02  0.82709289278E+02  0.10000000000E+01 0.  0.
<mgrwt>
<rscale>  0 0.12500101E+03</rscale>
<asrwt>0</asrwt>
<pdfrwt beam="2">  1        4 0.40336338E-01 0.12500101E+03</pdfrwt>
<pdfrwt beam="1">  1       -4 0.22921542E-02 0.12500101E+03</pdfrwt>
<totfact> 0.78564423E+03</totfact>
</mgrwt>
</event>
<event>
 5    1  0.3312904E-002  0.1250021E+03  0.7818608E-02  0.1235066E+00
          4   -1    0    0  501    0  0.00000000000E+00  0.00000000000E+00  0.95393477419E+02  0.95401930977E+02  0.12700000000E+01 0.  1.
         -4   -1    0    0    0  501 -0.00000000000E+00 -0.00000000000E+00 -0.40930104888E+02  0.40949803249E+02  0.12700000000E+01 0.  1.
         25    2    1    2    0    0  0.00000000000E+00  0.00000000000E+00  0.54463372531E+02  0.13635173423E+03  0.12500214590E+03 0.  0.
    9000005    1    3    3    0    0  0.43360275312E+02  0.13975265692E+02 -0.19430416264E+02  0.49537486841E+02  0.10000000000E+01 0.  0.
    9000005    1    3    3    0    0 -0.43360275312E+02 -0.13975265692E+02  0.73893788795E+02  0.86814247384E+02  0.10000000000E+01 0.  0.
<mgrwt>
<rscale>  0 0.12500215E+03</rscale>
<asrwt>0</asrwt>
<pdfrwt beam="1">  1        4 0.14678085E-01 0.12500215E+03</pdfrwt>
<pdfrwt beam="2">  1       -4 0.62991049E-02 0.12500215E+03</pdfrwt>
<totfact> 0.10209164E+04</totfact>
</mgrwt>
</event>
<event>
 4    1  0.3312904E-002  0.1251273E+03  0.7818608E-02  0.1234870E+00
         -4   -1    0    0    0  501 -0.00000000000E+00  0.00000000000E+00  0.28224530495E+02  0.28253088711E+02  0.12700000000E+01 0. -1.
          4   -1    0    0  501    0  0.00000000000E+00 -0.00000000000E+00 -0.13857958991E+03  0.13858540919E+03  0.12700000000E+01 0. -1.
    9000005    1    1    2    0    0 -0.43541413949E+02  0.26488282966E+02 -0.68129844225E+01  0.51428597297E+02  0.10000000000E+01 0.  0.
    9000005    1    1    2    0    0  0.43541413949E+02 -0.26488282966E+02 -0.10354207500E+03  0.11540990060E+03  0.10000000000E+01 0.  0.
<mgrwt>
<rscale>  0 0.12512732E+03</rscale>
<asrwt>0</asrwt>
<pdfrwt beam="2">  1        4 0.21322581E-01 0.12512732E+03</pdfrwt>
<pdfrwt beam="1">  1       -4 0.43448800E-02 0.12512732E+03</pdfrwt>
<totfact> 0.95766222E+03</totfact>
</mgrwt>
</event>
<event>
 5    1  0.3312904E-002  0.1249932E+03  0.7818608E-02  0.1235080E+00
          4   -1    0    0  501    0  0.00000000000E+00  0.00000000000E+00  0.95172462332E+02  0.95180935519E+02  0.12700000000E+01 0. -1.
         -4   -1    0    0    0  501 -0.00000000000E+00 -0.00000000000E+00 -0.41019323874E+02  0.41038979411E+02  0.12700000000E+01 0. -1.
         25    2    1    2    0    0  0.00000000000E+00  0.00000000000E+00  0.54153138458E+02  0.13621991493E+03  0.12499321109E+03 0.  0.
    9000005    1    3    3    0    0 -0.22359882382E+02 -0.42137055689E+02  0.71067048486E+02  0.85598020905E+02  0.10000000000E+01 0.  0.
    9000005    1    3    3    0    0  0.22359882382E+02  0.42137055689E+02 -0.16913910028E+02  0.50621894025E+02  0.10000000000E+01 0.  0.
<mgrwt>
<rscale>  0 0.12499321E+03</rscale>
<asrwt>0</asrwt>
<pdfrwt beam="1">  1        4 0.14644081E-01 0.12499321E+03</pdfrwt>
<pdfrwt beam="2">  1       -4 0.63128291E-02 0.12499321E+03</pdfrwt>
<totfact> 0.10213985E+04</totfact>
</mgrwt>
</event>
<event>
 5    1  0.3312904E-002  0.1249996E+03  0.7818608E-02  0.1235070E+00
          4   -1    0    0  501    0  0.00000000000E+00  0.00000000000E+00  0.11427821320E+03  0.11428526989E+03  0.12700000000E+01 0.  1.
         -4   -1    0    0    0  501 -0.00000000000E+00 -0.00000000000E+00 -0.34161815921E+02  0.34185414536E+02  0.12700000000E+01 0.  1.
         25    2    1    2    0    0  0.00000000000E+00  0.00000000000E+00  0.80116397284E+02  0.14847068442E+03  0.12499962808E+03 0.  0.
    9000005    1    3    3    0    0  0.37501768258E+02  0.24823230642E+02  0.91594938248E+02  0.10204512783E+03  0.10000000000E+01 0.  0.
    9000005    1    3    3    0    0 -0.37501768258E+02 -0.24823230642E+02 -0.11478540964E+02  0.46425556590E+02  0.10000000000E+01 0.  0.
<mgrwt>
<rscale>  0 0.12499963E+03</rscale>
<asrwt>0</asrwt>
<pdfrwt beam="1">  1        4 0.17583621E-01 0.12499963E+03</pdfrwt>
<pdfrwt beam="2">  1       -4 0.52580222E-02 0.12499963E+03</pdfrwt>
<totfact> 0.99610256E+03</totfact>
</mgrwt>
</event>
<event>
 5    1  0.3312904E-002  0.1250013E+03  0.7818608E-02  0.1235067E+00
         -4   -1    0    0    0  501 -0.00000000000E+00  0.00000000000E+00  0.18785926230E+03  0.18786355509E+03  0.12700000000E+01 0. -1.
          4   -1    0    0  501    0  0.00000000000E+00 -0.00000000000E+00 -0.20769996845E+02  0.20808788262E+02  0.12700000000E+01 0. -1.
         25    2    1    2    0    0  0.00000000000E+00  0.00000000000E+00  0.16708926545E+03  0.20867234335E+03  0.12500129700E+03 0.  0.
    9000005    1    3    3    0    0  0.43475016463E+02  0.18638768170E+02  0.15172022368E+03  0.15892610550E+03  0.10000000000E+01 0.  0.
    9000005    1    3    3    0    0 -0.43475016463E+02 -0.18638768170E+02  0.15369041769E+02  0.49746237850E+02  0.10000000000E+01 0.  0.
<mgrwt>
<rscale>  0 0.12500130E+03</rscale>
<asrwt>0</asrwt>
<pdfrwt beam="2">  1        4 0.31986985E-02 0.12500130E+03</pdfrwt>
<pdfrwt beam="1">  1       -4 0.28904737E-01 0.12500130E+03</pdfrwt>
<totfact> 0.88690594E+03</totfact>
</mgrwt>
</event>
<event>
 5    1  0.3312904E-002  0.1250001E+03  0.7818608E-02  0.1235069E+00
         -4   -1    0    0    0  501 -0.00000000000E+00  0.00000000000E+00  0.17545528408E+02  0.17591431640E+02  0.12700000000E+01 0. -1.
          4   -1    0    0  501    0  0.00000000000E+00 -0.00000000000E+00 -0.22229673990E+03  0.22230036768E+03  0.12700000000E+01 0. -1.
         25    2    1    2    0    0  0.00000000000E+00  0.00000000000E+00 -0.20475121150E+03  0.23989179932E+03  0.12500006709E+03 0.  0.
    9000005    1    3    3    0    0 -0.48998296584E+02  0.36321728139E+02 -0.12848944674E+03  0.14223445056E+03  0.10000000000E+01 0.  0.
    9000005    1    3    3    0    0  0.48998296584E+02 -0.36321728139E+02 -0.76261764753E+02  0.97657348758E+02  0.10000000000E+01 0.  0.
<mgrwt>
<rscale>  0 0.12500007E+03</rscale>
<asrwt>0</asrwt>
<pdfrwt beam="2">  1        4 0.34203307E-01 0.12500007E+03</pdfrwt>
<pdfrwt beam="1">  1       -4 0.27031223E-02 0.12500007E+03</pdfrwt>
<totfact> 0.83813360E+03</totfact>
</mgrwt>
</event>
<event>
 5    1  0.3312904E-002  0.1250021E+03  0.7818608E-02  0.1235066E+00
          4   -1    0    0  501    0  0.00000000000E+00  0.00000000000E+00  0.19026988301E+03  0.19027412142E+03  0.12700000000E+01 0. -1.
         -4   -1    0    0    0  501 -0.00000000000E+00 -0.00000000000E+00 -0.20506626746E+02  0.20545915421E+02  0.12700000000E+01 0. -1.
         25    2    1    2    0    0  0.00000000000E+00  0.00000000000E+00  0.16976325627E+03  0.21082003684E+03  0.12500209900E+03 0.  0.
    9000005    1    3    3    0    0 -0.34960816636E+01  0.55171793312E+02  0.13402983863E+03  0.14498671321E+03  0.10000000000E+01 0.  0.
    9000005    1    3    3    0    0  0.34960816636E+01 -0.55171793312E+02  0.35733417639E+02  0.65833323632E+02  0.10000000000E+01 0.  0.
<mgrwt>
<rscale>  0 0.12500210E+03</rscale>
<asrwt>0</asrwt>
<pdfrwt beam="1">  1        4 0.29275638E-01 0.12500210E+03</pdfrwt>
<pdfrwt beam="2">  1       -4 0.31582139E-02 0.12500210E+03</pdfrwt>
<totfact> 0.88337988E+03</totfact>
</mgrwt>
</event>
<event>
 5    1  0.3312904E-002  0.1249949E+03  0.7818608E-02  0.1235077E+00
          4   -1    0    0  501    0  0.00000000000E+00  0.00000000000E+00  0.45279119081E+01  0.47026467279E+01  0.12700000000E+01 0. -1.
         -4   -1    0    0    0  501 -0.00000000000E+00 -0.00000000000E+00 -0.84612955270E+03  0.84613050581E+03  0.12700000000E+01 0. -1.
         25    2    1    2    0    0  0.00000000000E+00  0.00000000000E+00 -0.84160164080E+03  0.85083315254E+03  0.12499492655E+03 0.  0.
    9000005    1    3    3    0    0 -0.62211068234E+02 -0.36995044493E+01 -0.38958554038E+03  0.39453998102E+03  0.10000000000E+01 0.  0.
    9000005    1    3    3    0    0  0.62211068234E+02  0.36995044493E+01 -0.45201610041E+03  0.45629317152E+03  0.10000000000E+01 0.  0.
<mgrwt>
<rscale>  0 0.12499493E+03</rscale>
<asrwt>0</asrwt>
<pdfrwt beam="1">  1        4 0.71011696E-03 0.12499493E+03</pdfrwt>
<pdfrwt beam="2">  1       -4 0.13018717E+00 0.12499493E+03</pdfrwt>
<totfact> 0.36097284E+03</totfact>
</mgrwt>
</event>
<event>
 5    1  0.3312904E-002  0.1250005E+03  0.7818608E-02  0.1235068E+00
          4   -1    0    0  501    0  0.00000000000E+00  0.00000000000E+00  0.20105394814E+02  0.20145466007E+02  0.12700000000E+01 0. -1.
         -4   -1    0    0    0  501 -0.00000000000E+00 -0.00000000000E+00 -0.19405475054E+03  0.19405890628E+03  0.12700000000E+01 0. -1.
         25    2    1    2    0    0  0.00000000000E+00  0.00000000000E+00 -0.17394935572E+03  0.21420437228E+03  0.12500053900E+03 0.  0.
    9000005    1    3    3    0    0 -0.52400587708E+02 -0.32907530350E+02 -0.71981019931E+02  0.94926257570E+02  0.10000000000E+01 0.  0.
    9000005    1    3    3    0    0  0.52400587708E+02  0.32907530350E+02 -0.10196833579E+03  0.11927811472E+03  0.10000000000E+01 0.  0.
<mgrwt>
<rscale>  0 0.12500054E+03</rscale>
<asrwt>0</asrwt>
<pdfrwt beam="1">  1        4 0.30965399E-02 0.12500054E+03</pdfrwt>
<pdfrwt beam="2">  1       -4 0.29857978E-01 0.12500054E+03</pdfrwt>
<totfact> 0.87792765E+03</totfact>
</mgrwt>
</event>
<event>
 5    1  0.3312904E-002  0.1249959E+03  0.7818608E-02  0.1235076E+00
          4   -1    0    0  501    0  0.00000000000E+00  0.00000000000E+00  0.22293170694E+03  0.22293532439E+03  0.12700000000E+01 0. -1.
         -4   -1    0    0    0  501 -0.00000000000E+00 -0.00000000000E+00 -0.17494242931E+02  0.17540280378E+02  0.12700000000E+01 0. -1.
         25    2    1    2    0    0  0.00000000000E+00  0.00000000000E+00  0.20543746401E+03  0.24047560476E+03  0.12499585940E+03 0.  0.
    9000005    1    3    3    0    0 -0.11582620596E+02  0.41136210743E+02  0.15005382594E+02  0.45304596246E+02  0.10000000000E+01 0.  0.
    9000005    1    3    3    0    0  0.11582620596E+02 -0.41136210743E+02  0.19043208141E+03  0.19517100852E+03  0.10000000000E+01 0.  0.
<mgrwt>
<rscale>  0 0.12499586E+03</rscale>
<asrwt>0</asrwt>
<pdfrwt beam="1">  1        4 0.34301002E-01 0.12499586E+03</pdfrwt>
<pdfrwt beam="2">  1       -4 0.26952418E-02 0.12499586E+03</pdfrwt>
<totfact> 0.83734316E+03</totfact>
</mgrwt>
</event>
<event>
 5    1  0.3312904E-002  0.1249999E+03  0.7818608E-02  0.1235069E+00
          4   -1    0    0  501    0  0.00000000000E+00  0.00000000000E+00  0.28229014597E+02  0.28257568281E+02  0.12700000000E+01 0. -1.
         -4   -1    0    0    0  501 -0.00000000000E+00 -0.00000000000E+00 -0.13827554032E+03  0.13828137240E+03  0.12700000000E+01 0. -1.
         25    2    1    2    0    0  0.00000000000E+00  0.00000000000E+00 -0.11004652573E+03  0.16653894068E+03  0.12499992375E+03 0.  0.
    9000005    1    3    3    0    0 -0.45303284649E+00  0.59883531230E+02 -0.78819222178E+02  0.98993496433E+02  0.10000000000E+01 0.  0.
    9000005    1    3    3    0    0  0.45303284649E+00 -0.59883531230E+02 -0.31227303549E+02  0.67545444245E+02  0.10000000000E+01 0.  0.
<mgrwt>
<rscale>  0 0.12499992E+03</rscale>
<asrwt>0</asrwt>
<pdfrwt beam="1">  1        4 0.43455705E-02 0.12499992E+03</pdfrwt>
<pdfrwt beam="2">  1       -4 0.21275805E-01 0.12499992E+03</pdfrwt>
<totfact> 0.96096898E+03</totfact>
</mgrwt>
</event>
<event>
 5    1  0.3312904E-002  0.1250013E+03  0.7818608E-02  0.1235067E+00
         -4   -1    0    0    0  501 -0.00000000000E+00  0.00000000000E+00  0.55367970741E+02  0.55382534105E+02  0.12700000000E+01 0.  1.
          4   -1    0    0  501    0  0.00000000000E+00 -0.00000000000E+00 -0.70522622181E+02  0.70534056592E+02  0.12700000000E+01 0.  1.
         25    2    1    2    0    0  0.00000000000E+00  0.00000000000E+00 -0.15154651441E+02  0.12591659070E+03  0.12500129740E+03 0.  0.
    9000005    1    3    3    0    0 -0.82413947839E+01  0.44379514532E+02  0.35957986653E+02  0.57718616600E+02  0.10000000000E+01 0.  0.
    9000005    1    3    3    0    0  0.82413947839E+01 -0.44379514532E+02 -0.51112638093E+02  0.68197974097E+02  0.10000000000E+01 0.  0.
<mgrwt>
<rscale>  0 0.12500130E+03</rscale>
<asrwt>0</asrwt>
<pdfrwt beam="2">  1        4 0.10851634E-01 0.12500130E+03</pdfrwt>
<pdfrwt beam="1">  1       -4 0.85201491E-02 0.12500130E+03</pdfrwt>
<totfact> 0.10432480E+04</totfact>
</mgrwt>
</event>
<event>
 5    1  0.3312904E-002  0.1249977E+03  0.7818608E-02  0.1235073E+00
          4   -1    0    0  501    0  0.00000000000E+00  0.00000000000E+00  0.27306303131E+01  0.30115182063E+01  0.12700000000E+01 0.  1.
         -4   -1    0    0    0  501 -0.00000000000E+00 -0.00000000000E+00 -0.13602229647E+04  0.13602235576E+04  0.12700000000E+01 0.  1.
         25    2    1    2    0    0  0.00000000000E+00  0.00000000000E+00 -0.13574923344E+04  0.13632350758E+04  0.12499773573E+03 0.  0.
    9000005    1    3    3    0    0 -0.58482260736E+02 -0.13724450679E+02 -0.86656299308E+03  0.86864316975E+03  0.10000000000E+01 0.  0.
    9000005    1    3    3    0    0  0.58482260736E+02  0.13724450679E+02 -0.49092934133E+03  0.49459190606E+03  0.10000000000E+01 0.  0.
<mgrwt>
<rscale>  0 0.12499774E+03</rscale>
<asrwt>0</asrwt>
<pdfrwt beam="1">  1        4 0.44175043E-03 0.12499774E+03</pdfrwt>
<pdfrwt beam="2">  1       -4 0.20928621E+00 0.12499774E+03</pdfrwt>
<totfact> 0.20784429E+03</totfact>
</mgrwt>
</event>
<event>
 5    1  0.3312904E-002  0.1250037E+03  0.7818608E-02  0.1235064E+00
          4   -1    0    0  501    0  0.00000000000E+00  0.00000000000E+00  0.63690712860E+01  0.64944567938E+01  0.12700000000E+01 0. -1.
         -4   -1    0    0    0  501 -0.00000000000E+00 -0.00000000000E+00 -0.60724701766E+03  0.60724834570E+03  0.12700000000E+01 0. -1.
         25    2    1    2    0    0  0.00000000000E+00  0.00000000000E+00 -0.60087794637E+03  0.61374280249E+03  0.12500368465E+03 0.  0.
    9000005    1    3    3    0    0  0.54717437066E+02  0.83606865254E+01 -0.44287230544E+03  0.44631914358E+03  0.10000000000E+01 0.  0.
    9000005    1    3    3    0    0 -0.54717437066E+02 -0.83606865254E+01 -0.15800564093E+03  0.16742365891E+03  0.10000000000E+01 0.  0.
<mgrwt>
<rscale>  0 0.12500368E+03</rscale>
<asrwt>0</asrwt>
<pdfrwt beam="1">  1        4 0.98960479E-03 0.12500368E+03</pdfrwt>
<pdfrwt beam="2">  1       -4 0.93432320E-01 0.12500368E+03</pdfrwt>
<totfact> 0.48007599E+03</totfact>
</mgrwt>
</event>
<event>
 5    1  0.3312904E-002  0.1250311E+03  0.7818608E-02  0.1235021E+00
          4   -1    0    0  501    0  0.00000000000E+00  0.00000000000E+00  0.80733668885E+03  0.80733768775E+03  0.12700000000E+01 0.  1.
         -4   -1    0    0    0  501 -0.00000000000E+00 -0.00000000000E+00 -0.47565299948E+01  0.49231572787E+01  0.12700000000E+01 0.  1.
         25    2    1    2    0    0  0.00000000000E+00  0.00000000000E+00  0.80258015886E+03  0.81226084503E+03  0.12503107206E+03 0.  0.
    9000005    1    3    3    0    0  0.52297472004E+02  0.18873234688E+02  0.21571739849E+03  0.22276943367E+03  0.10000000000E+01 0.  0.
    9000005    1    3    3    0    0 -0.52297472004E+02 -0.18873234688E+02  0.58686276037E+03  0.58949141136E+03  0.10000000000E+01 0.  0.
<mgrwt>
<rscale>  0 0.12503107E+03</rscale>
<asrwt>0</asrwt>
<pdfrwt beam="1">  1        4 0.12421870E+00 0.12503107E+03</pdfrwt>
<pdfrwt beam="2">  1       -4 0.74466723E-03 0.12503107E+03</pdfrwt>
<totfact> 0.37697560E+03</totfact>
</mgrwt>
</event>
<event>
 5    1  0.3312904E-002  0.1249997E+03  0.7818608E-02  0.1235070E+00
          4   -1    0    0  501    0  0.00000000000E+00  0.00000000000E+00  0.42607299448E+02  0.42626222754E+02  0.12700000000E+01 0. -1.
         -4   -1    0    0    0  501 -0.00000000000E+00 -0.00000000000E+00 -0.91636240119E+02  0.91645040254E+02  0.12700000000E+01 0. -1.
         25    2    1    2    0    0  0.00000000000E+00  0.00000000000E+00 -0.49028940670E+02  0.13427126301E+03  0.12499974019E+03 0.  0.
    9000005    1    3    3    0    0  0.52172083663E+02  0.26084881896E+02 -0.48602922924E+02  0.75931492110E+02  0.10000000000E+01 0.  0.
    9000005    1    3    3    0    0 -0.52172083663E+02 -0.26084881896E+02 -0.42601774662E+00  0.58339770898E+02  0.10000000000E+01 0.  0.
<mgrwt>
<rscale>  0 0.12499974E+03</rscale>
<asrwt>0</asrwt>
<pdfrwt beam="1">  1        4 0.65571017E-02 0.12499974E+03</pdfrwt>
<pdfrwt beam="2">  1       -4 0.14100016E-01 0.12499974E+03</pdfrwt>
<totfact> 0.10253514E+04</totfact>
</mgrwt>
</event>
<event>
 5    1  0.3312904E-002  0.1249938E+03  0.7818608E-02  0.1235079E+00
         -4   -1    0    0    0  501 -0.00000000000E+00  0.00000000000E+00  0.35528434262E+02  0.35551125736E+02  0.12700000000E+01 0.  1.
          4   -1    0    0  501    0  0.00000000000E+00 -0.00000000000E+00 -0.10987480081E+03  0.10988214029E+03  0.12700000000E+01 0.  1.
         25    2    1    2    0    0  0.00000000000E+00  0.00000000000E+00 -0.74346366551E+02  0.14543326602E+03  0.12499381043E+03 0.  0.
    9000005    1    3    3    0    0  0.10498113478E+02 -0.40776125650E+02 -0.90896746731E+02  0.10018044408E+03  0.10000000000E+01 0.  0.
    9000005    1    3    3    0    0 -0.10498113478E+02  0.40776125650E+02  0.16550380180E+02  0.45252821942E+02  0.10000000000E+01 0.  0.
<mgrwt>
<rscale>  0 0.12499381E+03</rscale>
<asrwt>0</asrwt>
<pdfrwt beam="2">  1        4 0.16906125E-01 0.12499381E+03</pdfrwt>
<pdfrwt beam="1">  1       -4 0.54682231E-02 0.12499381E+03</pdfrwt>
<totfact> 0.10023590E+04</totfact>
</mgrwt>
</event>
<event>
 5    1  0.3312904E-002  0.1250002E+03  0.7818608E-02  0.1235069E+00
          4   -1    0    0  501    0  0.00000000000E+00  0.00000000000E+00  0.10268191939E+02  0.10346432510E+02  0.12700000000E+01 0. -1.
         -4   -1    0    0    0  501 -0.00000000000E+00 -0.00000000000E+00 -0.37890044598E+03  0.37890257437E+03  0.12700000000E+01 0. -1.
         25    2    1    2    0    0  0.00000000000E+00  0.00000000000E+00 -0.36863225404E+03  0.38924900688E+03  0.12500020255E+03 0.  0.
    9000005    1    3    3    0    0  0.27933090479E+02  0.54633913010E+02 -0.22117982363E+03  0.22953569739E+03  0.10000000000E+01 0.  0.
    9000005    1    3    3    0    0 -0.27933090479E+02 -0.54633913010E+02 -0.14745243041E+03  0.15971330949E+03  0.10000000000E+01 0.  0.
<mgrwt>
<rscale>  0 0.12500020E+03</rscale>
<asrwt>0</asrwt>
<pdfrwt beam="1">  1        4 0.15859044E-02 0.12500020E+03</pdfrwt>
<pdfrwt beam="2">  1       -4 0.58298548E-01 0.12500020E+03</pdfrwt>
<totfact> 0.65611735E+03</totfact>
</mgrwt>
</event>
<event>
 5    1  0.3312904E-002  0.1249889E+03  0.7818608E-02  0.1235087E+00
         -4   -1    0    0    0  501 -0.00000000000E+00  0.00000000000E+00  0.13226207053E+02  0.13287040792E+02  0.12700000000E+01 0. -1.
          4   -1    0    0  501    0  0.00000000000E+00 -0.00000000000E+00 -0.29454961475E+03  0.29455235265E+03  0.12700000000E+01 0. -1.
         25    2    1    2    0    0  0.00000000000E+00  0.00000000000E+00 -0.28132340770E+03  0.30783939344E+03  0.12498892925E+03 0.  0.
    9000005    1    3    3    0    0  0.70870937633E+01 -0.55090760916E+02 -0.21116095972E+03  0.21834644432E+03  0.10000000000E+01 0.  0.
    9000005    1    3    3    0    0 -0.70870937633E+01  0.55090760916E+02 -0.70162447984E+02  0.89492949127E+02  0.10000000000E+01 0.  0.
<mgrwt>
<rscale>  0 0.12498893E+03</rscale>
<asrwt>0</asrwt>
<pdfrwt beam="2">  1        4 0.45320211E-01 0.12498893E+03</pdfrwt>
<pdfrwt beam="1">  1       -4 0.20396914E-02 0.12498893E+03</pdfrwt>
<totfact> 0.74644222E+03</totfact>
</mgrwt>
</event>
<event>
 5    1  0.3312904E-002  0.1250061E+03  0.7818608E-02  0.1235060E+00
         -4   -1    0    0    0  501 -0.00000000000E+00  0.00000000000E+00  0.46131229406E+01  0.47847469384E+01  0.12700000000E+01 0. -1.
          4   -1    0    0  501    0  0.00000000000E+00 -0.00000000000E+00 -0.83121436388E+03  0.83121533408E+03  0.12700000000E+01 0. -1.
         25    2    1    2    0    0  0.00000000000E+00  0.00000000000E+00 -0.82660124093E+03  0.83600008102E+03  0.12500609565E+03 0.  0.
    9000005    1    3    3    0    0 -0.56212247358E+02 -0.13372397264E+02 -0.25405625899E+03  0.26054600457E+03  0.10000000000E+01 0.  0.
    9000005    1    3    3    0    0  0.56212247358E+02  0.13372397264E+02 -0.57254498194E+03  0.57545407645E+03  0.10000000000E+01 0.  0.
<mgrwt>
<rscale>  0 0.12500610E+03</rscale>
<asrwt>0</asrwt>
<pdfrwt beam="2">  1        4 0.12789229E+00 0.12500610E+03</pdfrwt>
<pdfrwt beam="1">  1       -4 0.72298836E-03 0.12500610E+03</pdfrwt>
<totfact> 0.36702306E+03</totfact>
</mgrwt>
</event>
<event>
 5    1  0.3312904E-002  0.1249978E+03  0.7818608E-02  0.1235073E+00
         -4   -1    0    0    0  501 -0.00000000000E+00  0.00000000000E+00  0.89326084100E+01  0.90224383071E+01  0.12700000000E+01 0.  1.
          4   -1    0    0  501    0  0.00000000000E+00 -0.00000000000E+00 -0.43500846364E+03  0.43501031750E+03  0.12700000000E+01 0.  1.
         25    2    1    2    0    0  0.00000000000E+00  0.00000000000E+00 -0.42607585523E+03  0.44403275581E+03  0.12499781529E+03 0.  0.
    9000005    1    3    3    0    0 -0.36585771762E+02 -0.50037232003E+02 -0.18487129560E+03  0.19498881819E+03  0.10000000000E+01 0.  0.
    9000005    1    3    3    0    0  0.36585771762E+02  0.50037232003E+02 -0.24120455962E+03  0.24904393762E+03  0.10000000000E+01 0.  0.
<mgrwt>
<rscale>  0 0.12499782E+03</rscale>
<asrwt>0</asrwt>
<pdfrwt beam="2">  1        4 0.66931415E-01 0.12499782E+03</pdfrwt>
<pdfrwt beam="1">  1       -4 0.13813004E-02 0.12499782E+03</pdfrwt>
<totfact> 0.60487164E+03</totfact>
</mgrwt>
</event>
<event>
 4    1  0.3312904E-002  0.1248623E+03  0.7818608E-02  0.1235285E+00
          4   -1    0    0  501    0  0.00000000000E+00  0.00000000000E+00  0.52537237707E+01  0.54050451856E+01  0.12700000000E+01 0.  1.
         -4   -1    0    0    0  501 -0.00000000000E+00 -0.00000000000E+00 -0.73119822804E+03  0.73119933095E+03  0.12700000000E+01 0.  1.
    9000005    1    1    2    0    0  0.29923446664E+02 -0.41026085235E+02 -0.57715092891E+03  0.57938134857E+03  0.10000000000E+01 0.  0.
    9000005    1    1    2    0    0 -0.29923446664E+02  0.41026085235E+02 -0.14879357536E+03  0.15722302757E+03  0.10000000000E+01 0.  0.
<mgrwt>
<rscale>  0 0.12486226E+03</rscale>
<asrwt>0</asrwt>
<pdfrwt beam="1">  1        4 0.81999072E-03 0.12486226E+03</pdfrwt>
<pdfrwt beam="2">  1       -4 0.11250368E+00 0.12486226E+03</pdfrwt>
<totfact> 0.41347627E+03</totfact>
</mgrwt>
</event>
<event>
 5    1  0.3312904E-002  0.1250002E+03  0.7818608E-02  0.1235069E+00
          4   -1    0    0  501    0  0.00000000000E+00  0.00000000000E+00  0.38063780286E+03  0.38063992153E+03  0.12700000000E+01 0.  1.
         -4   -1    0    0    0  501 -0.00000000000E+00 -0.00000000000E+00 -0.10220969544E+02  0.10299568846E+02  0.12700000000E+01 0.  1.
         25    2    1    2    0    0  0.00000000000E+00  0.00000000000E+00  0.37041683331E+03  0.39093949038E+03  0.12500021894E+03 0.  0.
    9000005    1    3    3    0    0  0.16279605709E+02 -0.59756361181E+02  0.15915127662E+03  0.17078049395E+03  0.10000000000E+01 0.  0.
    9000005    1    3    3    0    0 -0.16279605709E+02  0.59756361181E+02  0.21126555669E+03  0.22015899643E+03  0.10000000000E+01 0.  0.
<mgrwt>
<rscale>  0 0.12500022E+03</rscale>
<asrwt>0</asrwt>
<pdfrwt beam="1">  1        4 0.58565872E-01 0.12500022E+03</pdfrwt>
<pdfrwt beam="2">  1       -4 0.15786659E-02 0.12500022E+03</pdfrwt>
<totfact> 0.65443328E+03</totfact>
</mgrwt>
</event>
<event>
 5    1  0.3312904E-002  0.1249994E+03  0.7818608E-02  0.1235070E+00
          4   -1    0    0  501    0  0.00000000000E+00  0.00000000000E+00  0.16723388863E+02  0.16771542418E+02  0.12700000000E+01 0.  1.
         -4   -1    0    0    0  501 -0.00000000000E+00 -0.00000000000E+00 -0.23319200418E+03  0.23319546246E+03  0.12700000000E+01 0.  1.
         25    2    1    2    0    0  0.00000000000E+00  0.00000000000E+00 -0.21646861532E+03  0.24996700488E+03  0.12499936845E+03 0.  0.
    9000005    1    3    3    0    0  0.50985111769E+02  0.17552130289E+02 -0.17139753693E+03  0.17968214871E+03  0.10000000000E+01 0.  0.
    9000005    1    3    3    0    0 -0.50985111769E+02 -0.17552130289E+02 -0.45071078386E+02  0.70284856169E+02  0.10000000000E+01 0.  0.
<mgrwt>
<rscale>  0 0.12499937E+03</rscale>
<asrwt>0</asrwt>
<pdfrwt beam="1">  1        4 0.25767994E-02 0.12499937E+03</pdfrwt>
<pdfrwt beam="2">  1       -4 0.35879661E-01 0.12499937E+03</pdfrwt>
<totfact> 0.82336156E+03</totfact>
</mgrwt>
</event>
<event>
 5    1  0.3312904E-002  0.1249986E+03  0.7818608E-02  0.1235071E+00
          4   -1    0    0  501    0  0.00000000000E+00  0.00000000000E+00  0.20846927974E+04  0.20846931842E+04  0.12700000000E+01 0.  1.
         -4   -1    0    0    0  501 -0.00000000000E+00 -0.00000000000E+00 -0.16581064056E+01  0.20885920742E+01  0.12700000000E+01 0.  1.
         25    2    1    2    0    0  0.00000000000E+00  0.00000000000E+00  0.20830346910E+04  0.20867817763E+04  0.12499863234E+03 0.  0.
    9000005    1    3    3    0    0  0.14067303185E+02  0.95228629002E+01  0.20454889918E+04  0.20455597742E+04  0.10000000000E+01 0.  0.
    9000005    1    3    3    0    0 -0.14067303185E+02 -0.95228629002E+01  0.37545699166E+02  0.41222002166E+02  0.10000000000E+01 0.  0.
<mgrwt>
<rscale>  0 0.12499863E+03</rscale>
<asrwt>0</asrwt>
<pdfrwt beam="1">  1        4 0.32075465E+00 0.12499863E+03</pdfrwt>
<pdfrwt beam="2">  1       -4 0.28823774E-03 0.12499863E+03</pdfrwt>
<totfact> 0.87710636E+02</totfact>
</mgrwt>
</event>
<event>
 5    1  0.3312904E-002  0.1250005E+03  0.7818608E-02  0.1235068E+00
          4   -1    0    0  501    0  0.00000000000E+00  0.00000000000E+00  0.37207286653E+03  0.37207503397E+03  0.12700000000E+01 0. -1.
         -4   -1    0    0    0  501 -0.00000000000E+00 -0.00000000000E+00 -0.10458087093E+02  0.10534917448E+02  0.12700000000E+01 0. -1.
         25    2    1    2    0    0  0.00000000000E+00  0.00000000000E+00  0.36161477943E+03  0.38260995142E+03  0.12500050488E+03 0.  0.
    9000005    1    3    3    0    0  0.25333766888E+02 -0.36508454791E+02  0.31529809796E+03  0.31841569935E+03  0.10000000000E+01 0.  0.
    9000005    1    3    3    0    0 -0.25333766888E+02  0.36508454791E+02  0.46316681473E+02  0.64194252068E+02  0.10000000000E+01 0.  0.
<mgrwt>
<rscale>  0 0.12500050E+03</rscale>
<asrwt>0</asrwt>
<pdfrwt beam="1">  1        4 0.57248050E-01 0.12500050E+03</pdfrwt>
<pdfrwt beam="2">  1       -4 0.16150134E-02 0.12500050E+03</pdfrwt>
<totfact> 0.66279274E+03</totfact>
</mgrwt>
</event>
<event>
 5    1  0.3312904E-002  0.1250038E+03  0.7818608E-02  0.1235063E+00
          4   -1    0    0  501    0  0.00000000000E+00  0.00000000000E+00  0.22062152294E+02  0.22098675613E+02  0.12700000000E+01 0. -1.
         -4   -1    0    0    0  501 -0.00000000000E+00 -0.00000000000E+00 -0.17688220963E+03  0.17688676882E+03  0.12700000000E+01 0. -1.
         25    2    1    2    0    0  0.00000000000E+00  0.00000000000E+00 -0.15482005734E+03  0.19898544444E+03  0.12500382771E+03 0.  0.
    9000005    1    3    3    0    0  0.41235533959E+02 -0.25175079788E+02 -0.14051047567E+03  0.14858784498E+03  0.10000000000E+01 0.  0.
    9000005    1    3    3    0    0 -0.41235533959E+02  0.25175079788E+02 -0.14309581667E+02  0.50397599454E+02  0.10000000000E+01 0.  0.
<mgrwt>
<rscale>  0 0.12500383E+03</rscale>
<asrwt>0</asrwt>
<pdfrwt beam="1">  1        4 0.33973376E-02 0.12500383E+03</pdfrwt>
<pdfrwt beam="2">  1       -4 0.27215807E-01 0.12500383E+03</pdfrwt>
<totfact> 0.90299167E+03</totfact>
</mgrwt>
</event>
<event>
 4    1  0.3312904E-002  0.1247865E+03  0.7818608E-02  0.1235403E+00
         -4   -1    0    0    0  501 -0.00000000000E+00  0.00000000000E+00  0.97271289589E+01  0.98096859167E+01  0.12700000000E+01 0. -1.
          4   -1    0    0  501    0  0.00000000000E+00 -0.00000000000E+00 -0.39843751620E+03  0.39843954022E+03  0.12700000000E+01 0. -1.
    9000005    1    1    2    0    0 -0.50426732262E+02  0.14260992300E+02 -0.30509161348E+03  0.30956117948E+03  0.10000000000E+01 0.  0.
    9000005    1    1    2    0    0  0.50426732262E+02 -0.14260992300E+02 -0.83618773763E+02  0.98688046660E+02  0.10000000000E+01 0.  0.
<mgrwt>
<rscale>  0 0.12478648E+03</rscale>
<asrwt>0</asrwt>
<pdfrwt beam="2">  1        4 0.61304573E-01 0.12478648E+03</pdfrwt>
<pdfrwt beam="1">  1       -4 0.15029879E-02 0.12478648E+03</pdfrwt>
<totfact> 0.64059691E+03</totfact>
</mgrwt>
</event>
<event>
 5    1  0.3312904E-002  0.1250002E+03  0.7818608E-02  0.1235069E+00
          4   -1    0    0  501    0  0.00000000000E+00  0.00000000000E+00  0.51644713743E+02  0.51660326728E+02  0.12700000000E+01 0. -1.
         -4   -1    0    0    0  501 -0.00000000000E+00 -0.00000000000E+00 -0.75604780297E+02  0.75615446198E+02  0.12700000000E+01 0. -1.
         25    2    1    2    0    0  0.00000000000E+00  0.00000000000E+00 -0.23960066554E+02  0.12727577293E+03  0.12500015034E+03 0.  0.
    9000005    1    3    3    0    0 -0.36806361032E+02  0.40380876740E+02  0.18902577628E+02  0.57824137345E+02  0.10000000000E+01 0.  0.
    9000005    1    3    3    0    0  0.36806361032E+02 -0.40380876740E+02 -0.42862644182E+02  0.69451635582E+02  0.10000000000E+01 0.  0.
<mgrwt>
<rscale>  0 0.12500015E+03</rscale>
<asrwt>0</asrwt>
<pdfrwt beam="1">  1        4 0.79473620E-02 0.12500015E+03</pdfrwt>
<pdfrwt beam="2">  1       -4 0.11633526E-01 0.12500015E+03</pdfrwt>
<totfact> 0.10403124E+04</totfact>
</mgrwt>
</event>
<event>
 5    1  0.3312904E-002  0.1249972E+03  0.7818608E-02  0.1235074E+00
          4   -1    0    0  501    0  0.00000000000E+00  0.00000000000E+00  0.44591430841E+03  0.44591611694E+03  0.12700000000E+01 0.  1.
         -4   -1    0    0    0  501 -0.00000000000E+00 -0.00000000000E+00 -0.87118320207E+01  0.88039148767E+01  0.12700000000E+01 0.  1.
         25    2    1    2    0    0  0.00000000000E+00  0.00000000000E+00  0.43720247639E+03  0.45472003182E+03  0.12499720786E+03 0.  0.
    9000005    1    3    3    0    0  0.57640337535E+02  0.18280383264E+02  0.27594711876E+03  0.28249671374E+03  0.10000000000E+01 0.  0.
    9000005    1    3    3    0    0 -0.57640337535E+02 -0.18280383264E+02  0.16125535763E+03  0.17222331807E+03  0.10000000000E+01 0.  0.
<mgrwt>
<rscale>  0 0.12499721E+03</rscale>
<asrwt>0</asrwt>
<pdfrwt beam="1">  1        4 0.68609424E-01 0.12499721E+03</pdfrwt>
<pdfrwt beam="2">  1       -4 0.13475042E-02 0.12499721E+03</pdfrwt>
<totfact> 0.59560729E+03</totfact>
</mgrwt>
</event>
<event>
 5    1  0.3312904E-002  0.1250018E+03  0.7818608E-02  0.1235066E+00
         -4   -1    0    0    0  501 -0.00000000000E+00  0.00000000000E+00  0.87384531668E+01  0.88302584191E+01  0.12700000000E+01 0.  1.
          4   -1    0    0  501    0  0.00000000000E+00 -0.00000000000E+00 -0.44460287038E+03  0.44460468424E+03  0.12700000000E+01 0.  1.
         25    2    1    2    0    0  0.00000000000E+00  0.00000000000E+00 -0.43586441721E+03  0.45343494266E+03  0.12500182812E+03 0.  0.
    9000005    1    3    3    0    0  0.55364039288E+02 -0.25992758625E+02 -0.17139868701E+03  0.18198711563E+03  0.10000000000E+01 0.  0.
    9000005    1    3    3    0    0 -0.55364039288E+02  0.25992758625E+02 -0.26446573020E+03  0.27144782703E+03  0.10000000000E+01 0.  0.
<mgrwt>
<rscale>  0 0.12500183E+03</rscale>
<asrwt>0</asrwt>
<pdfrwt beam="2">  1        4 0.68407626E-01 0.12500183E+03</pdfrwt>
<pdfrwt beam="1">  1       -4 0.13515792E-02 0.12500183E+03</pdfrwt>
<totfact> 0.59664982E+03</totfact>
</mgrwt>
</event>
<event>
 5    1  0.3312904E-002  0.1249985E+03  0.7818608E-02  0.1235072E+00
          4   -1    0    0  501    0  0.00000000000E+00  0.00000000000E+00  0.34960829005E+03  0.34961059677E+03  0.12700000000E+01 0.  1.
         -4   -1    0    0    0  501 -0.00000000000E+00 -0.00000000000E+00 -0.11134518522E+02  0.11206712396E+02  0.12700000000E+01 0.  1.
         25    2    1    2    0    0  0.00000000000E+00  0.00000000000E+00  0.33847377153E+03  0.36081730917E+03  0.12499854631E+03 0.  0.
    9000005    1    3    3    0    0  0.15503206323E+02 -0.57651408129E+02  0.11592315205E+03  0.13039636286E+03  0.10000000000E+01 0.  0.
    9000005    1    3    3    0    0 -0.15503206323E+02  0.57651408129E+02  0.22255061948E+03  0.23042094631E+03  0.10000000000E+01 0.  0.
<mgrwt>
<rscale>  0 0.12499855E+03</rscale>
<asrwt>0</asrwt>
<pdfrwt beam="1">  1        4 0.53791614E-01 0.12499855E+03</pdfrwt>
<pdfrwt beam="2">  1       -4 0.17187339E-02 0.12499855E+03</pdfrwt>
<totfact> 0.68552895E+03</totfact>
</mgrwt>
</event>
<event>
 5    1  0.3312904E-002  0.1249839E+03  0.7818608E-02  0.1235094E+00
         -4   -1    0    0    0  501 -0.00000000000E+00  0.00000000000E+00  0.11141147087E+02  0.11213298284E+02  0.12700000000E+01 0. -1.
          4   -1    0    0  501    0  0.00000000000E+00 -0.00000000000E+00 -0.34931980034E+03  0.34932210896E+03  0.12700000000E+01 0. -1.
         25    2    1    2    0    0  0.00000000000E+00  0.00000000000E+00 -0.33817865325E+03  0.36053540725E+03  0.12498391241E+03 0.  0.
    9000005    1    3    3    0    0 -0.65996150740E+01 -0.51802458413E+02 -0.70116036798E+02  0.87431734702E+02  0.10000000000E+01 0.  0.
    9000005    1    3    3    0    0  0.65996150740E+01  0.51802458413E+02 -0.26806261646E+03  0.27310367255E+03  0.10000000000E+01 0.  0.
<mgrwt>
<rscale>  0 0.12498391E+03</rscale>
<asrwt>0</asrwt>
<pdfrwt beam="2">  1        4 0.53747227E-01 0.12498391E+03</pdfrwt>
<pdfrwt beam="1">  1       -4 0.17197506E-02 0.12498391E+03</pdfrwt>
<totfact> 0.68605286E+03</totfact>
</mgrwt>
</event>
<event>
 5    1  0.3312904E-002  0.1250007E+03  0.7818608E-02  0.1235068E+00
          4   -1    0    0  501    0  0.00000000000E+00  0.00000000000E+00  0.83102889006E+03  0.83102986049E+03  0.12700000000E+01 0. -1.
         -4   -1    0    0    0  501 -0.00000000000E+00 -0.00000000000E+00 -0.46137803231E+01  0.47853807445E+01  0.12700000000E+01 0. -1.
         25    2    1    2    0    0  0.00000000000E+00  0.00000000000E+00  0.82641510974E+03  0.83581524123E+03  0.12500073546E+03 0.  0.
    9000005    1    3    3    0    0  0.38718195615E+02  0.31565157099E+02  0.16214476670E+03  0.16966845076E+03  0.10000000000E+01 0.  0.
    9000005    1    3    3    0    0 -0.38718195615E+02 -0.31565157099E+02  0.66427034304E+03  0.66614679047E+03  0.10000000000E+01 0.  0.
<mgrwt>
<rscale>  0 0.12500074E+03</rscale>
<asrwt>0</asrwt>
<pdfrwt beam="1">  1        4 0.12786373E+00 0.12500074E+03</pdfrwt>
<pdfrwt beam="2">  1       -4 0.72308785E-03 0.12500074E+03</pdfrwt>
<totfact> 0.36714360E+03</totfact>
</mgrwt>
</event>
<event>
 5    1  0.3312904E-002  0.1250012E+03  0.7818608E-02  0.1235067E+00
          4   -1    0    0  501    0  0.00000000000E+00  0.00000000000E+00  0.70852984263E+01  0.71982187928E+01  0.12700000000E+01 0. -1.
         -4   -1    0    0    0  501 -0.00000000000E+00 -0.00000000000E+00 -0.54685602106E+03  0.54685749576E+03  0.12700000000E+01 0. -1.
         25    2    1    2    0    0  0.00000000000E+00  0.00000000000E+00 -0.53977072264E+03  0.55405571456E+03  0.12500120726E+03 0.  0.
    9000005    1    3    3    0    0  0.18426749478E+01  0.61193569726E+02 -0.32547218740E+03  0.33118151096E+03  0.10000000000E+01 0.  0.
    9000005    1    3    3    0    0 -0.18426749478E+01 -0.61193569726E+02 -0.21429853523E+03  0.22287420360E+03  0.10000000000E+01 0.  0.
<mgrwt>
<rscale>  0 0.12500121E+03</rscale>
<asrwt>0</asrwt>
<pdfrwt beam="1">  1        4 0.10988460E-02 0.12500121E+03</pdfrwt>
<pdfrwt beam="2">  1       -4 0.84140462E-01 0.12500121E+03</pdfrwt>
<totfact> 0.51901047E+03</totfact>
</mgrwt>
</event>
<event>
 5    1  0.3312904E-002  0.1250023E+03  0.7818608E-02  0.1235066E+00
         -4   -1    0    0    0  501 -0.00000000000E+00  0.00000000000E+00  0.43886398414E+02  0.43904770422E+02  0.12700000000E+01 0.  1.
          4   -1    0    0  501    0  0.00000000000E+00 -0.00000000000E+00 -0.88969991863E+02  0.88979055694E+02  0.12700000000E+01 0.  1.
         25    2    1    2    0    0  0.00000000000E+00  0.00000000000E+00 -0.45083593449E+02  0.13288382612E+03  0.12500232336E+03 0.  0.
    9000005    1    3    3    0    0 -0.32593167080E+02  0.45578131540E+02 -0.51958059878E+02  0.76421990299E+02  0.10000000000E+01 0.  0.
    9000005    1    3    3    0    0  0.32593167080E+02 -0.45578131540E+02  0.68744664291E+01  0.56461835816E+02  0.10000000000E+01 0.  0.
<mgrwt>
<rscale>  0 0.12500232E+03</rscale>
<asrwt>0</asrwt>
<pdfrwt beam="2">  1        4 0.13689801E-01 0.12500232E+03</pdfrwt>
<pdfrwt beam="1">  1       -4 0.67538641E-02 0.12500232E+03</pdfrwt>
<totfact> 0.10282331E+04</totfact>
</mgrwt>
</event>
<event>
 5    1  0.3312904E-002  0.1249939E+03  0.7818608E-02  0.1235079E+00
         -4   -1    0    0    0  501 -0.00000000000E+00  0.00000000000E+00  0.16860292380E+04  0.16860297163E+04  0.12700000000E+01 0. -1.
          4   -1    0    0  501    0  0.00000000000E+00 -0.00000000000E+00 -0.21420361441E+01  0.24902246571E+01  0.12700000000E+01 0. -1.
         25    2    1    2    0    0  0.00000000000E+00  0.00000000000E+00  0.16838872019E+04  0.16885199410E+04  0.12499392977E+03 0.  0.
    9000005    1    3    3    0    0  0.56211390558E+02  0.11261366536E+02  0.11778575728E+04  0.11792523057E+04  0.10000000000E+01 0.  0.
    9000005    1    3    3    0    0 -0.56211390558E+02 -0.11261366536E+02  0.50602962909E+03  0.50926763526E+03  0.10000000000E+01 0.  0.
<mgrwt>
<rscale>  0 0.12499393E+03</rscale>
<asrwt>0</asrwt>
<pdfrwt beam="2">  1        4 0.35636312E-03 0.12499393E+03</pdfrwt>
<pdfrwt beam="1">  1       -4 0.25941698E+00 0.12499393E+03</pdfrwt>
<totfact> 0.14502165E+03</totfact>
</mgrwt>
</event>
<event>
 5    1  0.3312904E-002  0.1249977E+03  0.7818608E-02  0.1235073E+00
          4   -1    0    0  501    0  0.00000000000E+00  0.00000000000E+00  0.16442001621E+03  0.16442492095E+03  0.12700000000E+01 0. -1.
         -4   -1    0    0    0  501 -0.00000000000E+00 -0.00000000000E+00 -0.23734632967E+02  0.23768586455E+02  0.12700000000E+01 0. -1.
         25    2    1    2    0    0  0.00000000000E+00  0.00000000000E+00  0.14068538324E+03  0.18819350741E+03  0.12499767667E+03 0.  0.
    9000005    1    3    3    0    0  0.23502245855E+01  0.23507284106E+02 -0.16759649311E+02  0.28982784661E+02  0.10000000000E+01 0.  0.
    9000005    1    3    3    0    0 -0.23502245855E+01 -0.23507284106E+02  0.15744503256E+03  0.15921072275E+03  0.10000000000E+01 0.  0.
<mgrwt>
<rscale>  0 0.12499768E+03</rscale>
<asrwt>0</asrwt>
<pdfrwt beam="1">  1        4 0.25298377E-01 0.12499768E+03</pdfrwt>
<pdfrwt beam="2">  1       -4 0.36544710E-02 0.12499768E+03</pdfrwt>
<totfact> 0.92167388E+03</totfact>
</mgrwt>
</event>
<event>
 5    1  0.3312904E-002  0.1249483E+03  0.7818608E-02  0.1235150E+00
          4   -1    0    0  501    0  0.00000000000E+00  0.00000000000E+00  0.32089484132E+03  0.32089735444E+03  0.12700000000E+01 0. -1.
         -4   -1    0    0    0  501 -0.00000000000E+00 -0.00000000000E+00 -0.12127211410E+02  0.12193529291E+02  0.12700000000E+01 0. -1.
         25    2    1    2    0    0  0.00000000000E+00  0.00000000000E+00  0.30876762991E+03  0.33309088374E+03  0.12494833950E+03 0.  0.
    9000005    1    3    3    0    0  0.48597770751E+02  0.36654339729E+02  0.19177561056E+03  0.20120678107E+03  0.10000000000E+01 0.  0.
    9000005    1    3    3    0    0 -0.48597770751E+02 -0.36654339729E+02  0.11699201935E+03  0.13188410266E+03  0.10000000000E+01 0.  0.
<mgrwt>
<rscale>  0 0.12494834E+03</rscale>
<asrwt>0</asrwt>
<pdfrwt beam="1">  1        4 0.49373727E-01 0.12494834E+03</pdfrwt>
<pdfrwt beam="2">  1       -4 0.18710197E-02 0.12494834E+03</pdfrwt>
<totfact> 0.71707746E+03</totfact>
</mgrwt>
</event>
<event>
 5    1  0.3312904E-002  0.1250056E+03  0.7818608E-02  0.1235061E+00
         -4   -1    0    0    0  501 -0.00000000000E+00  0.00000000000E+00  0.30849686516E+03  0.30849947928E+03  0.12700000000E+01 0.  1.
          4   -1    0    0  501    0  0.00000000000E+00 -0.00000000000E+00 -0.12628824979E+02  0.12692522222E+02  0.12700000000E+01 0.  1.
         25    2    1    2    0    0  0.00000000000E+00  0.00000000000E+00  0.29586804018E+03  0.32119200150E+03  0.12500561838E+03 0.  0.
    9000005    1    3    3    0    0 -0.40627997054E+02 -0.47352006564E+02  0.13875773972E+03  0.15214321214E+03  0.10000000000E+01 0.  0.
    9000005    1    3    3    0    0  0.40627997054E+02  0.47352006564E+02  0.15711030047E+03  0.16904878936E+03  0.10000000000E+01 0.  0.
<mgrwt>
<rscale>  0 0.12500562E+03</rscale>
<asrwt>0</asrwt>
<pdfrwt beam="2">  1        4 0.19479970E-02 0.12500562E+03</pdfrwt>
<pdfrwt beam="1">  1       -4 0.47466157E-01 0.12500562E+03</pdfrwt>
<totfact> 0.73005483E+03</totfact>
</mgrwt>
</event>
<event>
 5    1  0.3312904E-002  0.1250122E+03  0.7818608E-02  0.1235050E+00
         -4   -1    0    0    0  501 -0.00000000000E+00  0.00000000000E+00  0.86441050618E+02  0.86450379594E+02  0.12700000000E+01 0.  1.
          4   -1    0    0  501    0  0.00000000000E+00 -0.00000000000E+00 -0.45177866481E+02  0.45195713511E+02  0.12700000000E+01 0.  1.
         25    2    1    2    0    0  0.00000000000E+00  0.00000000000E+00  0.41263184137E+02  0.13164609311E+03  0.12501217327E+03 0.  0.
    9000005    1    3    3    0    0  0.58602988195E+02  0.82700662340E+00  0.43486202496E+02  0.72986601324E+02  0.10000000000E+01 0.  0.
    9000005    1    3    3    0    0 -0.58602988195E+02 -0.82700662340E+00 -0.22230183589E+01  0.58659491781E+02  0.10000000000E+01 0.  0.
<mgrwt>
<rscale>  0 0.12501217E+03</rscale>
<asrwt>0</asrwt>
<pdfrwt beam="2">  1        4 0.69525316E-02 0.12501217E+03</pdfrwt>
<pdfrwt beam="1">  1       -4 0.13300713E-01 0.12501217E+03</pdfrwt>
<totfact> 0.10306427E+04</totfact>
</mgrwt>
</event>
<event>
 5    1  0.3312904E-002  0.1249989E+03  0.7818608E-02  0.1235071E+00
         -4   -1    0    0    0  501 -0.00000000000E+00  0.00000000000E+00  0.64601199422E+03  0.64601324257E+03  0.12700000000E+01 0. -1.
          4   -1    0    0  501    0  0.00000000000E+00 -0.00000000000E+00 -0.59786504229E+01  0.61120504644E+01  0.12700000000E+01 0. -1.
         25    2    1    2    0    0  0.00000000000E+00  0.00000000000E+00  0.64003334379E+03  0.65212529303E+03  0.12499886657E+03 0.  0.
    9000005    1    3    3    0    0 -0.32453303323E+02  0.52907285366E+02  0.28211437733E+03  0.28886315036E+03  0.10000000000E+01 0.  0.
    9000005    1    3    3    0    0  0.32453303323E+02 -0.52907285366E+02  0.35791896647E+03  0.36326214267E+03  0.10000000000E+01 0.  0.
<mgrwt>
<rscale>  0 0.12499887E+03</rscale>
<asrwt>0</asrwt>
<pdfrwt beam="2">  1        4 0.93015011E-03 0.12499887E+03</pdfrwt>
<pdfrwt beam="1">  1       -4 0.99396800E-01 0.12499887E+03</pdfrwt>
<totfact> 0.45735314E+03</totfact>
</mgrwt>
</event>
<event>
 5    1  0.3312904E-002  0.1250010E+03  0.7818608E-02  0.1235068E+00
         -4   -1    0    0    0  501 -0.00000000000E+00  0.00000000000E+00  0.15282747646E+03  0.15283275324E+03  0.12700000000E+01 0.  1.
          4   -1    0    0  501    0  0.00000000000E+00 -0.00000000000E+00 -0.25538762666E+02  0.25570320657E+02  0.12700000000E+01 0.  1.
         25    2    1    2    0    0  0.00000000000E+00  0.00000000000E+00  0.12728871380E+03  0.17840307390E+03  0.12500096046E+03 0.  0.
    9000005    1    3    3    0    0 -0.45240273277E+02  0.35826127185E+02  0.29417515185E+02  0.64781045955E+02  0.10000000000E+01 0.  0.
    9000005    1    3    3    0    0  0.45240273277E+02 -0.35826127185E+02  0.97871198614E+02  0.11362202794E+03  0.10000000000E+01 0.  0.
<mgrwt>
<rscale>  0 0.12500096E+03</rscale>
<asrwt>0</asrwt>
<pdfrwt beam="2">  1        4 0.39318739E-02 0.12500096E+03</pdfrwt>
<pdfrwt beam="1">  1       -4 0.23514753E-01 0.12500096E+03</pdfrwt>
<totfact> 0.93903225E+03</totfact>
</mgrwt>
</event>
<event>
 5    1  0.3312904E-002  0.1249987E+03  0.7818608E-02  0.1235071E+00
          4   -1    0    0  501    0  0.00000000000E+00  0.00000000000E+00  0.10241019655E+03  0.10241807096E+03  0.12700000000E+01 0.  1.
         -4   -1    0    0    0  501 -0.00000000000E+00 -0.00000000000E+00 -0.38122494631E+02  0.38143642942E+02  0.12700000000E+01 0.  1.
         25    2    1    2    0    0  0.00000000000E+00  0.00000000000E+00  0.64287701924E+02  0.14056171390E+03  0.12499874717E+03 0.  0.
    9000005    1    3    3    0    0 -0.35184873700E+02  0.11960864517E+02  0.88639837164E+02  0.96120020546E+02  0.10000000000E+01 0.  0.
    9000005    1    3    3    0    0  0.35184873700E+02 -0.11960864517E+02 -0.24352135240E+02  0.44441693352E+02  0.10000000000E+01 0.  0.
<mgrwt>
<rscale>  0 0.12499875E+03</rscale>
<asrwt>0</asrwt>
<pdfrwt beam="1">  1        4 0.15757647E-01 0.12499875E+03</pdfrwt>
<pdfrwt beam="2">  1       -4 0.58672317E-02 0.12499875E+03</pdfrwt>
<totfact> 0.10122243E+04</totfact>
</mgrwt>
</event>
<event>
 5    1  0.3312904E-002  0.1249996E+03  0.7818608E-02  0.1235070E+00
          4   -1    0    0  501    0  0.00000000000E+00  0.00000000000E+00  0.18389942627E+02  0.18433743240E+02  0.12700000000E+01 0.  1.
         -4   -1    0    0    0  501 -0.00000000000E+00 -0.00000000000E+00 -0.21211255284E+03  0.21211635480E+03  0.12700000000E+01 0.  1.
         25    2    1    2    0    0  0.00000000000E+00  0.00000000000E+00 -0.19372261021E+03  0.23055009804E+03  0.12499959199E+03 0.  0.
    9000005    1    3    3    0    0 -0.22220698405E+02  0.56254966621E+02 -0.67883344307E+02  0.90925954169E+02  0.10000000000E+01 0.  0.
    9000005    1    3    3    0    0  0.22220698405E+02 -0.56254966621E+02 -0.12583926591E+03  0.13962414387E+03  0.10000000000E+01 0.  0.
<mgrwt>
<rscale>  0 0.12499959E+03</rscale>
<asrwt>0</asrwt>
<pdfrwt beam="1">  1        4 0.28328838E-02 0.12499959E+03</pdfrwt>
<pdfrwt beam="2">  1       -4 0.32636361E-01 0.12499959E+03</pdfrwt>
<totfact> 0.85225977E+03</totfact>
</mgrwt>
</event>
<event>
 5    1  0.3312904E-002  0.1250029E+03  0.7818608E-02  0.1235065E+00
         -4   -1    0    0    0  501 -0.00000000000E+00  0.00000000000E+00  0.47666673071E+02  0.47683588598E+02  0.12700000000E+01 0. -1.
          4   -1    0    0  501    0  0.00000000000E+00 -0.00000000000E+00 -0.81916685495E+02  0.81926529662E+02  0.12700000000E+01 0. -1.
         25    2    1    2    0    0  0.00000000000E+00  0.00000000000E+00 -0.34250012424E+02  0.12961011826E+03  0.12500287758E+03 0.  0.
    9000005    1    3    3    0    0 -0.59046148702E+02 -0.73253272080E+01 -0.36942862030E+02  0.70042009895E+02  0.10000000000E+01 0.  0.
    9000005    1    3    3    0    0  0.59046148702E+02  0.73253272080E+01  0.26928496054E+01  0.59568108365E+02  0.10000000000E+01 0.  0.
<mgrwt>
<rscale>  0 0.12500288E+03</rscale>
<asrwt>0</asrwt>
<pdfrwt beam="2">  1        4 0.12604625E-01 0.12500288E+03</pdfrwt>
<pdfrwt beam="1">  1       -4 0.73353928E-02 0.12500288E+03</pdfrwt>
<totfact> 0.10352182E+04</totfact>
</mgrwt>
</event>
<event>
 5    1  0.3312904E-002  0.1250023E+03  0.7818608E-02  0.1235066E+00
          4   -1    0    0  501    0  0.00000000000E+00  0.00000000000E+00  0.52446283012E+02  0.52461657444E+02  0.12700000000E+01 0.  1.
         -4   -1    0    0    0  501 -0.00000000000E+00 -0.00000000000E+00 -0.74451945778E+02  0.74462776809E+02  0.12700000000E+01 0.  1.
         25    2    1    2    0    0  0.00000000000E+00  0.00000000000E+00 -0.22005662766E+02  0.12692443425E+03  0.12500225125E+03 0.  0.
    9000005    1    3    3    0    0 -0.14465538355E+02  0.11161121283E+01 -0.72723176592E+02  0.74163049559E+02  0.10000000000E+01 0.  0.
    9000005    1    3    3    0    0  0.14465538355E+02 -0.11161121283E+01  0.50717513826E+02  0.52761384695E+02  0.10000000000E+01 0.  0.
<mgrwt>
<rscale>  0 0.12500225E+03</rscale>
<asrwt>0</asrwt>
<pdfrwt beam="1">  1        4 0.80706747E-02 0.12500225E+03</pdfrwt>
<pdfrwt beam="2">  1       -4 0.11456161E-01 0.12500225E+03</pdfrwt>
<totfact> 0.10410259E+04</totfact>
</mgrwt>
</event>
<event>
 5    1  0.3312904E-002  0.1250002E+03  0.7818608E-02  0.1235069E+00
          4   -1    0    0  501    0  0.00000000000E+00  0.00000000000E+00  0.61886573862E+03  0.61886704172E+03  0.12700000000E+01 0. -1.
         -4   -1    0    0    0  501 -0.00000000000E+00 -0.00000000000E+00 -0.62467626746E+01  0.63745544089E+01  0.12700000000E+01 0. -1.
         25    2    1    2    0    0  0.00000000000E+00  0.00000000000E+00  0.61261897594E+03  0.62524159613E+03  0.12500017541E+03 0.  0.
    9000005    1    3    3    0    0 -0.20729682026E+02  0.55231733801E+02  0.20319253186E+03  0.21158560712E+03  0.10000000000E+01 0.  0.
    9000005    1    3    3    0    0  0.20729682026E+02 -0.55231733801E+02  0.40942644408E+03  0.41365598901E+03  0.10000000000E+01 0.  0.
<mgrwt>
<rscale>  0 0.12500018E+03</rscale>
<asrwt>0</asrwt>
<pdfrwt beam="1">  1        4 0.95220076E-01 0.12500018E+03</pdfrwt>
<pdfrwt beam="2">  1       -4 0.97097046E-03 0.12500018E+03</pdfrwt>
<totfact> 0.47311897E+03</totfact>
</mgrwt>
</event>
<event>
 5    1  0.3312904E-002  0.1249999E+03  0.7818608E-02  0.1235069E+00
          4   -1    0    0  501    0  0.00000000000E+00  0.00000000000E+00  0.23694708826E+02  0.23728719442E+02  0.12700000000E+01 0. -1.
         -4   -1    0    0    0  501 -0.00000000000E+00 -0.00000000000E+00 -0.16470259574E+03  0.16470749206E+03  0.12700000000E+01 0. -1.
         25    2    1    2    0    0  0.00000000000E+00  0.00000000000E+00 -0.14100788691E+03  0.18843621151E+03  0.12499992654E+03 0.  0.
    9000005    1    3    3    0    0 -0.94427154058E+01 -0.42017126136E+02 -0.22387236447E+01  0.43134854196E+02  0.10000000000E+01 0.  0.
    9000005    1    3    3    0    0  0.94427154058E+01  0.42017126136E+02 -0.13876916327E+03  0.14530135731E+03  0.10000000000E+01 0.  0.
<mgrwt>
<rscale>  0 0.12499993E+03</rscale>
<asrwt>0</asrwt>
<pdfrwt beam="1">  1        4 0.36483328E-02 0.12499993E+03</pdfrwt>
<pdfrwt beam="2">  1       -4 0.25341853E-01 0.12499993E+03</pdfrwt>
<totfact> 0.92120274E+03</totfact>
</mgrwt>
</event>
<event>
 5    1  0.3312904E-002  0.1249993E+03  0.7818608E-02  0.1235070E+00
          4   -1    0    0  501    0  0.00000000000E+00  0.00000000000E+00  0.10371808586E+02  0.10449273341E+02  0.12700000000E+01 0. -1.
         -4   -1    0    0    0  501 -0.00000000000E+00 -0.00000000000E+00 -0.37513762831E+03  0.37513977805E+03  0.12700000000E+01 0. -1.
         25    2    1    2    0    0  0.00000000000E+00  0.00000000000E+00 -0.36476581972E+03  0.38558905139E+03  0.12499925325E+03 0.  0.
    9000005    1    3    3    0    0 -0.32467006129E+02 -0.28011369378E+02 -0.32260963115E+03  0.32544848657E+03  0.10000000000E+01 0.  0.
    9000005    1    3    3    0    0  0.32467006129E+02  0.28011369378E+02 -0.42156188574E+02  0.60140564817E+02  0.10000000000E+01 0.  0.
<mgrwt>
<rscale>  0 0.12499925E+03</rscale>
<asrwt>0</asrwt>
<pdfrwt beam="1">  1        4 0.16017873E-02 0.12499925E+03</pdfrwt>
<pdfrwt beam="2">  1       -4 0.57719595E-01 0.12499925E+03</pdfrwt>
<totfact> 0.65980029E+03</totfact>
</mgrwt>
</event>
<event>
 5    1  0.3312904E-002  0.1249966E+03  0.7818608E-02  0.1235075E+00
         -4   -1    0    0    0  501 -0.00000000000E+00  0.00000000000E+00  0.10475691333E+03  0.10476461134E+03  0.12700000000E+01 0. -1.
          4   -1    0    0  501    0  0.00000000000E+00 -0.00000000000E+00 -0.37266786952E+02  0.37288420585E+02  0.12700000000E+01 0. -1.
         25    2    1    2    0    0  0.00000000000E+00  0.00000000000E+00  0.67490126374E+02  0.14205303193E+03  0.12499658684E+03 0.  0.
    9000005    1    3    3    0    0 -0.50662676091E+02 -0.67773064751E+01  0.74600560382E+02  0.90437172894E+02  0.10000000000E+01 0.  0.
    9000005    1    3    3    0    0  0.50662676091E+02  0.67773064751E+01 -0.71104340082E+01  0.51615859032E+02  0.10000000000E+01 0.  0.
<mgrwt>
<rscale>  0 0.12499659E+03</rscale>
<asrwt>0</asrwt>
<pdfrwt beam="2">  1        4 0.57356082E-02 0.12499659E+03</pdfrwt>
<pdfrwt beam="1">  1       -4 0.16118704E-01 0.12499659E+03</pdfrwt>
<totfact> 0.10091987E+04</totfact>
</mgrwt>
</event>
<event>
 5    1  0.3312904E-002  0.1250007E+03  0.7818608E-02  0.1235068E+00
          4   -1    0    0  501    0  0.00000000000E+00  0.00000000000E+00  0.97799571528E+03  0.97799653987E+03  0.12700000000E+01 0.  1.
         -4   -1    0    0    0  501 -0.00000000000E+00 -0.00000000000E+00 -0.38923850302E+01  0.40943328179E+01  0.12700000000E+01 0.  1.
         25    2    1    2    0    0  0.00000000000E+00  0.00000000000E+00  0.97410333025E+03  0.98209087269E+03  0.12500073688E+03 0.  0.
    9000005    1    3    3    0    0 -0.12671070656E+01  0.39850389161E+01 -0.28304853681E+01  0.51475958366E+01  0.10000000000E+01 0.  0.
    9000005    1    3    3    0    0  0.12671070656E+01 -0.39850389161E+01  0.97693381562E+03  0.97694327685E+03  0.10000000000E+01 0.  0.
<mgrwt>
<rscale>  0 0.12500074E+03</rscale>
<asrwt>0</asrwt>
<pdfrwt beam="1">  1        4 0.15047670E+00 0.12500074E+03</pdfrwt>
<pdfrwt beam="2">  1       -4 0.61442545E-03 0.12500074E+03</pdfrwt>
<totfact> 0.31202756E+03</totfact>
</mgrwt>
</event>
<event>
 5    1  0.3312904E-002  0.1249743E+03  0.7818608E-02  0.1235109E+00
          4   -1    0    0  501    0  0.00000000000E+00  0.00000000000E+00  0.46491339592E+01  0.48194757568E+01  0.12700000000E+01 0. -1.
         -4   -1    0    0    0  501 -0.00000000000E+00 -0.00000000000E+00 -0.82458511736E+03  0.82458609537E+03  0.12700000000E+01 0. -1.
         25    2    1    2    0    0  0.00000000000E+00  0.00000000000E+00 -0.81993598340E+03  0.82940557113E+03  0.12497433550E+03 0.  0.
    9000005    1    3    3    0    0 -0.29206139659E+02  0.56315727633E+01 -0.45320824441E+02  0.54218911217E+02  0.10000000000E+01 0.  0.
    9000005    1    3    3    0    0  0.29206139659E+02 -0.56315727633E+01 -0.77461515896E+03  0.77518665991E+03  0.10000000000E+01 0.  0.
<mgrwt>
<rscale>  0 0.12497434E+03</rscale>
<asrwt>0</asrwt>
<pdfrwt beam="1">  1        4 0.72843048E-03 0.12497434E+03</pdfrwt>
<pdfrwt beam="2">  1       -4 0.12687231E+00 0.12497434E+03</pdfrwt>
<totfact> 0.37005965E+03</totfact>
</mgrwt>
</event>
<event>
 5    1  0.3312904E-002  0.1250015E+03  0.7818608E-02  0.1235067E+00
         -4   -1    0    0    0  501 -0.00000000000E+00  0.00000000000E+00  0.24243566019E+02  0.24276807725E+02  0.12700000000E+01 0.  1.
          4   -1    0    0  501    0  0.00000000000E+00 -0.00000000000E+00 -0.16098300816E+03  0.16098801762E+03  0.12700000000E+01 0.  1.
         25    2    1    2    0    0  0.00000000000E+00  0.00000000000E+00 -0.13673944214E+03  0.18526482535E+03  0.12500152188E+03 0.  0.
    9000005    1    3    3    0    0 -0.58483516635E+02  0.12175376917E+01 -0.35778973392E+02  0.68577977901E+02  0.10000000000E+01 0.  0.
    9000005    1    3    3    0    0  0.58483516635E+02 -0.12175376917E+01 -0.10096046875E+03  0.11668684744E+03  0.10000000000E+01 0.  0.
<mgrwt>
<rscale>  0 0.12500152E+03</rscale>
<asrwt>0</asrwt>
<pdfrwt beam="2">  1        4 0.24769558E-01 0.12500152E+03</pdfrwt>
<pdfrwt beam="1">  1       -4 0.37327219E-02 0.12500152E+03</pdfrwt>
<totfact> 0.92674650E+03</totfact>
</mgrwt>
</event>
<event>
 5    1  0.3312904E-002  0.1250003E+03  0.7818608E-02  0.1235069E+00
         -4   -1    0    0    0  501 -0.00000000000E+00  0.00000000000E+00  0.22071378146E+02  0.22107886224E+02  0.12700000000E+01 0.  1.
          4   -1    0    0  501    0  0.00000000000E+00 -0.00000000000E+00 -0.17679845051E+03  0.17680301186E+03  0.12700000000E+01 0.  1.
         25    2    1    2    0    0  0.00000000000E+00  0.00000000000E+00 -0.15472707236E+03  0.19891089808E+03  0.12500031381E+03 0.  0.
    9000005    1    3    3    0    0  0.13334199143E+02 -0.60843517329E+02 -0.85404658071E+02  0.10571040672E+03  0.10000000000E+01 0.  0.
    9000005    1    3    3    0    0 -0.13334199143E+02  0.60843517329E+02 -0.69322414289E+02  0.93200491364E+02  0.10000000000E+01 0.  0.
<mgrwt>
<rscale>  0 0.12500031E+03</rscale>
<asrwt>0</asrwt>
<pdfrwt beam="2">  1        4 0.27202920E-01 0.12500031E+03</pdfrwt>
<pdfrwt beam="1">  1       -4 0.33987560E-02 0.12500031E+03</pdfrwt>
<totfact> 0.90318884E+03</totfact>
</mgrwt>
</event>
<event>
 4    1  0.3312904E-002  0.1251514E+03  0.7818608E-02  0.1234833E+00
          4   -1    0    0  501    0  0.00000000000E+00  0.00000000000E+00  0.10217761538E+03  0.10218550771E+03  0.12700000000E+01 0.  1.
         -4   -1    0    0    0  501 -0.00000000000E+00 -0.00000000000E+00 -0.38302744111E+02  0.38323792955E+02  0.12700000000E+01 0.  1.
    9000005    1    1    2    0    0  0.48572902292E+02  0.28018548429E+02  0.77627827118E+00  0.56088933856E+02  0.10000000000E+01 0.  0.
    9000005    1    1    2    0    0 -0.48572902292E+02 -0.28018548429E+02  0.63098593002E+02  0.84420366808E+02  0.10000000000E+01 0.  0.
<mgrwt>
<rscale>  0 0.12515137E+03</rscale>
<asrwt>0</asrwt>
<pdfrwt beam="1">  1        4 0.15721859E-01 0.12515137E+03</pdfrwt>
<pdfrwt beam="2">  1       -4 0.58949562E-02 0.12515137E+03</pdfrwt>
<totfact> 0.10088599E+04</totfact>
</mgrwt>
</event>
<event>
 5    1  0.3312904E-002  0.1250025E+03  0.7818608E-02  0.1235065E+00
         -4   -1    0    0    0  501 -0.00000000000E+00  0.00000000000E+00  0.73740415652E+02  0.73751351178E+02  0.12700000000E+01 0. -1.
          4   -1    0    0  501    0  0.00000000000E+00 -0.00000000000E+00 -0.52952587318E+02  0.52967814791E+02  0.12700000000E+01 0. -1.
         25    2    1    2    0    0  0.00000000000E+00  0.00000000000E+00  0.20787828334E+02  0.12671916597E+03  0.12500245284E+03 0.  0.
    9000005    1    3    3    0    0 -0.55227351413E+02  0.27449529458E+02  0.20625407398E+02  0.65038023047E+02  0.10000000000E+01 0.  0.
    9000005    1    3    3    0    0  0.55227351413E+02 -0.27449529458E+02  0.16242093567E+00  0.61681142922E+02  0.10000000000E+01 0.  0.
<mgrwt>
<rscale>  0 0.12500245E+03</rscale>
<asrwt>0</asrwt>
<pdfrwt beam="2">  1        4 0.81485645E-02 0.12500245E+03</pdfrwt>
<pdfrwt beam="1">  1       -4 0.11346692E-01 0.12500245E+03</pdfrwt>
<totfact> 0.10414676E+04</totfact>
</mgrwt>
</event>
<event>
 5    1  0.3312904E-002  0.1249739E+03  0.7818608E-02  0.1235110E+00
         -4   -1    0    0    0  501 -0.00000000000E+00  0.00000000000E+00  0.16200896915E+03  0.16201394689E+03  0.12700000000E+01 0. -1.
          4   -1    0    0  501    0  0.00000000000E+00 -0.00000000000E+00 -0.24079174835E+02  0.24112643172E+02  0.12700000000E+01 0. -1.
         25    2    1    2    0    0  0.00000000000E+00  0.00000000000E+00  0.13792979432E+03  0.18612659006E+03  0.12497391474E+03 0.  0.
    9000005    1    3    3    0    0  0.13940476256E+02 -0.11202760976E+02  0.15812278774E+03  0.15913407785E+03  0.10000000000E+01 0.  0.
    9000005    1    3    3    0    0 -0.13940476256E+02  0.11202760976E+02 -0.20192993423E+02  0.26992512204E+02  0.10000000000E+01 0.  0.
<mgrwt>
<rscale>  0 0.12497391E+03</rscale>
<asrwt>0</asrwt>
<pdfrwt beam="2">  1        4 0.37074459E-02 0.12497391E+03</pdfrwt>
<pdfrwt beam="1">  1       -4 0.24927414E-01 0.12497391E+03</pdfrwt>
<totfact> 0.92579782E+03</totfact>
</mgrwt>
</event>
<event>
 5    1  0.3312904E-002  0.1250030E+03  0.7818608E-02  0.1235065E+00
         -4   -1    0    0    0  501 -0.00000000000E+00  0.00000000000E+00  0.42239508572E+03  0.42239699495E+03  0.12700000000E+01 0. -1.
          4   -1    0    0  501    0  0.00000000000E+00 -0.00000000000E+00 -0.92027578542E+01  0.92899758947E+01  0.12700000000E+01 0. -1.
         25    2    1    2    0    0  0.00000000000E+00  0.00000000000E+00  0.41319232787E+03  0.43168697085E+03  0.12500296392E+03 0.  0.
    9000005    1    3    3    0    0  0.47177870388E+02 -0.39293732599E+02  0.24682308043E+03  0.25434697150E+03  0.10000000000E+01 0.  0.
    9000005    1    3    3    0    0 -0.47177870388E+02  0.39293732599E+02  0.16636924743E+03  0.17733999935E+03  0.10000000000E+01 0.  0.
<mgrwt>
<rscale>  0 0.12500296E+03</rscale>
<asrwt>0</asrwt>
<pdfrwt beam="2">  1        4 0.14226648E-02 0.12500296E+03</pdfrwt>
<pdfrwt beam="1">  1       -4 0.64990718E-01 0.12500296E+03</pdfrwt>
<totfact> 0.61579347E+03</totfact>
</mgrwt>
</event>
<event>
 5    1  0.3312904E-002  0.1249988E+03  0.7818608E-02  0.1235071E+00
          4   -1    0    0  501    0  0.00000000000E+00  0.00000000000E+00  0.27129161318E+02  0.27158871365E+02  0.12700000000E+01 0.  1.
         -4   -1    0    0    0  501 -0.00000000000E+00 -0.00000000000E+00 -0.14387295022E+03  0.14387855541E+03  0.12700000000E+01 0.  1.
         25    2    1    2    0    0  0.00000000000E+00  0.00000000000E+00 -0.11674378891E+03  0.17103742677E+03  0.12499875643E+03 0.  0.
    9000005    1    3    3    0    0  0.33296752769E+02 -0.47126024000E+02 -0.25542748582E+02  0.63110758894E+02  0.10000000000E+01 0.  0.
    9000005    1    3    3    0    0 -0.33296752769E+02  0.47126024000E+02 -0.91201040324E+02  0.10792666788E+03  0.10000000000E+01 0.  0.
<mgrwt>
<rscale>  0 0.12499876E+03</rscale>
<asrwt>0</asrwt>
<pdfrwt beam="1">  1        4 0.41764338E-02 0.12499876E+03</pdfrwt>
<pdfrwt beam="2">  1       -4 0.22137016E-01 0.12499876E+03</pdfrwt>
<totfact> 0.95258286E+03</totfact>
</mgrwt>
</event>
<event>
 5    1  0.3312904E-002  0.1249999E+03  0.7818608E-02  0.1235069E+00
         -4   -1    0    0    0  501 -0.00000000000E+00  0.00000000000E+00  0.10552295913E+03  0.10553060126E+03  0.12700000000E+01 0. -1.
          4   -1    0    0  501    0  0.00000000000E+00 -0.00000000000E+00 -0.36998089040E+02  0.37019879695E+02  0.12700000000E+01 0. -1.
         25    2    1    2    0    0  0.00000000000E+00  0.00000000000E+00  0.68524870089E+02  0.14255048096E+03  0.12499992720E+03 0.  0.
    9000005    1    3    3    0    0 -0.20224104854E+02  0.36066078177E+02  0.87697037817E+02  0.96961574111E+02  0.10000000000E+01 0.  0.
    9000005    1    3    3    0    0  0.20224104854E+02 -0.36066078177E+02 -0.19172167729E+02  0.45588906848E+02  0.10000000000E+01 0.  0.
<mgrwt>
<rscale>  0 0.12499993E+03</rscale>
<asrwt>0</asrwt>
<pdfrwt beam="2">  1        4 0.56942778E-02 0.12499993E+03</pdfrwt>
<pdfrwt beam="1">  1       -4 0.16236565E-01 0.12499993E+03</pdfrwt>
<totfact> 0.10081013E+04</totfact>
</mgrwt>
</event>
<event>
 5    1  0.3312904E-002  0.1249995E+03  0.7818608E-02  0.1235070E+00
         -4   -1    0    0    0  501 -0.00000000000E+00  0.00000000000E+00  0.39425676785E+02  0.39446126426E+02  0.12700000000E+01 0.  1.
          4   -1    0    0  501    0  0.00000000000E+00 -0.00000000000E+00 -0.99027798046E+02  0.99035941384E+02  0.12700000000E+01 0.  1.
         25    2    1    2    0    0  0.00000000000E+00  0.00000000000E+00 -0.59602121261E+02  0.13848206781E+03  0.12499948098E+03 0.  0.
    9000005    1    3    3    0    0  0.58498349887E+02 -0.21961858740E+02 -0.30814849074E+02  0.69677364346E+02  0.10000000000E+01 0.  0.
    9000005    1    3    3    0    0 -0.58498349887E+02  0.21961858740E+02 -0.28787272187E+02  0.68804703464E+02  0.10000000000E+01 0.  0.
<mgrwt>
<rscale>  0 0.12499948E+03</rscale>
<asrwt>0</asrwt>
<pdfrwt beam="2">  1        4 0.15237245E-01 0.12499948E+03</pdfrwt>
<pdfrwt beam="1">  1       -4 0.60676882E-02 0.12499948E+03</pdfrwt>
<totfact> 0.10165262E+04</totfact>
</mgrwt>
</event>
<event>
 5    1  0.3312904E-002  0.1250378E+03  0.7818608E-02  0.1235010E+00
          4   -1    0    0  501    0  0.00000000000E+00  0.00000000000E+00  0.53021486539E+03  0.53021638637E+03  0.12700000000E+01 0. -1.
         -4   -1    0    0    0  501 -0.00000000000E+00 -0.00000000000E+00 -0.73155149025E+01  0.74249349013E+01  0.12700000000E+01 0. -1.
         25    2    1    2    0    0  0.00000000000E+00  0.00000000000E+00  0.52289935048E+03  0.53764132127E+03  0.12503783269E+03 0.  0.
    9000005    1    3    3    0    0 -0.18382949072E+02 -0.59497346982E+02  0.28490160200E+03  0.29162954229E+03  0.10000000000E+01 0.  0.
    9000005    1    3    3    0    0  0.18382949072E+02  0.59497346982E+02  0.23799774848E+03  0.24601177898E+03  0.10000000000E+01 0.  0.
<mgrwt>
<rscale>  0 0.12503783E+03</rscale>
<asrwt>0</asrwt>
<pdfrwt beam="1">  1        4 0.81580081E-01 0.12503783E+03</pdfrwt>
<pdfrwt beam="2">  1       -4 0.11339973E-02 0.12503783E+03</pdfrwt>
<totfact> 0.53013657E+03</totfact>
</mgrwt>
</event>
<event>
 5    1  0.3312904E-002  0.1250211E+03  0.7818608E-02  0.1235036E+00
         -4   -1    0    0    0  501 -0.00000000000E+00  0.00000000000E+00  0.10102075743E+04  0.10102083726E+04  0.12700000000E+01 0. -1.
          4   -1    0    0  501    0  0.00000000000E+00 -0.00000000000E+00 -0.37630164683E+01  0.39715479275E+01  0.12700000000E+01 0. -1.
         25    2    1    2    0    0  0.00000000000E+00  0.00000000000E+00  0.10064445578E+04  0.10141799205E+04  0.12502105108E+03 0.  0.
    9000005    1    3    3    0    0 -0.44336020876E+02  0.41258625649E+02  0.37791533152E+03  0.38273875521E+03  0.10000000000E+01 0.  0.
    9000005    1    3    3    0    0  0.44336020876E+02 -0.41258625649E+02  0.62852922629E+03  0.63144116530E+03  0.10000000000E+01 0.  0.
<mgrwt>
<rscale>  0 0.12502105E+03</rscale>
<asrwt>0</asrwt>
<pdfrwt beam="2">  1        4 0.59502809E-03 0.12502105E+03</pdfrwt>
<pdfrwt beam="1">  1       -4 0.15543260E+00 0.12502105E+03</pdfrwt>
<totfact> 0.30126233E+03</totfact>
</mgrwt>
</event>
<event>
 5    1  0.3312904E-002  0.1249875E+03  0.7818608E-02  0.1235089E+00
         -4   -1    0    0    0  501 -0.00000000000E+00  0.00000000000E+00  0.63757331246E+02  0.63769978733E+02  0.12700000000E+01 0. -1.
          4   -1    0    0  501    0  0.00000000000E+00 -0.00000000000E+00 -0.61229860703E+02  0.61243030148E+02  0.12700000000E+01 0. -1.
         25    2    1    2    0    0  0.00000000000E+00  0.00000000000E+00  0.25274705425E+01  0.12501300888E+03  0.12498745650E+03 0.  0.
    9000005    1    3    3    0    0  0.61849051995E+02  0.50897448773E+01 -0.60353819499E+01  0.62358933368E+02  0.10000000000E+01 0.  0.
    9000005    1    3    3    0    0 -0.61849051995E+02 -0.50897448773E+01  0.85628524924E+01  0.62654075513E+02  0.10000000000E+01 0.  0.
<mgrwt>
<rscale>  0 0.12498746E+03</rscale>
<asrwt>0</asrwt>
<pdfrwt beam="2">  1        4 0.94219645E-02 0.12498746E+03</pdfrwt>
<pdfrwt beam="1">  1       -4 0.98108061E-02 0.12498746E+03</pdfrwt>
<totfact> 0.10455544E+04</totfact>
</mgrwt>
</event>
<event>
 5    1  0.3312904E-002  0.1250001E+03  0.7818608E-02  0.1235069E+00
         -4   -1    0    0    0  501 -0.00000000000E+00  0.00000000000E+00  0.83652076684E+01  0.84610637236E+01  0.12700000000E+01 0. -1.
          4   -1    0    0  501    0  0.00000000000E+00 -0.00000000000E+00 -0.46420796325E+03  0.46420970051E+03  0.12700000000E+01 0. -1.
         25    2    1    2    0    0  0.00000000000E+00  0.00000000000E+00 -0.45584275558E+03  0.47267076423E+03  0.12500013417E+03 0.  0.
    9000005    1    3    3    0    0 -0.60712344294E+01  0.57424116996E+02 -0.31826897363E+03  0.32346642589E+03  0.10000000000E+01 0.  0.
    9000005    1    3    3    0    0  0.60712344294E+01 -0.57424116996E+02 -0.13757378195E+03  0.14920433835E+03  0.10000000000E+01 0.  0.
<mgrwt>
<rscale>  0 0.12500013E+03</rscale>
<asrwt>0</asrwt>
<pdfrwt beam="2">  1        4 0.71424097E-01 0.12500013E+03</pdfrwt>
<pdfrwt beam="1">  1       -4 0.12944626E-02 0.12500013E+03</pdfrwt>
<totfact> 0.58048768E+03</totfact>
</mgrwt>
</event>
<event>
 5    1  0.3312904E-002  0.1249996E+03  0.7818608E-02  0.1235070E+00
         -4   -1    0    0    0  501 -0.00000000000E+00  0.00000000000E+00  0.86150888190E+02  0.86160248583E+02  0.12700000000E+01 0. -1.
          4   -1    0    0  501    0  0.00000000000E+00 -0.00000000000E+00 -0.45320962905E+02  0.45338753607E+02  0.12700000000E+01 0. -1.
         25    2    1    2    0    0  0.00000000000E+00  0.00000000000E+00  0.40829925284E+02  0.13149900219E+03  0.12499961911E+03 0.  0.
    9000005    1    3    3    0    0  0.39697043782E+01 -0.14623710665E+02 -0.43364192100E+02  0.45946323281E+02  0.10000000000E+01 0.  0.
    9000005    1    3    3    0    0 -0.39697043782E+01  0.14623710665E+02  0.84194117385E+02  0.85552678910E+02  0.10000000000E+01 0.  0.
<mgrwt>
<rscale>  0 0.12499962E+03</rscale>
<asrwt>0</asrwt>
<pdfrwt beam="2">  1        4 0.69745444E-02 0.12499962E+03</pdfrwt>
<pdfrwt beam="1">  1       -4 0.13256071E-01 0.12499962E+03</pdfrwt>
<totfact> 0.10312492E+04</totfact>
</mgrwt>
</event>
<event>
 5    1  0.3312904E-002  0.1249967E+03  0.7818608E-02  0.1235074E+00
         -4   -1    0    0    0  501 -0.00000000000E+00  0.00000000000E+00  0.11308511632E+02  0.11379601721E+02  0.12700000000E+01 0. -1.
          4   -1    0    0  501    0  0.00000000000E+00 -0.00000000000E+00 -0.34425299365E+03  0.34425533625E+03  0.12700000000E+01 0. -1.
         25    2    1    2    0    0  0.00000000000E+00  0.00000000000E+00 -0.33294448201E+03  0.35563493797E+03  0.12499672396E+03 0.  0.
    9000005    1    3    3    0    0 -0.51163583262E+02  0.13182860417E+02 -0.26141453310E+03  0.26670219005E+03  0.10000000000E+01 0.  0.
    9000005    1    3    3    0    0  0.51163583262E+02 -0.13182860417E+02 -0.71529948918E+02  0.88932747923E+02  0.10000000000E+01 0.  0.
<mgrwt>
<rscale>  0 0.12499672E+03</rscale>
<asrwt>0</asrwt>
<pdfrwt beam="2">  1        4 0.52967640E-01 0.12499672E+03</pdfrwt>
<pdfrwt beam="1">  1       -4 0.17454200E-02 0.12499672E+03</pdfrwt>
<totfact> 0.69114073E+03</totfact>
</mgrwt>
</event>
<event>
 5    1  0.3312904E-002  0.1249974E+03  0.7818608E-02  0.1235073E+00
          4   -1    0    0  501    0  0.00000000000E+00  0.00000000000E+00  0.19875580197E+02  0.19916113782E+02  0.12700000000E+01 0.  1.
         -4   -1    0    0    0  501 -0.00000000000E+00 -0.00000000000E+00 -0.19628427181E+03  0.19628838035E+03  0.12700000000E+01 0.  1.
         25    2    1    2    0    0  0.00000000000E+00  0.00000000000E+00 -0.17640869161E+03  0.21620449413E+03  0.12499742720E+03 0.  0.
    9000005    1    3    3    0    0 -0.37009039603E+02 -0.17829062054E+02 -0.67527048912E+01  0.41643048512E+02  0.10000000000E+01 0.  0.
    9000005    1    3    3    0    0  0.37009039603E+02  0.17829062054E+02 -0.16965598672E+03  0.17456144562E+03  0.10000000000E+01 0.  0.
<mgrwt>
<rscale>  0 0.12499743E+03</rscale>
<asrwt>0</asrwt>
<pdfrwt beam="1">  1        4 0.30612157E-02 0.12499743E+03</pdfrwt>
<pdfrwt beam="2">  1       -4 0.30201013E-01 0.12499743E+03</pdfrwt>
<totfact> 0.87477554E+03</totfact>
</mgrwt>
</event>
<event>
 5    1  0.3312904E-002  0.1250045E+03  0.7818608E-02  0.1235062E+00
         -4   -1    0    0    0  501 -0.00000000000E+00  0.00000000000E+00  0.19503929075E+03  0.19504342551E+03  0.12700000000E+01 0. -1.
          4   -1    0    0  501    0  0.00000000000E+00 -0.00000000000E+00 -0.20004980597E+02  0.20045252522E+02  0.12700000000E+01 0. -1.
         25    2    1    2    0    0  0.00000000000E+00  0.00000000000E+00  0.17503431015E+03  0.21508867804E+03  0.12500451867E+03 0.  0.
    9000005    1    3    3    0    0  0.52147175206E+02  0.55967436241E+01  0.29043471062E+02  0.59959775120E+02  0.10000000000E+01 0.  0.
    9000005    1    3    3    0    0 -0.52147175206E+02 -0.55967436241E+01  0.14599083909E+03  0.15512890292E+03  0.10000000000E+01 0.  0.
<mgrwt>
<rscale>  0 0.12500452E+03</rscale>
<asrwt>0</asrwt>
<pdfrwt beam="2">  1        4 0.30811053E-02 0.12500452E+03</pdfrwt>
<pdfrwt beam="1">  1       -4 0.30009460E-01 0.12500452E+03</pdfrwt>
<totfact> 0.87642668E+03</totfact>
</mgrwt>
</event>
<event>
 5    1  0.3312904E-002  0.1250024E+03  0.7818608E-02  0.1235066E+00
          4   -1    0    0  501    0  0.00000000000E+00  0.00000000000E+00  0.67904300476E+03  0.67904419238E+03  0.12700000000E+01 0.  1.
         -4   -1    0    0    0  501 -0.00000000000E+00 -0.00000000000E+00 -0.56814995160E+01  0.58217125272E+01  0.12700000000E+01 0.  1.
         25    2    1    2    0    0  0.00000000000E+00  0.00000000000E+00  0.67336150524E+03  0.68486590491E+03  0.12500236385E+03 0.  0.
    9000005    1    3    3    0    0 -0.53292546929E+02 -0.32619776429E+02  0.34281206702E+03  0.34846127284E+03  0.10000000000E+01 0.  0.
    9000005    1    3    3    0    0  0.53292546929E+02  0.32619776429E+02  0.33054943822E+03  0.33640463207E+03  0.10000000000E+01 0.  0.
<mgrwt>
<rscale>  0 0.12500236E+03</rscale>
<asrwt>0</asrwt>
<pdfrwt beam="1">  1        4 0.10447899E+00 0.12500236E+03</pdfrwt>
<pdfrwt beam="2">  1       -4 0.88495415E-03 0.12500236E+03</pdfrwt>
<totfact> 0.43895477E+03</totfact>
</mgrwt>
</event>
<event>
 5    1  0.3312904E-002  0.1249999E+03  0.7818608E-02  0.1235070E+00
         -4   -1    0    0    0  501 -0.00000000000E+00  0.00000000000E+00  0.51852799524E+02  0.51868349872E+02  0.12700000000E+01 0. -1.
          4   -1    0    0  501    0  0.00000000000E+00 -0.00000000000E+00 -0.75301064903E+02  0.75311773817E+02  0.12700000000E+01 0. -1.
         25    2    1    2    0    0  0.00000000000E+00  0.00000000000E+00 -0.23448265378E+02  0.12718012369E+03  0.12499985085E+03 0.  0.
    9000005    1    3    3    0    0 -0.38907292047E+01  0.22509804862E+02 -0.70905795672E+02  0.74501415749E+02  0.10000000000E+01 0.  0.
    9000005    1    3    3    0    0  0.38907292047E+01 -0.22509804862E+02  0.47457530294E+02  0.52678707940E+02  0.10000000000E+01 0.  0.
<mgrwt>
<rscale>  0 0.12499985E+03</rscale>
<asrwt>0</asrwt>
<pdfrwt beam="2">  1        4 0.11586799E-01 0.12499985E+03</pdfrwt>
<pdfrwt beam="1">  1       -4 0.79793737E-02 0.12499985E+03</pdfrwt>
<totfact> 0.10405270E+04</totfact>
</mgrwt>
</event>
<event>
 5    1  0.3312904E-002  0.1249995E+03  0.7818608E-02  0.1235070E+00
          4   -1    0    0  501    0  0.00000000000E+00  0.00000000000E+00  0.97025446946E+01  0.97853090677E+01  0.12700000000E+01 0. -1.
         -4   -1    0    0    0  501 -0.00000000000E+00 -0.00000000000E+00 -0.40080387904E+03  0.40080589111E+03  0.12700000000E+01 0. -1.
         25    2    1    2    0    0  0.00000000000E+00  0.00000000000E+00 -0.39110133434E+03  0.41059120018E+03  0.12499951977E+03 0.  0.
    9000005    1    3    3    0    0 -0.51772226831E+02  0.34668148857E+02 -0.21129550575E+03  0.22029306564E+03  0.10000000000E+01 0.  0.
    9000005    1    3    3    0    0  0.51772226831E+02 -0.34668148857E+02 -0.17980582859E+03  0.19029813454E+03  0.10000000000E+01 0.  0.
<mgrwt>
<rscale>  0 0.12499952E+03</rscale>
<asrwt>0</asrwt>
<pdfrwt beam="1">  1        4 0.14992208E-02 0.12499952E+03</pdfrwt>
<pdfrwt beam="2">  1       -4 0.61668644E-01 0.12499952E+03</pdfrwt>
<totfact> 0.63536253E+03</totfact>
</mgrwt>
</event>
<event>
 5    1  0.3312904E-002  0.1250034E+03  0.7818608E-02  0.1235064E+00
          4   -1    0    0  501    0  0.00000000000E+00  0.00000000000E+00  0.42299229236E+03  0.42299419889E+03  0.12700000000E+01 0.  1.
         -4   -1    0    0    0  501 -0.00000000000E+00 -0.00000000000E+00 -0.91897016408E+01  0.92770424299E+01  0.12700000000E+01 0.  1.
         25    2    1    2    0    0  0.00000000000E+00  0.00000000000E+00  0.41380259072E+03  0.43227124132E+03  0.12500336791E+03 0.  0.
    9000005    1    3    3    0    0 -0.31891961517E+02 -0.45509606456E+02  0.10804389789E+03  0.12150187390E+03  0.10000000000E+01 0.  0.
    9000005    1    3    3    0    0  0.31891961517E+02  0.45509606456E+02  0.30575869283E+03  0.31076936742E+03  0.10000000000E+01 0.  0.
<mgrwt>
<rscale>  0 0.12500337E+03</rscale>
<asrwt>0</asrwt>
<pdfrwt beam="1">  1        4 0.65082589E-01 0.12500337E+03</pdfrwt>
<pdfrwt beam="2">  1       -4 0.14206657E-02 0.12500337E+03</pdfrwt>
<totfact> 0.61526093E+03</totfact>
</mgrwt>
</event>
<event>
 5    1  0.3312904E-002  0.1249927E+03  0.7818608E-02  0.1235081E+00
          4   -1    0    0  501    0  0.00000000000E+00  0.00000000000E+00  0.79876060256E+01  0.80879385519E+01  0.12700000000E+01 0. -1.
         -4   -1    0    0    0  501 -0.00000000000E+00 -0.00000000000E+00 -0.48582896532E+03  0.48583062527E+03  0.12700000000E+01 0. -1.
         25    2    1    2    0    0  0.00000000000E+00  0.00000000000E+00 -0.47784135930E+03  0.49391856382E+03  0.12499273191E+03 0.  0.
    9000005    1    3    3    0    0  0.23079639468E+01  0.55033482057E+02 -0.12231329983E+03  0.13414750896E+03  0.10000000000E+01 0.  0.
    9000005    1    3    3    0    0 -0.23079639468E+01 -0.55033482057E+02 -0.35552805947E+03  0.35977105486E+03  0.10000000000E+01 0.  0.
<mgrwt>
<rscale>  0 0.12499273E+03</rscale>
<asrwt>0</asrwt>
<pdfrwt beam="1">  1        4 0.12367084E-02 0.12499273E+03</pdfrwt>
<pdfrwt beam="2">  1       -4 0.74750740E-01 0.12499273E+03</pdfrwt>
<totfact> 0.56348334E+03</totfact>
</mgrwt>
</event>
<event>
 5    1  0.3312904E-002  0.1250027E+03  0.7818608E-02  0.1235065E+00
          4   -1    0    0  501    0  0.00000000000E+00  0.00000000000E+00  0.43786753760E+03  0.43786937937E+03  0.12700000000E+01 0. -1.
         -4   -1    0    0    0  501 -0.00000000000E+00 -0.00000000000E+00 -0.88744008309E+01  0.89648140030E+01  0.12700000000E+01 0. -1.
         25    2    1    2    0    0  0.00000000000E+00  0.00000000000E+00  0.42899313677E+03  0.44683419337E+03  0.12500273984E+03 0.  0.
    9000005    1    3    3    0    0  0.40267282992E+02  0.31956126132E+00  0.38532576010E+03  0.38742547360E+03  0.10000000000E+01 0.  0.
    9000005    1    3    3    0    0 -0.40267282992E+02 -0.31956126132E+00  0.43667376671E+02  0.59408719766E+02  0.10000000000E+01 0.  0.
<mgrwt>
<rscale>  0 0.12500274E+03</rscale>
<asrwt>0</asrwt>
<pdfrwt beam="1">  1        4 0.67371332E-01 0.12500274E+03</pdfrwt>
<pdfrwt beam="2">  1       -4 0.13723890E-02 0.12500274E+03</pdfrwt>
<totfact> 0.60235396E+03</totfact>
</mgrwt>
</event>
<event>
 5    1  0.3312904E-002  0.1250008E+03  0.7818608E-02  0.1235068E+00
          4   -1    0    0  501    0  0.00000000000E+00  0.00000000000E+00  0.64584591571E+02  0.64597077089E+02  0.12700000000E+01 0. -1.
         -4   -1    0    0    0  501 -0.00000000000E+00 -0.00000000000E+00 -0.60458426365E+02  0.60471763812E+02  0.12700000000E+01 0. -1.
         25    2    1    2    0    0  0.00000000000E+00  0.00000000000E+00  0.41261652065E+01  0.12506884090E+03  0.12500075890E+03 0.  0.
    9000005    1    3    3    0    0  0.41079029168E+02  0.44803118621E+02 -0.12453139615E+02  0.62055513549E+02  0.10000000000E+01 0.  0.
    9000005    1    3    3    0    0 -0.41079029168E+02 -0.44803118621E+02  0.16579304821E+02  0.63013327352E+02  0.10000000000E+01 0.  0.
<mgrwt>
<rscale>  0 0.12500076E+03</rscale>
<asrwt>0</asrwt>
<pdfrwt beam="1">  1        4 0.99380774E-02 0.12500076E+03</pdfrwt>
<pdfrwt beam="2">  1       -4 0.93032828E-02 0.12500076E+03</pdfrwt>
<totfact> 0.10451188E+04</totfact>
</mgrwt>
</event>
<event>
 5    1  0.3312904E-002  0.1249959E+03  0.7818608E-02  0.1235076E+00
         -4   -1    0    0    0  501 -0.00000000000E+00  0.00000000000E+00  0.45570848471E+02  0.45588541657E+02  0.12700000000E+01 0. -1.
          4   -1    0    0  501    0  0.00000000000E+00 -0.00000000000E+00 -0.85673571381E+02  0.85682983919E+02  0.12700000000E+01 0. -1.
         25    2    1    2    0    0  0.00000000000E+00  0.00000000000E+00 -0.40102722910E+02  0.13127152558E+03  0.12499594010E+03 0.  0.
    9000005    1    3    3    0    0  0.25807570005E+02 -0.32578881844E+02 -0.69058787029E+02  0.80607259460E+02  0.10000000000E+01 0.  0.
    9000005    1    3    3    0    0 -0.25807570005E+02  0.32578881844E+02  0.28956064119E+02  0.50664266116E+02  0.10000000000E+01 0.  0.
<mgrwt>
<rscale>  0 0.12499594E+03</rscale>
<asrwt>0</asrwt>
<pdfrwt beam="2">  1        4 0.13182634E-01 0.12499594E+03</pdfrwt>
<pdfrwt beam="1">  1       -4 0.70129848E-02 0.12499594E+03</pdfrwt>
<totfact> 0.10318217E+04</totfact>
</mgrwt>
</event>
<event>
 5    1  0.3312904E-002  0.1250015E+03  0.7818608E-02  0.1235067E+00
         -4   -1    0    0    0  501 -0.00000000000E+00  0.00000000000E+00  0.29487415015E+02  0.29514751299E+02  0.12700000000E+01 0. -1.
          4   -1    0    0  501    0  0.00000000000E+00 -0.00000000000E+00 -0.13238318449E+03  0.13238927613E+03  0.12700000000E+01 0. -1.
         25    2    1    2    0    0  0.00000000000E+00  0.00000000000E+00 -0.10289576947E+03  0.16190402743E+03  0.12500149888E+03 0.  0.
    9000005    1    3    3    0    0 -0.10513740195E+02 -0.21485277591E+02 -0.12622562260E+03  0.12847592648E+03  0.10000000000E+01 0.  0.
    9000005    1    3    3    0    0  0.10513740195E+02  0.21485277591E+02  0.23329853126E+02  0.33428100947E+02  0.10000000000E+01 0.  0.
<mgrwt>
<rscale>  0 0.12500150E+03</rscale>
<asrwt>0</asrwt>
<pdfrwt beam="2">  1        4 0.20369215E-01 0.12500150E+03</pdfrwt>
<pdfrwt beam="1">  1       -4 0.45390968E-02 0.12500150E+03</pdfrwt>
<totfact> 0.96973688E+03</totfact>
</mgrwt>
</event>
<event>
 5    1  0.3312904E-002  0.1250023E+03  0.7818608E-02  0.1235066E+00
          4   -1    0    0  501    0  0.00000000000E+00  0.00000000000E+00  0.38472657894E+02  0.38493613827E+02  0.12700000000E+01 0.  1.
         -4   -1    0    0    0  501 -0.00000000000E+00 -0.00000000000E+00 -0.10148430637E+03  0.10149225261E+03  0.12700000000E+01 0.  1.
         25    2    1    2    0    0  0.00000000000E+00  0.00000000000E+00 -0.63011648479E+02  0.13998586644E+03  0.12500229981E+03 0.  0.
    9000005    1    3    3    0    0 -0.55993339786E+02 -0.12131081895E+02 -0.35545239778E+01  0.57411252286E+02  0.10000000000E+01 0.  0.
    9000005    1    3    3    0    0  0.55993339786E+02  0.12131081895E+02 -0.59457124501E+02  0.82574614152E+02  0.10000000000E+01 0.  0.
<mgrwt>
<rscale>  0 0.12500230E+03</rscale>
<asrwt>0</asrwt>
<pdfrwt beam="1">  1        4 0.59210937E-02 0.12500230E+03</pdfrwt>
<pdfrwt beam="2">  1       -4 0.15615193E-01 0.12500230E+03</pdfrwt>
<totfact> 0.10133354E+04</totfact>
</mgrwt>
</event>
<event>
 5    1  0.3312904E-002  0.1250040E+03  0.7818608E-02  0.1235063E+00
         -4   -1    0    0    0  501 -0.00000000000E+00  0.00000000000E+00  0.24551707119E+02  0.24584532179E+02  0.12700000000E+01 0.  1.
          4   -1    0    0  501    0  0.00000000000E+00 -0.00000000000E+00 -0.15897160362E+03  0.15897667646E+03  0.12700000000E+01 0.  1.
         25    2    1    2    0    0  0.00000000000E+00  0.00000000000E+00 -0.13441989650E+03  0.18356120863E+03  0.12500403490E+03 0.  0.
    9000005    1    3    3    0    0 -0.28712513074E+02 -0.44497673471E+02 -0.18483970541E+02  0.56099095521E+02  0.10000000000E+01 0.  0.
    9000005    1    3    3    0    0  0.28712513074E+02  0.44497673471E+02 -0.11593592596E+03  0.12746211311E+03  0.10000000000E+01 0.  0.
<mgrwt>
<rscale>  0 0.12500403E+03</rscale>
<asrwt>0</asrwt>
<pdfrwt beam="2">  1        4 0.24460084E-01 0.12500403E+03</pdfrwt>
<pdfrwt beam="1">  1       -4 0.37801010E-02 0.12500403E+03</pdfrwt>
<totfact> 0.92971465E+03</totfact>
</mgrwt>
</event>
<event>
 5    1  0.3312904E-002  0.1250024E+03  0.7818608E-02  0.1235066E+00
          4   -1    0    0  501    0  0.00000000000E+00  0.00000000000E+00  0.15304658343E+02  0.15357261051E+02  0.12700000000E+01 0. -1.
         -4   -1    0    0    0  501 -0.00000000000E+00 -0.00000000000E+00 -0.25475034305E+03  0.25475350868E+03  0.12700000000E+01 0. -1.
         25    2    1    2    0    0  0.00000000000E+00  0.00000000000E+00 -0.23944568471E+03  0.27011076973E+03  0.12500236797E+03 0.  0.
    9000005    1    3    3    0    0 -0.32118192655E+01 -0.16423917864E+02 -0.24982900274E+03  0.25039087738E+03  0.10000000000E+01 0.  0.
    9000005    1    3    3    0    0  0.32118192655E+01  0.16423917864E+02  0.10383318037E+02  0.19719892354E+02  0.10000000000E+01 0.  0.
<mgrwt>
<rscale>  0 0.12500237E+03</rscale>
<asrwt>0</asrwt>
<pdfrwt beam="1">  1        4 0.23588529E-02 0.12500237E+03</pdfrwt>
<pdfrwt beam="2">  1       -4 0.39196647E-01 0.12500237E+03</pdfrwt>
<totfact> 0.79503581E+03</totfact>
</mgrwt>
</event>
<event>
 5    1  0.3312904E-002  0.1250007E+03  0.7818608E-02  0.1235068E+00
          4   -1    0    0  501    0  0.00000000000E+00  0.00000000000E+00  0.11436013379E+03  0.11436718542E+03  0.12700000000E+01 0.  1.
         -4   -1    0    0    0  501 -0.00000000000E+00 -0.00000000000E+00 -0.34137916055E+02  0.34161531180E+02  0.12700000000E+01 0.  1.
         25    2    1    2    0    0  0.00000000000E+00  0.00000000000E+00  0.80222217734E+02  0.14852871660E+03  0.12500070174E+03 0.  0.
    9000005    1    3    3    0    0  0.41409292292E+02  0.11625924633E+02  0.93981036341E+02  0.10336017997E+03  0.10000000000E+01 0.  0.
    9000005    1    3    3    0    0 -0.41409292292E+02 -0.11625924633E+02 -0.13758818607E+02  0.45168536628E+02  0.10000000000E+01 0.  0.
<mgrwt>
<rscale>  0 0.12500070E+03</rscale>
<asrwt>0</asrwt>
<pdfrwt beam="1">  1        4 0.17596226E-01 0.12500070E+03</pdfrwt>
<pdfrwt beam="2">  1       -4 0.52543461E-02 0.12500070E+03</pdfrwt>
<totfact> 0.99596215E+03</totfact>
</mgrwt>
</event>
<event>
 5    1  0.3312904E-002  0.1249977E+03  0.7818608E-02  0.1235073E+00
          4   -1    0    0  501    0  0.00000000000E+00  0.00000000000E+00  0.39096410630E+03  0.39096616901E+03  0.12700000000E+01 0. -1.
         -4   -1    0    0    0  501 -0.00000000000E+00 -0.00000000000E+00 -0.99485010335E+01  0.10029235904E+02  0.12700000000E+01 0. -1.
         25    2    1    2    0    0  0.00000000000E+00  0.00000000000E+00  0.38101560526E+03  0.40099540492E+03  0.12499769322E+03 0.  0.
    9000005    1    3    3    0    0  0.36592754691E+02  0.45091183839E+02  0.26456111278E+03  0.27086126883E+03  0.10000000000E+01 0.  0.
    9000005    1    3    3    0    0 -0.36592754691E+02 -0.45091183839E+02  0.11645449248E+03  0.13013413609E+03  0.10000000000E+01 0.  0.
<mgrwt>
<rscale>  0 0.12499769E+03</rscale>
<asrwt>0</asrwt>
<pdfrwt beam="1">  1        4 0.60154684E-01 0.12499769E+03</pdfrwt>
<pdfrwt beam="2">  1       -4 0.15369079E-02 0.12499769E+03</pdfrwt>
<totfact> 0.64459378E+03</totfact>
</mgrwt>
</event>
<event>
 5    1  0.3312904E-002  0.1250013E+03  0.7818608E-02  0.1235067E+00
         -4   -1    0    0    0  501 -0.00000000000E+00  0.00000000000E+00  0.58921117080E+01  0.60274273434E+01  0.12700000000E+01 0.  1.
          4   -1    0    0  501    0  0.00000000000E+00 -0.00000000000E+00 -0.65531389057E+03  0.65531512120E+03  0.12700000000E+01 0.  1.
         25    2    1    2    0    0  0.00000000000E+00  0.00000000000E+00 -0.64942177886E+03  0.66134254854E+03  0.12500127861E+03 0.  0.
    9000005    1    3    3    0    0  0.10973058960E+02 -0.54288567193E+02 -0.47783703898E+03  0.48103730871E+03  0.10000000000E+01 0.  0.
    9000005    1    3    3    0    0 -0.10973058960E+02  0.54288567193E+02 -0.17158473988E+03  0.18030523983E+03  0.10000000000E+01 0.  0.
<mgrwt>
<rscale>  0 0.12500128E+03</rscale>
<asrwt>0</asrwt>
<pdfrwt beam="2">  1        4 0.10082797E+00 0.12500128E+03</pdfrwt>
<pdfrwt beam="1">  1       -4 0.91698280E-03 0.12500128E+03</pdfrwt>
<totfact> 0.45206054E+03</totfact>
</mgrwt>
</event>
<event>
 5    1  0.3312904E-002  0.1249991E+03  0.7818608E-02  0.1235071E+00
          4   -1    0    0  501    0  0.00000000000E+00  0.00000000000E+00  0.67623489707E+02  0.67635414246E+02  0.12700000000E+01 0.  1.
         -4   -1    0    0    0  501 -0.00000000000E+00 -0.00000000000E+00 -0.57739834922E+02  0.57753800194E+02  0.12700000000E+01 0.  1.
         25    2    1    2    0    0  0.00000000000E+00  0.00000000000E+00  0.98836547850E+01  0.12538921444E+03  0.12499907386E+03 0.  0.
    9000005    1    3    3    0    0 -0.45258080168E+02  0.13628250274E+02  0.45949354769E+02  0.65926976495E+02  0.10000000000E+01 0.  0.
    9000005    1    3    3    0    0  0.45258080168E+02 -0.13628250274E+02 -0.36065699984E+02  0.59462237945E+02  0.10000000000E+01 0.  0.
<mgrwt>
<rscale>  0 0.12499907E+03</rscale>
<asrwt>0</asrwt>
<pdfrwt beam="1">  1        4 0.10405605E-01 0.12499907E+03</pdfrwt>
<pdfrwt beam="2">  1       -4 0.88850430E-02 0.12499907E+03</pdfrwt>
<totfact> 0.10444624E+04</totfact>
</mgrwt>
</event>
<event>
 5    1  0.3312904E-002  0.1250006E+03  0.7818608E-02  0.1235068E+00
         -4   -1    0    0    0  501 -0.00000000000E+00  0.00000000000E+00  0.53902180425E+03  0.53902330038E+03  0.12700000000E+01 0. -1.
          4   -1    0    0  501    0  0.00000000000E+00 -0.00000000000E+00 -0.71898398228E+01  0.73011435185E+01  0.12700000000E+01 0. -1.
         25    2    1    2    0    0  0.00000000000E+00  0.00000000000E+00  0.53183196442E+03  0.54632444390E+03  0.12500063847E+03 0.  0.
    9000005    1    3    3    0    0  0.27301638142E+02 -0.38682771013E+02  0.87654788031E+02  0.99629805195E+02  0.10000000000E+01 0.  0.
    9000005    1    3    3    0    0 -0.27301638142E+02  0.38682771013E+02  0.44417717639E+03  0.44669463870E+03  0.10000000000E+01 0.  0.
<mgrwt>
<rscale>  0 0.12500064E+03</rscale>
<asrwt>0</asrwt>
<pdfrwt beam="2">  1        4 0.11148060E-02 0.12500064E+03</pdfrwt>
<pdfrwt beam="1">  1       -4 0.82935119E-01 0.12500064E+03</pdfrwt>
<totfact> 0.52440421E+03</totfact>
</mgrwt>
</event>
<event>
 5    1  0.3312904E-002  0.1249974E+03  0.7818608E-02  0.1235073E+00
          4   -1    0    0  501    0  0.00000000000E+00  0.00000000000E+00  0.19749617637E+02  0.19790409212E+02  0.12700000000E+01 0.  1.
         -4   -1    0    0    0  501 -0.00000000000E+00 -0.00000000000E+00 -0.19753350840E+03  0.19753759096E+03  0.12700000000E+01 0.  1.
         25    2    1    2    0    0  0.00000000000E+00  0.00000000000E+00 -0.17778389077E+03  0.21732800017E+03  0.12499739134E+03 0.  0.
    9000005    1    3    3    0    0 -0.99753297893E+01 -0.61686107660E+02 -0.89996888309E+02  0.10956789214E+03  0.10000000000E+01 0.  0.
    9000005    1    3    3    0    0  0.99753297893E+01  0.61686107660E+02 -0.87787002459E+02  0.10776010803E+03  0.10000000000E+01 0.  0.
<mgrwt>
<rscale>  0 0.12499739E+03</rscale>
<asrwt>0</asrwt>
<pdfrwt beam="1">  1        4 0.30418547E-02 0.12499739E+03</pdfrwt>
<pdfrwt beam="2">  1       -4 0.30393221E-01 0.12499739E+03</pdfrwt>
<totfact> 0.87298021E+03</totfact>
</mgrwt>
</event>
<event>
 5    1  0.3312904E-002  0.1249952E+03  0.7818608E-02  0.1235077E+00
          4   -1    0    0  501    0  0.00000000000E+00  0.00000000000E+00  0.46839991970E+01  0.48531173979E+01  0.12700000000E+01 0.  1.
         -4   -1    0    0    0  501 -0.00000000000E+00 -0.00000000000E+00 -0.81893519531E+03  0.81893618006E+03  0.12700000000E+01 0.  1.
         25    2    1    2    0    0  0.00000000000E+00  0.00000000000E+00 -0.81425119611E+03  0.82378929746E+03  0.12499518487E+03 0.  0.
    9000005    1    3    3    0    0 -0.30729565901E+02  0.22951581214E+02 -0.81984887074E+02  0.90518523017E+02  0.10000000000E+01 0.  0.
    9000005    1    3    3    0    0  0.30729565901E+02 -0.22951581214E+02 -0.73226630904E+03  0.73327077444E+03  0.10000000000E+01 0.  0.
<mgrwt>
<rscale>  0 0.12499518E+03</rscale>
<asrwt>0</asrwt>
<pdfrwt beam="1">  1        4 0.73370075E-03 0.12499518E+03</pdfrwt>
<pdfrwt beam="2">  1       -4 0.12600300E+00 0.12499518E+03</pdfrwt>
<totfact> 0.37228463E+03</totfact>
</mgrwt>
</event>
<event>
 5    1  0.3312904E-002  0.1249993E+03  0.7818608E-02  0.1235070E+00
          4   -1    0    0  501    0  0.00000000000E+00  0.00000000000E+00  0.21465676283E+02  0.21503212743E+02  0.12700000000E+01 0. -1.
         -4   -1    0    0    0  501 -0.00000000000E+00 -0.00000000000E+00 -0.18177594421E+03  0.18178038066E+03  0.12700000000E+01 0. -1.
         25    2    1    2    0    0  0.00000000000E+00  0.00000000000E+00 -0.16031026792E+03  0.20328359340E+03  0.12499934937E+03 0.  0.
    9000005    1    3    3    0    0 -0.45013583569E+02 -0.10945015101E+02 -0.11944614870E+02  0.47850704129E+02  0.10000000000E+01 0.  0.
    9000005    1    3    3    0    0  0.45013583569E+02  0.10945015101E+02 -0.14836565305E+03  0.15543288927E+03  0.10000000000E+01 0.  0.
<mgrwt>
<rscale>  0 0.12499935E+03</rscale>
<asrwt>0</asrwt>
<pdfrwt beam="1">  1        4 0.33056405E-02 0.12499935E+03</pdfrwt>
<pdfrwt beam="2">  1       -4 0.27968758E-01 0.12499935E+03</pdfrwt>
<totfact> 0.89585946E+03</totfact>
</mgrwt>
</event>
<event>
 5    1  0.3312904E-002  0.1249938E+03  0.7818608E-02  0.1235079E+00
         -4   -1    0    0    0  501 -0.00000000000E+00  0.00000000000E+00  0.11494904327E+03  0.11495605878E+03  0.12700000000E+01 0. -1.
          4   -1    0    0  501    0  0.00000000000E+00 -0.00000000000E+00 -0.33959143495E+02  0.33982882852E+02  0.12700000000E+01 0. -1.
         25    2    1    2    0    0  0.00000000000E+00  0.00000000000E+00  0.80989899778E+02  0.14893894163E+03  0.12499377771E+03 0.  0.
    9000005    1    3    3    0    0 -0.42861339968E+02  0.44972983195E+02  0.48505766068E+02  0.78825586095E+02  0.10000000000E+01 0.  0.
    9000005    1    3    3    0    0  0.42861339968E+02 -0.44972983195E+02  0.32484133710E+02  0.70113355534E+02  0.10000000000E+01 0.  0.
<mgrwt>
<rscale>  0 0.12499378E+03</rscale>
<asrwt>0</asrwt>
<pdfrwt beam="2">  1        4 0.52268493E-02 0.12499378E+03</pdfrwt>
<pdfrwt beam="1">  1       -4 0.17686834E-01 0.12499378E+03</pdfrwt>
<totfact> 0.99529564E+03</totfact>
</mgrwt>
</event>
<event>
 5    1  0.3312904E-002  0.1250021E+03  0.7818608E-02  0.1235066E+00
          4   -1    0    0  501    0  0.00000000000E+00  0.00000000000E+00  0.19511433109E+03  0.19511846426E+03  0.12700000000E+01 0. -1.
         -4   -1    0    0    0  501 -0.00000000000E+00 -0.00000000000E+00 -0.19996503183E+02  0.20036792147E+02  0.12700000000E+01 0. -1.
         25    2    1    2    0    0  0.00000000000E+00  0.00000000000E+00  0.17511782790E+03  0.21515525641E+03  0.12500212282E+03 0.  0.
    9000005    1    3    3    0    0  0.38176952787E+02 -0.18436722585E+02  0.16658470785E+03  0.17189781079E+03  0.10000000000E+01 0.  0.
    9000005    1    3    3    0    0 -0.38176952787E+02  0.18436722585E+02  0.85331200541E+01  0.43257445621E+02  0.10000000000E+01 0.  0.
<mgrwt>
<rscale>  0 0.12500212E+03</rscale>
<asrwt>0</asrwt>
<pdfrwt beam="1">  1        4 0.30021007E-01 0.12500212E+03</pdfrwt>
<pdfrwt beam="2">  1       -4 0.30798022E-02 0.12500212E+03</pdfrwt>
<totfact> 0.87636662E+03</totfact>
</mgrwt>
</event>
<event>
 5    1  0.3312904E-002  0.1250076E+03  0.7818608E-02  0.1235057E+00
          4   -1    0    0  501    0  0.00000000000E+00  0.00000000000E+00  0.13524555426E+03  0.13525151699E+03  0.12700000000E+01 0.  1.
         -4   -1    0    0    0  501 -0.00000000000E+00 -0.00000000000E+00 -0.28865580025E+02  0.28893504636E+02  0.12700000000E+01 0.  1.
         25    2    1    2    0    0  0.00000000000E+00  0.00000000000E+00  0.10637997424E+03  0.16414502163E+03  0.12500755659E+03 0.  0.
    9000005    1    3    3    0    0  0.34514695551E+02  0.70419504872E+01 -0.14594354705E+02  0.38142475862E+02  0.10000000000E+01 0.  0.
    9000005    1    3    3    0    0 -0.34514695551E+02 -0.70419504872E+01  0.12097432894E+03  0.12600254576E+03  0.10000000000E+01 0.  0.
<mgrwt>
<rscale>  0 0.12500756E+03</rscale>
<asrwt>0</asrwt>
<pdfrwt beam="1">  1        4 0.20809615E-01 0.12500756E+03</pdfrwt>
<pdfrwt beam="2">  1       -4 0.44434651E-02 0.12500756E+03</pdfrwt>
<totfact> 0.96533167E+03</totfact>
</mgrwt>
</event>
<event>
 5    1  0.3312904E-002  0.1250038E+03  0.7818608E-02  0.1235063E+00
         -4   -1    0    0    0  501 -0.00000000000E+00  0.00000000000E+00  0.46000294920E+01  0.47721244040E+01  0.12700000000E+01 0.  1.
          4   -1    0    0  501    0  0.00000000000E+00 -0.00000000000E+00 -0.83346476211E+03  0.83346572970E+03  0.12700000000E+01 0.  1.
         25    2    1    2    0    0  0.00000000000E+00  0.00000000000E+00 -0.82886473262E+03  0.83823785411E+03  0.12500382022E+03 0.  0.
    9000005    1    3    3    0    0 -0.77030705927E+01  0.25130922148E+02 -0.34237141120E+02  0.43175020286E+02  0.10000000000E+01 0.  0.
    9000005    1    3    3    0    0  0.77030705927E+01 -0.25130922148E+02 -0.79462759150E+03  0.79506283382E+03  0.10000000000E+01 0.  0.
<mgrwt>
<rscale>  0 0.12500382E+03</rscale>
<asrwt>0</asrwt>
<pdfrwt beam="2">  1        4 0.12823854E+00 0.12500382E+03</pdfrwt>
<pdfrwt beam="1">  1       -4 0.72101001E-03 0.12500382E+03</pdfrwt>
<totfact> 0.36610512E+03</totfact>
</mgrwt>
</event>
<event>
 5    1  0.3312904E-002  0.1249988E+03  0.7818608E-02  0.1235071E+00
         -4   -1    0    0    0  501 -0.00000000000E+00  0.00000000000E+00  0.25253583815E+02  0.25285497731E+02  0.12700000000E+01 0.  1.
          4   -1    0    0  501    0  0.00000000000E+00 -0.00000000000E+00 -0.15454593585E+03  0.15455115396E+03  0.12700000000E+01 0.  1.
         25    2    1    2    0    0  0.00000000000E+00  0.00000000000E+00 -0.12929235204E+03  0.17983665169E+03  0.12499883597E+03 0.  0.
    9000005    1    3    3    0    0  0.58607195606E+02 -0.17123632673E+02 -0.83795305661E+02  0.10368546390E+03  0.10000000000E+01 0.  0.
    9000005    1    3    3    0    0 -0.58607195606E+02  0.17123632673E+02 -0.45497046378E+02  0.76151187790E+02  0.10000000000E+01 0.  0.
<mgrwt>
<rscale>  0 0.12499884E+03</rscale>
<asrwt>0</asrwt>
<pdfrwt beam="2">  1        4 0.23779154E-01 0.12499884E+03</pdfrwt>
<pdfrwt beam="1">  1       -4 0.38880231E-02 0.12499884E+03</pdfrwt>
<totfact> 0.93648859E+03</totfact>
</mgrwt>
</event>
<event>
 5    1  0.3312904E-002  0.1250034E+03  0.7818608E-02  0.1235064E+00
         -4   -1    0    0    0  501 -0.00000000000E+00  0.00000000000E+00  0.21519101943E+03  0.21519476700E+03  0.12700000000E+01 0.  1.
          4   -1    0    0  501    0  0.00000000000E+00 -0.00000000000E+00 -0.18127327361E+02  0.18171760984E+02  0.12700000000E+01 0.  1.
         25    2    1    2    0    0  0.00000000000E+00  0.00000000000E+00  0.19706369207E+03  0.23336652798E+03  0.12500335056E+03 0.  0.
    9000005    1    3    3    0    0  0.43169393334E+02 -0.26062932637E+02  0.16744449454E+03  0.17487576084E+03  0.10000000000E+01 0.  0.
    9000005    1    3    3    0    0 -0.43169393334E+02  0.26062932637E+02  0.29619197531E+02  0.58490767142E+02  0.10000000000E+01 0.  0.
<mgrwt>
<rscale>  0 0.12500335E+03</rscale>
<asrwt>0</asrwt>
<pdfrwt beam="2">  1        4 0.27925259E-02 0.12500335E+03</pdfrwt>
<pdfrwt beam="1">  1       -4 0.33110016E-01 0.12500335E+03</pdfrwt>
<totfact> 0.84788993E+03</totfact>
</mgrwt>
</event>
<event>
 5    1  0.3312904E-002  0.1250090E+03  0.7818608E-02  0.1235055E+00
          4   -1    0    0  501    0  0.00000000000E+00  0.00000000000E+00  0.42598004317E+03  0.42598193633E+03  0.12700000000E+01 0.  1.
         -4   -1    0    0    0  501 -0.00000000000E+00 -0.00000000000E+00 -0.91254592135E+01  0.92134090247E+01  0.12700000000E+01 0.  1.
         25    2    1    2    0    0  0.00000000000E+00  0.00000000000E+00  0.41685458395E+03  0.43519534535E+03  0.12500897749E+03 0.  0.
    9000005    1    3    3    0    0 -0.17303796948E+02  0.33229946391E+02  0.38256812233E+03  0.38439955639E+03  0.10000000000E+01 0.  0.
    9000005    1    3    3    0    0  0.17303796948E+02 -0.33229946391E+02  0.34286461621E+02  0.50795788963E+02  0.10000000000E+01 0.  0.
<mgrwt>
<rscale>  0 0.12500898E+03</rscale>
<asrwt>0</asrwt>
<pdfrwt beam="1">  1        4 0.65542298E-01 0.12500898E+03</pdfrwt>
<pdfrwt beam="2">  1       -4 0.14108279E-02 0.12500898E+03</pdfrwt>
<totfact> 0.61255750E+03</totfact>
</mgrwt>
</event>
<event>
 5    1  0.3312904E-002  0.1250038E+03  0.7818608E-02  0.1235063E+00
         -4   -1    0    0    0  501 -0.00000000000E+00  0.00000000000E+00  0.14588468555E+02  0.14643644176E+02  0.12700000000E+01 0.  1.
          4   -1    0    0  501    0  0.00000000000E+00 -0.00000000000E+00 -0.26721721161E+03  0.26722022955E+03  0.12700000000E+01 0.  1.
         25    2    1    2    0    0  0.00000000000E+00  0.00000000000E+00 -0.25262874305E+03  0.28186387372E+03  0.12500384592E+03 0.  0.
    9000005    1    3    3    0    0 -0.27427737870E+02 -0.19028631716E+02 -0.24544004080E+03  0.24770180309E+03  0.10000000000E+01 0.  0.
    9000005    1    3    3    0    0  0.27427737870E+02  0.19028631716E+02 -0.71887022576E+01  0.34162070631E+02  0.10000000000E+01 0.  0.
<mgrwt>
<rscale>  0 0.12500385E+03</rscale>
<asrwt>0</asrwt>
<pdfrwt beam="2">  1        4 0.41114813E-01 0.12500385E+03</pdfrwt>
<pdfrwt beam="1">  1       -4 0.22488564E-02 0.12500385E+03</pdfrwt>
<totfact> 0.77924957E+03</totfact>
</mgrwt>
</event>
<event>
 5    1  0.3312904E-002  0.1250011E+03  0.7818608E-02  0.1235068E+00
          4   -1    0    0  501    0  0.00000000000E+00  0.00000000000E+00  0.28591780351E+03  0.28592062406E+03  0.12700000000E+01 0.  1.
         -4   -1    0    0    0  501 -0.00000000000E+00 -0.00000000000E+00 -0.13629972777E+02  0.13689012305E+02  0.12700000000E+01 0.  1.
         25    2    1    2    0    0  0.00000000000E+00  0.00000000000E+00  0.27228783073E+03  0.29960963637E+03  0.12500108575E+03 0.  0.
    9000005    1    3    3    0    0 -0.22283218526E+01  0.34801972862E+02  0.26043830757E+03  0.26276463762E+03  0.10000000000E+01 0.  0.
    9000005    1    3    3    0    0  0.22283218526E+01 -0.34801972862E+02  0.11849523160E+02  0.36844998744E+02  0.10000000000E+01 0.  0.
<mgrwt>
<rscale>  0 0.12500109E+03</rscale>
<asrwt>0</asrwt>
<pdfrwt beam="1">  1        4 0.43992111E-01 0.12500109E+03</pdfrwt>
<pdfrwt beam="2">  1       -4 0.21016774E-02 0.12500109E+03</pdfrwt>
<totfact> 0.75646008E+03</totfact>
</mgrwt>
</event>
<event>
 5    1  0.3312904E-002  0.1249942E+03  0.7818608E-02  0.1235078E+00
         -4   -1    0    0    0  501 -0.00000000000E+00  0.00000000000E+00  0.71609362195E+02  0.71620623105E+02  0.12700000000E+01 0. -1.
          4   -1    0    0  501    0  0.00000000000E+00 -0.00000000000E+00 -0.54521409164E+02  0.54536198595E+02  0.12700000000E+01 0. -1.
         25    2    1    2    0    0  0.00000000000E+00  0.00000000000E+00  0.17087953031E+02  0.12615682170E+03  0.12499418196E+03 0.  0.
    9000005    1    3    3    0    0 -0.16546450538E+02 -0.22959132057E+02  0.64775567386E+02  0.70694984973E+02  0.10000000000E+01 0.  0.
    9000005    1    3    3    0    0  0.16546450538E+02  0.22959132057E+02 -0.47687614355E+02  0.55461836726E+02  0.10000000000E+01 0.  0.
<mgrwt>
<rscale>  0 0.12499418E+03</rscale>
<asrwt>0</asrwt>
<pdfrwt beam="2">  1        4 0.83899130E-02 0.12499418E+03</pdfrwt>
<pdfrwt beam="1">  1       -4 0.11018829E-01 0.12499418E+03</pdfrwt>
<totfact> 0.10428893E+04</totfact>
</mgrwt>
</event>
<event>
 5    1  0.3312904E-002  0.1250001E+03  0.7818608E-02  0.1235069E+00
          4   -1    0    0  501    0  0.00000000000E+00  0.00000000000E+00  0.12893953036E+02  0.12956346896E+02  0.12700000000E+01 0. -1.
         -4   -1    0    0    0  501 -0.00000000000E+00 -0.00000000000E+00 -0.30215737737E+03  0.30216004633E+03  0.12700000000E+01 0. -1.
         25    2    1    2    0    0  0.00000000000E+00  0.00000000000E+00 -0.28926342434E+03  0.31511639323E+03  0.12500005049E+03 0.  0.
    9000005    1    3    3    0    0  0.48854451387E+02  0.66225558248E+01 -0.47825451729E+02  0.68694173691E+02  0.10000000000E+01 0.  0.
    9000005    1    3    3    0    0 -0.48854451387E+02 -0.66225558248E+01 -0.24143797261E+03  0.24642221954E+03  0.10000000000E+01 0.  0.
<mgrwt>
<rscale>  0 0.12500005E+03</rscale>
<asrwt>0</asrwt>
<pdfrwt beam="1">  1        4 0.19886901E-02 0.12500005E+03</pdfrwt>
<pdfrwt beam="2">  1       -4 0.46490750E-01 0.12500005E+03</pdfrwt>
<totfact> 0.73740675E+03</totfact>
</mgrwt>
</event>
<event>
 5    1  0.3312904E-002  0.1249954E+03  0.7818608E-02  0.1235076E+00
         -4   -1    0    0    0  501 -0.00000000000E+00  0.00000000000E+00  0.60505398701E+01  0.61823889169E+01  0.12700000000E+01 0.  1.
          4   -1    0    0  501    0  0.00000000000E+00 -0.00000000000E+00 -0.63846586777E+03  0.63846713087E+03  0.12700000000E+01 0.  1.
         25    2    1    2    0    0  0.00000000000E+00  0.00000000000E+00 -0.63241532790E+03  0.64464951979E+03  0.12499542553E+03 0.  0.
    9000005    1    3    3    0    0 -0.14673332379E+02  0.59487669278E+01 -0.44408850197E+01  0.16474707003E+02  0.10000000000E+01 0.  0.
    9000005    1    3    3    0    0  0.14673332379E+02 -0.59487669278E+01 -0.62797444288E+03  0.62817481279E+03  0.10000000000E+01 0.  0.
<mgrwt>
<rscale>  0 0.12499543E+03</rscale>
<asrwt>0</asrwt>
<pdfrwt beam="2">  1        4 0.98235705E-01 0.12499543E+03</pdfrwt>
<pdfrwt beam="1">  1       -4 0.94109219E-03 0.12499543E+03</pdfrwt>
<totfact> 0.46169808E+03</totfact>
</mgrwt>
</event>
<event>
 5    1  0.3312904E-002  0.1250073E+03  0.7818608E-02  0.1235058E+00
          4   -1    0    0  501    0  0.00000000000E+00  0.00000000000E+00  0.41160342284E+03  0.41160538213E+03  0.12700000000E+01 0.  1.
         -4   -1    0    0    0  501 -0.00000000000E+00 -0.00000000000E+00 -0.94469540639E+01  0.95319379501E+01  0.12700000000E+01 0.  1.
         25    2    1    2    0    0  0.00000000000E+00  0.00000000000E+00  0.40215646878E+03  0.42113732008E+03  0.12500726771E+03 0.  0.
    9000005    1    3    3    0    0  0.59312136425E+02  0.97173234097E+01  0.14337764006E+03  0.15546865784E+03  0.10000000000E+01 0.  0.
    9000005    1    3    3    0    0 -0.59312136425E+02 -0.97173234097E+01  0.25877882872E+03  0.26566866223E+03  0.10000000000E+01 0.  0.
<mgrwt>
<rscale>  0 0.12500727E+03</rscale>
<asrwt>0</asrwt>
<pdfrwt beam="1">  1        4 0.63330291E-01 0.12500727E+03</pdfrwt>
<pdfrwt beam="2">  1       -4 0.14600655E-02 0.12500727E+03</pdfrwt>
<totfact> 0.62537611E+03</totfact>
</mgrwt>
</event>
<event>
 5    1  0.3312904E-002  0.1249981E+03  0.7818608E-02  0.1235072E+00
          4   -1    0    0  501    0  0.00000000000E+00  0.00000000000E+00  0.28017500771E+02  0.28046269796E+02  0.12700000000E+01 0.  1.
         -4   -1    0    0    0  501 -0.00000000000E+00 -0.00000000000E+00 -0.13931440854E+03  0.13932019713E+03  0.12700000000E+01 0.  1.
         25    2    1    2    0    0  0.00000000000E+00  0.00000000000E+00 -0.11129690777E+03  0.16736646692E+03  0.12499813027E+03 0.  0.
    9000005    1    3    3    0    0 -0.59322793096E+02  0.18703990874E+02 -0.63693324388E+02  0.89032986173E+02  0.10000000000E+01 0.  0.
    9000005    1    3    3    0    0  0.59322793096E+02 -0.18703990874E+02 -0.47603583382E+02  0.78333480749E+02  0.10000000000E+01 0.  0.
<mgrwt>
<rscale>  0 0.12499813E+03</rscale>
<asrwt>0</asrwt>
<pdfrwt beam="1">  1        4 0.43130431E-02 0.12499813E+03</pdfrwt>
<pdfrwt beam="2">  1       -4 0.21435644E-01 0.12499813E+03</pdfrwt>
<totfact> 0.95945118E+03</totfact>
</mgrwt>
</event>
<event>
 5    1  0.3312904E-002  0.1249944E+03  0.7818608E-02  0.1235078E+00
          4   -1    0    0  501    0  0.00000000000E+00  0.00000000000E+00  0.16279948902E+04  0.16279953856E+04  0.12700000000E+01 0. -1.
         -4   -1    0    0    0  501 -0.00000000000E+00 -0.00000000000E+00 -0.22306144163E+01  0.25668152786E+01  0.12700000000E+01 0. -1.
         25    2    1    2    0    0  0.00000000000E+00  0.00000000000E+00  0.16257642758E+04  0.16305622008E+04  0.12499444148E+03 0.  0.
    9000005    1    3    3    0    0 -0.94003957946E+01 -0.31098189315E+02  0.15092300203E+04  0.15095799810E+04  0.10000000000E+01 0.  0.
    9000005    1    3    3    0    0  0.94003957946E+01  0.31098189315E+02  0.11653425544E+03  0.12098221981E+03  0.10000000000E+01 0.  0.
<mgrwt>
<rscale>  0 0.12499444E+03</rscale>
<asrwt>0</asrwt>
<pdfrwt beam="1">  1        4 0.25048694E+00 0.12499444E+03</pdfrwt>
<pdfrwt beam="2">  1       -4 0.36907074E-03 0.12499444E+03</pdfrwt>
<totfact> 0.15501813E+03</totfact>
</mgrwt>
</event>
<event>
 5    1  0.3312904E-002  0.1249953E+03  0.7818608E-02  0.1235077E+00
          4   -1    0    0  501    0  0.00000000000E+00  0.00000000000E+00  0.19043728596E+02  0.19086028891E+02  0.12700000000E+01 0.  1.
         -4   -1    0    0    0  501 -0.00000000000E+00 -0.00000000000E+00 -0.20483281245E+03  0.20483674953E+03  0.12700000000E+01 0.  1.
         25    2    1    2    0    0  0.00000000000E+00  0.00000000000E+00 -0.18578908386E+03  0.22392277842E+03  0.12499530797E+03 0.  0.
    9000005    1    3    3    0    0 -0.37888126332E+02 -0.48887980445E+02 -0.76930324170E+02  0.98715852454E+02  0.10000000000E+01 0.  0.
    9000005    1    3    3    0    0  0.37888126332E+02  0.48887980445E+02 -0.10885875969E+03  0.12520692596E+03  0.10000000000E+01 0.  0.
<mgrwt>
<rscale>  0 0.12499531E+03</rscale>
<asrwt>0</asrwt>
<pdfrwt beam="1">  1        4 0.29333613E-02 0.12499531E+03</pdfrwt>
<pdfrwt beam="2">  1       -4 0.31516296E-01 0.12499531E+03</pdfrwt>
<totfact> 0.86260440E+03</totfact>
</mgrwt>
</event>
<event>
 5    1  0.3312904E-002  0.1250013E+03  0.7818608E-02  0.1235067E+00
         -4   -1    0    0    0  501 -0.00000000000E+00  0.00000000000E+00  0.32034153015E+02  0.32059317825E+02  0.12700000000E+01 0.  1.
          4   -1    0    0  501    0  0.00000000000E+00 -0.00000000000E+00 -0.12186643616E+03  0.12187305347E+03  0.12700000000E+01 0.  1.
         25    2    1    2    0    0  0.00000000000E+00  0.00000000000E+00 -0.89832283148E+02  0.15393237130E+03  0.12500134334E+03 0.  0.
    9000005    1    3    3    0    0  0.47850742120E+02  0.29926714950E+02 -0.11872246856E+02  0.57682337284E+02  0.10000000000E+01 0.  0.
    9000005    1    3    3    0    0 -0.47850742120E+02 -0.29926714950E+02 -0.77960036292E+02  0.96250034014E+02  0.10000000000E+01 0.  0.
<mgrwt>
<rscale>  0 0.12500134E+03</rscale>
<asrwt>0</asrwt>
<pdfrwt beam="2">  1        4 0.18751127E-01 0.12500134E+03</pdfrwt>
<pdfrwt beam="1">  1       -4 0.49307761E-02 0.12500134E+03</pdfrwt>
<totfact> 0.98522519E+03</totfact>
</mgrwt>
</event>
<event>
 5    1  0.3312904E-002  0.1249995E+03  0.7818608E-02  0.1235070E+00
          4   -1    0    0  501    0  0.00000000000E+00  0.00000000000E+00  0.66321790161E+02  0.66333948700E+02  0.12700000000E+01 0.  1.
         -4   -1    0    0    0  501 -0.00000000000E+00 -0.00000000000E+00 -0.58873565807E+02  0.58887262212E+02  0.12700000000E+01 0.  1.
         25    2    1    2    0    0  0.00000000000E+00  0.00000000000E+00  0.74482243541E+01  0.12522121091E+03  0.12499950246E+03 0.  0.
    9000005    1    3    3    0    0  0.79763982254E+01 -0.13092427448E+02  0.64413611193E+02  0.66220449198E+02  0.10000000000E+01 0.  0.
    9000005    1    3    3    0    0 -0.79763982254E+01  0.13092427448E+02 -0.56965386839E+02  0.59000761714E+02  0.10000000000E+01 0.  0.
<mgrwt>
<rscale>  0 0.12499950E+03</rscale>
<asrwt>0</asrwt>
<pdfrwt beam="1">  1        4 0.10205341E-01 0.12499950E+03</pdfrwt>
<pdfrwt beam="2">  1       -4 0.90594606E-02 0.12499950E+03</pdfrwt>
<totfact> 0.10448177E+04</totfact>
</mgrwt>
</event>
<event>
 5    1  0.3312904E-002  0.1250011E+03  0.7818608E-02  0.1235068E+00
         -4   -1    0    0    0  501 -0.00000000000E+00  0.00000000000E+00  0.42464303144E+01  0.44322759859E+01  0.12700000000E+01 0. -1.
          4   -1    0    0  501    0  0.00000000000E+00 -0.00000000000E+00 -0.90002169939E+03  0.90002259542E+03  0.12700000000E+01 0. -1.
         25    2    1    2    0    0  0.00000000000E+00  0.00000000000E+00 -0.89577526908E+03  0.90445487141E+03  0.12500112691E+03 0.  0.
    9000005    1    3    3    0    0 -0.33980364430E+02  0.52201480409E+02 -0.48454044627E+03  0.48852850868E+03  0.10000000000E+01 0.  0.
    9000005    1    3    3    0    0  0.33980364430E+02 -0.52201480409E+02 -0.41123482281E+03  0.41592636273E+03  0.10000000000E+01 0.  0.
<mgrwt>
<rscale>  0 0.12500113E+03</rscale>
<asrwt>0</asrwt>
<pdfrwt beam="2">  1        4 0.13847909E+00 0.12500113E+03</pdfrwt>
<pdfrwt beam="1">  1       -4 0.66766244E-03 0.12500113E+03</pdfrwt>
<totfact> 0.33989108E+03</totfact>
</mgrwt>
</event>
<event>
 5    1  0.3312904E-002  0.1250020E+03  0.7818608E-02  0.1235066E+00
          4   -1    0    0  501    0  0.00000000000E+00  0.00000000000E+00  0.14146906872E+03  0.14147476914E+03  0.12700000000E+01 0.  1.
         -4   -1    0    0    0  501 -0.00000000000E+00 -0.00000000000E+00 -0.27592082857E+02  0.27621294980E+02  0.12700000000E+01 0.  1.
         25    2    1    2    0    0  0.00000000000E+00  0.00000000000E+00  0.11387698586E+03  0.16909606412E+03  0.12500204395E+03 0.  0.
    9000005    1    3    3    0    0  0.60694006371E+02 -0.48427991689E+00  0.77065832447E+02  0.98102698572E+02  0.10000000000E+01 0.  0.
    9000005    1    3    3    0    0 -0.60694006371E+02  0.48427991689E+00  0.36811153413E+02  0.70993365549E+02  0.10000000000E+01 0.  0.
<mgrwt>
<rscale>  0 0.12500204E+03</rscale>
<asrwt>0</asrwt>
<pdfrwt beam="1">  1        4 0.21767158E-01 0.12500204E+03</pdfrwt>
<pdfrwt beam="2">  1       -4 0.42476214E-02 0.12500204E+03</pdfrwt>
<totfact> 0.95612848E+03</totfact>
</mgrwt>
</event>
<event>
 5    1  0.3312904E-002  0.1249788E+03  0.7818608E-02  0.1235102E+00
         -4   -1    0    0    0  501 -0.00000000000E+00  0.00000000000E+00  0.69984985983E+02  0.69996508221E+02  0.12700000000E+01 0. -1.
          4   -1    0    0  501    0  0.00000000000E+00 -0.00000000000E+00 -0.55773259630E+02  0.55787717194E+02  0.12700000000E+01 0. -1.
         25    2    1    2    0    0  0.00000000000E+00  0.00000000000E+00  0.14211726353E+02  0.12578422542E+03  0.12497879099E+03 0.  0.
    9000005    1    3    3    0    0 -0.57964912635E+02 -0.20162231536E+02 -0.46947958327E+01  0.61558815658E+02  0.10000000000E+01 0.  0.
    9000005    1    3    3    0    0  0.57964912635E+02  0.20162231536E+02  0.18906522186E+02  0.64225409757E+02  0.10000000000E+01 0.  0.
<mgrwt>
<rscale>  0 0.12497879E+03</rscale>
<asrwt>0</asrwt>
<pdfrwt beam="2">  1        4 0.85824998E-02 0.12497879E+03</pdfrwt>
<pdfrwt beam="1">  1       -4 0.10768919E-01 0.12497879E+03</pdfrwt>
<totfact> 0.10440687E+04</totfact>
</mgrwt>
</event>
<event>
 5    1  0.3312904E-002  0.1249989E+03  0.7818608E-02  0.1235071E+00
          4   -1    0    0  501    0  0.00000000000E+00  0.00000000000E+00  0.14778724709E+02  0.14833192645E+02  0.12700000000E+01 0. -1.
         -4   -1    0    0    0  501 -0.00000000000E+00 -0.00000000000E+00 -0.26376904845E+03  0.26377210585E+03  0.12700000000E+01 0. -1.
         25    2    1    2    0    0  0.00000000000E+00  0.00000000000E+00 -0.24899032374E+03  0.27860529849E+03  0.12499892411E+03 0.  0.
    9000005    1    3    3    0    0 -0.51518223854E+02  0.22165721610E+01 -0.45814701188E+02  0.68985704506E+02  0.10000000000E+01 0.  0.
    9000005    1    3    3    0    0  0.51518223854E+02 -0.22165721610E+01 -0.20317562256E+03  0.20961959399E+03  0.10000000000E+01 0.  0.
<mgrwt>
<rscale>  0 0.12499892E+03</rscale>
<asrwt>0</asrwt>
<pdfrwt beam="1">  1        4 0.22780752E-02 0.12499892E+03</pdfrwt>
<pdfrwt beam="2">  1       -4 0.40584275E-01 0.12499892E+03</pdfrwt>
<totfact> 0.78365272E+03</totfact>
</mgrwt>
</event>
<event>
 5    1  0.3312904E-002  0.1249998E+03  0.7818608E-02  0.1235070E+00
         -4   -1    0    0    0  501 -0.00000000000E+00  0.00000000000E+00  0.14767470349E+03  0.14768016438E+03  0.12700000000E+01 0. -1.
          4   -1    0    0  501    0  0.00000000000E+00 -0.00000000000E+00 -0.26430441029E+02  0.26460935603E+02  0.12700000000E+01 0. -1.
         25    2    1    2    0    0  0.00000000000E+00  0.00000000000E+00  0.12124426246E+03  0.17414109998E+03  0.12499980609E+03 0.  0.
    9000005    1    3    3    0    0 -0.17056053785E+02 -0.40884912679E+02 -0.78244219788E+00  0.44318137047E+02  0.10000000000E+01 0.  0.
    9000005    1    3    3    0    0  0.17056053785E+02  0.40884912679E+02  0.12202670466E+03  0.12982296294E+03  0.10000000000E+01 0.  0.
<mgrwt>
<rscale>  0 0.12499981E+03</rscale>
<asrwt>0</asrwt>
<pdfrwt beam="2">  1        4 0.40689874E-02 0.12499981E+03</pdfrwt>
<pdfrwt beam="1">  1       -4 0.22721951E-01 0.12499981E+03</pdfrwt>
<totfact> 0.94682793E+03</totfact>
</mgrwt>
</event>
<event>
 5    1  0.3312904E-002  0.1249970E+03  0.7818608E-02  0.1235074E+00
          4   -1    0    0  501    0  0.00000000000E+00  0.00000000000E+00  0.19480269786E+03  0.19480683765E+03  0.12700000000E+01 0. -1.
         -4   -1    0    0    0  501 -0.00000000000E+00 -0.00000000000E+00 -0.20026924859E+02  0.20067152745E+02  0.12700000000E+01 0. -1.
         25    2    1    2    0    0  0.00000000000E+00  0.00000000000E+00  0.17477577301E+03  0.21487399039E+03  0.12499704364E+03 0.  0.
    9000005    1    3    3    0    0  0.37542514116E+02  0.36274787129E+02  0.14643270652E+03  0.15546330142E+03  0.10000000000E+01 0.  0.
    9000005    1    3    3    0    0 -0.37542514116E+02 -0.36274787129E+02  0.28343066483E+02  0.59410688980E+02  0.10000000000E+01 0.  0.
<mgrwt>
<rscale>  0 0.12499704E+03</rscale>
<asrwt>0</asrwt>
<pdfrwt beam="1">  1        4 0.29973058E-01 0.12499704E+03</pdfrwt>
<pdfrwt beam="2">  1       -4 0.30844783E-02 0.12499704E+03</pdfrwt>
<totfact> 0.87691823E+03</totfact>
</mgrwt>
</event>
<event>
 5    1  0.3312904E-002  0.1250048E+03  0.7818608E-02  0.1235062E+00
          4   -1    0    0  501    0  0.00000000000E+00  0.00000000000E+00  0.28856716621E+03  0.28856996087E+03  0.12700000000E+01 0.  1.
         -4   -1    0    0    0  501 -0.00000000000E+00 -0.00000000000E+00 -0.13505104826E+02  0.13564687846E+02  0.12700000000E+01 0.  1.
         25    2    1    2    0    0  0.00000000000E+00  0.00000000000E+00  0.27506206139E+03  0.30213464872E+03  0.12500483327E+03 0.  0.
    9000005    1    3    3    0    0  0.45988949430E+02  0.42029973662E+02  0.14938409473E+03  0.16185830196E+03  0.10000000000E+01 0.  0.
    9000005    1    3    3    0    0 -0.45988949430E+02 -0.42029973662E+02  0.12567796666E+03  0.14027634675E+03  0.10000000000E+01 0.  0.
<mgrwt>
<rscale>  0 0.12500483E+03</rscale>
<asrwt>0</asrwt>
<pdfrwt beam="1">  1        4 0.44399744E-01 0.12500483E+03</pdfrwt>
<pdfrwt beam="2">  1       -4 0.20825069E-02 0.12500483E+03</pdfrwt>
<totfact> 0.75323770E+03</totfact>
</mgrwt>
</event>
<event>
 5    1  0.3312904E-002  0.1249985E+03  0.7818608E-02  0.1235072E+00
          4   -1    0    0  501    0  0.00000000000E+00  0.00000000000E+00  0.65715144697E+03  0.65715267416E+03  0.12700000000E+01 0.  1.
         -4   -1    0    0    0  501 -0.00000000000E+00 -0.00000000000E+00 -0.58749889905E+01  0.60106901134E+01  0.12700000000E+01 0.  1.
         25    2    1    2    0    0  0.00000000000E+00  0.00000000000E+00  0.65127645798E+03  0.66316336427E+03  0.12499849197E+03 0.  0.
    9000005    1    3    3    0    0  0.25368129954E+02 -0.53842138407E+02  0.42666868798E+03  0.43080121540E+03  0.10000000000E+01 0.  0.
    9000005    1    3    3    0    0 -0.25368129954E+02  0.53842138407E+02  0.22460777000E+03  0.23236214888E+03  0.10000000000E+01 0.  0.
<mgrwt>
<rscale>  0 0.12499849E+03</rscale>
<asrwt>0</asrwt>
<pdfrwt beam="1">  1        4 0.10111064E+00 0.12499849E+03</pdfrwt>
<pdfrwt beam="2">  1       -4 0.91437844E-03 0.12499849E+03</pdfrwt>
<totfact> 0.45105318E+03</totfact>
</mgrwt>
</event>
<event>
 5    1  0.3312904E-002  0.1249976E+03  0.7818608E-02  0.1235073E+00
         -4   -1    0    0    0  501 -0.00000000000E+00  0.00000000000E+00  0.22430759732E+03  0.22431119257E+03  0.12700000000E+01 0.  1.
          4   -1    0    0  501    0  0.00000000000E+00 -0.00000000000E+00 -0.17387145168E+02  0.17433465435E+02  0.12700000000E+01 0.  1.
         25    2    1    2    0    0  0.00000000000E+00  0.00000000000E+00  0.20692045215E+03  0.24174465801E+03  0.12499762461E+03 0.  0.
    9000005    1    3    3    0    0  0.37900545424E+02  0.48424579700E+02  0.81949354091E+02  0.10246017713E+03  0.10000000000E+01 0.  0.
    9000005    1    3    3    0    0 -0.37900545424E+02 -0.48424579700E+02  0.12497109806E+03  0.13928448087E+03  0.10000000000E+01 0.  0.
<mgrwt>
<rscale>  0 0.12499762E+03</rscale>
<asrwt>0</asrwt>
<pdfrwt beam="2">  1        4 0.26787852E-02 0.12499762E+03</pdfrwt>
<pdfrwt beam="1">  1       -4 0.34512699E-01 0.12499762E+03</pdfrwt>
<totfact> 0.83542640E+03</totfact>
</mgrwt>
</event>
<event>
 5    1  0.3312904E-002  0.1249911E+03  0.7818608E-02  0.1235083E+00
         -4   -1    0    0    0  501 -0.00000000000E+00  0.00000000000E+00  0.33573066163E+02  0.33597078320E+02  0.12700000000E+01 0.  1.
          4   -1    0    0  501    0  0.00000000000E+00 -0.00000000000E+00 -0.11626508718E+03  0.11627202328E+03  0.12700000000E+01 0.  1.
         25    2    1    2    0    0  0.00000000000E+00  0.00000000000E+00 -0.82692021017E+02  0.14986910160E+03  0.12499110878E+03 0.  0.
    9000005    1    3    3    0    0 -0.96002462927E+01 -0.45448341688E+01 -0.11518061218E+03  0.11567365157E+03  0.10000000000E+01 0.  0.
    9000005    1    3    3    0    0  0.96002462927E+01  0.45448341688E+01  0.32488591163E+02  0.34195450023E+02  0.10000000000E+01 0.  0.
<mgrwt>
<rscale>  0 0.12499111E+03</rscale>
<asrwt>0</asrwt>
<pdfrwt beam="2">  1        4 0.17889317E-01 0.12499111E+03</pdfrwt>
<pdfrwt beam="1">  1       -4 0.51674678E-02 0.12499111E+03</pdfrwt>
<totfact> 0.99349676E+03</totfact>
</mgrwt>
</event>
<event>
 5    1  0.3312904E-002  0.1250013E+03  0.7818608E-02  0.1235067E+00
         -4   -1    0    0    0  501 -0.00000000000E+00  0.00000000000E+00  0.19612384493E+02  0.19653460904E+02  0.12700000000E+01 0. -1.
          4   -1    0    0  501    0  0.00000000000E+00 -0.00000000000E+00 -0.19892531658E+03  0.19892937057E+03  0.12700000000E+01 0. -1.
         25    2    1    2    0    0  0.00000000000E+00  0.00000000000E+00 -0.17931293208E+03  0.21858283147E+03  0.12500130640E+03 0.  0.
    9000005    1    3    3    0    0  0.46454780935E+02  0.41539308984E+02 -0.97815496792E+02  0.11598462086E+03  0.10000000000E+01 0.  0.
    9000005    1    3    3    0    0 -0.46454780935E+02 -0.41539308984E+02 -0.81497435291E+02  0.10259821062E+03  0.10000000000E+01 0.  0.
<mgrwt>
<rscale>  0 0.12500131E+03</rscale>
<asrwt>0</asrwt>
<pdfrwt beam="2">  1        4 0.30607365E-01 0.12500131E+03</pdfrwt>
<pdfrwt beam="1">  1       -4 0.30207616E-02 0.12500131E+03</pdfrwt>
<totfact> 0.87090555E+03</totfact>
</mgrwt>
</event>
<event>
 5    1  0.3312904E-002  0.1249997E+03  0.7818608E-02  0.1235070E+00
          4   -1    0    0  501    0  0.00000000000E+00  0.00000000000E+00  0.41249681167E+02  0.41269226990E+02  0.12700000000E+01 0. -1.
         -4   -1    0    0    0  501 -0.00000000000E+00 -0.00000000000E+00 -0.94650966340E+02  0.94659486208E+02  0.12700000000E+01 0. -1.
         25    2    1    2    0    0  0.00000000000E+00  0.00000000000E+00 -0.53401285173E+02  0.13592871320E+03  0.12499967125E+03 0.  0.
    9000005    1    3    3    0    0  0.20397915304E+02 -0.24472355409E+02  0.31760953111E+02  0.44996991794E+02  0.10000000000E+01 0.  0.
    9000005    1    3    3    0    0 -0.20397915304E+02  0.24472355409E+02 -0.85162238284E+02  0.90931721404E+02  0.10000000000E+01 0.  0.
<mgrwt>
<rscale>  0 0.12499967E+03</rscale>
<asrwt>0</asrwt>
<pdfrwt beam="1">  1        4 0.63482637E-02 0.12499967E+03</pdfrwt>
<pdfrwt beam="2">  1       -4 0.14563846E-01 0.12499967E+03</pdfrwt>
<totfact> 0.10218609E+04</totfact>
</mgrwt>
</event>
<event>
 5    1  0.3312904E-002  0.1249980E+03  0.7818608E-02  0.1235072E+00
         -4   -1    0    0    0  501 -0.00000000000E+00  0.00000000000E+00  0.11879853288E+02  0.11947544272E+02  0.12700000000E+01 0. -1.
          4   -1    0    0  501    0  0.00000000000E+00 -0.00000000000E+00 -0.32779961788E+03  0.32780207807E+03  0.12700000000E+01 0. -1.
         25    2    1    2    0    0  0.00000000000E+00  0.00000000000E+00 -0.31591976460E+03  0.33974962234E+03  0.12499803285E+03 0.  0.
    9000005    1    3    3    0    0 -0.55302633591E+02  0.10945393001E+01 -0.78923896434E+02  0.96382367302E+02  0.10000000000E+01 0.  0.
    9000005    1    3    3    0    0  0.55302633591E+02 -0.10945393001E+01 -0.23699586816E+03  0.24336725504E+03  0.10000000000E+01 0.  0.
<mgrwt>
<rscale>  0 0.12499803E+03</rscale>
<asrwt>0</asrwt>
<pdfrwt beam="2">  1        4 0.50436100E-01 0.12499803E+03</pdfrwt>
<pdfrwt beam="1">  1       -4 0.18330662E-02 0.12499803E+03</pdfrwt>
<totfact> 0.70870231E+03</totfact>
</mgrwt>
</event>
<event>
 5    1  0.3312904E-002  0.1249989E+03  0.7818608E-02  0.1235071E+00
          4   -1    0    0  501    0  0.00000000000E+00  0.00000000000E+00  0.23430782422E+03  0.23431126603E+03  0.12700000000E+01 0.  1.
         -4   -1    0    0    0  501 -0.00000000000E+00 -0.00000000000E+00 -0.16643404920E+02  0.16691789219E+02  0.12700000000E+01 0.  1.
         25    2    1    2    0    0  0.00000000000E+00  0.00000000000E+00  0.21766441930E+03  0.25100305525E+03  0.12499893726E+03 0.  0.
    9000005    1    3    3    0    0 -0.29311567005E+02 -0.41318613597E+02  0.35359076768E+02  0.61787216313E+02  0.10000000000E+01 0.  0.
    9000005    1    3    3    0    0  0.29311567005E+02  0.41318613597E+02  0.18230534253E+03  0.18921583893E+03  0.10000000000E+01 0.  0.
<mgrwt>
<rscale>  0 0.12499894E+03</rscale>
<asrwt>0</asrwt>
<pdfrwt beam="1">  1        4 0.36051343E-01 0.12499894E+03</pdfrwt>
<pdfrwt beam="2">  1       -4 0.25645105E-02 0.12499894E+03</pdfrwt>
<totfact> 0.82187416E+03</totfact>
</mgrwt>
</event>
<event>
 5    1  0.3312904E-002  0.1249982E+03  0.7818608E-02  0.1235072E+00
         -4   -1    0    0    0  501 -0.00000000000E+00  0.00000000000E+00  0.15772621450E+02  0.15823668582E+02  0.12700000000E+01 0.  1.
          4   -1    0    0  501    0  0.00000000000E+00 -0.00000000000E+00 -0.24720024205E+03  0.24720350436E+03  0.12700000000E+01 0.  1.
         25    2    1    2    0    0  0.00000000000E+00  0.00000000000E+00 -0.23142762059E+03  0.26302717294E+03  0.12499820051E+03 0.  0.
    9000005    1    3    3    0    0 -0.26487046818E+02  0.38830053145E+02 -0.29060674941E+02  0.55270783461E+02  0.10000000000E+01 0.  0.
    9000005    1    3    3    0    0  0.26487046818E+02 -0.38830053145E+02 -0.20236694565E+03  0.20775638948E+03  0.10000000000E+01 0.  0.
<mgrwt>
<rscale>  0 0.12499820E+03</rscale>
<asrwt>0</asrwt>
<pdfrwt beam="2">  1        4 0.38034981E-01 0.12499820E+03</pdfrwt>
<pdfrwt beam="1">  1       -4 0.24307350E-02 0.12499820E+03</pdfrwt>
<totfact> 0.80486333E+03</totfact>
</mgrwt>
</event>
<event>
 5    1  0.3312904E-002  0.1250003E+03  0.7818608E-02  0.1235069E+00
          4   -1    0    0  501    0  0.00000000000E+00  0.00000000000E+00  0.34933601094E+03  0.34933831946E+03  0.12700000000E+01 0. -1.
         -4   -1    0    0    0  501 -0.00000000000E+00 -0.00000000000E+00 -0.11143567076E+02  0.11215702705E+02  0.12700000000E+01 0. -1.
         25    2    1    2    0    0  0.00000000000E+00  0.00000000000E+00  0.33819244387E+03  0.36055402216E+03  0.12500029524E+03 0.  0.
    9000005    1    3    3    0    0  0.41108250236E+02  0.43648235580E+02  0.21989911265E+03  0.22792910400E+03  0.10000000000E+01 0.  0.
    9000005    1    3    3    0    0 -0.41108250236E+02 -0.43648235580E+02  0.11829333121E+03  0.13262491816E+03  0.10000000000E+01 0.  0.
<mgrwt>
<rscale>  0 0.12500030E+03</rscale>
<asrwt>0</asrwt>
<pdfrwt beam="1">  1        4 0.53749720E-01 0.12500030E+03</pdfrwt>
<pdfrwt beam="2">  1       -4 0.17201217E-02 0.12500030E+03</pdfrwt>
<totfact> 0.68578435E+03</totfact>
</mgrwt>
</event>
<event>
 5    1  0.3312904E-002  0.1250038E+03  0.7818608E-02  0.1235063E+00
         -4   -1    0    0    0  501 -0.00000000000E+00  0.00000000000E+00  0.11190330608E+02  0.11262166715E+02  0.12700000000E+01 0.  1.
          4   -1    0    0  501    0  0.00000000000E+00 -0.00000000000E+00 -0.34790513032E+03  0.34790744833E+03  0.12700000000E+01 0.  1.
         25    2    1    2    0    0  0.00000000000E+00  0.00000000000E+00 -0.33671479971E+03  0.35916961505E+03  0.12500382405E+03 0.  0.
    9000005    1    3    3    0    0  0.55609201691E+02 -0.22719709338E+02 -0.21786779392E+03  0.22599987640E+03  0.10000000000E+01 0.  0.
    9000005    1    3    3    0    0 -0.55609201691E+02  0.22719709338E+02 -0.11884700579E+03  0.13316973864E+03  0.10000000000E+01 0.  0.
<mgrwt>
<rscale>  0 0.12500382E+03</rscale>
<asrwt>0</asrwt>
<pdfrwt beam="2">  1        4 0.53529562E-01 0.12500382E+03</pdfrwt>
<pdfrwt beam="1">  1       -4 0.17272938E-02 0.12500382E+03</pdfrwt>
<totfact> 0.68721619E+03</totfact>
</mgrwt>
</event>
<event>
 5    1  0.3312904E-002  0.1249982E+03  0.7818608E-02  0.1235072E+00
         -4   -1    0    0    0  501 -0.00000000000E+00  0.00000000000E+00  0.43914865756E+02  0.43933225859E+02  0.12700000000E+01 0. -1.
          4   -1    0    0  501    0  0.00000000000E+00 -0.00000000000E+00 -0.88906450624E+02  0.88915520932E+02  0.12700000000E+01 0. -1.
         25    2    1    2    0    0  0.00000000000E+00  0.00000000000E+00 -0.44991584868E+02  0.13284874679E+03  0.12499818725E+03 0.  0.
    9000005    1    3    3    0    0  0.60404283891E+02  0.26782411880E+01 -0.39276214469E+02  0.72107361006E+02  0.10000000000E+01 0.  0.
    9000005    1    3    3    0    0 -0.60404283891E+02 -0.26782411880E+01 -0.57153703990E+01  0.60741385785E+02  0.10000000000E+01 0.  0.
<mgrwt>
<rscale>  0 0.12499819E+03</rscale>
<asrwt>0</asrwt>
<pdfrwt beam="2">  1        4 0.13680025E-01 0.12499819E+03</pdfrwt>
<pdfrwt beam="1">  1       -4 0.67582433E-02 0.12499819E+03</pdfrwt>
<totfact> 0.10284036E+04</totfact>
</mgrwt>
</event>
<event>
 5    1  0.3312904E-002  0.1249982E+03  0.7818608E-02  0.1235072E+00
          4   -1    0    0  501    0  0.00000000000E+00  0.00000000000E+00  0.18564353480E+03  0.18564787883E+03  0.12700000000E+01 0. -1.
         -4   -1    0    0    0  501 -0.00000000000E+00 -0.00000000000E+00 -0.21017317752E+02  0.21055653528E+02  0.12700000000E+01 0. -1.
         25    2    1    2    0    0  0.00000000000E+00  0.00000000000E+00  0.16462621705E+03  0.20670353236E+03  0.12499823578E+03 0.  0.
    9000005    1    3    3    0    0 -0.29170711509E+02 -0.49272380124E+02  0.12370205849E+03  0.13631543246E+03  0.10000000000E+01 0.  0.
    9000005    1    3    3    0    0  0.29170711509E+02  0.49272380124E+02  0.40924158566E+02  0.70388099899E+02  0.10000000000E+01 0.  0.
<mgrwt>
<rscale>  0 0.12499824E+03</rscale>
<asrwt>0</asrwt>
<pdfrwt beam="1">  1        4 0.28563826E-01 0.12499824E+03</pdfrwt>
<pdfrwt beam="2">  1       -4 0.32367167E-02 0.12499824E+03</pdfrwt>
<totfact> 0.89020596E+03</totfact>
</mgrwt>
</event>
<event>
 5    1  0.3312904E-002  0.1249984E+03  0.7818608E-02  0.1235072E+00
          4   -1    0    0  501    0  0.00000000000E+00  0.00000000000E+00  0.14981606358E+03  0.14982144642E+03  0.12700000000E+01 0. -1.
         -4   -1    0    0    0  501 -0.00000000000E+00 -0.00000000000E+00 -0.26051631432E+02  0.26082568897E+02  0.12700000000E+01 0. -1.
         25    2    1    2    0    0  0.00000000000E+00  0.00000000000E+00  0.12376443215E+03  0.17590401531E+03  0.12499835175E+03 0.  0.
    9000005    1    3    3    0    0  0.39639344919E+02  0.46128796026E+01  0.12955606079E+03  0.13556669654E+03  0.10000000000E+01 0.  0.
    9000005    1    3    3    0    0 -0.39639344919E+02 -0.46128796026E+01 -0.57916286381E+01  0.40337318777E+02  0.10000000000E+01 0.  0.
<mgrwt>
<rscale>  0 0.12499835E+03</rscale>
<asrwt>0</asrwt>
<pdfrwt beam="1">  1        4 0.23051418E-01 0.12499835E+03</pdfrwt>
<pdfrwt beam="2">  1       -4 0.40107373E-02 0.12499835E+03</pdfrwt>
<totfact> 0.94363022E+03</totfact>
</mgrwt>
</event>
<event>
 5    1  0.3312904E-002  0.1250030E+03  0.7818608E-02  0.1235065E+00
          4   -1    0    0  501    0  0.00000000000E+00  0.00000000000E+00  0.14901804960E+03  0.14902346127E+03  0.12700000000E+01 0. -1.
         -4   -1    0    0    0  501 -0.00000000000E+00 -0.00000000000E+00 -0.26193239828E+02  0.26224010233E+02  0.12700000000E+01 0. -1.
         25    2    1    2    0    0  0.00000000000E+00  0.00000000000E+00  0.12282480978E+03  0.17524747150E+03  0.12500296945E+03 0.  0.
    9000005    1    3    3    0    0  0.46430504822E+02 -0.10069726177E+02  0.11832943608E+03  0.12751488778E+03  0.10000000000E+01 0.  0.
    9000005    1    3    3    0    0 -0.46430504822E+02  0.10069726177E+02  0.44953736940E+01  0.47732583714E+02  0.10000000000E+01 0.  0.
<mgrwt>
<rscale>  0 0.12500297E+03</rscale>
<asrwt>0</asrwt>
<pdfrwt beam="1">  1        4 0.22928637E-01 0.12500297E+03</pdfrwt>
<pdfrwt beam="2">  1       -4 0.40325125E-02 0.12500297E+03</pdfrwt>
<totfact> 0.94473243E+03</totfact>
</mgrwt>
</event>
<event>
 5    1  0.3312904E-002  0.1249981E+03  0.7818608E-02  0.1235072E+00
          4   -1    0    0  501    0  0.00000000000E+00  0.00000000000E+00  0.95121512900E+01  0.95965578290E+01  0.12700000000E+01 0. -1.
         -4   -1    0    0    0  501 -0.00000000000E+00 -0.00000000000E+00 -0.40874729106E+03  0.40874926403E+03  0.12700000000E+01 0. -1.
         25    2    1    2    0    0  0.00000000000E+00  0.00000000000E+00 -0.39923513977E+03  0.41834582186E+03  0.12499811936E+03 0.  0.
    9000005    1    3    3    0    0  0.16660307212E+02  0.40407451191E+02 -0.34909723905E+03  0.35182411837E+03  0.10000000000E+01 0.  0.
    9000005    1    3    3    0    0 -0.16660307212E+02 -0.40407451191E+02 -0.50137900715E+02  0.66521703498E+02  0.10000000000E+01 0.  0.
<mgrwt>
<rscale>  0 0.12499812E+03</rscale>
<asrwt>0</asrwt>
<pdfrwt beam="1">  1        4 0.14700528E-02 0.12499812E+03</pdfrwt>
<pdfrwt beam="2">  1       -4 0.62890830E-01 0.12499812E+03</pdfrwt>
<totfact> 0.62809379E+03</totfact>
</mgrwt>
</event>
<event>
 5    1  0.3312904E-002  0.1250021E+03  0.7818608E-02  0.1235066E+00
          4   -1    0    0  501    0  0.00000000000E+00  0.00000000000E+00  0.18585460929E+03  0.18585894839E+03  0.12700000000E+01 0.  1.
         -4   -1    0    0    0  501 -0.00000000000E+00 -0.00000000000E+00 -0.20994697474E+02  0.21033074479E+02  0.12700000000E+01 0.  1.
         25    2    1    2    0    0  0.00000000000E+00  0.00000000000E+00  0.16485991182E+03  0.20689202287E+03  0.12500207439E+03 0.  0.
    9000005    1    3    3    0    0 -0.55989460853E+01  0.33151436374E+02 -0.47585214037E+01  0.33970714695E+02  0.10000000000E+01 0.  0.
    9000005    1    3    3    0    0  0.55989460853E+01 -0.33151436374E+02  0.16961843322E+03  0.17292130817E+03  0.10000000000E+01 0.  0.
<mgrwt>
<rscale>  0 0.12500207E+03</rscale>
<asrwt>0</asrwt>
<pdfrwt beam="1">  1        4 0.28596303E-01 0.12500207E+03</pdfrwt>
<pdfrwt beam="2">  1       -4 0.32332393E-02 0.12500207E+03</pdfrwt>
<totfact> 0.88981855E+03</totfact>
</mgrwt>
</event>
<event>
 5    1  0.3312904E-002  0.1250032E+03  0.7818608E-02  0.1235064E+00
         -4   -1    0    0    0  501 -0.00000000000E+00  0.00000000000E+00  0.19488294598E+02  0.19529632008E+02  0.12700000000E+01 0. -1.
          4   -1    0    0  501    0  0.00000000000E+00 -0.00000000000E+00 -0.20019543924E+03  0.20019946752E+03  0.12700000000E+01 0. -1.
         25    2    1    2    0    0  0.00000000000E+00  0.00000000000E+00 -0.18070714464E+03  0.21972909952E+03  0.12500322017E+03 0.  0.
    9000005    1    3    3    0    0  0.23189762850E+02 -0.86237854066E+01  0.10521325827E+02  0.26904146017E+02  0.10000000000E+01 0.  0.
    9000005    1    3    3    0    0 -0.23189762850E+02  0.86237854066E+01 -0.19122847047E+03  0.19282495351E+03  0.10000000000E+01 0.  0.
<mgrwt>
<rscale>  0 0.12500322E+03</rscale>
<asrwt>0</asrwt>
<pdfrwt beam="2">  1        4 0.30802787E-01 0.12500322E+03</pdfrwt>
<pdfrwt beam="1">  1       -4 0.30016890E-02 0.12500322E+03</pdfrwt>
<totfact> 0.86904984E+03</totfact>
</mgrwt>
</event>
<event>
 5    1  0.3312904E-002  0.1250004E+03  0.7818608E-02  0.1235069E+00
         -4   -1    0    0    0  501 -0.00000000000E+00  0.00000000000E+00  0.43355160222E+02  0.43373757249E+02  0.12700000000E+01 0.  1.
          4   -1    0    0  501    0  0.00000000000E+00 -0.00000000000E+00 -0.90057033673E+02  0.90065988109E+02  0.12700000000E+01 0.  1.
         25    2    1    2    0    0  0.00000000000E+00  0.00000000000E+00 -0.46701873451E+02  0.13343974536E+03  0.12500040263E+03 0.  0.
    9000005    1    3    3    0    0  0.43282412223E+02  0.27786298012E+02  0.14539507462E+02  0.53458795743E+02  0.10000000000E+01 0.  0.
    9000005    1    3    3    0    0 -0.43282412223E+02 -0.27786298012E+02 -0.61241380913E+02  0.79980949615E+02  0.10000000000E+01 0.  0.
<mgrwt>
<rscale>  0 0.12500040E+03</rscale>
<asrwt>0</asrwt>
<pdfrwt beam="2">  1        4 0.13857048E-01 0.12500040E+03</pdfrwt>
<pdfrwt beam="1">  1       -4 0.66721440E-02 0.12500040E+03</pdfrwt>
<totfact> 0.10270969E+04</totfact>
</mgrwt>
</event>
<event>
 5    1  0.3312904E-002  0.1249965E+03  0.7818608E-02  0.1235075E+00
         -4   -1    0    0    0  501 -0.00000000000E+00  0.00000000000E+00  0.33128952463E+03  0.33129195890E+03  0.12700000000E+01 0.  1.
          4   -1    0    0  501    0  0.00000000000E+00 -0.00000000000E+00 -0.11753710415E+02  0.11822123689E+02  0.12700000000E+01 0.  1.
         25    2    1    2    0    0  0.00000000000E+00  0.00000000000E+00  0.31953581421E+03  0.34311408258E+03  0.12499654836E+03 0.  0.
    9000005    1    3    3    0    0 -0.11367408433E+02  0.24462110326E+02  0.50366924136E+01  0.27458716039E+02  0.10000000000E+01 0.  0.
    9000005    1    3    3    0    0  0.11367408433E+02 -0.24462110326E+02  0.31449912180E+03  0.31565536655E+03  0.10000000000E+01 0.  0.
<mgrwt>
<rscale>  0 0.12499655E+03</rscale>
<asrwt>0</asrwt>
<pdfrwt beam="2">  1        4 0.18137131E-02 0.12499655E+03</pdfrwt>
<pdfrwt beam="1">  1       -4 0.50973064E-01 0.12499655E+03</pdfrwt>
<totfact> 0.70494181E+03</totfact>
</mgrwt>
</event>
<event>
 5    1  0.3312904E-002  0.1250043E+03  0.7818608E-02  0.1235063E+00
         -4   -1    0    0    0  501 -0.00000000000E+00  0.00000000000E+00  0.40579299923E+02  0.40599168492E+02  0.12700000000E+01 0. -1.
          4   -1    0    0  501    0  0.00000000000E+00 -0.00000000000E+00 -0.96221076665E+02  0.96229457520E+02  0.12700000000E+01 0. -1.
         25    2    1    2    0    0  0.00000000000E+00  0.00000000000E+00 -0.55641776742E+02  0.13682862601E+03  0.12500426224E+03 0.  0.
    9000005    1    3    3    0    0  0.52256195028E+02  0.14989877622E+02 -0.61560423879E+02  0.82134597692E+02  0.10000000000E+01 0.  0.
    9000005    1    3    3    0    0 -0.52256195028E+02 -0.14989877622E+02  0.59186471371E+01  0.54694028320E+02  0.10000000000E+01 0.  0.
<mgrwt>
<rscale>  0 0.12500426E+03</rscale>
<asrwt>0</asrwt>
<pdfrwt beam="2">  1        4 0.14805416E-01 0.12500426E+03</pdfrwt>
<pdfrwt beam="1">  1       -4 0.62451423E-02 0.12500426E+03</pdfrwt>
<totfact> 0.10198690E+04</totfact>
</mgrwt>
</event>
<event>
 5    1  0.3312904E-002  0.1249964E+03  0.7818608E-02  0.1235075E+00
          4   -1    0    0  501    0  0.00000000000E+00  0.00000000000E+00  0.23674853998E+02  0.23708893096E+02  0.12700000000E+01 0. -1.
         -4   -1    0    0    0  501 -0.00000000000E+00 -0.00000000000E+00 -0.16483113170E+03  0.16483602421E+03  0.12700000000E+01 0. -1.
         25    2    1    2    0    0  0.00000000000E+00  0.00000000000E+00 -0.14115627770E+03  0.18854491730E+03  0.12499636438E+03 0.  0.
    9000005    1    3    3    0    0  0.36576946562E+02  0.46352431439E+02 -0.39716568330E+02  0.71167595998E+02  0.10000000000E+01 0.  0.
    9000005    1    3    3    0    0 -0.36576946562E+02 -0.46352431439E+02 -0.10143970937E+03  0.11737732131E+03  0.10000000000E+01 0.  0.
<mgrwt>
<rscale>  0 0.12499636E+03</rscale>
<asrwt>0</asrwt>
<pdfrwt beam="1">  1        4 0.36452801E-02 0.12499636E+03</pdfrwt>
<pdfrwt beam="2">  1       -4 0.25361630E-01 0.12499636E+03</pdfrwt>
<totfact> 0.92108614E+03</totfact>
</mgrwt>
</event>
<event>
 5    1  0.3312904E-002  0.1250030E+03  0.7818608E-02  0.1235065E+00
          4   -1    0    0  501    0  0.00000000000E+00  0.00000000000E+00  0.48927802210E+02  0.48944281884E+02  0.12700000000E+01 0.  1.
         -4   -1    0    0    0  501 -0.00000000000E+00 -0.00000000000E+00 -0.79805886647E+02  0.79815991152E+02  0.12700000000E+01 0.  1.
         25    2    1    2    0    0  0.00000000000E+00  0.00000000000E+00 -0.30878084437E+02  0.12876027304E+03  0.12500300722E+03 0.  0.
    9000005    1    3    3    0    0 -0.15446433902E+02 -0.53756855656E+02  0.13274371020E+02  0.57494354300E+02  0.10000000000E+01 0.  0.
    9000005    1    3    3    0    0  0.15446433902E+02  0.53756855656E+02 -0.44152455458E+02  0.71265918736E+02  0.10000000000E+01 0.  0.
<mgrwt>
<rscale>  0 0.12500301E+03</rscale>
<asrwt>0</asrwt>
<pdfrwt beam="1">  1        4 0.75293991E-02 0.12500301E+03</pdfrwt>
<pdfrwt beam="2">  1       -4 0.12279874E-01 0.12500301E+03</pdfrwt>
<totfact> 0.10370397E+04</totfact>
</mgrwt>
</event>
<event>
 5    1  0.3312904E-002  0.1250012E+03  0.7818608E-02  0.1235067E+00
          4   -1    0    0  501    0  0.00000000000E+00  0.00000000000E+00  0.51355291432E+01  0.52902324695E+01  0.12700000000E+01 0.  1.
         -4   -1    0    0    0  501 -0.00000000000E+00 -0.00000000000E+00 -0.74920445611E+03  0.74920553252E+03  0.12700000000E+01 0.  1.
         25    2    1    2    0    0  0.00000000000E+00  0.00000000000E+00 -0.74406892697E+03  0.75449576499E+03  0.12500116522E+03 0.  0.
    9000005    1    3    3    0    0 -0.12107115168E+01  0.41655454065E+02 -0.90947633757E+02  0.10004556343E+03  0.10000000000E+01 0.  0.
    9000005    1    3    3    0    0  0.12107115168E+01 -0.41655454065E+02 -0.65312129321E+03  0.65445020156E+03  0.10000000000E+01 0.  0.
<mgrwt>
<rscale>  0 0.12500117E+03</rscale>
<asrwt>0</asrwt>
<pdfrwt beam="1">  1        4 0.80206506E-03 0.12500117E+03</pdfrwt>
<pdfrwt beam="2">  1       -4 0.11527412E+00 0.12500117E+03</pdfrwt>
<totfact> 0.40359019E+03</totfact>
</mgrwt>
</event>
<event>
 5    1  0.3312904E-002  0.1249977E+03  0.7818608E-02  0.1235073E+00
         -4   -1    0    0    0  501 -0.00000000000E+00  0.00000000000E+00  0.13929555421E+03  0.13930134358E+03  0.12700000000E+01 0.  1.
          4   -1    0    0  501    0  0.00000000000E+00 -0.00000000000E+00 -0.28021089165E+02  0.28049854509E+02  0.12700000000E+01 0.  1.
         25    2    1    2    0    0  0.00000000000E+00  0.00000000000E+00  0.11127446504E+03  0.16735119809E+03  0.12499766770E+03 0.  0.
    9000005    1    3    3    0    0 -0.10547521965E+01  0.59043617105E+02  0.28269835880E+02  0.65478583092E+02  0.10000000000E+01 0.  0.
    9000005    1    3    3    0    0  0.10547521965E+01 -0.59043617105E+02  0.83004629165E+02  0.10187261499E+03  0.10000000000E+01 0.  0.
<mgrwt>
<rscale>  0 0.12499767E+03</rscale>
<asrwt>0</asrwt>
<pdfrwt beam="2">  1        4 0.43135950E-02 0.12499767E+03</pdfrwt>
<pdfrwt beam="1">  1       -4 0.21432743E-01 0.12499767E+03</pdfrwt>
<totfact> 0.95948983E+03</totfact>
</mgrwt>
</event>
<event>
 5    1  0.3312904E-002  0.1250006E+03  0.7818608E-02  0.1235068E+00
         -4   -1    0    0    0  501 -0.00000000000E+00  0.00000000000E+00  0.10311054513E+03  0.10311836605E+03  0.12700000000E+01 0. -1.
          4   -1    0    0  501    0  0.00000000000E+00 -0.00000000000E+00 -0.37864542675E+02  0.37885834978E+02  0.12700000000E+01 0. -1.
         25    2    1    2    0    0  0.00000000000E+00  0.00000000000E+00  0.65246002453E+02  0.14100420103E+03  0.12500057548E+03 0.  0.
    9000005    1    3    3    0    0 -0.22302597544E+02  0.14768800247E+01 -0.33206894390E+02  0.40041039782E+02  0.10000000000E+01 0.  0.
    9000005    1    3    3    0    0  0.22302597544E+02 -0.14768800247E+01  0.98452896843E+02  0.10096316124E+03  0.10000000000E+01 0.  0.
<mgrwt>
<rscale>  0 0.12500058E+03</rscale>
<asrwt>0</asrwt>
<pdfrwt beam="2">  1        4 0.58275537E-02 0.12500058E+03</pdfrwt>
<pdfrwt beam="1">  1       -4 0.15865400E-01 0.12500058E+03</pdfrwt>
<totfact> 0.10112684E+04</totfact>
</mgrwt>
</event>
<event>
 5    1  0.3312904E-002  0.1249992E+03  0.7818608E-02  0.1235071E+00
          4   -1    0    0  501    0  0.00000000000E+00  0.00000000000E+00  0.14330573996E+03  0.14331136733E+03  0.12700000000E+01 0. -1.
         -4   -1    0    0    0  501 -0.00000000000E+00 -0.00000000000E+00 -0.27236826335E+02  0.27266419069E+02  0.12700000000E+01 0. -1.
         25    2    1    2    0    0  0.00000000000E+00  0.00000000000E+00  0.11606891362E+03  0.17057778639E+03  0.12499915400E+03 0.  0.
    9000005    1    3    3    0    0 -0.25566888041E+01  0.61842888814E+02  0.69782782819E+02  0.93282990585E+02  0.10000000000E+01 0.  0.
    9000005    1    3    3    0    0  0.25566888041E+01 -0.61842888814E+02  0.46286130803E+02  0.77294795810E+02  0.10000000000E+01 0.  0.
<mgrwt>
<rscale>  0 0.12499915E+03</rscale>
<asrwt>0</asrwt>
<pdfrwt beam="1">  1        4 0.22049746E-01 0.12499915E+03</pdfrwt>
<pdfrwt beam="2">  1       -4 0.41929902E-02 0.12499915E+03</pdfrwt>
<totfact> 0.95342865E+03</totfact>
</mgrwt>
</event>
<event>
 5    1  0.3312904E-002  0.1249985E+03  0.7818608E-02  0.1235072E+00
          4   -1    0    0  501    0  0.00000000000E+00  0.00000000000E+00  0.46626881636E+02  0.46644174246E+02  0.12700000000E+01 0. -1.
         -4   -1    0    0    0  501 -0.00000000000E+00 -0.00000000000E+00 -0.83737172097E+02  0.83746802272E+02  0.12700000000E+01 0. -1.
         25    2    1    2    0    0  0.00000000000E+00  0.00000000000E+00 -0.37110290461E+02  0.13039097652E+03  0.12499853239E+03 0.  0.
    9000005    1    3    3    0    0 -0.28044218449E+02 -0.27652956187E+01 -0.76737989593E+02  0.81754780258E+02  0.10000000000E+01 0.  0.
    9000005    1    3    3    0    0  0.28044218449E+02  0.27652956187E+01  0.39627699132E+02  0.48636196261E+02  0.10000000000E+01 0.  0.
<mgrwt>
<rscale>  0 0.12499853E+03</rscale>
<asrwt>0</asrwt>
<pdfrwt beam="1">  1        4 0.71754374E-02 0.12499853E+03</pdfrwt>
<pdfrwt beam="2">  1       -4 0.12884713E-01 0.12499853E+03</pdfrwt>
<totfact> 0.10336493E+04</totfact>
</mgrwt>
</event>
<event>
 5    1  0.3312904E-002  0.1249968E+03  0.7818608E-02  0.1235074E+00
         -4   -1    0    0    0  501 -0.00000000000E+00  0.00000000000E+00  0.11305210646E+02  0.11376321363E+02  0.12700000000E+01 0.  1.
          4   -1    0    0  501    0  0.00000000000E+00 -0.00000000000E+00 -0.34435350941E+03  0.34435585133E+03  0.12700000000E+01 0.  1.
         25    2    1    2    0    0  0.00000000000E+00  0.00000000000E+00 -0.33304829877E+03  0.35573217269E+03  0.12499683747E+03 0.  0.
    9000005    1    3    3    0    0  0.21860584344E+02  0.12298824188E+02 -0.32941243164E+03  0.33036751708E+03  0.10000000000E+01 0.  0.
    9000005    1    3    3    0    0 -0.21860584344E+02 -0.12298824188E+02 -0.36358671237E+01  0.25364655606E+02  0.10000000000E+01 0.  0.
<mgrwt>
<rscale>  0 0.12499684E+03</rscale>
<asrwt>0</asrwt>
<pdfrwt beam="2">  1        4 0.52983105E-01 0.12499684E+03</pdfrwt>
<pdfrwt beam="1">  1       -4 0.17449136E-02 0.12499684E+03</pdfrwt>
<totfact> 0.69103355E+03</totfact>
</mgrwt>
</event>
<event>
 5    1  0.3312904E-002  0.1249972E+03  0.7818608E-02  0.1235074E+00
         -4   -1    0    0    0  501 -0.00000000000E+00  0.00000000000E+00  0.60252450035E+02  0.60265833067E+02  0.12700000000E+01 0.  1.
          4   -1    0    0  501    0  0.00000000000E+00 -0.00000000000E+00 -0.64801678981E+02  0.64814122680E+02  0.12700000000E+01 0.  1.
         25    2    1    2    0    0  0.00000000000E+00  0.00000000000E+00 -0.45492289456E+01  0.12507995575E+03  0.12499719935E+03 0.  0.
    9000005    1    3    3    0    0  0.59499824357E+02 -0.17956434039E+02  0.42421728976E+01  0.62302958620E+02  0.10000000000E+01 0.  0.
    9000005    1    3    3    0    0 -0.59499824357E+02  0.17956434039E+02 -0.87914018432E+01  0.62776997127E+02  0.10000000000E+01 0.  0.
<mgrwt>
<rscale>  0 0.12499720E+03</rscale>
<asrwt>0</asrwt>
<pdfrwt beam="2">  1        4 0.99714757E-02 0.12499720E+03</pdfrwt>
<pdfrwt beam="1">  1       -4 0.92715944E-02 0.12499720E+03</pdfrwt>
<totfact> 0.10451788E+04</totfact>
</mgrwt>
</event>
<event>
 5    1  0.3312904E-002  0.1250037E+03  0.7818608E-02  0.1235064E+00
         -4   -1    0    0    0  501 -0.00000000000E+00  0.00000000000E+00  0.36676859151E+01  0.38813425476E+01  0.12700000000E+01 0.  1.
          4   -1    0    0  501    0  0.00000000000E+00 -0.00000000000E+00 -0.10347481354E+04  0.10347489148E+04  0.12700000000E+01 0.  1.
         25    2    1    2    0    0  0.00000000000E+00  0.00000000000E+00 -0.10310804495E+04  0.10386302573E+04  0.12500367235E+03 0.  0.
    9000005    1    3    3    0    0 -0.14803631834E+02  0.54510154887E+00 -0.10199899831E+04  0.10200980395E+04  0.10000000000E+01 0.  0.
    9000005    1    3    3    0    0  0.14803631834E+02 -0.54510154887E+00 -0.11090466395E+02  0.18532217785E+02  0.10000000000E+01 0.  0.
<mgrwt>
<rscale>  0 0.12500367E+03</rscale>
<asrwt>0</asrwt>
<pdfrwt beam="2">  1        4 0.15920829E+00 0.12500367E+03</pdfrwt>
<pdfrwt beam="1">  1       -4 0.58075527E-03 0.12500367E+03</pdfrwt>
<totfact> 0.29350142E+03</totfact>
</mgrwt>
</event>
<event>
 5    1  0.3312904E-002  0.1249948E+03  0.7818608E-02  0.1235077E+00
         -4   -1    0    0    0  501 -0.00000000000E+00  0.00000000000E+00  0.59016804722E+02  0.59030467893E+02  0.12700000000E+01 0. -1.
          4   -1    0    0  501    0  0.00000000000E+00 -0.00000000000E+00 -0.66155897806E+02  0.66168086828E+02  0.12700000000E+01 0. -1.
         25    2    1    2    0    0  0.00000000000E+00  0.00000000000E+00 -0.71390930839E+01  0.12519855472E+03  0.12499484571E+03 0.  0.
    9000005    1    3    3    0    0 -0.62286883291E+02  0.47448702481E+01 -0.52330481230E+01  0.62694133828E+02  0.10000000000E+01 0.  0.
    9000005    1    3    3    0    0  0.62286883291E+02 -0.47448702481E+01 -0.19060449609E+01  0.62504420893E+02  0.10000000000E+01 0.  0.
<mgrwt>
<rscale>  0 0.12499485E+03</rscale>
<asrwt>0</asrwt>
<pdfrwt beam="2">  1        4 0.10179819E-01 0.12499485E+03</pdfrwt>
<pdfrwt beam="1">  1       -4 0.90814970E-02 0.12499485E+03</pdfrwt>
<totfact> 0.10449769E+04</totfact>
</mgrwt>
</event>
<event>
 5    1  0.3312904E-002  0.1249994E+03  0.7818608E-02  0.1235070E+00
          4   -1    0    0  501    0  0.00000000000E+00  0.00000000000E+00  0.11484096892E+02  0.11554106691E+02  0.12700000000E+01 0.  1.
         -4   -1    0    0    0  501 -0.00000000000E+00 -0.00000000000E+00 -0.33903632332E+03  0.33903870197E+03  0.12700000000E+01 0.  1.
         25    2    1    2    0    0  0.00000000000E+00  0.00000000000E+00 -0.32755222643E+03  0.35059280866E+03  0.12499942577E+03 0.  0.
    9000005    1    3    3    0    0 -0.12952224693E+02  0.15576846967E+02 -0.32958474380E+03  0.33020827009E+03  0.10000000000E+01 0.  0.
    9000005    1    3    3    0    0  0.12952224693E+02 -0.15576846967E+02  0.20325173717E+01  0.20384538572E+02  0.10000000000E+01 0.  0.
<mgrwt>
<rscale>  0 0.12499943E+03</rscale>
<asrwt>0</asrwt>
<pdfrwt beam="1">  1        4 0.17723527E-02 0.12499943E+03</pdfrwt>
<pdfrwt beam="2">  1       -4 0.52164995E-01 0.12499943E+03</pdfrwt>
<totfact> 0.69660277E+03</totfact>
</mgrwt>
</event>
<event>
 5    1  0.3312904E-002  0.1250052E+03  0.7818608E-02  0.1235061E+00
         -4   -1    0    0    0  501 -0.00000000000E+00  0.00000000000E+00  0.64155702266E+02  0.64168271235E+02  0.12700000000E+01 0.  1.
          4   -1    0    0  501    0  0.00000000000E+00 -0.00000000000E+00 -0.60866938527E+02  0.60880186479E+02  0.12700000000E+01 0.  1.
         25    2    1    2    0    0  0.00000000000E+00  0.00000000000E+00  0.32887637385E+01  0.12504845771E+03  0.12500520313E+03 0.  0.
    9000005    1    3    3    0    0 -0.12173038370E+02 -0.61194524326E+02  0.51984314835E+01  0.62617700057E+02  0.10000000000E+01 0.  0.
    9000005    1    3    3    0    0  0.12173038370E+02  0.61194524326E+02 -0.19096677449E+01  0.62430757656E+02  0.10000000000E+01 0.  0.
<mgrwt>
<rscale>  0 0.12500520E+03</rscale>
<asrwt>0</asrwt>
<pdfrwt beam="2">  1        4 0.93661303E-02 0.12500520E+03</pdfrwt>
<pdfrwt beam="1">  1       -4 0.98720939E-02 0.12500520E+03</pdfrwt>
<totfact> 0.10450581E+04</totfact>
</mgrwt>
</event>
<event>
 5    1  0.3312904E-002  0.1249974E+03  0.7818608E-02  0.1235073E+00
         -4   -1    0    0    0  501 -0.00000000000E+00  0.00000000000E+00  0.63699932258E+01  0.64953609366E+01  0.12700000000E+01 0.  1.
          4   -1    0    0  501    0  0.00000000000E+00 -0.00000000000E+00 -0.60709983030E+03  0.60710115867E+03  0.12700000000E+01 0.  1.
         25    2    1    2    0    0  0.00000000000E+00  0.00000000000E+00 -0.60072983708E+03  0.61359651960E+03  0.12499740683E+03 0.  0.
    9000005    1    3    3    0    0 -0.22413955548E+01 -0.18653799016E+02 -0.59293133171E+03  0.59322976341E+03  0.10000000000E+01 0.  0.
    9000005    1    3    3    0    0  0.22413955548E+01  0.18653799016E+02 -0.77985053627E+01  0.20366756189E+02  0.10000000000E+01 0.  0.
<mgrwt>
<rscale>  0 0.12499741E+03</rscale>
<asrwt>0</asrwt>
<pdfrwt beam="2">  1        4 0.93409675E-01 0.12499741E+03</pdfrwt>
<pdfrwt beam="1">  1       -4 0.98974529E-03 0.12499741E+03</pdfrwt>
<totfact> 0.48023201E+03</totfact>
</mgrwt>
</event>
<event>
 5    1  0.3312904E-002  0.1249998E+03  0.7818608E-02  0.1235070E+00
         -4   -1    0    0    0  501 -0.00000000000E+00  0.00000000000E+00  0.18696003377E+03  0.18696434721E+03  0.12700000000E+01 0.  1.
          4   -1    0    0  501    0  0.00000000000E+00 -0.00000000000E+00 -0.20869589630E+02  0.20908196271E+02  0.12700000000E+01 0.  1.
         25    2    1    2    0    0  0.00000000000E+00  0.00000000000E+00  0.16609044414E+03  0.20787254348E+03  0.12499983479E+03 0.  0.
    9000005    1    3    3    0    0 -0.46493806252E+02 -0.71966915446E+01  0.14644801446E+02  0.49284242902E+02  0.10000000000E+01 0.  0.
    9000005    1    3    3    0    0  0.46493806252E+02  0.71966915446E+01  0.15144564269E+03  0.15858830058E+03  0.10000000000E+01 0.  0.
<mgrwt>
<rscale>  0 0.12499983E+03</rscale>
<asrwt>0</asrwt>
<pdfrwt beam="2">  1        4 0.32140076E-02 0.12499983E+03</pdfrwt>
<pdfrwt beam="1">  1       -4 0.28766384E-01 0.12499983E+03</pdfrwt>
<totfact> 0.88824832E+03</totfact>
</mgrwt>
</event>
<event>
 5    1  0.3312904E-002  0.1250013E+03  0.7818608E-02  0.1235067E+00
         -4   -1    0    0    0  501 -0.00000000000E+00  0.00000000000E+00  0.29207027225E+03  0.29207303339E+03  0.12700000000E+01 0.  1.
          4   -1    0    0  501    0  0.00000000000E+00 -0.00000000000E+00 -0.13341656045E+02  0.13401965752E+02  0.12700000000E+01 0.  1.
         25    2    1    2    0    0  0.00000000000E+00  0.00000000000E+00  0.27872861621E+03  0.30547499914E+03  0.12500133443E+03 0.  0.
    9000005    1    3    3    0    0  0.43567340257E+02  0.34256837351E+02  0.68803563950E+02  0.88354821343E+02  0.10000000000E+01 0.  0.
    9000005    1    3    3    0    0 -0.43567340257E+02 -0.34256837351E+02  0.20992505226E+03  0.21712017780E+03  0.10000000000E+01 0.  0.
<mgrwt>
<rscale>  0 0.12500133E+03</rscale>
<asrwt>0</asrwt>
<pdfrwt beam="2">  1        4 0.20574140E-02 0.12500133E+03</pdfrwt>
<pdfrwt beam="1">  1       -4 0.44938741E-01 0.12500133E+03</pdfrwt>
<totfact> 0.74914936E+03</totfact>
</mgrwt>
</event>
<event>
 5    1  0.3312904E-002  0.1249998E+03  0.7818608E-02  0.1235070E+00
          4   -1    0    0  501    0  0.00000000000E+00  0.00000000000E+00  0.44374932406E+02  0.44393102235E+02  0.12700000000E+01 0. -1.
         -4   -1    0    0    0  501 -0.00000000000E+00 -0.00000000000E+00 -0.87987258071E+02  0.87996423126E+02  0.12700000000E+01 0. -1.
         25    2    1    2    0    0  0.00000000000E+00  0.00000000000E+00 -0.43612325665E+02  0.13238952536E+03  0.12499980590E+03 0.  0.
    9000005    1    3    3    0    0  0.33179671134E+02 -0.52813815279E+01  0.34000949533E+02  0.47810544199E+02  0.10000000000E+01 0.  0.
    9000005    1    3    3    0    0 -0.33179671134E+02  0.52813815279E+01 -0.77613275198E+02  0.84578981162E+02  0.10000000000E+01 0.  0.
<mgrwt>
<rscale>  0 0.12499981E+03</rscale>
<asrwt>0</asrwt>
<pdfrwt beam="1">  1        4 0.68290154E-02 0.12499981E+03</pdfrwt>
<pdfrwt beam="2">  1       -4 0.13538604E-01 0.12499981E+03</pdfrwt>
<totfact> 0.10293436E+04</totfact>
</mgrwt>
</event>
<event>
 5    1  0.3312904E-002  0.1250007E+03  0.7818608E-02  0.1235068E+00
          4   -1    0    0  501    0  0.00000000000E+00  0.00000000000E+00  0.12998172490E+03  0.12998792909E+03  0.12700000000E+01 0.  1.
         -4   -1    0    0    0  501 -0.00000000000E+00 -0.00000000000E+00 -0.30032311611E+02  0.30059152362E+02  0.12700000000E+01 0.  1.
         25    2    1    2    0    0  0.00000000000E+00  0.00000000000E+00  0.99949413292E+02  0.16004708145E+03  0.12500073225E+03 0.  0.
    9000005    1    3    3    0    0 -0.21690227226E+01 -0.56548684153E+02  0.16030736100E+02  0.58825528802E+02  0.10000000000E+01 0.  0.
    9000005    1    3    3    0    0  0.21690227226E+01  0.56548684153E+02  0.83918677192E+02  0.10122155265E+03  0.10000000000E+01 0.  0.
<mgrwt>
<rscale>  0 0.12500073E+03</rscale>
<asrwt>0</asrwt>
<pdfrwt beam="1">  1        4 0.19999730E-01 0.12500073E+03</pdfrwt>
<pdfrwt beam="2">  1       -4 0.46228975E-02 0.12500073E+03</pdfrwt>
<totfact> 0.97332107E+03</totfact>
</mgrwt>
</event>
<event>
 5    1  0.3312904E-002  0.1249996E+03  0.7818608E-02  0.1235070E+00
         -4   -1    0    0    0  501 -0.00000000000E+00  0.00000000000E+00  0.49373806916E+02  0.49390137775E+02  0.12700000000E+01 0.  1.
          4   -1    0    0  501    0  0.00000000000E+00 -0.00000000000E+00 -0.79080853632E+02  0.79091050765E+02  0.12700000000E+01 0.  1.
         25    2    1    2    0    0  0.00000000000E+00  0.00000000000E+00 -0.29707046715E+02  0.12848118854E+03  0.12499962874E+03 0.  0.
    9000005    1    3    3    0    0  0.11882620216E+02  0.44312301067E+02  0.28760019572E+02  0.54156397728E+02  0.10000000000E+01 0.  0.
    9000005    1    3    3    0    0 -0.11882620216E+02 -0.44312301067E+02 -0.58467066287E+02  0.74324790812E+02  0.10000000000E+01 0.  0.
<mgrwt>
<rscale>  0 0.12499963E+03</rscale>
<asrwt>0</asrwt>
<pdfrwt beam="2">  1        4 0.12168326E-01 0.12499963E+03</pdfrwt>
<pdfrwt beam="1">  1       -4 0.75980109E-02 0.12499963E+03</pdfrwt>
<totfact> 0.10377196E+04</totfact>
</mgrwt>
</event>
<event>
 5    1  0.3312904E-002  0.1250088E+03  0.7818608E-02  0.1235056E+00
         -4   -1    0    0    0  501 -0.00000000000E+00  0.00000000000E+00  0.99917330307E+02  0.99925401154E+02  0.12700000000E+01 0.  1.
          4   -1    0    0  501    0  0.00000000000E+00 -0.00000000000E+00 -0.39080345889E+02  0.39100976136E+02  0.12700000000E+01 0.  1.
         25    2    1    2    0    0  0.00000000000E+00  0.00000000000E+00  0.60836984418E+02  0.13902637729E+03  0.12500877933E+03 0.  0.
    9000005    1    3    3    0    0  0.55551001574E+01  0.62224593338E+02  0.32357426160E+02  0.70361652777E+02  0.10000000000E+01 0.  0.
    9000005    1    3    3    0    0 -0.55551001574E+01 -0.62224593338E+02  0.28479558258E+02  0.68664724513E+02  0.10000000000E+01 0.  0.
<mgrwt>
<rscale>  0 0.12500878E+03</rscale>
<asrwt>0</asrwt>
<pdfrwt beam="2">  1        4 0.60145688E-02 0.12500878E+03</pdfrwt>
<pdfrwt beam="1">  1       -4 0.15374105E-01 0.12500878E+03</pdfrwt>
<totfact> 0.10151796E+04</totfact>
</mgrwt>
</event>
<event>
 5    1  0.3312904E-002  0.1249990E+03  0.7818608E-02  0.1235071E+00
          4   -1    0    0  501    0  0.00000000000E+00  0.00000000000E+00  0.14426983688E+02  0.14482774538E+02  0.12700000000E+01 0.  1.
         -4   -1    0    0    0  501 -0.00000000000E+00 -0.00000000000E+00 -0.27017598688E+03  0.27017897177E+03  0.12700000000E+01 0.  1.
         25    2    1    2    0    0  0.00000000000E+00  0.00000000000E+00 -0.25574900320E+03  0.28466174631E+03  0.12499902871E+03 0.  0.
    9000005    1    3    3    0    0  0.10120757471E+02  0.57660804911E+02 -0.17766338585E+03  0.18706276173E+03  0.10000000000E+01 0.  0.
    9000005    1    3    3    0    0 -0.10120757471E+02 -0.57660804911E+02 -0.78085617345E+02  0.97598984579E+02  0.10000000000E+01 0.  0.
<mgrwt>
<rscale>  0 0.12499903E+03</rscale>
<asrwt>0</asrwt>
<pdfrwt beam="1">  1        4 0.22240574E-02 0.12499903E+03</pdfrwt>
<pdfrwt beam="2">  1       -4 0.41570054E-01 0.12499903E+03</pdfrwt>
<totfact> 0.77565700E+03</totfact>
</mgrwt>
</event>
<event>
 5    1  0.3312904E-002  0.1249999E+03  0.7818608E-02  0.1235069E+00
         -4   -1    0    0    0  501 -0.00000000000E+00  0.00000000000E+00  0.32130534105E+01  0.34549402627E+01  0.12700000000E+01 0. -1.
          4   -1    0    0  501    0  0.00000000000E+00 -0.00000000000E+00 -0.11713978583E+04  0.11713985467E+04  0.12700000000E+01 0. -1.
         25    2    1    2    0    0  0.00000000000E+00  0.00000000000E+00 -0.11681848049E+04  0.11748534870E+04  0.12499991029E+03 0.  0.
    9000005    1    3    3    0    0 -0.44906380095E+02  0.40517452812E+02 -0.73180591746E+03  0.73430180974E+03  0.10000000000E+01 0.  0.
    9000005    1    3    3    0    0  0.44906380095E+02 -0.40517452812E+02 -0.43637888742E+03  0.44055167727E+03  0.10000000000E+01 0.  0.
<mgrwt>
<rscale>  0 0.12499991E+03</rscale>
<asrwt>0</asrwt>
<pdfrwt beam="2">  1        4 0.18023339E+00 0.12499991E+03</pdfrwt>
<pdfrwt beam="1">  1       -4 0.51297648E-03 0.12499991E+03</pdfrwt>
<totfact> 0.25380716E+03</totfact>
</mgrwt>
</event>
<event>
 5    1  0.3312904E-002  0.1249981E+03  0.7818608E-02  0.1235072E+00
          4   -1    0    0  501    0  0.00000000000E+00  0.00000000000E+00  0.48490013979E+02  0.48506642387E+02  0.12700000000E+01 0. -1.
         -4   -1    0    0    0  501 -0.00000000000E+00 -0.00000000000E+00 -0.80519954024E+02  0.80529968931E+02  0.12700000000E+01 0. -1.
         25    2    1    2    0    0  0.00000000000E+00  0.00000000000E+00 -0.32029940045E+02  0.12903661132E+03  0.12499811999E+03 0.  0.
    9000005    1    3    3    0    0 -0.28580318368E+02  0.52148759987E+02  0.38097796318E+01  0.59597333724E+02  0.10000000000E+01 0.  0.
    9000005    1    3    3    0    0  0.28580318368E+02 -0.52148759987E+02 -0.35839719676E+02  0.69439277593E+02  0.10000000000E+01 0.  0.
<mgrwt>
<rscale>  0 0.12499812E+03</rscale>
<asrwt>0</asrwt>
<pdfrwt beam="1">  1        4 0.74620516E-02 0.12499812E+03</pdfrwt>
<pdfrwt beam="2">  1       -4 0.12389735E-01 0.12499812E+03</pdfrwt>
<totfact> 0.10365600E+04</totfact>
</mgrwt>
</event>
<event>
 5    1  0.3312904E-002  0.1249978E+03  0.7818608E-02  0.1235073E+00
          4   -1    0    0  501    0  0.00000000000E+00  0.00000000000E+00  0.92153904151E+01  0.93024900162E+01  0.12700000000E+01 0. -1.
         -4   -1    0    0    0  501 -0.00000000000E+00 -0.00000000000E+00 -0.42178653272E+03  0.42178844470E+03  0.12700000000E+01 0. -1.
         25    2    1    2    0    0  0.00000000000E+00  0.00000000000E+00 -0.41257114230E+03  0.43109093472E+03  0.12499778611E+03 0.  0.
    9000005    1    3    3    0    0  0.25611243397E+02  0.52921332058E+02 -0.13324706400E+03  0.14564471580E+03  0.10000000000E+01 0.  0.
    9000005    1    3    3    0    0 -0.25611243397E+02 -0.52921332058E+02 -0.27932407830E+03  0.28544621892E+03  0.10000000000E+01 0.  0.
<mgrwt>
<rscale>  0 0.12499779E+03</rscale>
<asrwt>0</asrwt>
<pdfrwt beam="1">  1        4 0.14245997E-02 0.12499779E+03</pdfrwt>
<pdfrwt beam="2">  1       -4 0.64897068E-01 0.12499779E+03</pdfrwt>
<totfact> 0.61640245E+03</totfact>
</mgrwt>
</event>
<event>
 5    1  0.3312904E-002  0.1250328E+03  0.7818608E-02  0.1235018E+00
         -4   -1    0    0    0  501 -0.00000000000E+00  0.00000000000E+00  0.62667994456E+02  0.62680861745E+02  0.12700000000E+01 0.  1.
          4   -1    0    0  501    0  0.00000000000E+00 -0.00000000000E+00 -0.62339481467E+02  0.62352416549E+02  0.12700000000E+01 0.  1.
         25    2    1    2    0    0  0.00000000000E+00  0.00000000000E+00  0.32851298880E+00  0.12503327829E+03  0.12503284673E+03 0.  0.
    9000005    1    3    3    0    0  0.31551990117E+02  0.19503798663E+02  0.50477221248E+02  0.62648831653E+02  0.10000000000E+01 0.  0.
    9000005    1    3    3    0    0 -0.31551990117E+02 -0.19503798663E+02 -0.50148708259E+02  0.62384446641E+02  0.10000000000E+01 0.  0.
<mgrwt>
<rscale>  0 0.12503285E+03</rscale>
<asrwt>0</asrwt>
<pdfrwt beam="2">  1        4 0.95926743E-02 0.12503285E+03</pdfrwt>
<pdfrwt beam="1">  1       -4 0.96432147E-02 0.12503285E+03</pdfrwt>
<totfact> 0.10444384E+04</totfact>
</mgrwt>
</event>
<event>
 5    1  0.3312904E-002  0.1249967E+03  0.7818608E-02  0.1235074E+00
          4   -1    0    0  501    0  0.00000000000E+00  0.00000000000E+00  0.23258826063E+03  0.23259172789E+03  0.12700000000E+01 0. -1.
         -4   -1    0    0    0  501 -0.00000000000E+00 -0.00000000000E+00 -0.16766205790E+02  0.16814236723E+02  0.12700000000E+01 0. -1.
         25    2    1    2    0    0  0.00000000000E+00  0.00000000000E+00  0.21582205484E+03  0.24940596462E+03  0.12499670327E+03 0.  0.
    9000005    1    3    3    0    0 -0.36690558900E+02  0.43229575870E+02  0.55496852911E+02  0.79346669907E+02  0.10000000000E+01 0.  0.
    9000005    1    3    3    0    0  0.36690558900E+02 -0.43229575870E+02  0.16032520193E+03  0.17005929471E+03  0.10000000000E+01 0.  0.
<mgrwt>
<rscale>  0 0.12499670E+03</rscale>
<asrwt>0</asrwt>
<pdfrwt beam="1">  1        4 0.35786768E-01 0.12499670E+03</pdfrwt>
<pdfrwt beam="2">  1       -4 0.25833779E-02 0.12499670E+03</pdfrwt>
<totfact> 0.82422215E+03</totfact>
</mgrwt>
</event>
<event>
 5    1  0.3312904E-002  0.1250008E+03  0.7818608E-02  0.1235068E+00
          4   -1    0    0  501    0  0.00000000000E+00  0.00000000000E+00  0.11828406937E+03  0.11829088709E+03  0.12700000000E+01 0. -1.
         -4   -1    0    0    0  501 -0.00000000000E+00 -0.00000000000E+00 -0.33004728837E+02  0.33029154176E+02  0.12700000000E+01 0. -1.
         25    2    1    2    0    0  0.00000000000E+00  0.00000000000E+00  0.85279340538E+02  0.15132004126E+03  0.12500075586E+03 0.  0.
    9000005    1    3    3    0    0  0.58934700242E+02 -0.18504491860E+02  0.31182047925E+02  0.69202855609E+02  0.10000000000E+01 0.  0.
    9000005    1    3    3    0    0 -0.58934700242E+02  0.18504491860E+02  0.54097292613E+02  0.82117185654E+02  0.10000000000E+01 0.  0.
<mgrwt>
<rscale>  0 0.12500076E+03</rscale>
<asrwt>0</asrwt>
<pdfrwt beam="1">  1        4 0.18199952E-01 0.12500076E+03</pdfrwt>
<pdfrwt beam="2">  1       -4 0.50800539E-02 0.12500076E+03</pdfrwt>
<totfact> 0.99039531E+03</totfact>
</mgrwt>
</event>
<event>
 5    1  0.3312904E-002  0.1250035E+03  0.7818608E-02  0.1235064E+00
          4   -1    0    0  501    0  0.00000000000E+00  0.00000000000E+00  0.51002424777E+02  0.51018234320E+02  0.12700000000E+01 0.  1.
         -4   -1    0    0    0  501 -0.00000000000E+00 -0.00000000000E+00 -0.76560817951E+02  0.76571350682E+02  0.12700000000E+01 0.  1.
         25    2    1    2    0    0  0.00000000000E+00  0.00000000000E+00 -0.25558393174E+02  0.12758958500E+03  0.12500348291E+03 0.  0.
    9000005    1    3    3    0    0 -0.29486746901E+02 -0.45302426511E+02 -0.44791885166E+02  0.70207485835E+02  0.10000000000E+01 0.  0.
    9000005    1    3    3    0    0  0.29486746901E+02  0.45302426511E+02  0.19233491992E+02  0.57382099167E+02  0.10000000000E+01 0.  0.
<mgrwt>
<rscale>  0 0.12500348E+03</rscale>
<asrwt>0</asrwt>
<pdfrwt beam="1">  1        4 0.78485532E-02 0.12500348E+03</pdfrwt>
<pdfrwt beam="2">  1       -4 0.11780614E-01 0.12500348E+03</pdfrwt>
<totfact> 0.10395543E+04</totfact>
</mgrwt>
</event>
<event>
 5    1  0.3312904E-002  0.1249979E+03  0.7818608E-02  0.1235073E+00
         -4   -1    0    0    0  501 -0.00000000000E+00  0.00000000000E+00  0.32186380395E+03  0.32186630950E+03  0.12700000000E+01 0.  1.
          4   -1    0    0  501    0  0.00000000000E+00 -0.00000000000E+00 -0.12100156813E+02  0.12166622165E+02  0.12700000000E+01 0.  1.
         25    2    1    2    0    0  0.00000000000E+00  0.00000000000E+00  0.30976364713E+03  0.33403293167E+03  0.12499792939E+03 0.  0.
    9000005    1    3    3    0    0 -0.47403337431E+01  0.15008631358E+02 -0.67296353665E+01  0.17146946417E+02  0.10000000000E+01 0.  0.
    9000005    1    3    3    0    0  0.47403337431E+01 -0.15008631358E+02  0.31649328250E+03  0.31688598525E+03  0.10000000000E+01 0.  0.
<mgrwt>
<rscale>  0 0.12499793E+03</rscale>
<asrwt>0</asrwt>
<pdfrwt beam="2">  1        4 0.18668680E-02 0.12499793E+03</pdfrwt>
<pdfrwt beam="1">  1       -4 0.49522816E-01 0.12499793E+03</pdfrwt>
<totfact> 0.71520879E+03</totfact>
</mgrwt>
</event>
<event>
 5    1  0.3312904E-002  0.1249977E+03  0.7818608E-02  0.1235073E+00
          4   -1    0    0  501    0  0.00000000000E+00  0.00000000000E+00  0.89382454140E+02  0.89391476149E+02  0.12700000000E+01 0. -1.
         -4   -1    0    0    0  501 -0.00000000000E+00 -0.00000000000E+00 -0.43680555098E+02  0.43699013647E+02  0.12700000000E+01 0. -1.
         25    2    1    2    0    0  0.00000000000E+00  0.00000000000E+00  0.45701899042E+02  0.13309048980E+03  0.12499765957E+03 0.  0.
    9000005    1    3    3    0    0 -0.34935656098E+02  0.19715843142E+02 -0.28166718469E+02  0.49026304849E+02  0.10000000000E+01 0.  0.
    9000005    1    3    3    0    0  0.34935656098E+02 -0.19715843142E+02  0.73868617511E+02  0.84064184947E+02  0.10000000000E+01 0.  0.
<mgrwt>
<rscale>  0 0.12499766E+03</rscale>
<asrwt>0</asrwt>
<pdfrwt beam="1">  1        4 0.13753261E-01 0.12499766E+03</pdfrwt>
<pdfrwt beam="2">  1       -4 0.67221993E-02 0.12499766E+03</pdfrwt>
<totfact> 0.10279020E+04</totfact>
</mgrwt>
</event>
<event>
 5    1  0.3312904E-002  0.1249910E+03  0.7818608E-02  0.1235083E+00
         -4   -1    0    0    0  501 -0.00000000000E+00  0.00000000000E+00  0.62684344575E+02  0.62697208509E+02  0.12700000000E+01 0. -1.
          4   -1    0    0  501    0  0.00000000000E+00 -0.00000000000E+00 -0.62281542039E+02  0.62294489152E+02  0.12700000000E+01 0. -1.
         25    2    1    2    0    0  0.00000000000E+00  0.00000000000E+00  0.40280253573E+00  0.12499169766E+03  0.12499104862E+03 0.  0.
    9000005    1    3    3    0    0 -0.52786790468E+02 -0.31009674312E+02  0.12717272654E+02  0.62536182907E+02  0.10000000000E+01 0.  0.
    9000005    1    3    3    0    0  0.52786790468E+02  0.31009674312E+02 -0.12314470119E+02  0.62455514754E+02  0.10000000000E+01 0.  0.
<mgrwt>
<rscale>  0 0.12499105E+03</rscale>
<asrwt>0</asrwt>
<pdfrwt beam="2">  1        4 0.95837611E-02 0.12499105E+03</pdfrwt>
<pdfrwt beam="1">  1       -4 0.96457308E-02 0.12499105E+03</pdfrwt>
<totfact> 0.10455158E+04</totfact>
</mgrwt>
</event>
<event>
 5    1  0.3312904E-002  0.1250009E+03  0.7818608E-02  0.1235068E+00
         -4   -1    0    0    0  501 -0.00000000000E+00  0.00000000000E+00  0.55389129770E+02  0.55403687573E+02  0.12700000000E+01 0.  1.
          4   -1    0    0  501    0  0.00000000000E+00 -0.00000000000E+00 -0.70495192012E+02  0.70506630871E+02  0.12700000000E+01 0.  1.
         25    2    1    2    0    0  0.00000000000E+00  0.00000000000E+00 -0.15106062242E+02  0.12591031844E+03  0.12500086069E+03 0.  0.
    9000005    1    3    3    0    0  0.30245508924E+02 -0.11095625782E+02 -0.61490736269E+02  0.69426323311E+02  0.10000000000E+01 0.  0.
    9000005    1    3    3    0    0 -0.30245508924E+02  0.11095625782E+02  0.46384674027E+02  0.56483995133E+02  0.10000000000E+01 0.  0.
<mgrwt>
<rscale>  0 0.12500086E+03</rscale>
<asrwt>0</asrwt>
<pdfrwt beam="2">  1        4 0.10847414E-01 0.12500086E+03</pdfrwt>
<pdfrwt beam="1">  1       -4 0.85234043E-02 0.12500086E+03</pdfrwt>
<totfact> 0.10432721E+04</totfact>
</mgrwt>
</event>
<event>
 5    1  0.3312904E-002  0.1249987E+03  0.7818608E-02  0.1235071E+00
          4   -1    0    0  501    0  0.00000000000E+00  0.00000000000E+00  0.28622549846E+03  0.28622831598E+03  0.12700000000E+01 0. -1.
         -4   -1    0    0    0  501 -0.00000000000E+00 -0.00000000000E+00 -0.13614734668E+02  0.13673839990E+02  0.12700000000E+01 0. -1.
         25    2    1    2    0    0  0.00000000000E+00  0.00000000000E+00  0.27261076379E+03  0.29990215597E+03  0.12499869847E+03 0.  0.
    9000005    1    3    3    0    0  0.28478939811E+02  0.39470788213E+02  0.23034146192E+03  0.23542978192E+03  0.10000000000E+01 0.  0.
    9000005    1    3    3    0    0 -0.28478939811E+02 -0.39470788213E+02  0.42269301869E+02  0.64472374049E+02  0.10000000000E+01 0.  0.
<mgrwt>
<rscale>  0 0.12499870E+03</rscale>
<asrwt>0</asrwt>
<pdfrwt beam="1">  1        4 0.44039453E-01 0.12499870E+03</pdfrwt>
<pdfrwt beam="2">  1       -4 0.20993380E-02 0.12499870E+03</pdfrwt>
<totfact> 0.75613299E+03</totfact>
</mgrwt>
</event>
<event>
 5    1  0.3312904E-002  0.1250007E+03  0.7818608E-02  0.1235068E+00
         -4   -1    0    0    0  501 -0.00000000000E+00  0.00000000000E+00  0.19488236923E+03  0.19488650732E+03  0.12700000000E+01 0.  1.
          4   -1    0    0  501    0  0.00000000000E+00 -0.00000000000E+00 -0.20019906030E+02  0.20060147991E+02  0.12700000000E+01 0.  1.
         25    2    1    2    0    0  0.00000000000E+00  0.00000000000E+00  0.17486246320E+03  0.21494665532E+03  0.12500073438E+03 0.  0.
    9000005    1    3    3    0    0  0.59889602551E+02 -0.13576508216E+02  0.67510270398E+02  0.91267314403E+02  0.10000000000E+01 0.  0.
    9000005    1    3    3    0    0 -0.59889602551E+02  0.13576508216E+02  0.10735219280E+03  0.12367934091E+03  0.10000000000E+01 0.  0.
<mgrwt>
<rscale>  0 0.12500073E+03</rscale>
<asrwt>0</asrwt>
<pdfrwt beam="2">  1        4 0.30833996E-02 0.12500073E+03</pdfrwt>
<pdfrwt beam="1">  1       -4 0.29985315E-01 0.12500073E+03</pdfrwt>
<totfact> 0.87672908E+03</totfact>
</mgrwt>
</event>
<event>
 5    1  0.3312904E-002  0.1250033E+03  0.7818608E-02  0.1235064E+00
         -4   -1    0    0    0  501 -0.00000000000E+00  0.00000000000E+00  0.53701437563E+02  0.53716452752E+02  0.12700000000E+01 0. -1.
          4   -1    0    0  501    0  0.00000000000E+00 -0.00000000000E+00 -0.72713212139E+02  0.72724302125E+02  0.12700000000E+01 0. -1.
         25    2    1    2    0    0  0.00000000000E+00  0.00000000000E+00 -0.19011774576E+02  0.12644075488E+03  0.12500326764E+03 0.  0.
    9000005    1    3    3    0    0  0.34452259480E+02  0.17082794089E+02  0.40321882581E+02  0.55728217737E+02  0.10000000000E+01 0.  0.
    9000005    1    3    3    0    0 -0.34452259480E+02 -0.17082794089E+02 -0.59333657158E+02  0.70712537141E+02  0.10000000000E+01 0.  0.
<mgrwt>
<rscale>  0 0.12500327E+03</rscale>
<asrwt>0</asrwt>
<pdfrwt beam="2">  1        4 0.11188656E-01 0.12500327E+03</pdfrwt>
<pdfrwt beam="1">  1       -4 0.82637677E-02 0.12500327E+03</pdfrwt>
<totfact> 0.10420552E+04</totfact>
</mgrwt>
</event>
<event>
 5    1  0.3312904E-002  0.1250006E+03  0.7818608E-02  0.1235068E+00
          4   -1    0    0  501    0  0.00000000000E+00  0.00000000000E+00  0.89979396907E+02  0.89988359068E+02  0.12700000000E+01 0. -1.
         -4   -1    0    0    0  501 -0.00000000000E+00 -0.00000000000E+00 -0.43392735894E+02  0.43411316824E+02  0.12700000000E+01 0. -1.
         25    2    1    2    0    0  0.00000000000E+00  0.00000000000E+00  0.46586661013E+02  0.13339967589E+03  0.12500062617E+03 0.  0.
    9000005    1    3    3    0    0 -0.11433770983E+02  0.22373018254E+02  0.84356919478E+02  0.88024842678E+02  0.10000000000E+01 0.  0.
    9000005    1    3    3    0    0  0.11433770983E+02 -0.22373018254E+02 -0.37770258465E+02  0.45374833214E+02  0.10000000000E+01 0.  0.
<mgrwt>
<rscale>  0 0.12500063E+03</rscale>
<asrwt>0</asrwt>
<pdfrwt beam="1">  1        4 0.13845103E-01 0.12500063E+03</pdfrwt>
<pdfrwt beam="2">  1       -4 0.66779243E-02 0.12500063E+03</pdfrwt>
<totfact> 0.10271768E+04</totfact>
</mgrwt>
</event>
<event>
 5    1  0.3312904E-002  0.1250020E+03  0.7818608E-02  0.1235066E+00
         -4   -1    0    0    0  501 -0.00000000000E+00  0.00000000000E+00  0.10349490956E+03  0.10350270143E+03  0.12700000000E+01 0.  1.
          4   -1    0    0  501    0  0.00000000000E+00 -0.00000000000E+00 -0.37724732549E+02  0.37746103718E+02  0.12700000000E+01 0.  1.
         25    2    1    2    0    0  0.00000000000E+00  0.00000000000E+00  0.65770177008E+02  0.14124880515E+03  0.12500203508E+03 0.  0.
    9000005    1    3    3    0    0  0.41808048766E+02  0.87940674790E+01  0.84421336203E+02  0.94621406514E+02  0.10000000000E+01 0.  0.
    9000005    1    3    3    0    0 -0.41808048766E+02 -0.87940674790E+01 -0.18651159195E+02  0.46627398639E+02  0.10000000000E+01 0.  0.
<mgrwt>
<rscale>  0 0.12500204E+03</rscale>
<asrwt>0</asrwt>
<pdfrwt beam="2">  1        4 0.58060485E-02 0.12500204E+03</pdfrwt>
<pdfrwt beam="1">  1       -4 0.15924537E-01 0.12500204E+03</pdfrwt>
<totfact> 0.10107306E+04</totfact>
</mgrwt>
</event>
<event>
 5    1  0.3312904E-002  0.1249984E+03  0.7818608E-02  0.1235072E+00
         -4   -1    0    0    0  501 -0.00000000000E+00  0.00000000000E+00  0.92427971180E+02  0.92436695941E+02  0.12700000000E+01 0. -1.
          4   -1    0    0  501    0  0.00000000000E+00 -0.00000000000E+00 -0.42241311470E+02  0.42260398657E+02  0.12700000000E+01 0. -1.
         25    2    1    2    0    0  0.00000000000E+00  0.00000000000E+00  0.50186659710E+02  0.13469709460E+03  0.12499842591E+03 0.  0.
    9000005    1    3    3    0    0 -0.61667237803E+02 -0.10067561755E+02  0.26142308645E+02  0.67739385288E+02  0.10000000000E+01 0.  0.
    9000005    1    3    3    0    0  0.61667237803E+02  0.10067561755E+02  0.24044351065E+02  0.66957709310E+02  0.10000000000E+01 0.  0.
<mgrwt>
<rscale>  0 0.12499843E+03</rscale>
<asrwt>0</asrwt>
<pdfrwt beam="2">  1        4 0.65008028E-02 0.12499843E+03</pdfrwt>
<pdfrwt beam="1">  1       -4 0.14221827E-01 0.12499843E+03</pdfrwt>
<totfact> 0.10244823E+04</totfact>
</mgrwt>
</event>
<event>
 5    1  0.3312904E-002  0.1249986E+03  0.7818608E-02  0.1235072E+00
          4   -1    0    0  501    0  0.00000000000E+00  0.00000000000E+00  0.23633395666E+02  0.23667494390E+02  0.12700000000E+01 0.  1.
         -4   -1    0    0    0  501 -0.00000000000E+00 -0.00000000000E+00 -0.16512572810E+03  0.16513061188E+03  0.12700000000E+01 0.  1.
         25    2    1    2    0    0  0.00000000000E+00  0.00000000000E+00 -0.14149233244E+03  0.18879810627E+03  0.12499857917E+03 0.  0.
    9000005    1    3    3    0    0 -0.23629797092E+02 -0.35297307844E+02 -0.13997621254E+03  0.14628262825E+03  0.10000000000E+01 0.  0.
    9000005    1    3    3    0    0  0.23629797092E+02  0.35297307844E+02 -0.15161198940E+01  0.42515478019E+02  0.10000000000E+01 0.  0.
<mgrwt>
<rscale>  0 0.12499858E+03</rscale>
<asrwt>0</asrwt>
<pdfrwt beam="1">  1        4 0.36389058E-02 0.12499858E+03</pdfrwt>
<pdfrwt beam="2">  1       -4 0.25406956E-01 0.12499858E+03</pdfrwt>
<totfact> 0.92059792E+03</totfact>
</mgrwt>
</event>
<event>
 5    1  0.3312904E-002  0.1249919E+03  0.7818608E-02  0.1235082E+00
          4   -1    0    0  501    0  0.00000000000E+00  0.00000000000E+00  0.14185296437E+03  0.14185864937E+03  0.12700000000E+01 0.  1.
         -4   -1    0    0    0  501 -0.00000000000E+00 -0.00000000000E+00 -0.27512864818E+02  0.27542160963E+02  0.12700000000E+01 0.  1.
         25    2    1    2    0    0  0.00000000000E+00  0.00000000000E+00  0.11434009955E+03  0.16940081033E+03  0.12499190444E+03 0.  0.
    9000005    1    3    3    0    0  0.55808177680E+02  0.33615330478E+01  0.94994451258E+02  0.11023065985E+03  0.10000000000E+01 0.  0.
    9000005    1    3    3    0    0 -0.55808177680E+02 -0.33615330478E+01  0.19345648294E+02  0.59170150484E+02  0.10000000000E+01 0.  0.
<mgrwt>
<rscale>  0 0.12499190E+03</rscale>
<asrwt>0</asrwt>
<pdfrwt beam="1">  1        4 0.21826224E-01 0.12499190E+03</pdfrwt>
<pdfrwt beam="2">  1       -4 0.42354393E-02 0.12499190E+03</pdfrwt>
<totfact> 0.95577751E+03</totfact>
</mgrwt>
</event>
<event>
 5    1  0.3312904E-002  0.1249960E+03  0.7818608E-02  0.1235075E+00
         -4   -1    0    0    0  501 -0.00000000000E+00  0.00000000000E+00  0.43486648843E+02  0.43505189663E+02  0.12700000000E+01 0.  1.
          4   -1    0    0  501    0  0.00000000000E+00 -0.00000000000E+00 -0.89778546139E+02  0.89787528348E+02  0.12700000000E+01 0.  1.
         25    2    1    2    0    0  0.00000000000E+00  0.00000000000E+00 -0.46291897296E+02  0.13329271801E+03  0.12499603562E+03 0.  0.
    9000005    1    3    3    0    0 -0.18564861304E+02  0.53876046447E+02 -0.50494267469E+02  0.76144293964E+02  0.10000000000E+01 0.  0.
    9000005    1    3    3    0    0  0.18564861304E+02 -0.53876046447E+02  0.42023701735E+01  0.57148424047E+02  0.10000000000E+01 0.  0.
<mgrwt>
<rscale>  0 0.12499604E+03</rscale>
<asrwt>0</asrwt>
<pdfrwt beam="2">  1        4 0.13814201E-01 0.12499604E+03</pdfrwt>
<pdfrwt beam="1">  1       -4 0.66923708E-02 0.12499604E+03</pdfrwt>
<totfact> 0.10275101E+04</totfact>
</mgrwt>
</event>
<event>
 5    1  0.3312904E-002  0.1250010E+03  0.7818608E-02  0.1235068E+00
         -4   -1    0    0    0  501 -0.00000000000E+00  0.00000000000E+00  0.16737005688E+03  0.16737487518E+03  0.12700000000E+01 0. -1.
          4   -1    0    0  501    0  0.00000000000E+00 -0.00000000000E+00 -0.23316942620E+02  0.23351503445E+02  0.12700000000E+01 0. -1.
         25    2    1    2    0    0  0.00000000000E+00  0.00000000000E+00  0.14405311426E+03  0.19072637862E+03  0.12500100709E+03 0.  0.
    9000005    1    3    3    0    0 -0.12983678600E+01  0.26154714776E+02 -0.14549017497E+02  0.29973801465E+02  0.10000000000E+01 0.  0.
    9000005    1    3    3    0    0  0.12983678600E+01 -0.26154714776E+02  0.15860213176E+03  0.16075257716E+03  0.10000000000E+01 0.  0.
<mgrwt>
<rscale>  0 0.12500101E+03</rscale>
<asrwt>0</asrwt>
<pdfrwt beam="2">  1        4 0.35902510E-02 0.12500101E+03</pdfrwt>
<pdfrwt beam="1">  1       -4 0.25752270E-01 0.12500101E+03</pdfrwt>
<totfact> 0.91719010E+03</totfact>
</mgrwt>
</event>
<event>
 5    1  0.3312904E-002  0.1249991E+03  0.7818608E-02  0.1235071E+00
          4   -1    0    0  501    0  0.00000000000E+00  0.00000000000E+00  0.10148262710E+02  0.10227420791E+02  0.12700000000E+01 0.  1.
         -4   -1    0    0    0  501 -0.00000000000E+00 -0.00000000000E+00 -0.38333720863E+03  0.38333931238E+03  0.12700000000E+01 0.  1.
         25    2    1    2    0    0  0.00000000000E+00  0.00000000000E+00 -0.37318894592E+03  0.39356673317E+03  0.12499913642E+03 0.  0.
    9000005    1    3    3    0    0 -0.60675819364E+02 -0.14854674060E+02 -0.19202938499E+03  0.20193687404E+03  0.10000000000E+01 0.  0.
    9000005    1    3    3    0    0  0.60675819364E+02  0.14854674060E+02 -0.18115956092E+03  0.19162985913E+03  0.10000000000E+01 0.  0.
<mgrwt>
<rscale>  0 0.12499914E+03</rscale>
<asrwt>0</asrwt>
<pdfrwt beam="1">  1        4 0.15675224E-02 0.12499914E+03</pdfrwt>
<pdfrwt beam="2">  1       -4 0.58981195E-01 0.12499914E+03</pdfrwt>
<totfact> 0.65184575E+03</totfact>
</mgrwt>
</event>
<event>
 5    1  0.3312904E-002  0.1250002E+03  0.7818608E-02  0.1235069E+00
         -4   -1    0    0    0  501 -0.00000000000E+00  0.00000000000E+00  0.66923604619E+03  0.66923725122E+03  0.12700000000E+01 0.  1.
          4   -1    0    0  501    0  0.00000000000E+00 -0.00000000000E+00 -0.57665891970E+01  0.59047820423E+01  0.12700000000E+01 0.  1.
         25    2    1    2    0    0  0.00000000000E+00  0.00000000000E+00  0.66346945699E+03  0.67514203326E+03  0.12500017886E+03 0.  0.
    9000005    1    3    3    0    0 -0.38450696008E+02  0.49236383412E+02  0.32305300665E+03  0.32903939366E+03  0.10000000000E+01 0.  0.
    9000005    1    3    3    0    0  0.38450696008E+02 -0.49236383412E+02  0.34041645035E+03  0.34610263961E+03  0.10000000000E+01 0.  0.
<mgrwt>
<rscale>  0 0.12500018E+03</rscale>
<asrwt>0</asrwt>
<pdfrwt beam="2">  1        4 0.89789068E-03 0.12500018E+03</pdfrwt>
<pdfrwt beam="1">  1       -4 0.10297009E+00 0.12500018E+03</pdfrwt>
<totfact> 0.44431633E+03</totfact>
</mgrwt>
</event>
<event>
 5    1  0.3312904E-002  0.1250015E+03  0.7818608E-02  0.1235067E+00
         -4   -1    0    0    0  501 -0.00000000000E+00  0.00000000000E+00  0.49148987439E+03  0.49149151522E+03  0.12700000000E+01 0. -1.
          4   -1    0    0  501    0  0.00000000000E+00 -0.00000000000E+00 -0.78955714498E+01  0.79970587417E+01  0.12700000000E+01 0. -1.
         25    2    1    2    0    0  0.00000000000E+00  0.00000000000E+00  0.48359430294E+03  0.49948857396E+03  0.12500154270E+03 0.  0.
    9000005    1    3    3    0    0 -0.20771324060E+02 -0.41582245472E+02  0.40870813844E+03  0.41134398436E+03  0.10000000000E+01 0.  0.
    9000005    1    3    3    0    0  0.20771324060E+02  0.41582245472E+02  0.74886164501E+02  0.88144589598E+02  0.10000000000E+01 0.  0.
<mgrwt>
<rscale>  0 0.12500154E+03</rscale>
<asrwt>0</asrwt>
<pdfrwt beam="2">  1        4 0.12226361E-02 0.12500154E+03</pdfrwt>
<pdfrwt beam="1">  1       -4 0.75621766E-01 0.12500154E+03</pdfrwt>
<totfact> 0.55902168E+03</totfact>
</mgrwt>
</event>
<event>
 5    1  0.3312904E-002  0.1249999E+03  0.7818608E-02  0.1235069E+00
          4   -1    0    0  501    0  0.00000000000E+00  0.00000000000E+00  0.31578532377E+03  0.31578787755E+03  0.12700000000E+01 0. -1.
         -4   -1    0    0    0  501 -0.00000000000E+00 -0.00000000000E+00 -0.12334733936E+02  0.12399941987E+02  0.12700000000E+01 0. -1.
         25    2    1    2    0    0  0.00000000000E+00  0.00000000000E+00  0.30345058983E+03  0.32818781954E+03  0.12499993769E+03 0.  0.
    9000005    1    3    3    0    0 -0.21549710900E+02  0.93528955014E+01 -0.31335650227E+00  0.23515205430E+02  0.10000000000E+01 0.  0.
    9000005    1    3    3    0    0  0.21549710900E+02 -0.93528955014E+01  0.30376394633E+03  0.30467261411E+03  0.10000000000E+01 0.  0.
<mgrwt>
<rscale>  0 0.12499994E+03</rscale>
<asrwt>0</asrwt>
<pdfrwt beam="1">  1        4 0.48587573E-01 0.12499994E+03</pdfrwt>
<pdfrwt beam="2">  1       -4 0.19028637E-02 0.12499994E+03</pdfrwt>
<totfact> 0.72192856E+03</totfact>
</mgrwt>
</event>
<event>
 5    1  0.3312904E-002  0.1250048E+03  0.7818608E-02  0.1235062E+00
          4   -1    0    0  501    0  0.00000000000E+00  0.00000000000E+00  0.46834401395E+02  0.46851617411E+02  0.12700000000E+01 0. -1.
         -4   -1    0    0    0  501 -0.00000000000E+00 -0.00000000000E+00 -0.83374590129E+02  0.83384262179E+02  0.12700000000E+01 0. -1.
         25    2    1    2    0    0  0.00000000000E+00  0.00000000000E+00 -0.36540188734E+02  0.13023587959E+03  0.12500479567E+03 0.  0.
    9000005    1    3    3    0    0 -0.18651007675E+01  0.62332003148E+02 -0.14000743183E+02  0.63920090949E+02  0.10000000000E+01 0.  0.
    9000005    1    3    3    0    0  0.18651007675E+01 -0.62332003148E+02 -0.22539445551E+02  0.66315788641E+02  0.10000000000E+01 0.  0.
<mgrwt>
<rscale>  0 0.12500480E+03</rscale>
<asrwt>0</asrwt>
<pdfrwt beam="1">  1        4 0.72073609E-02 0.12500480E+03</pdfrwt>
<pdfrwt beam="2">  1       -4 0.12828928E-01 0.12500480E+03</pdfrwt>
<totfact> 0.10338345E+04</totfact>
</mgrwt>
</event>
<event>
 5    1  0.3312904E-002  0.1250000E+03  0.7818608E-02  0.1235069E+00
          4   -1    0    0  501    0  0.00000000000E+00  0.00000000000E+00  0.11941103775E+04  0.11941110529E+04  0.12700000000E+01 0.  1.
         -4   -1    0    0    0  501 -0.00000000000E+00 -0.00000000000E+00 -0.31472984445E+01  0.33938749976E+01  0.12700000000E+01 0.  1.
         25    2    1    2    0    0  0.00000000000E+00  0.00000000000E+00  0.11909630791E+04  0.11975049279E+04  0.12499998624E+03 0.  0.
    9000005    1    3    3    0    0 -0.10946182282E+02  0.38783886013E+00  0.11848899633E+04  0.11849410089E+04  0.10000000000E+01 0.  0.
    9000005    1    3    3    0    0  0.10946182282E+02 -0.38783886013E+00  0.60731157386E+01  0.12563918987E+02  0.10000000000E+01 0.  0.
<mgrwt>
<rscale>  0 0.12499999E+03</rscale>
<asrwt>0</asrwt>
<pdfrwt beam="1">  1        4 0.18372846E+00 0.12499999E+03</pdfrwt>
<pdfrwt beam="2">  1       -4 0.50321872E-03 0.12499999E+03</pdfrwt>
<totfact> 0.24778130E+03</totfact>
</mgrwt>
</event>
<event>
 5    1  0.3312904E-002  0.1250042E+03  0.7818608E-02  0.1235063E+00
          4   -1    0    0  501    0  0.00000000000E+00  0.00000000000E+00  0.81573052979E+01  0.82555756749E+01  0.12700000000E+01 0.  1.
         -4   -1    0    0    0  501 -0.00000000000E+00 -0.00000000000E+00 -0.47593082407E+03  0.47593251853E+03  0.12700000000E+01 0.  1.
         25    2    1    2    0    0  0.00000000000E+00  0.00000000000E+00 -0.46777351877E+03  0.48418809421E+03  0.12500418277E+03 0.  0.
    9000005    1    3    3    0    0 -0.17479257962E+02  0.39401647764E+02 -0.40915418639E+03  0.41141969149E+03  0.10000000000E+01 0.  0.
    9000005    1    3    3    0    0  0.17479257962E+02 -0.39401647764E+02 -0.58619332377E+02  0.72768402715E+02  0.10000000000E+01 0.  0.
<mgrwt>
<rscale>  0 0.12500418E+03</rscale>
<asrwt>0</asrwt>
<pdfrwt beam="1">  1        4 0.12626600E-02 0.12500418E+03</pdfrwt>
<pdfrwt beam="2">  1       -4 0.73227795E-01 0.12500418E+03</pdfrwt>
<totfact> 0.57107145E+03</totfact>
</mgrwt>
</event>
<event>
 5    1  0.3312904E-002  0.1249971E+03  0.7818608E-02  0.1235074E+00
          4   -1    0    0  501    0  0.00000000000E+00  0.00000000000E+00  0.11616300648E+03  0.11616994867E+03  0.12700000000E+01 0. -1.
         -4   -1    0    0    0  501 -0.00000000000E+00 -0.00000000000E+00 -0.33605786231E+02  0.33629775024E+02  0.12700000000E+01 0. -1.
         25    2    1    2    0    0  0.00000000000E+00  0.00000000000E+00  0.82557220248E+02  0.14979972369E+03  0.12499705038E+03 0.  0.
    9000005    1    3    3    0    0 -0.56960574096E+02  0.25384386986E+02  0.36456296847E+02  0.72242201543E+02  0.10000000000E+01 0.  0.
    9000005    1    3    3    0    0  0.56960574096E+02 -0.25384386986E+02  0.46100923401E+02  0.77557522152E+02  0.10000000000E+01 0.  0.
<mgrwt>
<rscale>  0 0.12499705E+03</rscale>
<asrwt>0</asrwt>
<pdfrwt beam="1">  1        4 0.17873611E-01 0.12499705E+03</pdfrwt>
<pdfrwt beam="2">  1       -4 0.51725002E-02 0.12499705E+03</pdfrwt>
<totfact> 0.99350230E+03</totfact>
</mgrwt>
</event>
<event>
 5    1  0.3312904E-002  0.1250007E+03  0.7818608E-02  0.1235068E+00
         -4   -1    0    0    0  501 -0.00000000000E+00  0.00000000000E+00  0.23902428277E+03  0.23902765667E+03  0.12700000000E+01 0. -1.
          4   -1    0    0  501    0  0.00000000000E+00 -0.00000000000E+00 -0.16314488152E+02  0.16363845015E+02  0.12700000000E+01 0. -1.
         25    2    1    2    0    0  0.00000000000E+00  0.00000000000E+00  0.22270979462E+03  0.25539150168E+03  0.12500066606E+03 0.  0.
    9000005    1    3    3    0    0  0.59667941649E+02  0.27552354217E+00  0.14930157291E+03  0.16078650082E+03  0.10000000000E+01 0.  0.
    9000005    1    3    3    0    0 -0.59667941649E+02 -0.27552354217E+00  0.73408221707E+02  0.94605000862E+02  0.10000000000E+01 0.  0.
<mgrwt>
<rscale>  0 0.12500067E+03</rscale>
<asrwt>0</asrwt>
<pdfrwt beam="2">  1        4 0.25139777E-02 0.12500067E+03</pdfrwt>
<pdfrwt beam="1">  1       -4 0.36777019E-01 0.12500067E+03</pdfrwt>
<totfact> 0.81555972E+03</totfact>
</mgrwt>
</event>
<event>
 4    1  0.3312904E-002  0.1255552E+03  0.7818608E-02  0.1234204E+00
         -4   -1    0    0    0  501 -0.00000000000E+00  0.00000000000E+00  0.22891061166E+02  0.22926264007E+02  0.12700000000E+01 0. -1.
          4   -1    0    0  501    0  0.00000000000E+00 -0.00000000000E+00 -0.17199457720E+03  0.17199926595E+03  0.12700000000E+01 0. -1.
    9000005    1    1    2    0    0 -0.28976718064E+02 -0.54755773616E+02 -0.90245234269E+02  0.10946710576E+03  0.10000000000E+01 0.  0.
    9000005    1    1    2    0    0  0.28976718064E+02  0.54755773616E+02 -0.58858281764E+02  0.85458424197E+02  0.10000000000E+01 0.  0.
<mgrwt>
<rscale>  0 0.12555518E+03</rscale>
<asrwt>0</asrwt>
<pdfrwt beam="2">  1        4 0.26463772E-01 0.12555518E+03</pdfrwt>
<pdfrwt beam="1">  1       -4 0.35247704E-02 0.12555518E+03</pdfrwt>
<totfact> 0.89875361E+03</totfact>
</mgrwt>
</event>
<event>
 5    1  0.3312904E-002  0.1250002E+03  0.7818608E-02  0.1235069E+00
          4   -1    0    0  501    0  0.00000000000E+00  0.00000000000E+00  0.16934877720E+03  0.16935353919E+03  0.12700000000E+01 0. -1.
         -4   -1    0    0    0  501 -0.00000000000E+00 -0.00000000000E+00 -0.23043800955E+02  0.23078770818E+02  0.12700000000E+01 0. -1.
         25    2    1    2    0    0  0.00000000000E+00  0.00000000000E+00  0.14630497624E+03  0.19243231001E+03  0.12500019146E+03 0.  0.
    9000005    1    3    3    0    0  0.23456502355E+02  0.55215862179E+02  0.10009354324E+03  0.11669925594E+03  0.10000000000E+01 0.  0.
    9000005    1    3    3    0    0 -0.23456502355E+02 -0.55215862179E+02  0.46211432998E+02  0.75733054069E+02  0.10000000000E+01 0.  0.
<mgrwt>
<rscale>  0 0.12500019E+03</rscale>
<asrwt>0</asrwt>
<pdfrwt beam="1">  1        4 0.26056716E-01 0.12500019E+03</pdfrwt>
<pdfrwt beam="2">  1       -4 0.35482562E-02 0.12500019E+03</pdfrwt>
<totfact> 0.91425421E+03</totfact>
</mgrwt>
</event>
<event>
 5    1  0.3312904E-002  0.1250188E+03  0.7818608E-02  0.1235040E+00
         -4   -1    0    0    0  501 -0.00000000000E+00  0.00000000000E+00  0.39360261570E+02  0.39380745179E+02  0.12700000000E+01 0.  1.
          4   -1    0    0  501    0  0.00000000000E+00 -0.00000000000E+00 -0.99223010963E+02  0.99231138281E+02  0.12700000000E+01 0.  1.
         25    2    1    2    0    0  0.00000000000E+00  0.00000000000E+00 -0.59862749393E+02  0.13861188346E+03  0.12501882047E+03 0.  0.
    9000005    1    3    3    0    0  0.24087655387E+02 -0.57652455583E+02 -0.28211740902E+02  0.68563278083E+02  0.10000000000E+01 0.  0.
    9000005    1    3    3    0    0 -0.24087655387E+02  0.57652455583E+02 -0.31651008491E+02  0.70048605377E+02  0.10000000000E+01 0.  0.
<mgrwt>
<rscale>  0 0.12501882E+03</rscale>
<asrwt>0</asrwt>
<pdfrwt beam="2">  1        4 0.15267279E-01 0.12501882E+03</pdfrwt>
<pdfrwt beam="1">  1       -4 0.60576257E-02 0.12501882E+03</pdfrwt>
<totfact> 0.10158128E+04</totfact>
</mgrwt>
</event>
<event>
 5    1  0.3312904E-002  0.1250029E+03  0.7818608E-02  0.1235065E+00
         -4   -1    0    0    0  501 -0.00000000000E+00  0.00000000000E+00  0.67879137762E+03  0.67879256569E+03  0.12700000000E+01 0. -1.
          4   -1    0    0  501    0  0.00000000000E+00 -0.00000000000E+00 -0.56837059401E+01  0.58238658307E+01  0.12700000000E+01 0. -1.
         25    2    1    2    0    0  0.00000000000E+00  0.00000000000E+00  0.67310767168E+03  0.68461643152E+03  0.12500288248E+03 0.  0.
    9000005    1    3    3    0    0 -0.25869153952E+02  0.30771859516E+02  0.59860106043E+03  0.59995028962E+03  0.10000000000E+01 0.  0.
    9000005    1    3    3    0    0  0.25869153952E+02 -0.30771859516E+02  0.74506611252E+02  0.84666141902E+02  0.10000000000E+01 0.  0.
<mgrwt>
<rscale>  0 0.12500288E+03</rscale>
<asrwt>0</asrwt>
<pdfrwt beam="2">  1        4 0.88528970E-03 0.12500288E+03</pdfrwt>
<pdfrwt beam="1">  1       -4 0.10444026E+00 0.12500288E+03</pdfrwt>
<totfact> 0.43908559E+03</totfact>
</mgrwt>
</event>
<event>
 5    1  0.3312904E-002  0.1250000E+03  0.7818608E-02  0.1235069E+00
          4   -1    0    0  501    0  0.00000000000E+00  0.00000000000E+00  0.48038660768E+02  0.48055445356E+02  0.12700000000E+01 0. -1.
         -4   -1    0    0    0  501 -0.00000000000E+00 -0.00000000000E+00 -0.81278777405E+02  0.81288698824E+02  0.12700000000E+01 0. -1.
         25    2    1    2    0    0  0.00000000000E+00  0.00000000000E+00 -0.33240116637E+02  0.12934414418E+03  0.12500000912E+03 0.  0.
    9000005    1    3    3    0    0 -0.17687126400E+02 -0.50311148774E+02  0.17088195531E+02  0.56009397048E+02  0.10000000000E+01 0.  0.
    9000005    1    3    3    0    0  0.17687126400E+02  0.50311148774E+02 -0.50328312168E+02  0.73334747132E+02  0.10000000000E+01 0.  0.
<mgrwt>
<rscale>  0 0.12500001E+03</rscale>
<asrwt>0</asrwt>
<pdfrwt beam="1">  1        4 0.73926175E-02 0.12500001E+03</pdfrwt>
<pdfrwt beam="2">  1       -4 0.12506482E-01 0.12500001E+03</pdfrwt>
<totfact> 0.10358556E+04</totfact>
</mgrwt>
</event>
<event>
 5    1  0.3312904E-002  0.1249958E+03  0.7818608E-02  0.1235076E+00
         -4   -1    0    0    0  501 -0.00000000000E+00  0.00000000000E+00  0.32011510556E+03  0.32011762480E+03  0.12700000000E+01 0. -1.
          4   -1    0    0  501    0  0.00000000000E+00 -0.00000000000E+00 -0.12166209651E+02  0.12232316105E+02  0.12700000000E+01 0. -1.
         25    2    1    2    0    0  0.00000000000E+00  0.00000000000E+00  0.30794889591E+03  0.33234994091E+03  0.12499584284E+03 0.  0.
    9000005    1    3    3    0    0 -0.25759802735E+02  0.36518540864E+02  0.37837980448E+02  0.58565211757E+02  0.10000000000E+01 0.  0.
    9000005    1    3    3    0    0  0.25759802735E+02 -0.36518540864E+02  0.27011091546E+03  0.27378472915E+03  0.10000000000E+01 0.  0.
<mgrwt>
<rscale>  0 0.12499584E+03</rscale>
<asrwt>0</asrwt>
<pdfrwt beam="2">  1        4 0.18770037E-02 0.12499584E+03</pdfrwt>
<pdfrwt beam="1">  1       -4 0.49253750E-01 0.12499584E+03</pdfrwt>
<totfact> 0.71717553E+03</totfact>
</mgrwt>
</event>
<event>
 5    1  0.3312904E-002  0.1249996E+03  0.7818608E-02  0.1235070E+00
         -4   -1    0    0    0  501 -0.00000000000E+00  0.00000000000E+00  0.41196078398E+01  0.43109243503E+01  0.12700000000E+01 0.  1.
          4   -1    0    0  501    0  0.00000000000E+00 -0.00000000000E+00 -0.92649292491E+03  0.92649379534E+03  0.12700000000E+01 0.  1.
         25    2    1    2    0    0  0.00000000000E+00  0.00000000000E+00 -0.92237331707E+03  0.93080471970E+03  0.12499956064E+03 0.  0.
    9000005    1    3    3    0    0 -0.19137996992E+02 -0.59224895513E+02 -0.50289441034E+03  0.50673231506E+03  0.10000000000E+01 0.  0.
    9000005    1    3    3    0    0  0.19137996992E+02  0.59224895513E+02 -0.41947890674E+03  0.42407240464E+03  0.10000000000E+01 0.  0.
<mgrwt>
<rscale>  0 0.12499956E+03</rscale>
<asrwt>0</asrwt>
<pdfrwt beam="2">  1        4 0.14255199E+00 0.12499956E+03</pdfrwt>
<pdfrwt beam="1">  1       -4 0.64857017E-03 0.12499956E+03</pdfrwt>
<totfact> 0.33007787E+03</totfact>
</mgrwt>
</event>
<event>
 5    1  0.3312904E-002  0.1249962E+03  0.7818608E-02  0.1235075E+00
         -4   -1    0    0    0  501 -0.00000000000E+00  0.00000000000E+00  0.12704724465E+02  0.12768043065E+02  0.12700000000E+01 0. -1.
          4   -1    0    0  501    0  0.00000000000E+00 -0.00000000000E+00 -0.30661677619E+03  0.30661940634E+03  0.12700000000E+01 0. -1.
         25    2    1    2    0    0  0.00000000000E+00  0.00000000000E+00 -0.29391205173E+03  0.31938744940E+03  0.12499619468E+03 0.  0.
    9000005    1    3    3    0    0  0.32826555187E+02  0.52217871824E+02 -0.12131200953E+03  0.13609515980E+03  0.10000000000E+01 0.  0.
    9000005    1    3    3    0    0 -0.32826555187E+02 -0.52217871824E+02 -0.17260004220E+03  0.18329228961E+03  0.10000000000E+01 0.  0.
<mgrwt>
<rscale>  0 0.12499619E+03</rscale>
<asrwt>0</asrwt>
<pdfrwt beam="2">  1        4 0.47176879E-01 0.12499619E+03</pdfrwt>
<pdfrwt beam="1">  1       -4 0.19596462E-02 0.12499619E+03</pdfrwt>
<totfact> 0.73235219E+03</totfact>
</mgrwt>
</event>
<event>
 5    1  0.3312904E-002  0.1250015E+03  0.7818608E-02  0.1235067E+00
          4   -1    0    0  501    0  0.00000000000E+00  0.00000000000E+00  0.37293865413E+03  0.37294081654E+03  0.12700000000E+01 0.  1.
         -4   -1    0    0    0  501 -0.00000000000E+00 -0.00000000000E+00 -0.10433789155E+02  0.10510797122E+02  0.12700000000E+01 0.  1.
         25    2    1    2    0    0  0.00000000000E+00  0.00000000000E+00  0.36250486497E+03  0.38345161366E+03  0.12500145156E+03 0.  0.
    9000005    1    3    3    0    0  0.41830706166E+02 -0.27530809161E+02  0.29593171971E+03  0.30014052735E+03  0.10000000000E+01 0.  0.
    9000005    1    3    3    0    0 -0.41830706166E+02  0.27530809161E+02  0.66573145266E+02  0.83311086309E+02  0.10000000000E+01 0.  0.
<mgrwt>
<rscale>  0 0.12500145E+03</rscale>
<asrwt>0</asrwt>
<pdfrwt beam="1">  1        4 0.57381262E-01 0.12500145E+03</pdfrwt>
<pdfrwt beam="2">  1       -4 0.16112885E-02 0.12500145E+03</pdfrwt>
<totfact> 0.66192608E+03</totfact>
</mgrwt>
</event>
<event>
 4    1  0.3312904E-002  0.1250645E+03  0.7818608E-02  0.1234968E+00
          4   -1    0    0  501    0  0.00000000000E+00  0.00000000000E+00  0.31762862296E+02  0.31788241871E+02  0.12700000000E+01 0.  1.
         -4   -1    0    0    0  501 -0.00000000000E+00 -0.00000000000E+00 -0.12303088872E+03  0.12303744340E+03  0.12700000000E+01 0.  1.
    9000005    1    1    2    0    0  0.86588639576E+01 -0.22468047397E+02  0.25798849206E+02  0.35303961523E+02  0.10000000000E+01 0.  0.
    9000005    1    1    2    0    0 -0.86588639576E+01  0.22468047397E+02 -0.11706687563E+03  0.11952172375E+03  0.10000000000E+01 0.  0.
<mgrwt>
<rscale>  0 0.12506454E+03</rscale>
<asrwt>0</asrwt>
<pdfrwt beam="1">  1        4 0.48890507E-02 0.12506454E+03</pdfrwt>
<pdfrwt beam="2">  1       -4 0.18930285E-01 0.12506454E+03</pdfrwt>
<totfact> 0.98207100E+03</totfact>
</mgrwt>
</event>
<event>
 5    1  0.3312904E-002  0.1249979E+03  0.7818608E-02  0.1235073E+00
          4   -1    0    0  501    0  0.00000000000E+00  0.00000000000E+00  0.40972865800E+03  0.40973062625E+03  0.12700000000E+01 0. -1.
         -4   -1    0    0    0  501 -0.00000000000E+00 -0.00000000000E+00 -0.94891381172E+01  0.95737475529E+01  0.12700000000E+01 0. -1.
         25    2    1    2    0    0  0.00000000000E+00  0.00000000000E+00  0.40023951988E+03  0.41930437380E+03  0.12499793844E+03 0.  0.
    9000005    1    3    3    0    0 -0.39458515500E+02  0.47832553811E+02  0.22614539611E+03  0.23449449424E+03  0.10000000000E+01 0.  0.
    9000005    1    3    3    0    0  0.39458515500E+02 -0.47832553811E+02  0.17409412378E+03  0.18480987956E+03  0.10000000000E+01 0.  0.
<mgrwt>
<rscale>  0 0.12499794E+03</rscale>
<asrwt>0</asrwt>
<pdfrwt beam="1">  1        4 0.63041827E-01 0.12499794E+03</pdfrwt>
<pdfrwt beam="2">  1       -4 0.14665275E-02 0.12499794E+03</pdfrwt>
<totfact> 0.62720454E+03</totfact>
</mgrwt>
</event>
<event>
 5    1  0.3312904E-002  0.1249971E+03  0.7818608E-02  0.1235074E+00
         -4   -1    0    0    0  501 -0.00000000000E+00  0.00000000000E+00  0.28595545975E+03  0.28595827993E+03  0.12700000000E+01 0.  1.
          4   -1    0    0  501    0  0.00000000000E+00 -0.00000000000E+00 -0.13627299461E+02  0.13686350521E+02  0.12700000000E+01 0.  1.
         25    2    1    2    0    0  0.00000000000E+00  0.00000000000E+00  0.27232816029E+03  0.29964463046E+03  0.12499711066E+03 0.  0.
    9000005    1    3    3    0    0  0.60006617592E+02  0.80388499090E+01  0.17327461342E+03  0.18354974507E+03  0.10000000000E+01 0.  0.
    9000005    1    3    3    0    0 -0.60006617592E+02 -0.80388499090E+01  0.99053546878E+02  0.11609488538E+03  0.10000000000E+01 0.  0.
<mgrwt>
<rscale>  0 0.12499711E+03</rscale>
<asrwt>0</asrwt>
<pdfrwt beam="2">  1        4 0.21012670E-02 0.12499711E+03</pdfrwt>
<pdfrwt beam="1">  1       -4 0.43997905E-01 0.12499711E+03</pdfrwt>
<totfact> 0.75648290E+03</totfact>
</mgrwt>
</event>
<event>
 5    1  0.3312904E-002  0.1249987E+03  0.7818608E-02  0.1235071E+00
          4   -1    0    0  501    0  0.00000000000E+00  0.00000000000E+00  0.17803585445E+03  0.17804038410E+03  0.12700000000E+01 0.  1.
         -4   -1    0    0    0  501 -0.00000000000E+00 -0.00000000000E+00 -0.21917159298E+02  0.21953923833E+02  0.12700000000E+01 0.  1.
         25    2    1    2    0    0  0.00000000000E+00  0.00000000000E+00  0.15611869515E+03  0.19999430793E+03  0.12499870491E+03 0.  0.
    9000005    1    3    3    0    0  0.45754707306E+02  0.10596397270E+02  0.14401604929E+03  0.15148399034E+03  0.10000000000E+01 0.  0.
    9000005    1    3    3    0    0 -0.45754707306E+02 -0.10596397270E+02  0.12102645858E+02  0.48510317588E+02  0.10000000000E+01 0.  0.
<mgrwt>
<rscale>  0 0.12499870E+03</rscale>
<asrwt>0</asrwt>
<pdfrwt beam="1">  1        4 0.27393307E-01 0.12499870E+03</pdfrwt>
<pdfrwt beam="2">  1       -4 0.33750473E-02 0.12499870E+03</pdfrwt>
<totfact> 0.90139079E+03</totfact>
</mgrwt>
</event>
<event>
 5    1  0.3312904E-002  0.1249975E+03  0.7818608E-02  0.1235073E+00
          4   -1    0    0  501    0  0.00000000000E+00  0.00000000000E+00  0.67806479836E+03  0.67806598770E+03  0.12700000000E+01 0. -1.
         -4   -1    0    0    0  501 -0.00000000000E+00 -0.00000000000E+00 -0.56894398879E+01  0.58294619167E+01  0.12700000000E+01 0. -1.
         25    2    1    2    0    0  0.00000000000E+00  0.00000000000E+00  0.67237535847E+03  0.68389544961E+03  0.12499745328E+03 0.  0.
    9000005    1    3    3    0    0 -0.56033593385E+02  0.24042152924E+02  0.41106665642E+03  0.41556537961E+03  0.10000000000E+01 0.  0.
    9000005    1    3    3    0    0  0.56033593385E+02 -0.24042152924E+02  0.26130870205E+03  0.26833007001E+03  0.10000000000E+01 0.  0.
<mgrwt>
<rscale>  0 0.12499745E+03</rscale>
<asrwt>0</asrwt>
<pdfrwt beam="1">  1        4 0.10432845E+00 0.12499745E+03</pdfrwt>
<pdfrwt beam="2">  1       -4 0.88616146E-03 0.12499745E+03</pdfrwt>
<totfact> 0.43953051E+03</totfact>
</mgrwt>
</event>
<event>
 5    1  0.3312904E-002  0.1249998E+03  0.7818608E-02  0.1235070E+00
         -4   -1    0    0    0  501 -0.00000000000E+00  0.00000000000E+00  0.60372902235E+02  0.60386258571E+02  0.12700000000E+01 0.  1.
          4   -1    0    0  501    0  0.00000000000E+00 -0.00000000000E+00 -0.64675059276E+02  0.64687527332E+02  0.12700000000E+01 0.  1.
         25    2    1    2    0    0  0.00000000000E+00  0.00000000000E+00 -0.43021570414E+01  0.12507378590E+03  0.12499977346E+03 0.  0.
    9000005    1    3    3    0    0  0.33855438641E+02 -0.52035076676E+02  0.50222604568E+01  0.62290151954E+02  0.10000000000E+01 0.  0.
    9000005    1    3    3    0    0 -0.33855438641E+02  0.52035076676E+02 -0.93244174982E+01  0.62783633950E+02  0.10000000000E+01 0.  0.
<mgrwt>
<rscale>  0 0.12499977E+03</rscale>
<asrwt>0</asrwt>
<pdfrwt beam="2">  1        4 0.99519956E-02 0.12499977E+03</pdfrwt>
<pdfrwt beam="1">  1       -4 0.92901253E-02 0.12499977E+03</pdfrwt>
<totfact> 0.10451314E+04</totfact>
</mgrwt>
</event>
<event>
 5    1  0.3312904E-002  0.1249996E+03  0.7818608E-02  0.1235070E+00
          4   -1    0    0  501    0  0.00000000000E+00  0.00000000000E+00  0.49593300463E+02  0.49609559067E+02  0.12700000000E+01 0.  1.
         -4   -1    0    0    0  501 -0.00000000000E+00 -0.00000000000E+00 -0.78730853808E+02  0.78741096267E+02  0.12700000000E+01 0.  1.
         25    2    1    2    0    0  0.00000000000E+00  0.00000000000E+00 -0.29137553346E+02  0.12835065533E+03  0.12499957484E+03 0.  0.
    9000005    1    3    3    0    0 -0.56893852319E+02 -0.39168001593E+01 -0.40807138999E+02  0.70131835485E+02  0.10000000000E+01 0.  0.
    9000005    1    3    3    0    0  0.56893852319E+02  0.39168001593E+01  0.11669585654E+02  0.58218819848E+02  0.10000000000E+01 0.  0.
<mgrwt>
<rscale>  0 0.12499957E+03</rscale>
<asrwt>0</asrwt>
<pdfrwt beam="1">  1        4 0.76317771E-02 0.12499957E+03</pdfrwt>
<pdfrwt beam="2">  1       -4 0.12114478E-01 0.12499957E+03</pdfrwt>
<totfact> 0.10380021E+04</totfact>
</mgrwt>
</event>
<event>
 5    1  0.3312904E-002  0.1249973E+03  0.7818608E-02  0.1235074E+00
          4   -1    0    0  501    0  0.00000000000E+00  0.00000000000E+00  0.24342218515E+02  0.24375325685E+02  0.12700000000E+01 0. -1.
         -4   -1    0    0    0  501 -0.00000000000E+00 -0.00000000000E+00 -0.16032055810E+03  0.16032558825E+03  0.12700000000E+01 0. -1.
         25    2    1    2    0    0  0.00000000000E+00  0.00000000000E+00 -0.13597833958E+03  0.18470091394E+03  0.12499727507E+03 0.  0.
    9000005    1    3    3    0    0 -0.12681455862E+02  0.60834446975E+02 -0.77727075687E+02  0.99519583783E+02  0.10000000000E+01 0.  0.
    9000005    1    3    3    0    0  0.12681455862E+02 -0.60834446975E+02 -0.58251263893E+02  0.85181330153E+02  0.10000000000E+01 0.  0.
<mgrwt>
<rscale>  0 0.12499728E+03</rscale>
<asrwt>0</asrwt>
<pdfrwt beam="1">  1        4 0.37478904E-02 0.12499728E+03</pdfrwt>
<pdfrwt beam="2">  1       -4 0.24667634E-01 0.12499728E+03</pdfrwt>
<totfact> 0.92783269E+03</totfact>
</mgrwt>
</event>
<event>
 5    1  0.3312904E-002  0.1250010E+03  0.7818608E-02  0.1235068E+00
          4   -1    0    0  501    0  0.00000000000E+00  0.00000000000E+00  0.10948204294E+04  0.10948211660E+04  0.12700000000E+01 0. -1.
         -4   -1    0    0    0  501 -0.00000000000E+00 -0.00000000000E+00 -0.34542226166E+01  0.36802926358E+01  0.12700000000E+01 0. -1.
         25    2    1    2    0    0  0.00000000000E+00  0.00000000000E+00  0.10913662068E+04  0.10985014586E+04  0.12500102930E+03 0.  0.
    9000005    1    3    3    0    0  0.11750194797E+02  0.23736559383E+02  0.48265321711E+02  0.55063895694E+02  0.10000000000E+01 0.  0.
    9000005    1    3    3    0    0 -0.11750194797E+02 -0.23736559383E+02  0.10431008850E+04  0.10434375629E+04  0.10000000000E+01 0.  0.
<mgrwt>
<rscale>  0 0.12500103E+03</rscale>
<asrwt>0</asrwt>
<pdfrwt beam="1">  1        4 0.16845142E+00 0.12500103E+03</pdfrwt>
<pdfrwt beam="2">  1       -4 0.54886533E-03 0.12500103E+03</pdfrwt>
<totfact> 0.27526657E+03</totfact>
</mgrwt>
</event>
<event>
 5    1  0.3312904E-002  0.1249996E+03  0.7818608E-02  0.1235070E+00
         -4   -1    0    0    0  501 -0.00000000000E+00  0.00000000000E+00  0.24659546104E+02  0.24692227806E+02  0.12700000000E+01 0. -1.
          4   -1    0    0  501    0  0.00000000000E+00 -0.00000000000E+00 -0.15826604801E+03  0.15827114346E+03  0.12700000000E+01 0. -1.
         25    2    1    2    0    0  0.00000000000E+00  0.00000000000E+00 -0.13360650191E+03  0.18296337127E+03  0.12499959150E+03 0.  0.
    9000005    1    3    3    0    0  0.31154814203E+02 -0.21901883848E+02  0.57193387503E+01  0.38523055432E+02  0.10000000000E+01 0.  0.
    9000005    1    3    3    0    0 -0.31154814203E+02  0.21901883848E+02 -0.13932584066E+03  0.14444031584E+03  0.10000000000E+01 0.  0.
<mgrwt>
<rscale>  0 0.12499959E+03</rscale>
<asrwt>0</asrwt>
<pdfrwt beam="2">  1        4 0.24351528E-01 0.12499959E+03</pdfrwt>
<pdfrwt beam="1">  1       -4 0.37966824E-02 0.12499959E+03</pdfrwt>
<totfact> 0.93087143E+03</totfact>
</mgrwt>
</event>
<event>
 5    1  0.3312904E-002  0.1250004E+03  0.7818608E-02  0.1235069E+00
          4   -1    0    0  501    0  0.00000000000E+00  0.00000000000E+00  0.47537139641E+02  0.47554101245E+02  0.12700000000E+01 0. -1.
         -4   -1    0    0    0  501 -0.00000000000E+00 -0.00000000000E+00 -0.82136547665E+02  0.82146365485E+02  0.12700000000E+01 0. -1.
         25    2    1    2    0    0  0.00000000000E+00  0.00000000000E+00 -0.34599408025E+02  0.12970046673E+03  0.12500036814E+03 0.  0.
    9000005    1    3    3    0    0 -0.47001290166E+02 -0.39111499940E+02 -0.30686051859E+02  0.68421228310E+02  0.10000000000E+01 0.  0.
    9000005    1    3    3    0    0  0.47001290166E+02  0.39111499940E+02 -0.39133561657E+01  0.61279238419E+02  0.10000000000E+01 0.  0.
<mgrwt>
<rscale>  0 0.12500037E+03</rscale>
<asrwt>0</asrwt>
<pdfrwt beam="1">  1        4 0.73154660E-02 0.12500037E+03</pdfrwt>
<pdfrwt beam="2">  1       -4 0.12638452E-01 0.12500037E+03</pdfrwt>
<totfact> 0.10350833E+04</totfact>
</mgrwt>
</event>
<event>
 5    1  0.3312904E-002  0.1250070E+03  0.7818608E-02  0.1235058E+00
          4   -1    0    0  501    0  0.00000000000E+00  0.00000000000E+00  0.90750850211E+02  0.90759736194E+02  0.12700000000E+01 0.  1.
         -4   -1    0    0    0  501 -0.00000000000E+00 -0.00000000000E+00 -0.43028126367E+02  0.43046864678E+02  0.12700000000E+01 0.  1.
         25    2    1    2    0    0  0.00000000000E+00  0.00000000000E+00  0.47722723845E+02  0.13380660087E+03  0.12500699207E+03 0.  0.
    9000005    1    3    3    0    0 -0.31035043052E+02  0.47935751102E+02 -0.33164370939E+01  0.57210216622E+02  0.10000000000E+01 0.  0.
    9000005    1    3    3    0    0  0.31035043052E+02 -0.47935751102E+02  0.51039160939E+02  0.76596384251E+02  0.10000000000E+01 0.  0.
<mgrwt>
<rscale>  0 0.12500699E+03</rscale>
<asrwt>0</asrwt>
<pdfrwt beam="1">  1        4 0.13963794E-01 0.12500699E+03</pdfrwt>
<pdfrwt beam="2">  1       -4 0.66218367E-02 0.12500699E+03</pdfrwt>
<totfact> 0.10261668E+04</totfact>
</mgrwt>
</event>
<event>
 5    1  0.3312904E-002  0.1250006E+03  0.7818608E-02  0.1235068E+00
         -4   -1    0    0    0  501 -0.00000000000E+00  0.00000000000E+00  0.30548830557E+02  0.30575217880E+02  0.12700000000E+01 0. -1.
          4   -1    0    0  501    0  0.00000000000E+00 -0.00000000000E+00 -0.12778553130E+03  0.12779184211E+03  0.12700000000E+01 0. -1.
         25    2    1    2    0    0  0.00000000000E+00  0.00000000000E+00 -0.97236700741E+02  0.15836705999E+03  0.12500059887E+03 0.  0.
    9000005    1    3    3    0    0  0.58630862733E+02 -0.19528310885E+02 -0.60391565865E+02  0.86412234195E+02  0.10000000000E+01 0.  0.
    9000005    1    3    3    0    0 -0.58630862733E+02  0.19528310885E+02 -0.36845134876E+02  0.71954825793E+02  0.10000000000E+01 0.  0.
<mgrwt>
<rscale>  0 0.12500060E+03</rscale>
<asrwt>0</asrwt>
<pdfrwt beam="2">  1        4 0.19661828E-01 0.12500060E+03</pdfrwt>
<pdfrwt beam="1">  1       -4 0.47023354E-02 0.12500060E+03</pdfrwt>
<totfact> 0.97657215E+03</totfact>
</mgrwt>
</event>
<event>
 5    1  0.3312904E-002  0.1249896E+03  0.7818608E-02  0.1235086E+00
          4   -1    0    0  501    0  0.00000000000E+00  0.00000000000E+00  0.18359793058E+03  0.18360232301E+03  0.12700000000E+01 0.  1.
         -4   -1    0    0    0  501 -0.00000000000E+00 -0.00000000000E+00 -0.21248964461E+02  0.21286883066E+02  0.12700000000E+01 0.  1.
         25    2    1    2    0    0  0.00000000000E+00  0.00000000000E+00  0.16234896612E+03  0.20488920607E+03  0.12498959943E+03 0.  0.
    9000005    1    3    3    0    0  0.10958955323E+02  0.57601942800E+02  0.11658067029E+03  0.13049956016E+03  0.10000000000E+01 0.  0.
    9000005    1    3    3    0    0 -0.10958955323E+02 -0.57601942800E+02  0.45768295827E+02  0.74389645913E+02  0.10000000000E+01 0.  0.
<mgrwt>
<rscale>  0 0.12498960E+03</rscale>
<asrwt>0</asrwt>
<pdfrwt beam="1">  1        4 0.28249089E-01 0.12498960E+03</pdfrwt>
<pdfrwt beam="2">  1       -4 0.32723263E-02 0.12498960E+03</pdfrwt>
<totfact> 0.89338184E+03</totfact>
</mgrwt>
</event>
<event>
 5    1  0.3312904E-002  0.1250056E+03  0.7818608E-02  0.1235060E+00
          4   -1    0    0  501    0  0.00000000000E+00  0.00000000000E+00  0.16226375906E+03  0.16226872898E+03  0.12700000000E+01 0. -1.
         -4   -1    0    0    0  501 -0.00000000000E+00 -0.00000000000E+00 -0.24053539319E+02  0.24087043276E+02  0.12700000000E+01 0. -1.
         25    2    1    2    0    0  0.00000000000E+00  0.00000000000E+00  0.13821021974E+03  0.18635577225E+03  0.12500563592E+03 0.  0.
    9000005    1    3    3    0    0 -0.45159398691E+02  0.37420423205E+01  0.49456812379E+01  0.45594231366E+02  0.10000000000E+01 0.  0.
    9000005    1    3    3    0    0  0.45159398691E+02 -0.37420423205E+01  0.13326453850E+03  0.14076154089E+03  0.10000000000E+01 0.  0.
<mgrwt>
<rscale>  0 0.12500564E+03</rscale>
<asrwt>0</asrwt>
<pdfrwt beam="1">  1        4 0.24966614E-01 0.12500564E+03</pdfrwt>
<pdfrwt beam="2">  1       -4 0.37035042E-02 0.12500564E+03</pdfrwt>
<totfact> 0.92473615E+03</totfact>
</mgrwt>
</event>
<event>
 5    1  0.3312904E-002  0.1249987E+03  0.7818608E-02  0.1235071E+00
         -4   -1    0    0    0  501 -0.00000000000E+00  0.00000000000E+00  0.37556015643E+03  0.37556230375E+03  0.12700000000E+01 0. -1.
          4   -1    0    0  501    0  0.00000000000E+00 -0.00000000000E+00 -0.10359964655E+02  0.10437517313E+02  0.12700000000E+01 0. -1.
         25    2    1    2    0    0  0.00000000000E+00  0.00000000000E+00  0.36520019178E+03  0.38599982106E+03  0.12499872715E+03 0.  0.
    9000005    1    3    3    0    0  0.16100155154E+01  0.62292498459E+02  0.19715744175E+03  0.20677283272E+03  0.10000000000E+01 0.  0.
    9000005    1    3    3    0    0 -0.16100155154E+01 -0.62292498459E+02  0.16804275003E+03  0.17922698835E+03  0.10000000000E+01 0.  0.
<mgrwt>
<rscale>  0 0.12499873E+03</rscale>
<asrwt>0</asrwt>
<pdfrwt beam="2">  1        4 0.15999715E-02 0.12499873E+03</pdfrwt>
<pdfrwt beam="1">  1       -4 0.57784615E-01 0.12499873E+03</pdfrwt>
<totfact> 0.65939446E+03</totfact>
</mgrwt>
</event>
<event>
 5    1  0.3312904E-002  0.1250119E+03  0.7818608E-02  0.1235051E+00
          4   -1    0    0  501    0  0.00000000000E+00  0.00000000000E+00  0.14051975577E+03  0.14052549470E+03  0.12700000000E+01 0.  1.
         -4   -1    0    0    0  501 -0.00000000000E+00 -0.00000000000E+00 -0.27783049198E+02  0.27812060742E+02  0.12700000000E+01 0.  1.
         25    2    1    2    0    0  0.00000000000E+00  0.00000000000E+00  0.11273670657E+03  0.16833755544E+03  0.12501186969E+03 0.  0.
    9000005    1    3    3    0    0 -0.47133459745E+01 -0.60241772752E+02  0.77858954534E+02  0.98561166875E+02  0.10000000000E+01 0.  0.
    9000005    1    3    3    0    0  0.47133459745E+01  0.60241772752E+02  0.34877752035E+02  0.69776388568E+02  0.10000000000E+01 0.  0.
<mgrwt>
<rscale>  0 0.12501187E+03</rscale>
<asrwt>0</asrwt>
<pdfrwt beam="1">  1        4 0.21621097E-01 0.12501187E+03</pdfrwt>
<pdfrwt beam="2">  1       -4 0.42769883E-02 0.12501187E+03</pdfrwt>
<totfact> 0.95733499E+03</totfact>
</mgrwt>
</event>
<event>
 5    1  0.3312904E-002  0.1249879E+03  0.7818608E-02  0.1235088E+00
         -4   -1    0    0    0  501 -0.00000000000E+00  0.00000000000E+00  0.78665218742E+02  0.78675469746E+02  0.12700000000E+01 0. -1.
          4   -1    0    0  501    0  0.00000000000E+00 -0.00000000000E+00 -0.49625422568E+02  0.49641670651E+02  0.12700000000E+01 0. -1.
         25    2    1    2    0    0  0.00000000000E+00  0.00000000000E+00  0.29039796175E+02  0.12831714040E+03  0.12498791445E+03 0.  0.
    9000005    1    3    3    0    0  0.29115957015E+02  0.46054447720E+02  0.45924629222E+02  0.71265859125E+02  0.10000000000E+01 0.  0.
    9000005    1    3    3    0    0 -0.29115957015E+02 -0.46054447720E+02 -0.16884833048E+02  0.57051281271E+02  0.10000000000E+01 0.  0.
<mgrwt>
<rscale>  0 0.12498791E+03</rscale>
<asrwt>0</asrwt>
<pdfrwt beam="2">  1        4 0.76367188E-02 0.12498791E+03</pdfrwt>
<pdfrwt beam="1">  1       -4 0.12104380E-01 0.12498791E+03</pdfrwt>
<totfact> 0.10383477E+04</totfact>
</mgrwt>
</event>
<event>
 5    1  0.3312904E-002  0.1250012E+03  0.7818608E-02  0.1235067E+00
          4   -1    0    0  501    0  0.00000000000E+00  0.00000000000E+00  0.24290544267E+03  0.24290876267E+03  0.12700000000E+01 0.  1.
         -4   -1    0    0    0  501 -0.00000000000E+00 -0.00000000000E+00 -0.16053172706E+02  0.16103330522E+02  0.12700000000E+01 0.  1.
         25    2    1    2    0    0  0.00000000000E+00  0.00000000000E+00  0.22685226997E+03  0.25901209319E+03  0.12500124811E+03 0.  0.
    9000005    1    3    3    0    0 -0.11526774179E+02  0.20923761114E+02 -0.62289949929E+01  0.24707704887E+02  0.10000000000E+01 0.  0.
    9000005    1    3    3    0    0  0.11526774179E+02 -0.20923761114E+02  0.23308126496E+03  0.23430438830E+03  0.10000000000E+01 0.  0.
<mgrwt>
<rscale>  0 0.12500125E+03</rscale>
<asrwt>0</asrwt>
<pdfrwt beam="1">  1        4 0.37374182E-01 0.12500125E+03</pdfrwt>
<pdfrwt beam="2">  1       -4 0.24738325E-02 0.12500125E+03</pdfrwt>
<totfact> 0.81042646E+03</totfact>
</mgrwt>
</event>
<event>
 5    1  0.3312904E-002  0.1249966E+03  0.7818608E-02  0.1235075E+00
          4   -1    0    0  501    0  0.00000000000E+00  0.00000000000E+00  0.94234701138E+01  0.95086638907E+01  0.12700000000E+01 0. -1.
         -4   -1    0    0    0  501 -0.00000000000E+00 -0.00000000000E+00 -0.41254969787E+03  0.41255165266E+03  0.12700000000E+01 0. -1.
         25    2    1    2    0    0  0.00000000000E+00  0.00000000000E+00 -0.40312622776E+03  0.42206031655E+03  0.12499662116E+03 0.  0.
    9000005    1    3    3    0    0 -0.83957282852E+01  0.26115142931E+01 -0.41046719617E+03  0.41056257427E+03  0.10000000000E+01 0.  0.
    9000005    1    3    3    0    0  0.83957282852E+01 -0.26115142931E+01  0.73409684122E+01  0.11497742281E+02  0.10000000000E+01 0.  0.
<mgrwt>
<rscale>  0 0.12499662E+03</rscale>
<asrwt>0</asrwt>
<pdfrwt beam="1">  1        4 0.14564687E-02 0.12499662E+03</pdfrwt>
<pdfrwt beam="2">  1       -4 0.63475874E-01 0.12499662E+03</pdfrwt>
<totfact> 0.62466990E+03</totfact>
</mgrwt>
</event>
<event>
 5    1  0.3312904E-002  0.1249984E+03  0.7818608E-02  0.1235072E+00
          4   -1    0    0  501    0  0.00000000000E+00  0.00000000000E+00  0.18708657055E+02  0.18751713223E+02  0.12700000000E+01 0.  1.
         -4   -1    0    0    0  501 -0.00000000000E+00 -0.00000000000E+00 -0.20850354080E+03  0.20850740857E+03  0.12700000000E+01 0.  1.
         25    2    1    2    0    0  0.00000000000E+00  0.00000000000E+00 -0.18979488375E+03  0.22725912179E+03  0.12499844215E+03 0.  0.
    9000005    1    3    3    0    0 -0.45315471961E+01 -0.62309980280E+02 -0.97522102352E+02  0.11582153949E+03  0.10000000000E+01 0.  0.
    9000005    1    3    3    0    0  0.45315471961E+01  0.62309980280E+02 -0.92272781395E+02  0.11143758230E+03  0.10000000000E+01 0.  0.
<mgrwt>
<rscale>  0 0.12499844E+03</rscale>
<asrwt>0</asrwt>
<pdfrwt beam="1">  1        4 0.28818646E-02 0.12499844E+03</pdfrwt>
<pdfrwt beam="2">  1       -4 0.32081076E-01 0.12499844E+03</pdfrwt>
<totfact> 0.85735227E+03</totfact>
</mgrwt>
</event>
<event>
 5    1  0.3312904E-002  0.1250006E+03  0.7818608E-02  0.1235068E+00
          4   -1    0    0  501    0  0.00000000000E+00  0.00000000000E+00  0.14628167513E+02  0.14683193957E+02  0.12700000000E+01 0. -1.
         -4   -1    0    0    0  501 -0.00000000000E+00 -0.00000000000E+00 -0.26648074220E+03  0.26648376848E+03  0.12700000000E+01 0. -1.
         25    2    1    2    0    0  0.00000000000E+00  0.00000000000E+00 -0.25185257469E+03  0.28116696244E+03  0.12500056556E+03 0.  0.
    9000005    1    3    3    0    0  0.14156086779E+02  0.59993095940E+02 -0.10279878028E+03  0.11986724148E+03  0.10000000000E+01 0.  0.
    9000005    1    3    3    0    0 -0.14156086779E+02 -0.59993095940E+02 -0.14905379440E+03  0.16129972095E+03  0.10000000000E+01 0.  0.
<mgrwt>
<rscale>  0 0.12500057E+03</rscale>
<asrwt>0</asrwt>
<pdfrwt beam="1">  1        4 0.22549531E-02 0.12500057E+03</pdfrwt>
<pdfrwt beam="2">  1       -4 0.41001499E-01 0.12500057E+03</pdfrwt>
<totfact> 0.78022650E+03</totfact>
</mgrwt>
</event>
<event>
 5    1  0.3312904E-002  0.1250321E+03  0.7818608E-02  0.1235019E+00
          4   -1    0    0  501    0  0.00000000000E+00  0.00000000000E+00  0.13511200452E+02  0.13570756709E+02  0.12700000000E+01 0. -1.
         -4   -1    0    0    0  501 -0.00000000000E+00 -0.00000000000E+00 -0.28856359450E+03  0.28856638919E+03  0.12700000000E+01 0. -1.
         25    2    1    2    0    0  0.00000000000E+00  0.00000000000E+00 -0.27505239404E+03  0.30213714590E+03  0.12503213771E+03 0.  0.
    9000005    1    3    3    0    0 -0.38035579689E+02  0.41980116858E+02 -0.73673441407E+02  0.92939827321E+02  0.10000000000E+01 0.  0.
    9000005    1    3    3    0    0  0.38035579689E+02 -0.41980116858E+02 -0.20137895264E+03  0.20919731857E+03  0.10000000000E+01 0.  0.
<mgrwt>
<rscale>  0 0.12503214E+03</rscale>
<asrwt>0</asrwt>
<pdfrwt beam="1">  1        4 0.20834427E-02 0.12503214E+03</pdfrwt>
<pdfrwt beam="2">  1       -4 0.44399191E-01 0.12503214E+03</pdfrwt>
<totfact> 0.75277829E+03</totfact>
</mgrwt>
</event>
<event>
 5    1  0.3312904E-002  0.1249955E+03  0.7818608E-02  0.1235076E+00
         -4   -1    0    0    0  501 -0.00000000000E+00  0.00000000000E+00  0.36467083509E+02  0.36489191271E+02  0.12700000000E+01 0.  1.
          4   -1    0    0  501    0  0.00000000000E+00 -0.00000000000E+00 -0.10705113568E+03  0.10705866873E+03  0.12700000000E+01 0.  1.
         25    2    1    2    0    0  0.00000000000E+00  0.00000000000E+00 -0.70584052168E+02  0.14354786000E+03  0.12499551868E+03 0.  0.
    9000005    1    3    3    0    0 -0.61354293257E+00  0.18967202938E+02 -0.10366752663E+03  0.10539491117E+03  0.10000000000E+01 0.  0.
    9000005    1    3    3    0    0  0.61354293257E+00 -0.18967202938E+02  0.33083474461E+02  0.38152948833E+02  0.10000000000E+01 0.  0.
<mgrwt>
<rscale>  0 0.12499552E+03</rscale>
<asrwt>0</asrwt>
<pdfrwt beam="2">  1        4 0.16471685E-01 0.12499552E+03</pdfrwt>
<pdfrwt beam="1">  1       -4 0.56126006E-02 0.12499552E+03</pdfrwt>
<totfact> 0.10061592E+04</totfact>
</mgrwt>
</event>
<event>
 5    1  0.3312904E-002  0.1250024E+03  0.7818608E-02  0.1235066E+00
          4   -1    0    0  501    0  0.00000000000E+00  0.00000000000E+00  0.37904114969E+02  0.37925385056E+02  0.12700000000E+01 0.  1.
         -4   -1    0    0    0  501 -0.00000000000E+00 -0.00000000000E+00 -0.10300594127E+03  0.10301377013E+03  0.12700000000E+01 0.  1.
         25    2    1    2    0    0  0.00000000000E+00  0.00000000000E+00 -0.65101826296E+02  0.14093915518E+03  0.12500239068E+03 0.  0.
    9000005    1    3    3    0    0  0.48075168142E+02  0.17692330717E+02  0.78057148131E+01  0.51828269717E+02  0.10000000000E+01 0.  0.
    9000005    1    3    3    0    0 -0.48075168142E+02 -0.17692330717E+02 -0.72907541109E+02  0.89110885467E+02  0.10000000000E+01 0.  0.
<mgrwt>
<rscale>  0 0.12500239E+03</rscale>
<asrwt>0</asrwt>
<pdfrwt beam="1">  1        4 0.58336407E-02 0.12500239E+03</pdfrwt>
<pdfrwt beam="2">  1       -4 0.15849306E-01 0.12500239E+03</pdfrwt>
<totfact> 0.10113614E+04</totfact>
</mgrwt>
</event>
<event>
 5    1  0.3312904E-002  0.1250000E+03  0.7818608E-02  0.1235069E+00
         -4   -1    0    0    0  501 -0.00000000000E+00  0.00000000000E+00  0.42317097917E+01  0.44181747092E+01  0.12700000000E+01 0. -1.
          4   -1    0    0  501    0  0.00000000000E+00 -0.00000000000E+00 -0.90300423336E+03  0.90300512643E+03  0.12700000000E+01 0. -1.
         25    2    1    2    0    0  0.00000000000E+00  0.00000000000E+00 -0.89877252357E+03  0.90742330114E+03  0.12499999335E+03 0.  0.
    9000005    1    3    3    0    0  0.19073602422E+02 -0.39797791285E+02 -0.77057480000E+03  0.77183818829E+03  0.10000000000E+01 0.  0.
    9000005    1    3    3    0    0 -0.19073602422E+02  0.39797791285E+02 -0.12819772356E+03  0.13558511285E+03  0.10000000000E+01 0.  0.
<mgrwt>
<rscale>  0 0.12499999E+03</rscale>
<asrwt>0</asrwt>
<pdfrwt beam="2">  1        4 0.13893799E+00 0.12499999E+03</pdfrwt>
<pdfrwt beam="1">  1       -4 0.66544515E-03 0.12499999E+03</pdfrwt>
<totfact> 0.33877303E+03</totfact>
</mgrwt>
</event>
<event>
 5    1  0.3312904E-002  0.1250015E+03  0.7818608E-02  0.1235067E+00
          4   -1    0    0  501    0  0.00000000000E+00  0.00000000000E+00  0.30195361875E+03  0.30195628951E+03  0.12700000000E+01 0.  1.
         -4   -1    0    0    0  501 -0.00000000000E+00 -0.00000000000E+00 -0.12902999438E+02  0.12965349764E+02  0.12700000000E+01 0.  1.
         25    2    1    2    0    0  0.00000000000E+00  0.00000000000E+00  0.28905061931E+03  0.31492163928E+03  0.12500151343E+03 0.  0.
    9000005    1    3    3    0    0 -0.22934866701E+02  0.51847483036E+02  0.78291270991E+02  0.96667950848E+02  0.10000000000E+01 0.  0.
    9000005    1    3    3    0    0  0.22934866701E+02 -0.51847483036E+02  0.21075934832E+03  0.21825368843E+03  0.10000000000E+01 0.  0.
<mgrwt>
<rscale>  0 0.12500151E+03</rscale>
<asrwt>0</asrwt>
<pdfrwt beam="1">  1        4 0.46459405E-01 0.12500151E+03</pdfrwt>
<pdfrwt beam="2">  1       -4 0.19900784E-02 0.12500151E+03</pdfrwt>
<totfact> 0.73761750E+03</totfact>
</mgrwt>
</event>
<event>
 5    1  0.3312904E-002  0.1249960E+03  0.7818608E-02  0.1235076E+00
         -4   -1    0    0    0  501 -0.00000000000E+00  0.00000000000E+00  0.68110860183E+01  0.69284769429E+01  0.12700000000E+01 0. -1.
          4   -1    0    0  501    0  0.00000000000E+00 -0.00000000000E+00 -0.56845880983E+03  0.56846022849E+03  0.12700000000E+01 0. -1.
         25    2    1    2    0    0  0.00000000000E+00  0.00000000000E+00 -0.56164772381E+03  0.57538870543E+03  0.12499598664E+03 0.  0.
    9000005    1    3    3    0    0 -0.54440079343E+01  0.61240732573E+02 -0.33227638362E+03  0.33791812567E+03  0.10000000000E+01 0.  0.
    9000005    1    3    3    0    0  0.54440079343E+01 -0.61240732573E+02 -0.22937134020E+03  0.23747057976E+03  0.10000000000E+01 0.  0.
<mgrwt>
<rscale>  0 0.12499599E+03</rscale>
<asrwt>0</asrwt>
<pdfrwt beam="2">  1        4 0.87464304E-01 0.12499599E+03</pdfrwt>
<pdfrwt beam="1">  1       -4 0.10569990E-02 0.12499599E+03</pdfrwt>
<totfact> 0.50463393E+03</totfact>
</mgrwt>
</event>
<event>
 5    1  0.3312904E-002  0.1250009E+03  0.7818608E-02  0.1235068E+00
          4   -1    0    0  501    0  0.00000000000E+00  0.00000000000E+00  0.12110808930E+03  0.12111474804E+03  0.12700000000E+01 0. -1.
         -4   -1    0    0    0  501 -0.00000000000E+00 -0.00000000000E+00 -0.32234641679E+02  0.32259650094E+02  0.12700000000E+01 0. -1.
         25    2    1    2    0    0  0.00000000000E+00  0.00000000000E+00  0.88873447620E+02  0.15337439814E+03  0.12500086525E+03 0.  0.
    9000005    1    3    3    0    0 -0.58652433232E+00  0.49180667240E+02 -0.28655154663E+01  0.49277715245E+02  0.10000000000E+01 0.  0.
    9000005    1    3    3    0    0  0.58652433232E+00 -0.49180667240E+02  0.91738963086E+02  0.10409668289E+03  0.10000000000E+01 0.  0.
<mgrwt>
<rscale>  0 0.12500087E+03</rscale>
<asrwt>0</asrwt>
<pdfrwt beam="1">  1        4 0.18634450E-01 0.12500087E+03</pdfrwt>
<pdfrwt beam="2">  1       -4 0.49616115E-02 0.12500087E+03</pdfrwt>
<totfact> 0.98633345E+03</totfact>
</mgrwt>
</event>
<event>
 5    1  0.3312904E-002  0.1249996E+03  0.7818608E-02  0.1235070E+00
          4   -1    0    0  501    0  0.00000000000E+00  0.00000000000E+00  0.50181469101E+03  0.50181629808E+03  0.12700000000E+01 0.  1.
         -4   -1    0    0    0  501 -0.00000000000E+00 -0.00000000000E+00 -0.77307621160E+01  0.78343846531E+01  0.12700000000E+01 0.  1.
         25    2    1    2    0    0  0.00000000000E+00  0.00000000000E+00  0.49408392890E+03  0.50965068273E+03  0.12499955845E+03 0.  0.
    9000005    1    3    3    0    0 -0.16311388581E+02  0.14909606496E+02  0.48537158341E+03  0.48587542822E+03  0.10000000000E+01 0.  0.
    9000005    1    3    3    0    0  0.16311388581E+02 -0.14909606496E+02  0.87123454875E+01  0.23775254514E+02  0.10000000000E+01 0.  0.
<mgrwt>
<rscale>  0 0.12499956E+03</rscale>
<asrwt>0</asrwt>
<pdfrwt beam="1">  1        4 0.77210363E-01 0.12499956E+03</pdfrwt>
<pdfrwt beam="2">  1       -4 0.11974425E-02 0.12499956E+03</pdfrwt>
<totfact> 0.55123820E+03</totfact>
</mgrwt>
</event>
<event>
 5    1  0.3312904E-002  0.1250004E+03  0.7818608E-02  0.1235069E+00
         -4   -1    0    0    0  501 -0.00000000000E+00  0.00000000000E+00  0.75878733615E+01  0.76934207054E+01  0.12700000000E+01 0. -1.
          4   -1    0    0  501    0  0.00000000000E+00 -0.00000000000E+00 -0.51114257739E+03  0.51114415513E+03  0.12700000000E+01 0. -1.
         25    2    1    2    0    0  0.00000000000E+00  0.00000000000E+00 -0.50355470403E+03  0.51883757583E+03  0.12500036059E+03 0.  0.
    9000005    1    3    3    0    0  0.55423855243E+02 -0.18236755386E+02 -0.34467209671E+03  0.34957722641E+03  0.10000000000E+01 0.  0.
    9000005    1    3    3    0    0 -0.55423855243E+02  0.18236755386E+02 -0.15888260732E+03  0.16926034942E+03  0.10000000000E+01 0.  0.
<mgrwt>
<rscale>  0 0.12500036E+03</rscale>
<asrwt>0</asrwt>
<pdfrwt beam="2">  1        4 0.78645533E-01 0.12500036E+03</pdfrwt>
<pdfrwt beam="1">  1       -4 0.11756059E-02 0.12500036E+03</pdfrwt>
<totfact> 0.54431442E+03</totfact>
</mgrwt>
</event>
<event>
 5    1  0.3312904E-002  0.1250000E+03  0.7818608E-02  0.1235069E+00
         -4   -1    0    0    0  501 -0.00000000000E+00  0.00000000000E+00  0.39974427812E+01  0.41943353214E+01  0.12700000000E+01 0. -1.
          4   -1    0    0  501    0  0.00000000000E+00 -0.00000000000E+00 -0.95350275513E+03  0.95350360091E+03  0.12700000000E+01 0. -1.
         25    2    1    2    0    0  0.00000000000E+00  0.00000000000E+00 -0.94950531235E+03  0.95769793623E+03  0.12499999550E+03 0.  0.
    9000005    1    3    3    0    0  0.16432901482E+02 -0.12550235694E+02 -0.22933461123E+02  0.30894858896E+02  0.10000000000E+01 0.  0.
    9000005    1    3    3    0    0 -0.16432901482E+02  0.12550235694E+02 -0.92657185123E+03  0.92680307733E+03  0.10000000000E+01 0.  0.
<mgrwt>
<rscale>  0 0.12500000E+03</rscale>
<asrwt>0</asrwt>
<pdfrwt beam="2">  1        4 0.14670777E+00 0.12500000E+03</pdfrwt>
<pdfrwt beam="1">  1       -4 0.63020259E-03 0.12500000E+03</pdfrwt>
<totfact> 0.32044271E+03</totfact>
</mgrwt>
</event>
<event>
 5    1  0.3312904E-002  0.1250058E+03  0.7818608E-02  0.1235060E+00
          4   -1    0    0  501    0  0.00000000000E+00  0.00000000000E+00  0.37017291591E+02  0.37039070949E+02  0.12700000000E+01 0.  1.
         -4   -1    0    0    0  501 -0.00000000000E+00 -0.00000000000E+00 -0.10547821372E+03  0.10548585910E+03  0.12700000000E+01 0.  1.
         25    2    1    2    0    0  0.00000000000E+00  0.00000000000E+00 -0.68460922134E+02  0.14252493005E+03  0.12500583117E+03 0.  0.
    9000005    1    3    3    0    0  0.85842785814E+00 -0.45719220811E+01  0.36825216022E+02  0.37131333197E+02  0.10000000000E+01 0.  0.
    9000005    1    3    3    0    0 -0.85842785814E+00  0.45719220811E+01 -0.10528613816E+03  0.10539359685E+03  0.10000000000E+01 0.  0.
<mgrwt>
<rscale>  0 0.12500583E+03</rscale>
<asrwt>0</asrwt>
<pdfrwt beam="1">  1        4 0.56972314E-02 0.12500583E+03</pdfrwt>
<pdfrwt beam="2">  1       -4 0.16229681E-01 0.12500583E+03</pdfrwt>
<totfact> 0.10080197E+04</totfact>
</mgrwt>
</event>
<event>
 5    1  0.3312904E-002  0.1249906E+03  0.7818608E-02  0.1235084E+00
          4   -1    0    0  501    0  0.00000000000E+00  0.00000000000E+00  0.61274749065E+03  0.61274880677E+03  0.12700000000E+01 0. -1.
         -4   -1    0    0    0  501 -0.00000000000E+00 -0.00000000000E+00 -0.63094224666E+01  0.64359701570E+01  0.12700000000E+01 0. -1.
         25    2    1    2    0    0  0.00000000000E+00  0.00000000000E+00  0.60643806819E+03  0.61918477693E+03  0.12499062939E+03 0.  0.
    9000005    1    3    3    0    0  0.18776401114E+02  0.51559634626E+02  0.45131471300E+03  0.45463932884E+03  0.10000000000E+01 0.  0.
    9000005    1    3    3    0    0 -0.18776401114E+02 -0.51559634626E+02  0.15512335519E+03  0.16454544809E+03  0.10000000000E+01 0.  0.
<mgrwt>
<rscale>  0 0.12499063E+03</rscale>
<asrwt>0</asrwt>
<pdfrwt beam="1">  1        4 0.94278672E-01 0.12499063E+03</pdfrwt>
<pdfrwt beam="2">  1       -4 0.98051615E-03 0.12499063E+03</pdfrwt>
<totfact> 0.47688377E+03</totfact>
</mgrwt>
</event>
<event>
 5    1  0.3312904E-002  0.1249975E+03  0.7818608E-02  0.1235073E+00
          4   -1    0    0  501    0  0.00000000000E+00  0.00000000000E+00  0.95104792522E+02  0.95113271738E+02  0.12700000000E+01 0. -1.
         -4   -1    0    0    0  501 -0.00000000000E+00 -0.00000000000E+00 -0.41051354793E+02  0.41070995001E+02  0.12700000000E+01 0. -1.
         25    2    1    2    0    0  0.00000000000E+00  0.00000000000E+00  0.54053437729E+02  0.13618426674E+03  0.12499752148E+03 0.  0.
    9000005    1    3    3    0    0 -0.25415064945E+02 -0.56689831790E+02  0.34370319355E+02  0.71006910981E+02  0.10000000000E+01 0.  0.
    9000005    1    3    3    0    0  0.25415064945E+02  0.56689831790E+02  0.19683118374E+02  0.65177355757E+02  0.10000000000E+01 0.  0.
<mgrwt>
<rscale>  0 0.12499752E+03</rscale>
<asrwt>0</asrwt>
<pdfrwt beam="1">  1        4 0.14633670E-01 0.12499752E+03</pdfrwt>
<pdfrwt beam="2">  1       -4 0.63177561E-02 0.12499752E+03</pdfrwt>
<totfact> 0.10213740E+04</totfact>
</mgrwt>
</event>
<event>
 5    1  0.3312904E-002  0.1249979E+03  0.7818608E-02  0.1235073E+00
          4   -1    0    0  501    0  0.00000000000E+00  0.00000000000E+00  0.14791192871E+03  0.14791738084E+03  0.12700000000E+01 0.  1.
         -4   -1    0    0    0  501 -0.00000000000E+00 -0.00000000000E+00 -0.26387190856E+02  0.26417735354E+02  0.12700000000E+01 0.  1.
         25    2    1    2    0    0  0.00000000000E+00  0.00000000000E+00  0.12152473785E+03  0.17433511619E+03  0.12499788329E+03 0.  0.
    9000005    1    3    3    0    0  0.62080596120E+02  0.97108055847E+00  0.50883144404E+02  0.80280992748E+02  0.10000000000E+01 0.  0.
    9000005    1    3    3    0    0 -0.62080596120E+02 -0.97108055847E+00  0.70641593446E+02  0.94054123443E+02  0.10000000000E+01 0.  0.
<mgrwt>
<rscale>  0 0.12499788E+03</rscale>
<asrwt>0</asrwt>
<pdfrwt beam="1">  1        4 0.22758450E-01 0.12499788E+03</pdfrwt>
<pdfrwt beam="2">  1       -4 0.40623368E-02 0.12499788E+03</pdfrwt>
<totfact> 0.94651248E+03</totfact>
</mgrwt>
</event>
<event>
 5    1  0.3312904E-002  0.1250018E+03  0.7818608E-02  0.1235066E+00
         -4   -1    0    0    0  501 -0.00000000000E+00  0.00000000000E+00  0.10829712330E+04  0.10829719777E+04  0.12700000000E+01 0. -1.
          4   -1    0    0  501    0  0.00000000000E+00 -0.00000000000E+00 -0.34945248885E+01  0.37181452629E+01  0.12700000000E+01 0. -1.
         25    2    1    2    0    0  0.00000000000E+00  0.00000000000E+00  0.10794767082E+04  0.10866901230E+04  0.12500183964E+03 0.  0.
    9000005    1    3    3    0    0  0.44713780713E+02  0.12516463514E+02  0.90334474638E+03  0.90453784601E+03  0.10000000000E+01 0.  0.
    9000005    1    3    3    0    0 -0.44713780713E+02 -0.12516463514E+02  0.17613196177E+03  0.18215227696E+03  0.10000000000E+01 0.  0.
<mgrwt>
<rscale>  0 0.12500184E+03</rscale>
<asrwt>0</asrwt>
<pdfrwt beam="2">  1        4 0.55487833E-03 0.12500184E+03</pdfrwt>
<pdfrwt beam="1">  1       -4 0.16662814E+00 0.12500184E+03</pdfrwt>
<totfact> 0.27875126E+03</totfact>
</mgrwt>
</event>
<event>
 5    1  0.3312904E-002  0.1249911E+03  0.7818608E-02  0.1235083E+00
         -4   -1    0    0    0  501 -0.00000000000E+00  0.00000000000E+00  0.72281673734E+01  0.73388898055E+01  0.12700000000E+01 0.  1.
          4   -1    0    0  501    0  0.00000000000E+00 -0.00000000000E+00 -0.53612465142E+03  0.53612615564E+03  0.12700000000E+01 0.  1.
         25    2    1    2    0    0  0.00000000000E+00  0.00000000000E+00 -0.52889648405E+03  0.54346504545E+03  0.12499105881E+03 0.  0.
    9000005    1    3    3    0    0 -0.23479790112E+02  0.43571077820E+02 -0.43029881524E+03  0.43313717199E+03  0.10000000000E+01 0.  0.
    9000005    1    3    3    0    0  0.23479790112E+02 -0.43571077820E+02 -0.98597668813E+02  0.11032787346E+03  0.10000000000E+01 0.  0.
<mgrwt>
<rscale>  0 0.12499106E+03</rscale>
<asrwt>0</asrwt>
<pdfrwt beam="2">  1        4 0.82489317E-01 0.12499106E+03</pdfrwt>
<pdfrwt beam="1">  1       -4 0.11206590E-02 0.12499106E+03</pdfrwt>
<totfact> 0.52653330E+03</totfact>
</mgrwt>
</event>
<event>
 5    1  0.3312904E-002  0.1249978E+03  0.7818608E-02  0.1235073E+00
         -4   -1    0    0    0  501 -0.00000000000E+00  0.00000000000E+00  0.76620491473E+01  0.77665885133E+01  0.12700000000E+01 0.  1.
          4   -1    0    0  501    0  0.00000000000E+00 -0.00000000000E+00 -0.50624009242E+03  0.50624168543E+03  0.12700000000E+01 0.  1.
         25    2    1    2    0    0  0.00000000000E+00  0.00000000000E+00 -0.49857804327E+03  0.51400827395E+03  0.12499776180E+03 0.  0.
    9000005    1    3    3    0    0  0.49522115692E+02 -0.35619811120E+02 -0.30505352323E+03  0.31109462053E+03  0.10000000000E+01 0.  0.
    9000005    1    3    3    0    0 -0.49522115692E+02  0.35619811120E+02 -0.19352452004E+03  0.20291365341E+03  0.10000000000E+01 0.  0.
<mgrwt>
<rscale>  0 0.12499776E+03</rscale>
<asrwt>0</asrwt>
<pdfrwt beam="2">  1        4 0.77891229E-01 0.12499776E+03</pdfrwt>
<pdfrwt beam="1">  1       -4 0.11869412E-02 0.12499776E+03</pdfrwt>
<totfact> 0.54796352E+03</totfact>
</mgrwt>
</event>
<event>
 5    1  0.3312904E-002  0.1249968E+03  0.7818608E-02  0.1235074E+00
          4   -1    0    0  501    0  0.00000000000E+00  0.00000000000E+00  0.20319888603E+02  0.20359537638E+02  0.12700000000E+01 0. -1.
         -4   -1    0    0    0  501 -0.00000000000E+00 -0.00000000000E+00 -0.19199872379E+03  0.19200292403E+03  0.12700000000E+01 0. -1.
         25    2    1    2    0    0  0.00000000000E+00  0.00000000000E+00 -0.17167883518E+03  0.21236246167E+03  0.12499677066E+03 0.  0.
    9000005    1    3    3    0    0  0.42394040224E+02 -0.94409544634E+00 -0.78562005954E+01  0.43137754352E+02  0.10000000000E+01 0.  0.
    9000005    1    3    3    0    0 -0.42394040224E+02  0.94409544634E+00 -0.16382263459E+03  0.16922470731E+03  0.10000000000E+01 0.  0.
<mgrwt>
<rscale>  0 0.12499677E+03</rscale>
<asrwt>0</asrwt>
<pdfrwt beam="1">  1        4 0.31295098E-02 0.12499677E+03</pdfrwt>
<pdfrwt beam="2">  1       -4 0.29541637E-01 0.12499677E+03</pdfrwt>
<totfact> 0.88097867E+03</totfact>
</mgrwt>
</event>
<event>
 5    1  0.3312904E-002  0.1249860E+03  0.7818608E-02  0.1235091E+00
          4   -1    0    0  501    0  0.00000000000E+00  0.00000000000E+00  0.11497945356E+02  0.11567871343E+02  0.12700000000E+01 0. -1.
         -4   -1    0    0    0  501 -0.00000000000E+00 -0.00000000000E+00 -0.33855757985E+03  0.33855996186E+03  0.12700000000E+01 0. -1.
         25    2    1    2    0    0  0.00000000000E+00  0.00000000000E+00 -0.32705963450E+03  0.35012783321E+03  0.12498597948E+03 0.  0.
    9000005    1    3    3    0    0 -0.15968227827E+01  0.29951768331E+02 -0.99737373373E+01  0.31624890602E+02  0.10000000000E+01 0.  0.
    9000005    1    3    3    0    0  0.15968227827E+01 -0.29951768331E+02 -0.31708589716E+03  0.31850294260E+03  0.10000000000E+01 0.  0.
<mgrwt>
<rscale>  0 0.12498598E+03</rscale>
<asrwt>0</asrwt>
<pdfrwt beam="1">  1        4 0.17744771E-02 0.12498598E+03</pdfrwt>
<pdfrwt beam="2">  1       -4 0.52091336E-01 0.12498598E+03</pdfrwt>
<totfact> 0.69732132E+03</totfact>
</mgrwt>
</event>
<event>
 4    1  0.3312904E-002  0.1249289E+03  0.7818608E-02  0.1235180E+00
          4   -1    0    0  501    0  0.00000000000E+00  0.00000000000E+00  0.57677351011E+03  0.57677490832E+03  0.12700000000E+01 0. -1.
         -4   -1    0    0    0  501 -0.00000000000E+00 -0.00000000000E+00 -0.67038602979E+01  0.68230962835E+01  0.12700000000E+01 0. -1.
    9000005    1    1    2    0    0  0.18513435376E+00  0.24360020389E+02  0.55368787712E+03  0.55422442217E+03  0.10000000000E+01 0.  0.
    9000005    1    1    2    0    0 -0.18513435376E+00 -0.24360020389E+02  0.16381772700E+02  0.29373582431E+02  0.10000000000E+01 0.  0.
<mgrwt>
<rscale>  0 0.12492888E+03</rscale>
<asrwt>0</asrwt>
<pdfrwt beam="1">  1        4 0.88743674E-01 0.12492888E+03</pdfrwt>
<pdfrwt beam="2">  1       -4 0.10406426E-02 0.12492888E+03</pdfrwt>
<totfact> 0.49997549E+03</totfact>
</mgrwt>
</event>
<event>
 5    1  0.3312904E-002  0.1249838E+03  0.7818608E-02  0.1235095E+00
          4   -1    0    0  501    0  0.00000000000E+00  0.00000000000E+00  0.87457842869E+02  0.87467063397E+02  0.12700000000E+01 0.  1.
         -4   -1    0    0    0  501 -0.00000000000E+00 -0.00000000000E+00 -0.44632182785E+02  0.44650247929E+02  0.12700000000E+01 0.  1.
         25    2    1    2    0    0  0.00000000000E+00  0.00000000000E+00  0.42825660085E+02  0.13211731133E+03  0.12498378611E+03 0.  0.
    9000005    1    3    3    0    0 -0.17302329324E+02 -0.48382347241E+02 -0.16169360570E+02  0.53876435905E+02  0.10000000000E+01 0.  0.
    9000005    1    3    3    0    0  0.17302329324E+02  0.48382347241E+02  0.58995020655E+02  0.78240875421E+02  0.10000000000E+01 0.  0.
<mgrwt>
<rscale>  0 0.12498379E+03</rscale>
<asrwt>0</asrwt>
<pdfrwt beam="1">  1        4 0.13457151E-01 0.12498379E+03</pdfrwt>
<pdfrwt beam="2">  1       -4 0.68685887E-02 0.12498379E+03</pdfrwt>
<totfact> 0.10302963E+04</totfact>
</mgrwt>
</event>
<event>
 5    1  0.3312904E-002  0.1250004E+03  0.7818608E-02  0.1235069E+00
         -4   -1    0    0    0  501 -0.00000000000E+00  0.00000000000E+00  0.90342609344E+02  0.90351535478E+02  0.12700000000E+01 0.  1.
          4   -1    0    0  501    0  0.00000000000E+00 -0.00000000000E+00 -0.43218058196E+02  0.43236714193E+02  0.12700000000E+01 0.  1.
         25    2    1    2    0    0  0.00000000000E+00  0.00000000000E+00  0.47124551149E+02  0.13358824967E+03  0.12500038852E+03 0.  0.
    9000005    1    3    3    0    0  0.56874653395E+02  0.25740962702E+02  0.26575737167E+02  0.67857152649E+02  0.10000000000E+01 0.  0.
    9000005    1    3    3    0    0 -0.56874653395E+02 -0.25740962702E+02  0.20548813982E+02  0.65731097022E+02  0.10000000000E+01 0.  0.
<mgrwt>
<rscale>  0 0.12500039E+03</rscale>
<asrwt>0</asrwt>
<pdfrwt beam="2">  1        4 0.66510538E-02 0.12500039E+03</pdfrwt>
<pdfrwt beam="1">  1       -4 0.13900984E-01 0.12500039E+03</pdfrwt>
<totfact> 0.10267823E+04</totfact>
</mgrwt>
</event>
<event>
 5    1  0.3312904E-002  0.1249989E+03  0.7818608E-02  0.1235071E+00
          4   -1    0    0  501    0  0.00000000000E+00  0.00000000000E+00  0.51251367311E+02  0.51267100086E+02  0.12700000000E+01 0. -1.
         -4   -1    0    0    0  501 -0.00000000000E+00 -0.00000000000E+00 -0.76183465057E+02  0.76194049952E+02  0.12700000000E+01 0. -1.
         25    2    1    2    0    0  0.00000000000E+00  0.00000000000E+00 -0.24932097746E+02  0.12746115004E+03  0.12499894108E+03 0.  0.
    9000005    1    3    3    0    0 -0.28685655345E+02 -0.26525045281E+02 -0.62199075751E+02  0.73458626955E+02  0.10000000000E+01 0.  0.
    9000005    1    3    3    0    0  0.28685655345E+02  0.26525045281E+02  0.37266978005E+02  0.54002523083E+02  0.10000000000E+01 0.  0.
<mgrwt>
<rscale>  0 0.12499894E+03</rscale>
<asrwt>0</asrwt>
<pdfrwt beam="1">  1        4 0.78868502E-02 0.12499894E+03</pdfrwt>
<pdfrwt beam="2">  1       -4 0.11722558E-01 0.12499894E+03</pdfrwt>
<totfact> 0.10399391E+04</totfact>
</mgrwt>
</event>
<event>
 5    1  0.3312904E-002  0.1249991E+03  0.7818608E-02  0.1235071E+00
          4   -1    0    0  501    0  0.00000000000E+00  0.00000000000E+00  0.49306473687E+02  0.49322826840E+02  0.12700000000E+01 0. -1.
         -4   -1    0    0    0  501 -0.00000000000E+00 -0.00000000000E+00 -0.79188156616E+02  0.79198339934E+02  0.12700000000E+01 0. -1.
         25    2    1    2    0    0  0.00000000000E+00  0.00000000000E+00 -0.29881682929E+02  0.12852116677E+03  0.12499910133E+03 0.  0.
    9000005    1    3    3    0    0 -0.23849014649E+02  0.55485142415E+02 -0.31449956780E+02  0.68099018422E+02  0.10000000000E+01 0.  0.
    9000005    1    3    3    0    0  0.23849014649E+02 -0.55485142415E+02  0.15682738507E+01  0.60422148352E+02  0.10000000000E+01 0.  0.
<mgrwt>
<rscale>  0 0.12499910E+03</rscale>
<asrwt>0</asrwt>
<pdfrwt beam="1">  1        4 0.75876526E-02 0.12499910E+03</pdfrwt>
<pdfrwt beam="2">  1       -4 0.12184835E-01 0.12499910E+03</pdfrwt>
<totfact> 0.10376458E+04</totfact>
</mgrwt>
</event>
<event>
 5    1  0.3312904E-002  0.1250108E+03  0.7818608E-02  0.1235052E+00
         -4   -1    0    0    0  501 -0.00000000000E+00  0.00000000000E+00  0.70759142526E+02  0.70770538722E+02  0.12700000000E+01 0.  1.
          4   -1    0    0  501    0  0.00000000000E+00 -0.00000000000E+00 -0.55191228931E+02  0.55205838920E+02  0.12700000000E+01 0.  1.
         25    2    1    2    0    0  0.00000000000E+00  0.00000000000E+00  0.15567913595E+02  0.12597637764E+03  0.12501075070E+03 0.  0.
    9000005    1    3    3    0    0  0.41986858252E+02  0.28086131789E+02  0.44867595177E+02  0.67570912097E+02  0.10000000000E+01 0.  0.
    9000005    1    3    3    0    0 -0.41986858252E+02 -0.28086131789E+02 -0.29299681582E+02  0.58405465545E+02  0.10000000000E+01 0.  0.
<mgrwt>
<rscale>  0 0.12501075E+03</rscale>
<asrwt>0</asrwt>
<pdfrwt beam="2">  1        4 0.84929589E-02 0.12501075E+03</pdfrwt>
<pdfrwt beam="1">  1       -4 0.10888022E-01 0.12501075E+03</pdfrwt>
<totfact> 0.10428944E+04</totfact>
</mgrwt>
</event>
<event>
 5    1  0.3312904E-002  0.1250015E+03  0.7818608E-02  0.1235067E+00
         -4   -1    0    0    0  501 -0.00000000000E+00  0.00000000000E+00  0.28574952326E+03  0.28575234547E+03  0.12700000000E+01 0.  1.
          4   -1    0    0  501    0  0.00000000000E+00 -0.00000000000E+00 -0.13638119666E+02  0.13697124078E+02  0.12700000000E+01 0.  1.
         25    2    1    2    0    0  0.00000000000E+00  0.00000000000E+00  0.27211140359E+03  0.29944946955E+03  0.12500147538E+03 0.  0.
    9000005    1    3    3    0    0 -0.55673014525E+02 -0.28361162150E+02  0.13311964360E+03  0.14705672231E+03  0.10000000000E+01 0.  0.
    9000005    1    3    3    0    0  0.55673014525E+02  0.28361162150E+02  0.13899175999E+03  0.15239274724E+03  0.10000000000E+01 0.  0.
<mgrwt>
<rscale>  0 0.12500148E+03</rscale>
<asrwt>0</asrwt>
<pdfrwt beam="2">  1        4 0.21029283E-02 0.12500148E+03</pdfrwt>
<pdfrwt beam="1">  1       -4 0.43966218E-01 0.12500148E+03</pdfrwt>
<totfact> 0.75665471E+03</totfact>
</mgrwt>
</event>
<event>
 5    1  0.3312904E-002  0.1249972E+03  0.7818608E-02  0.1235074E+00
          4   -1    0    0  501    0  0.00000000000E+00  0.00000000000E+00  0.48017479298E+02  0.48034271288E+02  0.12700000000E+01 0. -1.
         -4   -1    0    0    0  501 -0.00000000000E+00 -0.00000000000E+00 -0.81310932465E+02  0.81320849960E+02  0.12700000000E+01 0. -1.
         25    2    1    2    0    0  0.00000000000E+00  0.00000000000E+00 -0.33293453167E+02  0.12935512125E+03  0.12499717345E+03 0.  0.
    9000005    1    3    3    0    0  0.50007934406E+02 -0.32570597560E+02 -0.35824860728E+02  0.69613633543E+02  0.10000000000E+01 0.  0.
    9000005    1    3    3    0    0 -0.50007934406E+02  0.32570597560E+02  0.25314075612E+01  0.59741487705E+02  0.10000000000E+01 0.  0.
<mgrwt>
<rscale>  0 0.12499717E+03</rscale>
<asrwt>0</asrwt>
<pdfrwt beam="1">  1        4 0.73893591E-02 0.12499717E+03</pdfrwt>
<pdfrwt beam="2">  1       -4 0.12511429E-01 0.12499717E+03</pdfrwt>
<totfact> 0.10358983E+04</totfact>
</mgrwt>
</event>
<event>
 5    1  0.3312904E-002  0.1249982E+03  0.7818608E-02  0.1235072E+00
          4   -1    0    0  501    0  0.00000000000E+00  0.00000000000E+00  0.33935282685E+03  0.33935520328E+03  0.12700000000E+01 0.  1.
         -4   -1    0    0    0  501 -0.00000000000E+00 -0.00000000000E+00 -0.11473091813E+02  0.11543168358E+02  0.12700000000E+01 0.  1.
         25    2    1    2    0    0  0.00000000000E+00  0.00000000000E+00  0.32787973504E+03  0.35089837164E+03  0.12499818626E+03 0.  0.
    9000005    1    3    3    0    0 -0.62028693362E+02 -0.74768330935E+01  0.16030691056E+03  0.17205454776E+03  0.10000000000E+01 0.  0.
    9000005    1    3    3    0    0  0.62028693362E+02  0.74768330935E+01  0.16757282448E+03  0.17884382387E+03  0.10000000000E+01 0.  0.
<mgrwt>
<rscale>  0 0.12499819E+03</rscale>
<asrwt>0</asrwt>
<pdfrwt beam="1">  1        4 0.52213690E-01 0.12499819E+03</pdfrwt>
<pdfrwt beam="2">  1       -4 0.17706647E-02 0.12499819E+03</pdfrwt>
<totfact> 0.69628637E+03</totfact>
</mgrwt>
</event>
<event>
 5    1  0.3312904E-002  0.1249999E+03  0.7818608E-02  0.1235069E+00
         -4   -1    0    0    0  501 -0.00000000000E+00  0.00000000000E+00  0.16881997785E+04  0.16882002562E+04  0.12700000000E+01 0.  1.
          4   -1    0    0  501    0  0.00000000000E+00 -0.00000000000E+00 -0.21390720071E+01  0.24876754313E+01  0.12700000000E+01 0.  1.
         25    2    1    2    0    0  0.00000000000E+00  0.00000000000E+00  0.16860607065E+04  0.16906879316E+04  0.12499990471E+03 0.  0.
    9000005    1    3    3    0    0  0.58144556057E+02  0.21857165906E+02  0.93547894067E+03  0.93753953172E+03  0.10000000000E+01 0.  0.
    9000005    1    3    3    0    0 -0.58144556057E+02 -0.21857165906E+02  0.75058176583E+03  0.75314839992E+03  0.10000000000E+01 0.  0.
<mgrwt>
<rscale>  0 0.12499990E+03</rscale>
<asrwt>0</asrwt>
<pdfrwt beam="2">  1        4 0.35594072E-03 0.12499990E+03</pdfrwt>
<pdfrwt beam="1">  1       -4 0.25974966E+00 0.12499990E+03</pdfrwt>
<totfact> 0.14463927E+03</totfact>
</mgrwt>
</event>
<event>
 5    1  0.3312904E-002  0.1250026E+03  0.7818608E-02  0.1235065E+00
         -4   -1    0    0    0  501 -0.00000000000E+00  0.00000000000E+00  0.89166785674E+01  0.90066673456E+01  0.12700000000E+01 0.  1.
          4   -1    0    0  501    0  0.00000000000E+00 -0.00000000000E+00 -0.43581090435E+03  0.43581275481E+03  0.12700000000E+01 0.  1.
         25    2    1    2    0    0  0.00000000000E+00  0.00000000000E+00 -0.42689422579E+03  0.44481942215E+03  0.12500255324E+03 0.  0.
    9000005    1    3    3    0    0  0.10477129844E+02  0.39288795508E+02 -0.44577335174E+02  0.60344995761E+02  0.10000000000E+01 0.  0.
    9000005    1    3    3    0    0 -0.10477129844E+02 -0.39288795508E+02 -0.38231689061E+03  0.38447442639E+03  0.10000000000E+01 0.  0.
<mgrwt>
<rscale>  0 0.12500255E+03</rscale>
<asrwt>0</asrwt>
<pdfrwt beam="2">  1        4 0.67054880E-01 0.12500255E+03</pdfrwt>
<pdfrwt beam="1">  1       -4 0.13788616E-02 0.12500255E+03</pdfrwt>
<totfact> 0.60411839E+03</totfact>
</mgrwt>
</event>
<event>
 5    1  0.3312904E-002  0.1249995E+03  0.7818608E-02  0.1235070E+00
         -4   -1    0    0    0  501 -0.00000000000E+00  0.00000000000E+00  0.14307436172E+03  0.14307999819E+03  0.12700000000E+01 0.  1.
          4   -1    0    0  501    0  0.00000000000E+00 -0.00000000000E+00 -0.27281059230E+02  0.27310604034E+02  0.12700000000E+01 0.  1.
         25    2    1    2    0    0  0.00000000000E+00  0.00000000000E+00  0.11579330249E+03  0.17039060222E+03  0.12499947370E+03 0.  0.
    9000005    1    3    3    0    0 -0.16554005378E+02 -0.45584786689E+02  0.41746187235E+01  0.48687116499E+02  0.10000000000E+01 0.  0.
    9000005    1    3    3    0    0  0.16554005378E+02  0.45584786689E+02  0.11161868377E+03  0.12170348573E+03  0.10000000000E+01 0.  0.
<mgrwt>
<rscale>  0 0.12499947E+03</rscale>
<asrwt>0</asrwt>
<pdfrwt beam="2">  1        4 0.41997923E-02 0.12499947E+03</pdfrwt>
<pdfrwt beam="1">  1       -4 0.22014147E-01 0.12499947E+03</pdfrwt>
<totfact> 0.95377010E+03</totfact>
</mgrwt>
</event>
<event>
 5    1  0.3312904E-002  0.1250005E+03  0.7818608E-02  0.1235069E+00
          4   -1    0    0  501    0  0.00000000000E+00  0.00000000000E+00  0.17881527154E+03  0.17881978145E+03  0.12700000000E+01 0.  1.
         -4   -1    0    0    0  501 -0.00000000000E+00 -0.00000000000E+00 -0.21822082389E+02  0.21859006834E+02  0.12700000000E+01 0.  1.
         25    2    1    2    0    0  0.00000000000E+00  0.00000000000E+00  0.15699318916E+03  0.20067878828E+03  0.12500045850E+03 0.  0.
    9000005    1    3    3    0    0  0.12622555740E+02 -0.49620837499E+02  0.13601745778E+03  0.14533858830E+03  0.10000000000E+01 0.  0.
    9000005    1    3    3    0    0 -0.12622555740E+02  0.49620837499E+02  0.20975731373E+02  0.55340199983E+02  0.10000000000E+01 0.  0.
<mgrwt>
<rscale>  0 0.12500046E+03</rscale>
<asrwt>0</asrwt>
<pdfrwt beam="1">  1        4 0.27513229E-01 0.12500046E+03</pdfrwt>
<pdfrwt beam="2">  1       -4 0.33604307E-02 0.12500046E+03</pdfrwt>
<totfact> 0.90020225E+03</totfact>
</mgrwt>
</event>
<event>
 5    1  0.3312904E-002  0.1250060E+03  0.7818608E-02  0.1235060E+00
          4   -1    0    0  501    0  0.00000000000E+00  0.00000000000E+00  0.16554255396E+02  0.16602899497E+02  0.12700000000E+01 0. -1.
         -4   -1    0    0    0  501 -0.00000000000E+00 -0.00000000000E+00 -0.23559269105E+03  0.23559611409E+03  0.12700000000E+01 0. -1.
         25    2    1    2    0    0  0.00000000000E+00  0.00000000000E+00 -0.21903843565E+03  0.25219901359E+03  0.12500602450E+03 0.  0.
    9000005    1    3    3    0    0 -0.43902186764E+02  0.32254118933E+02 -0.17130518689E+03  0.17976150101E+03  0.10000000000E+01 0.  0.
    9000005    1    3    3    0    0  0.43902186764E+02 -0.32254118933E+02 -0.47733248761E+02  0.72437512575E+02  0.10000000000E+01 0.  0.
<mgrwt>
<rscale>  0 0.12500602E+03</rscale>
<asrwt>0</asrwt>
<pdfrwt beam="1">  1        4 0.25508139E-02 0.12500602E+03</pdfrwt>
<pdfrwt beam="2">  1       -4 0.36249032E-01 0.12500602E+03</pdfrwt>
<totfact> 0.82002435E+03</totfact>
</mgrwt>
</event>
<event>
 5    1  0.3312904E-002  0.1249995E+03  0.7818608E-02  0.1235070E+00
          4   -1    0    0  501    0  0.00000000000E+00  0.00000000000E+00  0.87202628513E+03  0.87202720993E+03  0.12700000000E+01 0.  1.
         -4   -1    0    0    0  501 -0.00000000000E+00 -0.00000000000E+00 -0.43885082503E+01  0.45685779694E+01  0.12700000000E+01 0.  1.
         25    2    1    2    0    0  0.00000000000E+00  0.00000000000E+00  0.86763777688E+03  0.87659578790E+03  0.12499945397E+03 0.  0.
    9000005    1    3    3    0    0  0.49312452481E+02 -0.34935222592E+02  0.32226732455E+03  0.32788628550E+03  0.10000000000E+01 0.  0.
    9000005    1    3    3    0    0 -0.49312452481E+02  0.34935222592E+02  0.54537045233E+03  0.54870950240E+03  0.10000000000E+01 0.  0.
<mgrwt>
<rscale>  0 0.12499945E+03</rscale>
<asrwt>0</asrwt>
<pdfrwt beam="1">  1        4 0.13417180E+00 0.12499945E+03</pdfrwt>
<pdfrwt beam="2">  1       -4 0.68907783E-03 0.12499945E+03</pdfrwt>
<totfact> 0.35063443E+03</totfact>
</mgrwt>
</event>
<event>
 5    1  0.3312904E-002  0.1250062E+03  0.7818608E-02  0.1235060E+00
         -4   -1    0    0    0  501 -0.00000000000E+00  0.00000000000E+00  0.64842398875E+02  0.64854834761E+02  0.12700000000E+01 0. -1.
          4   -1    0    0  501    0  0.00000000000E+00 -0.00000000000E+00 -0.60223289498E+02  0.60236679009E+02  0.12700000000E+01 0. -1.
         25    2    1    2    0    0  0.00000000000E+00  0.00000000000E+00  0.46191093766E+01  0.12509151377E+03  0.12500620243E+03 0.  0.
    9000005    1    3    3    0    0 -0.51135790128E+02  0.35005503913E+02  0.10401068654E+02  0.62844542845E+02  0.10000000000E+01 0.  0.
    9000005    1    3    3    0    0  0.51135790128E+02 -0.35005503913E+02 -0.57819592773E+01  0.62246970925E+02  0.10000000000E+01 0.  0.
<mgrwt>
<rscale>  0 0.12500620E+03</rscale>
<asrwt>0</asrwt>
<pdfrwt beam="2">  1        4 0.92671081E-02 0.12500620E+03</pdfrwt>
<pdfrwt beam="1">  1       -4 0.99777402E-02 0.12500620E+03</pdfrwt>
<totfact> 0.10449410E+04</totfact>
</mgrwt>
</event>
<event>
 5    1  0.3312904E-002  0.1250000E+03  0.7818608E-02  0.1235069E+00
          4   -1    0    0  501    0  0.00000000000E+00  0.00000000000E+00  0.58269756229E+03  0.58269894628E+03  0.12700000000E+01 0.  1.
         -4   -1    0    0    0  501 -0.00000000000E+00 -0.00000000000E+00 -0.66421836636E+01  0.67625072141E+01  0.12700000000E+01 0.  1.
         25    2    1    2    0    0  0.00000000000E+00  0.00000000000E+00  0.57605537863E+03  0.58946145350E+03  0.12500002366E+03 0.  0.
    9000005    1    3    3    0    0 -0.54254565480E+02 -0.50152227356E+01  0.43234178297E+03  0.43576269648E+03  0.10000000000E+01 0.  0.
    9000005    1    3    3    0    0  0.54254565480E+02  0.50152227356E+01  0.14371359565E+03  0.15369875702E+03  0.10000000000E+01 0.  0.
<mgrwt>
<rscale>  0 0.12500002E+03</rscale>
<asrwt>0</asrwt>
<pdfrwt beam="1">  1        4 0.89655142E-01 0.12500002E+03</pdfrwt>
<pdfrwt beam="2">  1       -4 0.10312365E-02 0.12500002E+03</pdfrwt>
<totfact> 0.49539637E+03</totfact>
</mgrwt>
</event>
<event>
 4    1  0.3312904E-002  0.1250889E+03  0.7818608E-02  0.1234930E+00
         -4   -1    0    0    0  501 -0.00000000000E+00  0.00000000000E+00  0.27845014929E+02  0.27873961979E+02  0.12700000000E+01 0.  1.
          4   -1    0    0  501    0  0.00000000000E+00 -0.00000000000E+00 -0.14038034983E+03  0.14038609446E+03  0.12700000000E+01 0.  1.
    9000005    1    1    2    0    0  0.20661840386E+02  0.28905811442E+02  0.12955278769E+02  0.37832483810E+02  0.10000000000E+01 0.  0.
    9000005    1    1    2    0    0 -0.20661840386E+02 -0.28905811442E+02 -0.12549061367E+03  0.13042757263E+03  0.10000000000E+01 0.  0.
<mgrwt>
<rscale>  0 0.12508895E+03</rscale>
<asrwt>0</asrwt>
<pdfrwt beam="2">  1        4 0.21599645E-01 0.12508895E+03</pdfrwt>
<pdfrwt beam="1">  1       -4 0.42865171E-02 0.12508895E+03</pdfrwt>
<totfact> 0.95582472E+03</totfact>
</mgrwt>
</event>
<event>
 5    1  0.3312904E-002  0.1250020E+03  0.7818608E-02  0.1235066E+00
         -4   -1    0    0    0  501 -0.00000000000E+00  0.00000000000E+00  0.64858543465E+03  0.64858667804E+03  0.12700000000E+01 0. -1.
          4   -1    0    0  501    0  0.00000000000E+00 -0.00000000000E+00 -0.59546999450E+01  0.60886247572E+01  0.12700000000E+01 0. -1.
         25    2    1    2    0    0  0.00000000000E+00  0.00000000000E+00  0.64263073470E+03  0.65467530280E+03  0.12500196364E+03 0.  0.
    9000005    1    3    3    0    0 -0.50314139813E+02  0.29216337083E+02  0.44077515112E+03  0.44459964110E+03  0.10000000000E+01 0.  0.
    9000005    1    3    3    0    0  0.50314139813E+02 -0.29216337083E+02  0.20185558358E+03  0.21007566170E+03  0.10000000000E+01 0.  0.
<mgrwt>
<rscale>  0 0.12500196E+03</rscale>
<asrwt>0</asrwt>
<pdfrwt beam="2">  1        4 0.92650505E-03 0.12500196E+03</pdfrwt>
<pdfrwt beam="1">  1       -4 0.99792793E-01 0.12500196E+03</pdfrwt>
<totfact> 0.45586534E+03</totfact>
</mgrwt>
</event>
<event>
 5    1  0.3312904E-002  0.1249999E+03  0.7818608E-02  0.1235069E+00
          4   -1    0    0  501    0  0.00000000000E+00  0.00000000000E+00  0.25811013624E+03  0.25811326066E+03  0.12700000000E+01 0. -1.
         -4   -1    0    0    0  501 -0.00000000000E+00 -0.00000000000E+00 -0.15104154727E+02  0.15157453283E+02  0.12700000000E+01 0. -1.
         25    2    1    2    0    0  0.00000000000E+00  0.00000000000E+00  0.24300598151E+03  0.27327071394E+03  0.12499990420E+03 0.  0.
    9000005    1    3    3    0    0 -0.33553829514E+02 -0.22368310489E+02  0.17136833718E+02  0.43827752156E+02  0.10000000000E+01 0.  0.
    9000005    1    3    3    0    0  0.33553829514E+02  0.22368310489E+02  0.22586914779E+03  0.22944296179E+03  0.10000000000E+01 0.  0.
<mgrwt>
<rscale>  0 0.12499990E+03</rscale>
<asrwt>0</asrwt>
<pdfrwt beam="1">  1        4 0.39713591E-01 0.12499990E+03</pdfrwt>
<pdfrwt beam="2">  1       -4 0.23280564E-02 0.12499990E+03</pdfrwt>
<totfact> 0.79079072E+03</totfact>
</mgrwt>
</event>
<event>
 5    1  0.3312904E-002  0.1249945E+03  0.7818608E-02  0.1235078E+00
         -4   -1    0    0    0  501 -0.00000000000E+00  0.00000000000E+00  0.21975152355E+03  0.21975519335E+03  0.12700000000E+01 0.  1.
          4   -1    0    0  501    0  0.00000000000E+00 -0.00000000000E+00 -0.17747696940E+02  0.17793078617E+02  0.12700000000E+01 0.  1.
         25    2    1    2    0    0  0.00000000000E+00  0.00000000000E+00  0.20200382661E+03  0.23754827197E+03  0.12499454207E+03 0.  0.
    9000005    1    3    3    0    0  0.42093639109E+02 -0.42320022667E+02  0.13615032431E+03  0.14866327583E+03  0.10000000000E+01 0.  0.
    9000005    1    3    3    0    0 -0.42093639109E+02  0.42320022667E+02  0.65853502309E+02  0.88884996137E+02  0.10000000000E+01 0.  0.
<mgrwt>
<rscale>  0 0.12499454E+03</rscale>
<asrwt>0</asrwt>
<pdfrwt beam="2">  1        4 0.27341881E-02 0.12499454E+03</pdfrwt>
<pdfrwt beam="1">  1       -4 0.33811700E-01 0.12499454E+03</pdfrwt>
<totfact> 0.84174111E+03</totfact>
</mgrwt>
</event>
<event>
 5    1  0.3312904E-002  0.1250000E+03  0.7818608E-02  0.1235069E+00
         -4   -1    0    0    0  501 -0.00000000000E+00  0.00000000000E+00  0.45685333923E+02  0.45702982787E+02  0.12700000000E+01 0.  1.
          4   -1    0    0  501    0  0.00000000000E+00 -0.00000000000E+00 -0.85464424093E+02  0.85473859662E+02  0.12700000000E+01 0.  1.
         25    2    1    2    0    0  0.00000000000E+00  0.00000000000E+00 -0.39779090170E+02  0.13117684245E+03  0.12499995192E+03 0.  0.
    9000005    1    3    3    0    0 -0.32431578787E+02  0.97387488002E+01  0.35228196519E+02  0.48874086802E+02  0.10000000000E+01 0.  0.
    9000005    1    3    3    0    0  0.32431578787E+02 -0.97387488002E+01 -0.75007286688E+02  0.82302755647E+02  0.10000000000E+01 0.  0.
<mgrwt>
<rscale>  0 0.12499995E+03</rscale>
<asrwt>0</asrwt>
<pdfrwt beam="2">  1        4 0.13150456E-01 0.12499995E+03</pdfrwt>
<pdfrwt beam="1">  1       -4 0.70305963E-02 0.12499995E+03</pdfrwt>
<totfact> 0.10319311E+04</totfact>
</mgrwt>
</event>
<event>
 5    1  0.3312904E-002  0.1250012E+03  0.7818608E-02  0.1235067E+00
         -4   -1    0    0    0  501 -0.00000000000E+00  0.00000000000E+00  0.16401444434E+04  0.16401449351E+04  0.12700000000E+01 0. -1.
          4   -1    0    0  501    0  0.00000000000E+00 -0.00000000000E+00 -0.22118684809E+01  0.25505415458E+01  0.12700000000E+01 0. -1.
         25    2    1    2    0    0  0.00000000000E+00  0.00000000000E+00  0.16379325750E+04  0.16426954767E+04  0.12500123597E+03 0.  0.
    9000005    1    3    3    0    0 -0.51202515224E+02  0.97381444079E+01  0.12720691735E+04  0.12731368784E+04  0.10000000000E+01 0.  0.
    9000005    1    3    3    0    0  0.51202515224E+02 -0.97381444079E+01  0.36586340150E+03  0.36955859830E+03  0.10000000000E+01 0.  0.
<mgrwt>
<rscale>  0 0.12500124E+03</rscale>
<asrwt>0</asrwt>
<pdfrwt beam="2">  1        4 0.36637749E-03 0.12500124E+03</pdfrwt>
<pdfrwt beam="1">  1       -4 0.25235571E+00 0.12500124E+03</pdfrwt>
<totfact> 0.15286368E+03</totfact>
</mgrwt>
</event>
<event>
 5    1  0.3312904E-002  0.1250011E+03  0.7818608E-02  0.1235068E+00
          4   -1    0    0  501    0  0.00000000000E+00  0.00000000000E+00  0.16078187341E+03  0.16078688914E+03  0.12700000000E+01 0. -1.
         -4   -1    0    0    0  501 -0.00000000000E+00 -0.00000000000E+00 -0.24273775991E+02  0.24306976383E+02  0.12700000000E+01 0. -1.
         25    2    1    2    0    0  0.00000000000E+00  0.00000000000E+00  0.13650809742E+03  0.18509386552E+03  0.12500111356E+03 0.  0.
    9000005    1    3    3    0    0 -0.56134945303E+02 -0.67474848018E+01  0.10767224842E+03  0.12161814714E+03  0.10000000000E+01 0.  0.
    9000005    1    3    3    0    0  0.56134945303E+02  0.67474848018E+01  0.28835849001E+02  0.63475718373E+02  0.10000000000E+01 0.  0.
<mgrwt>
<rscale>  0 0.12500111E+03</rscale>
<asrwt>0</asrwt>
<pdfrwt beam="1">  1        4 0.24738613E-01 0.12500111E+03</pdfrwt>
<pdfrwt beam="2">  1       -4 0.37373668E-02 0.12500111E+03</pdfrwt>
<totfact> 0.92705730E+03</totfact>
</mgrwt>
</event>
<event>
 5    1  0.3312904E-002  0.1249983E+03  0.7818608E-02  0.1235072E+00
         -4   -1    0    0    0  501 -0.00000000000E+00  0.00000000000E+00  0.16583129398E+02  0.16631689049E+02  0.12700000000E+01 0. -1.
          4   -1    0    0  501    0  0.00000000000E+00 -0.00000000000E+00 -0.23515451954E+03  0.23515794896E+03  0.12700000000E+01 0. -1.
         25    2    1    2    0    0  0.00000000000E+00  0.00000000000E+00 -0.21857139014E+03  0.25178963801E+03  0.12499827687E+03 0.  0.
    9000005    1    3    3    0    0  0.54232538700E+02 -0.79103115198E+01 -0.16976305866E+03  0.17839349027E+03  0.10000000000E+01 0.  0.
    9000005    1    3    3    0    0 -0.54232538700E+02  0.79103115198E+01 -0.48808331481E+02  0.73396147747E+02  0.10000000000E+01 0.  0.
<mgrwt>
<rscale>  0 0.12499828E+03</rscale>
<asrwt>0</asrwt>
<pdfrwt beam="2">  1        4 0.36181615E-01 0.12499828E+03</pdfrwt>
<pdfrwt beam="1">  1       -4 0.25552500E-02 0.12499828E+03</pdfrwt>
<totfact> 0.82075407E+03</totfact>
</mgrwt>
</event>
<event>
 5    1  0.3312904E-002  0.1250014E+03  0.7818608E-02  0.1235067E+00
         -4   -1    0    0    0  501 -0.00000000000E+00  0.00000000000E+00  0.11213391030E+03  0.11214110192E+03  0.12700000000E+01 0. -1.
          4   -1    0    0  501    0  0.00000000000E+00 -0.00000000000E+00 -0.34816489093E+02  0.34839644268E+02  0.12700000000E+01 0. -1.
         25    2    1    2    0    0  0.00000000000E+00  0.00000000000E+00  0.77317421211E+02  0.14698074619E+03  0.12500142450E+03 0.  0.
    9000005    1    3    3    0    0  0.30482275240E+02  0.41694730997E+02 -0.27085320029E+01  0.51729641815E+02  0.10000000000E+01 0.  0.
    9000005    1    3    3    0    0 -0.30482275240E+02 -0.41694730997E+02  0.80025953214E+02  0.95251104374E+02  0.10000000000E+01 0.  0.
<mgrwt>
<rscale>  0 0.12500142E+03</rscale>
<asrwt>0</asrwt>
<pdfrwt beam="2">  1        4 0.53587173E-02 0.12500142E+03</pdfrwt>
<pdfrwt beam="1">  1       -4 0.17253705E-01 0.12500142E+03</pdfrwt>
<totfact> 0.99905778E+03</totfact>
</mgrwt>
</event>
<event>
 5    1  0.3312904E-002  0.1249995E+03  0.7818608E-02  0.1235070E+00
         -4   -1    0    0    0  501 -0.00000000000E+00  0.00000000000E+00  0.40333123529E+01  0.42285350343E+01  0.12700000000E+01 0. -1.
          4   -1    0    0  501    0  0.00000000000E+00 -0.00000000000E+00 -0.94540921152E+03  0.94541006454E+03  0.12700000000E+01 0. -1.
         25    2    1    2    0    0  0.00000000000E+00  0.00000000000E+00 -0.94137589917E+03  0.94963859957E+03  0.12499954505E+03 0.  0.
    9000005    1    3    3    0    0  0.25774771505E+02 -0.15495586546E+02 -0.54522284965E+02  0.62274646577E+02  0.10000000000E+01 0.  0.
    9000005    1    3    3    0    0 -0.25774771505E+02  0.15495586546E+02 -0.88685361421E+03  0.88736395300E+03  0.10000000000E+01 0.  0.
<mgrwt>
<rscale>  0 0.12499955E+03</rscale>
<asrwt>0</asrwt>
<pdfrwt beam="2">  1        4 0.14546248E+00 0.12499955E+03</pdfrwt>
<pdfrwt beam="1">  1       -4 0.63559309E-03 0.12499955E+03</pdfrwt>
<totfact> 0.32329164E+03</totfact>
</mgrwt>
</event>
<event>
 5    1  0.3312904E-002  0.1250006E+03  0.7818608E-02  0.1235068E+00
         -4   -1    0    0    0  501 -0.00000000000E+00  0.00000000000E+00  0.17435856525E+03  0.17436319043E+03  0.12700000000E+01 0.  1.
          4   -1    0    0  501    0  0.00000000000E+00 -0.00000000000E+00 -0.22380823861E+02  0.22416827981E+02  0.12700000000E+01 0.  1.
         25    2    1    2    0    0  0.00000000000E+00  0.00000000000E+00  0.15197774139E+03  0.19678001841E+03  0.12500056707E+03 0.  0.
    9000005    1    3    3    0    0 -0.33988543309E+02  0.96796675815E+01  0.15712479096E+03  0.16105314953E+03  0.10000000000E+01 0.  0.
    9000005    1    3    3    0    0  0.33988543309E+02 -0.96796675815E+01 -0.51470495652E+01  0.35726868880E+02  0.10000000000E+01 0.  0.
<mgrwt>
<rscale>  0 0.12500057E+03</rscale>
<asrwt>0</asrwt>
<pdfrwt beam="2">  1        4 0.34463291E-02 0.12500057E+03</pdfrwt>
<pdfrwt beam="1">  1       -4 0.26827519E-01 0.12500057E+03</pdfrwt>
<totfact> 0.90679662E+03</totfact>
</mgrwt>
</event>
<event>
 5    1  0.3312904E-002  0.1250025E+03  0.7818608E-02  0.1235065E+00
          4   -1    0    0  501    0  0.00000000000E+00  0.00000000000E+00  0.10791908079E+03  0.10792655326E+03  0.12700000000E+01 0.  1.
         -4   -1    0    0    0  501 -0.00000000000E+00 -0.00000000000E+00 -0.36177698829E+02  0.36199983323E+02  0.12700000000E+01 0.  1.
         25    2    1    2    0    0  0.00000000000E+00  0.00000000000E+00  0.71741381964E+02  0.14412653658E+03  0.12500253062E+03 0.  0.
    9000005    1    3    3    0    0  0.58599078551E+02 -0.34941730059E+01  0.60581988330E+02  0.84363727763E+02  0.10000000000E+01 0.  0.
    9000005    1    3    3    0    0 -0.58599078551E+02  0.34941730059E+01  0.11159393634E+02  0.59762808822E+02  0.10000000000E+01 0.  0.
<mgrwt>
<rscale>  0 0.12500253E+03</rscale>
<asrwt>0</asrwt>
<pdfrwt beam="1">  1        4 0.16605224E-01 0.12500253E+03</pdfrwt>
<pdfrwt beam="2">  1       -4 0.55680889E-02 0.12500253E+03</pdfrwt>
<totfact> 0.10048193E+04</totfact>
</mgrwt>
</event>
<event>
 5    1  0.3312904E-002  0.1249991E+03  0.7818608E-02  0.1235071E+00
          4   -1    0    0  501    0  0.00000000000E+00  0.00000000000E+00  0.44539330172E+02  0.44557432962E+02  0.12700000000E+01 0. -1.
         -4   -1    0    0    0  501 -0.00000000000E+00 -0.00000000000E+00 -0.87661538193E+02  0.87670737298E+02  0.12700000000E+01 0. -1.
         25    2    1    2    0    0  0.00000000000E+00  0.00000000000E+00 -0.43122208021E+02  0.13222817026E+03  0.12499905674E+03 0.  0.
    9000005    1    3    3    0    0 -0.45316449120E+02  0.40806382551E+02 -0.71167536529E+01  0.61403498274E+02  0.10000000000E+01 0.  0.
    9000005    1    3    3    0    0  0.45316449120E+02 -0.40806382551E+02 -0.36005454368E+02  0.70824671986E+02  0.10000000000E+01 0.  0.
<mgrwt>
<rscale>  0 0.12499906E+03</rscale>
<asrwt>0</asrwt>
<pdfrwt beam="1">  1        4 0.68543048E-02 0.12499906E+03</pdfrwt>
<pdfrwt beam="2">  1       -4 0.13488491E-01 0.12499906E+03</pdfrwt>
<totfact> 0.10297050E+04</totfact>
</mgrwt>
</event>
<event>
 4    1  0.3312904E-002  0.1250872E+03  0.7818608E-02  0.1234933E+00
          4   -1    0    0  501    0  0.00000000000E+00  0.00000000000E+00  0.28646493500E+03  0.28646775017E+03  0.12700000000E+01 0.  1.
         -4   -1    0    0    0  501 -0.00000000000E+00 -0.00000000000E+00 -0.13622670784E+02  0.13681741822E+02  0.12700000000E+01 0.  1.
    9000005    1    1    2    0    0 -0.16021582473E+02  0.53247034913E+02  0.20508125719E+03  0.21248825822E+03  0.10000000000E+01 0.  0.
    9000005    1    1    2    0    0  0.16021582473E+02 -0.53247034913E+02  0.67761007029E+02  0.87661233767E+02  0.10000000000E+01 0.  0.
<mgrwt>
<rscale>  0 0.12508724E+03</rscale>
<asrwt>0</asrwt>
<pdfrwt beam="1">  1        4 0.44076285E-01 0.12508724E+03</pdfrwt>
<pdfrwt beam="2">  1       -4 0.21005562E-02 0.12508724E+03</pdfrwt>
<totfact> 0.75433915E+03</totfact>
</mgrwt>
</event>
<event>
 5    1  0.3312904E-002  0.1250021E+03  0.7818608E-02  0.1235066E+00
         -4   -1    0    0    0  501 -0.00000000000E+00  0.00000000000E+00  0.22995242473E+03  0.22995593173E+03  0.12700000000E+01 0.  1.
          4   -1    0    0  501    0  0.00000000000E+00 -0.00000000000E+00 -0.16960413577E+02  0.17007896069E+02  0.12700000000E+01 0.  1.
         25    2    1    2    0    0  0.00000000000E+00  0.00000000000E+00  0.21299201115E+03  0.24696382780E+03  0.12500214169E+03 0.  0.
    9000005    1    3    3    0    0 -0.18542705628E+02  0.52023414088E+02  0.48722530745E+02  0.73655634867E+02  0.10000000000E+01 0.  0.
    9000005    1    3    3    0    0  0.18542705628E+02 -0.52023414088E+02  0.16426948041E+03  0.17330819294E+03  0.10000000000E+01 0.  0.
<mgrwt>
<rscale>  0 0.12500214E+03</rscale>
<asrwt>0</asrwt>
<pdfrwt beam="2">  1        4 0.26132171E-02 0.12500214E+03</pdfrwt>
<pdfrwt beam="1">  1       -4 0.35381213E-01 0.12500214E+03</pdfrwt>
<totfact> 0.82767093E+03</totfact>
</mgrwt>
</event>
<event>
 5    1  0.3312904E-002  0.1250025E+03  0.7818608E-02  0.1235065E+00
          4   -1    0    0  501    0  0.00000000000E+00  0.00000000000E+00  0.32181253507E+03  0.32181504102E+03  0.12700000000E+01 0.  1.
         -4   -1    0    0    0  501 -0.00000000000E+00 -0.00000000000E+00 -0.12102994286E+02  0.12169444141E+02  0.12700000000E+01 0.  1.
         25    2    1    2    0    0  0.00000000000E+00  0.00000000000E+00  0.30970954078E+03  0.33398448516E+03  0.12500254668E+03 0.  0.
    9000005    1    3    3    0    0  0.44235627547E+02 -0.23181489476E+02  0.25522557469E+03  0.26006781072E+03  0.10000000000E+01 0.  0.
    9000005    1    3    3    0    0 -0.44235627547E+02  0.23181489476E+02  0.54483966094E+02  0.73916674440E+02  0.10000000000E+01 0.  0.
<mgrwt>
<rscale>  0 0.12500255E+03</rscale>
<asrwt>0</asrwt>
<pdfrwt beam="1">  1        4 0.49514927E-01 0.12500255E+03</pdfrwt>
<pdfrwt beam="2">  1       -4 0.18673033E-02 0.12500255E+03</pdfrwt>
<totfact> 0.71519118E+03</totfact>
</mgrwt>
</event>
<event>
 5    1  0.3312904E-002  0.1250150E+03  0.7818608E-02  0.1235046E+00
         -4   -1    0    0    0  501 -0.00000000000E+00  0.00000000000E+00  0.35202762473E+02  0.35225663737E+02  0.12700000000E+01 0.  1.
          4   -1    0    0  501    0  0.00000000000E+00 -0.00000000000E+00 -0.11092833070E+03  0.11093560047E+03  0.12700000000E+01 0.  1.
         25    2    1    2    0    0  0.00000000000E+00  0.00000000000E+00 -0.75725568225E+02  0.14616126421E+03  0.12501501298E+03 0.  0.
    9000005    1    3    3    0    0  0.54696863473E+02 -0.27434940800E+02 -0.52732856952E+02  0.80784757552E+02  0.10000000000E+01 0.  0.
    9000005    1    3    3    0    0 -0.54696863473E+02  0.27434940800E+02 -0.22992711273E+02  0.65376506653E+02  0.10000000000E+01 0.  0.
<mgrwt>
<rscale>  0 0.12501501E+03</rscale>
<asrwt>0</asrwt>
<pdfrwt beam="2">  1        4 0.17068218E-01 0.12501501E+03</pdfrwt>
<pdfrwt beam="1">  1       -4 0.54181305E-02 0.12501501E+03</pdfrwt>
<totfact> 0.10004065E+04</totfact>
</mgrwt>
</event>
<event>
 5    1  0.3312904E-002  0.1249997E+03  0.7818608E-02  0.1235070E+00
          4   -1    0    0  501    0  0.00000000000E+00  0.00000000000E+00  0.13392162500E+02  0.13452245776E+02  0.12700000000E+01 0. -1.
         -4   -1    0    0    0  501 -0.00000000000E+00 -0.00000000000E+00 -0.29096618116E+03  0.29096895277E+03  0.12700000000E+01 0. -1.
         25    2    1    2    0    0  0.00000000000E+00  0.00000000000E+00 -0.27757401866E+03  0.30442119855E+03  0.12499972117E+03 0.  0.
    9000005    1    3    3    0    0  0.28378361072E+02  0.48909409347E+02 -0.73996381202E+02  0.93133915041E+02  0.10000000000E+01 0.  0.
    9000005    1    3    3    0    0 -0.28378361072E+02 -0.48909409347E+02 -0.20357763746E+03  0.21128728351E+03  0.10000000000E+01 0.  0.
<mgrwt>
<rscale>  0 0.12499972E+03</rscale>
<asrwt>0</asrwt>
<pdfrwt beam="1">  1        4 0.20651679E-02 0.12499972E+03</pdfrwt>
<pdfrwt beam="2">  1       -4 0.44768858E-01 0.12499972E+03</pdfrwt>
<totfact> 0.75048044E+03</totfact>
</mgrwt>
</event>
<event>
 5    1  0.3312904E-002  0.1249981E+03  0.7818608E-02  0.1235072E+00
          4   -1    0    0  501    0  0.00000000000E+00  0.00000000000E+00  0.12252111273E+02  0.12317756722E+02  0.12700000000E+01 0. -1.
         -4   -1    0    0    0  501 -0.00000000000E+00 -0.00000000000E+00 -0.31789436069E+03  0.31789689753E+03  0.12700000000E+01 0. -1.
         25    2    1    2    0    0  0.00000000000E+00  0.00000000000E+00 -0.30564224942E+03  0.33021465425E+03  0.12499813300E+03 0.  0.
    9000005    1    3    3    0    0  0.15218338762E+02 -0.46389210242E+02 -0.25586916425E+03  0.26048720866E+03  0.10000000000E+01 0.  0.
    9000005    1    3    3    0    0 -0.15218338762E+02  0.46389210242E+02 -0.49773085168E+02  0.69727445592E+02  0.10000000000E+01 0.  0.
<mgrwt>
<rscale>  0 0.12499813E+03</rscale>
<asrwt>0</asrwt>
<pdfrwt beam="1">  1        4 0.18901852E-02 0.12499813E+03</pdfrwt>
<pdfrwt beam="2">  1       -4 0.48912063E-01 0.12499813E+03</pdfrwt>
<totfact> 0.71960454E+03</totfact>
</mgrwt>
</event>
<event>
 5    1  0.3312904E-002  0.1250074E+03  0.7818608E-02  0.1235058E+00
          4   -1    0    0  501    0  0.00000000000E+00  0.00000000000E+00  0.26722076080E+03  0.26722377869E+03  0.12700000000E+01 0. -1.
         -4   -1    0    0    0  501 -0.00000000000E+00 -0.00000000000E+00 -0.14589113979E+02  0.14644287170E+02  0.12700000000E+01 0. -1.
         25    2    1    2    0    0  0.00000000000E+00  0.00000000000E+00  0.25263164682E+03  0.28186806586E+03  0.12500743010E+03 0.  0.
    9000005    1    3    3    0    0 -0.38180077957E+02 -0.49132933763E+02  0.13945401085E+03  0.15270947801E+03  0.10000000000E+01 0.  0.
    9000005    1    3    3    0    0  0.38180077957E+02  0.49132933763E+02  0.11317763597E+03  0.12915858785E+03  0.10000000000E+01 0.  0.
<mgrwt>
<rscale>  0 0.12500743E+03</rscale>
<asrwt>0</asrwt>
<pdfrwt beam="1">  1        4 0.41115357E-01 0.12500743E+03</pdfrwt>
<pdfrwt beam="2">  1       -4 0.22489556E-02 0.12500743E+03</pdfrwt>
<totfact> 0.77918198E+03</totfact>
</mgrwt>
</event>
<event>
 5    1  0.3312904E-002  0.1250018E+03  0.7818608E-02  0.1235066E+00
          4   -1    0    0  501    0  0.00000000000E+00  0.00000000000E+00  0.16829351585E+03  0.16829830771E+03  0.12700000000E+01 0.  1.
         -4   -1    0    0    0  501 -0.00000000000E+00 -0.00000000000E+00 -0.23189099966E+02  0.23223851042E+02  0.12700000000E+01 0.  1.
         25    2    1    2    0    0  0.00000000000E+00  0.00000000000E+00  0.14510441588E+03  0.19152215875E+03  0.12500178312E+03 0.  0.
    9000005    1    3    3    0    0  0.31044138052E+02  0.51219982657E+02  0.45224107624E+02  0.75056279159E+02  0.10000000000E+01 0.  0.
    9000005    1    3    3    0    0 -0.31044138052E+02 -0.51219982657E+02  0.99880308259E+02  0.11646587959E+03  0.10000000000E+01 0.  0.
<mgrwt>
<rscale>  0 0.12500178E+03</rscale>
<asrwt>0</asrwt>
<pdfrwt beam="1">  1        4 0.25894353E-01 0.12500178E+03</pdfrwt>
<pdfrwt beam="2">  1       -4 0.35705955E-02 0.12500178E+03</pdfrwt>
<totfact> 0.91579478E+03</totfact>
</mgrwt>
</event>
<event>
 5    1  0.3312904E-002  0.1250018E+03  0.7818608E-02  0.1235066E+00
          4   -1    0    0  501    0  0.00000000000E+00  0.00000000000E+00  0.20690429694E+04  0.20690433592E+04  0.12700000000E+01 0.  1.
         -4   -1    0    0    0  501 -0.00000000000E+00 -0.00000000000E+00 -0.16739980219E+01  0.21012304437E+01  0.12700000000E+01 0.  1.
         25    2    1    2    0    0  0.00000000000E+00  0.00000000000E+00  0.20673689714E+04  0.20711445896E+04  0.12500178906E+03 0.  0.
    9000005    1    3    3    0    0 -0.19003205667E+02 -0.51637744270E+02  0.54279033049E+03  0.54557302108E+03  0.10000000000E+01 0.  0.
    9000005    1    3    3    0    0  0.19003205667E+02  0.51637744270E+02  0.15245786409E+04  0.15255715685E+04  0.10000000000E+01 0.  0.
<mgrwt>
<rscale>  0 0.12500179E+03</rscale>
<asrwt>0</asrwt>
<pdfrwt beam="1">  1        4 0.31834800E+00 0.12500179E+03</pdfrwt>
<pdfrwt beam="2">  1       -4 0.29043144E-03 0.12500179E+03</pdfrwt>
<totfact> 0.89606399E+02</totfact>
</mgrwt>
</event>
<event>
 5    1  0.3312904E-002  0.1249988E+03  0.7818608E-02  0.1235071E+00
          4   -1    0    0  501    0  0.00000000000E+00  0.00000000000E+00  0.28125891405E+02  0.28154549674E+02  0.12700000000E+01 0.  1.
         -4   -1    0    0    0  501 -0.00000000000E+00 -0.00000000000E+00 -0.13877964310E+03  0.13878545399E+03  0.12700000000E+01 0.  1.
         25    2    1    2    0    0  0.00000000000E+00  0.00000000000E+00 -0.11065375169E+03  0.16694000366E+03  0.12499884823E+03 0.  0.
    9000005    1    3    3    0    0 -0.27077406630E+01  0.58302444695E+02 -0.25503176932E+02  0.63701797075E+02  0.10000000000E+01 0.  0.
    9000005    1    3    3    0    0  0.27077406630E+01 -0.58302444695E+02 -0.85150574760E+02  0.10323820658E+03  0.10000000000E+01 0.  0.
<mgrwt>
<rscale>  0 0.12499885E+03</rscale>
<asrwt>0</asrwt>
<pdfrwt beam="1">  1        4 0.43297118E-02 0.12499885E+03</pdfrwt>
<pdfrwt beam="2">  1       -4 0.21353365E-01 0.12499885E+03</pdfrwt>
<totfact> 0.96023727E+03</totfact>
</mgrwt>
</event>
<event>
 5    1  0.3312904E-002  0.1249999E+03  0.7818608E-02  0.1235069E+00
          4   -1    0    0  501    0  0.00000000000E+00  0.00000000000E+00  0.24427873246E+03  0.24428203379E+03  0.12700000000E+01 0.  1.
         -4   -1    0    0    0  501 -0.00000000000E+00 -0.00000000000E+00 -0.15962290495E+02  0.16012732991E+02  0.12700000000E+01 0.  1.
         25    2    1    2    0    0  0.00000000000E+00  0.00000000000E+00  0.22831644197E+03  0.26029476679E+03  0.12499987177E+03 0.  0.
    9000005    1    3    3    0    0 -0.24437467171E+02  0.55056406212E+02  0.79510579486E+02  0.99756352765E+02  0.10000000000E+01 0.  0.
    9000005    1    3    3    0    0  0.24437467171E+02 -0.55056406212E+02  0.14880586248E+03  0.16053841402E+03  0.10000000000E+01 0.  0.
<mgrwt>
<rscale>  0 0.12499987E+03</rscale>
<asrwt>0</asrwt>
<pdfrwt beam="1">  1        4 0.37585478E-01 0.12499987E+03</pdfrwt>
<pdfrwt beam="2">  1       -4 0.24598711E-02 0.12499987E+03</pdfrwt>
<totfact> 0.80864942E+03</totfact>
</mgrwt>
</event>
<event>
 5    1  0.3312904E-002  0.1250014E+03  0.7818608E-02  0.1235067E+00
         -4   -1    0    0    0  501 -0.00000000000E+00  0.00000000000E+00  0.55060197225E+03  0.55060343691E+03  0.12700000000E+01 0.  1.
          4   -1    0    0  501    0  0.00000000000E+00 -0.00000000000E+00 -0.70363431706E+01  0.71500367282E+01  0.12700000000E+01 0.  1.
         25    2    1    2    0    0  0.00000000000E+00  0.00000000000E+00  0.54356562908E+03  0.55775347364E+03  0.12500137698E+03 0.  0.
    9000005    1    3    3    0    0  0.47287026993E+02 -0.48500118983E+01  0.90769930601E+02  0.10246836506E+03  0.10000000000E+01 0.  0.
    9000005    1    3    3    0    0 -0.47287026993E+02  0.48500118983E+01  0.45279569847E+03  0.45528510858E+03  0.10000000000E+01 0.  0.
<mgrwt>
<rscale>  0 0.12500138E+03</rscale>
<asrwt>0</asrwt>
<pdfrwt beam="2">  1        4 0.10913724E-02 0.12500138E+03</pdfrwt>
<pdfrwt beam="1">  1       -4 0.84716878E-01 0.12500138E+03</pdfrwt>
<totfact> 0.51646175E+03</totfact>
</mgrwt>
</event>
<event>
 5    1  0.3312904E-002  0.1249990E+03  0.7818608E-02  0.1235071E+00
         -4   -1    0    0    0  501 -0.00000000000E+00  0.00000000000E+00  0.21553529328E+03  0.21553903486E+03  0.12700000000E+01 0.  1.
          4   -1    0    0  501    0  0.00000000000E+00 -0.00000000000E+00 -0.18097028871E+02  0.18141536704E+02  0.12700000000E+01 0.  1.
         25    2    1    2    0    0  0.00000000000E+00  0.00000000000E+00  0.19743826441E+03  0.23368057157E+03  0.12499896509E+03 0.  0.
    9000005    1    3    3    0    0  0.37425989920E+02  0.46933881651E+02  0.66247986064E+02  0.89405199099E+02  0.10000000000E+01 0.  0.
    9000005    1    3    3    0    0 -0.37425989920E+02 -0.46933881651E+02  0.13119027835E+03  0.14427537247E+03  0.10000000000E+01 0.  0.
<mgrwt>
<rscale>  0 0.12499897E+03</rscale>
<asrwt>0</asrwt>
<pdfrwt beam="2">  1        4 0.27878698E-02 0.12499897E+03</pdfrwt>
<pdfrwt beam="1">  1       -4 0.33162987E-01 0.12499897E+03</pdfrwt>
<totfact> 0.84749583E+03</totfact>
</mgrwt>
</event>
<event>
 5    1  0.3312904E-002  0.1249974E+03  0.7818608E-02  0.1235073E+00
          4   -1    0    0  501    0  0.00000000000E+00  0.00000000000E+00  0.11363956453E+03  0.11364666087E+03  0.12700000000E+01 0.  1.
         -4   -1    0    0    0  501 -0.00000000000E+00 -0.00000000000E+00 -0.34352720720E+02  0.34376188283E+02  0.12700000000E+01 0.  1.
         25    2    1    2    0    0  0.00000000000E+00  0.00000000000E+00  0.79286843815E+02  0.14802284916E+03  0.12499744105E+03 0.  0.
    9000005    1    3    3    0    0  0.18114978474E+02 -0.56220500946E+02  0.63802200211E+02  0.86951813802E+02  0.10000000000E+01 0.  0.
    9000005    1    3    3    0    0 -0.18114978474E+02  0.56220500946E+02  0.15484643604E+02  0.61071035354E+02  0.10000000000E+01 0.  0.
<mgrwt>
<rscale>  0 0.12499744E+03</rscale>
<asrwt>0</asrwt>
<pdfrwt beam="1">  1        4 0.17485361E-01 0.12499744E+03</pdfrwt>
<pdfrwt beam="2">  1       -4 0.52873851E-02 0.12499744E+03</pdfrwt>
<totfact> 0.99705026E+03</totfact>
</mgrwt>
</event>
<event>
 5    1  0.3312904E-002  0.1250003E+03  0.7818608E-02  0.1235069E+00
         -4   -1    0    0    0  501 -0.00000000000E+00  0.00000000000E+00  0.93433705149E+03  0.93433791462E+03  0.12700000000E+01 0. -1.
          4   -1    0    0  501    0  0.00000000000E+00 -0.00000000000E+00 -0.40834592650E+01  0.42763932898E+01  0.12700000000E+01 0. -1.
         25    2    1    2    0    0  0.00000000000E+00  0.00000000000E+00  0.93025359223E+03  0.93861430791E+03  0.12500029262E+03 0.  0.
    9000005    1    3    3    0    0  0.26816014809E+02 -0.22531387853E+02  0.76509193319E+02  0.84151166071E+02  0.10000000000E+01 0.  0.
    9000005    1    3    3    0    0 -0.26816014809E+02  0.22531387853E+02  0.85374439891E+03  0.85446314184E+03  0.10000000000E+01 0.  0.
<mgrwt>
<rscale>  0 0.12500029E+03</rscale>
<asrwt>0</asrwt>
<pdfrwt beam="2">  1        4 0.64313208E-03 0.12500029E+03</pdfrwt>
<pdfrwt beam="1">  1       -4 0.14375905E+00 0.12500029E+03</pdfrwt>
<totfact> 0.32723486E+03</totfact>
</mgrwt>
</event>
<event>
 5    1  0.3312904E-002  0.1249834E+03  0.7818608E-02  0.1235095E+00
         -4   -1    0    0    0  501 -0.00000000000E+00  0.00000000000E+00  0.13318939377E+04  0.13318945432E+04  0.12700000000E+01 0. -1.
          4   -1    0    0  501    0  0.00000000000E+00 -0.00000000000E+00 -0.27939175124E+01  0.30690185835E+01  0.12700000000E+01 0. -1.
         25    2    1    2    0    0  0.00000000000E+00  0.00000000000E+00  0.13291000202E+04  0.13349635617E+04  0.12498338931E+03 0.  0.
    9000005    1    3    3    0    0 -0.26075471109E+02 -0.20618078233E+02  0.99440963096E+02  0.10485485437E+03  0.10000000000E+01 0.  0.
    9000005    1    3    3    0    0  0.26075471109E+02  0.20618078233E+02  0.12296590571E+04  0.12301087074E+04  0.10000000000E+01 0.  0.
<mgrwt>
<rscale>  0 0.12498339E+03</rscale>
<asrwt>0</asrwt>
<pdfrwt beam="2">  1        4 0.45104006E-03 0.12498339E+03</pdfrwt>
<pdfrwt beam="1">  1       -4 0.20492870E+00 0.12498339E+03</pdfrwt>
<totfact> 0.21425709E+03</totfact>
</mgrwt>
</event>
<event>
 5    1  0.3312904E-002  0.1249892E+03  0.7818608E-02  0.1235086E+00
         -4   -1    0    0    0  501 -0.00000000000E+00  0.00000000000E+00  0.66132878401E+02  0.66145071665E+02  0.12700000000E+01 0. -1.
          4   -1    0    0  501    0  0.00000000000E+00 -0.00000000000E+00 -0.59032032883E+02  0.59045692530E+02  0.12700000000E+01 0. -1.
         25    2    1    2    0    0  0.00000000000E+00  0.00000000000E+00  0.71008455178E+01  0.12519076420E+03  0.12498922127E+03 0.  0.
    9000005    1    3    3    0    0 -0.58752793722E+02 -0.49123760444E+01 -0.17184507579E+02  0.61419292647E+02  0.10000000000E+01 0.  0.
    9000005    1    3    3    0    0  0.58752793722E+02  0.49123760444E+01  0.24285353096E+02  0.63771471549E+02  0.10000000000E+01 0.  0.
<mgrwt>
<rscale>  0 0.12498922E+03</rscale>
<asrwt>0</asrwt>
<pdfrwt beam="2">  1        4 0.90838398E-02 0.12498922E+03</pdfrwt>
<pdfrwt beam="1">  1       -4 0.10176278E-01 0.12498922E+03</pdfrwt>
<totfact> 0.10451266E+04</totfact>
</mgrwt>
</event>
<event>
 5    1  0.3312904E-002  0.1249979E+03  0.7818608E-02  0.1235073E+00
         -4   -1    0    0    0  501 -0.00000000000E+00  0.00000000000E+00  0.26601365984E+03  0.26601669144E+03  0.12700000000E+01 0.  1.
          4   -1    0    0  501    0  0.00000000000E+00 -0.00000000000E+00 -0.14653330109E+02  0.14708262416E+02  0.12700000000E+01 0.  1.
         25    2    1    2    0    0  0.00000000000E+00  0.00000000000E+00  0.25136032973E+03  0.28072495385E+03  0.12499793739E+03 0.  0.
    9000005    1    3    3    0    0 -0.39265686611E+02  0.19188245976E+02  0.22599488363E+03  0.23018399240E+03  0.10000000000E+01 0.  0.
    9000005    1    3    3    0    0  0.39265686611E+02 -0.19188245976E+02  0.25365446101E+02  0.50540961453E+02  0.10000000000E+01 0.  0.
<mgrwt>
<rscale>  0 0.12499794E+03</rscale>
<asrwt>0</asrwt>
<pdfrwt beam="2">  1        4 0.22588173E-02 0.12499794E+03</pdfrwt>
<pdfrwt beam="1">  1       -4 0.40929635E-01 0.12499794E+03</pdfrwt>
<totfact> 0.78085660E+03</totfact>
</mgrwt>
</event>
<event>
 5    1  0.3312904E-002  0.1250086E+03  0.7818608E-02  0.1235056E+00
         -4   -1    0    0    0  501 -0.00000000000E+00  0.00000000000E+00  0.23842315189E+02  0.23876115546E+02  0.12700000000E+01 0.  1.
          4   -1    0    0  501    0  0.00000000000E+00 -0.00000000000E+00 -0.16370702869E+03  0.16371195479E+03  0.12700000000E+01 0.  1.
         25    2    1    2    0    0  0.00000000000E+00  0.00000000000E+00 -0.13986471350E+03  0.18758807034E+03  0.12500858391E+03 0.  0.
    9000005    1    3    3    0    0 -0.42796995105E+02 -0.10501087700E+01 -0.16079907583E+01  0.42851734536E+02  0.10000000000E+01 0.  0.
    9000005    1    3    3    0    0  0.42796995105E+02  0.10501087700E+01 -0.13825672274E+03  0.14473633580E+03  0.10000000000E+01 0.  0.
<mgrwt>
<rscale>  0 0.12500858E+03</rscale>
<asrwt>0</asrwt>
<pdfrwt beam="2">  1        4 0.25188675E-01 0.12500858E+03</pdfrwt>
<pdfrwt beam="1">  1       -4 0.36710275E-02 0.12500858E+03</pdfrwt>
<totfact> 0.92250941E+03</totfact>
</mgrwt>
</event>
<event>
 5    1  0.3312904E-002  0.1249996E+03  0.7818608E-02  0.1235070E+00
         -4   -1    0    0    0  501 -0.00000000000E+00  0.00000000000E+00  0.13596079389E+03  0.13596672525E+03  0.12700000000E+01 0. -1.
          4   -1    0    0  501    0  0.00000000000E+00 -0.00000000000E+00 -0.28709927319E+02  0.28738003178E+02  0.12700000000E+01 0. -1.
         25    2    1    2    0    0  0.00000000000E+00  0.00000000000E+00  0.10725086657E+03  0.16470472843E+03  0.12499959674E+03 0.  0.
    9000005    1    3    3    0    0  0.61515474524E+02 -0.53354401098E+01  0.40945617028E+02  0.74095641443E+02  0.10000000000E+01 0.  0.
    9000005    1    3    3    0    0 -0.61515474524E+02  0.53354401098E+01  0.66305249542E+02  0.90609086983E+02  0.10000000000E+01 0.  0.
<mgrwt>
<rscale>  0 0.12499960E+03</rscale>
<asrwt>0</asrwt>
<pdfrwt beam="2">  1        4 0.44195279E-02 0.12499960E+03</pdfrwt>
<pdfrwt beam="1">  1       -4 0.20919661E-01 0.12499960E+03</pdfrwt>
<totfact> 0.96444215E+03</totfact>
</mgrwt>
</event>
<event>
 5    1  0.3312904E-002  0.1249825E+03  0.7818608E-02  0.1235097E+00
          4   -1    0    0  501    0  0.00000000000E+00  0.00000000000E+00  0.43903224439E+02  0.43921589408E+02  0.12700000000E+01 0. -1.
         -4   -1    0    0    0  501 -0.00000000000E+00 -0.00000000000E+00 -0.88907667502E+02  0.88916737685E+02  0.12700000000E+01 0. -1.
         25    2    1    2    0    0  0.00000000000E+00  0.00000000000E+00 -0.45004443063E+02  0.13283832709E+03  0.12498248377E+03 0.  0.
    9000005    1    3    3    0    0  0.24248211003E+02 -0.52080269854E+02 -0.48619614030E+02  0.75267503701E+02  0.10000000000E+01 0.  0.
    9000005    1    3    3    0    0 -0.24248211003E+02  0.52080269854E+02  0.36151709667E+01  0.57570823392E+02  0.10000000000E+01 0.  0.
<mgrwt>
<rscale>  0 0.12498248E+03</rscale>
<asrwt>0</asrwt>
<pdfrwt beam="1">  1        4 0.67564526E-02 0.12498248E+03</pdfrwt>
<pdfrwt beam="2">  1       -4 0.13680213E-01 0.12498248E+03</pdfrwt>
<totfact> 0.10287902E+04</totfact>
</mgrwt>
</event>
<event>
 5    1  0.3312904E-002  0.1249996E+03  0.7818608E-02  0.1235070E+00
         -4   -1    0    0    0  501 -0.00000000000E+00  0.00000000000E+00  0.80660728642E+03  0.80660828622E+03  0.12700000000E+01 0.  1.
          4   -1    0    0  501    0  0.00000000000E+00 -0.00000000000E+00 -0.47584991987E+01  0.49250598599E+01  0.12700000000E+01 0.  1.
         25    2    1    2    0    0  0.00000000000E+00  0.00000000000E+00  0.80184878722E+03  0.81153334608E+03  0.12499957695E+03 0.  0.
    9000005    1    3    3    0    0  0.32577227772E+02 -0.28228446662E+02  0.10718132300E+03  0.11552903086E+03  0.10000000000E+01 0.  0.
    9000005    1    3    3    0    0 -0.32577227772E+02  0.28228446662E+02  0.69466746422E+03  0.69600431523E+03  0.10000000000E+01 0.  0.
<mgrwt>
<rscale>  0 0.12499958E+03</rscale>
<asrwt>0</asrwt>
<pdfrwt beam="2">  1        4 0.74496598E-03 0.12499958E+03</pdfrwt>
<pdfrwt beam="1">  1       -4 0.12410633E+00 0.12499958E+03</pdfrwt>
<totfact> 0.37755350E+03</totfact>
</mgrwt>
</event>
<event>
 5    1  0.3312904E-002  0.1250043E+03  0.7818608E-02  0.1235063E+00
         -4   -1    0    0    0  501 -0.00000000000E+00  0.00000000000E+00  0.27970348364E+02  0.27999165837E+02  0.12700000000E+01 0.  1.
          4   -1    0    0  501    0  0.00000000000E+00 -0.00000000000E+00 -0.13956274344E+03  0.13956852173E+03  0.12700000000E+01 0.  1.
         25    2    1    2    0    0  0.00000000000E+00  0.00000000000E+00 -0.11159239508E+03  0.16756768757E+03  0.12500426903E+03 0.  0.
    9000005    1    3    3    0    0 -0.49518067543E+02 -0.27239221773E+02 -0.91552588586E+02  0.10759596039E+03  0.10000000000E+01 0.  0.
    9000005    1    3    3    0    0  0.49518067543E+02  0.27239221773E+02 -0.20039806494E+02  0.59971727174E+02  0.10000000000E+01 0.  0.
<mgrwt>
<rscale>  0 0.12500427E+03</rscale>
<asrwt>0</asrwt>
<pdfrwt beam="2">  1        4 0.21473852E-01 0.12500427E+03</pdfrwt>
<pdfrwt beam="1">  1       -4 0.43057918E-02 0.12500427E+03</pdfrwt>
<totfact> 0.95894117E+03</totfact>
</mgrwt>
</event>
<event>
 5    1  0.3312904E-002  0.1249988E+03  0.7818608E-02  0.1235071E+00
          4   -1    0    0  501    0  0.00000000000E+00  0.00000000000E+00  0.65521496853E+01  0.66740966055E+01  0.12700000000E+01 0. -1.
         -4   -1    0    0    0  501 -0.00000000000E+00 -0.00000000000E+00 -0.59054744245E+03  0.59054880805E+03  0.12700000000E+01 0. -1.
         25    2    1    2    0    0  0.00000000000E+00  0.00000000000E+00 -0.58399529276E+03  0.59722290465E+03  0.12499878347E+03 0.  0.
    9000005    1    3    3    0    0  0.19155436787E+02 -0.48823580626E+02 -0.12965677966E+03  0.13986619783E+03  0.10000000000E+01 0.  0.
    9000005    1    3    3    0    0 -0.19155436787E+02  0.48823580626E+02 -0.45433851311E+03  0.45735670682E+03  0.10000000000E+01 0.  0.
<mgrwt>
<rscale>  0 0.12499878E+03</rscale>
<asrwt>0</asrwt>
<pdfrwt beam="1">  1        4 0.10175091E-02 0.12499878E+03</pdfrwt>
<pdfrwt beam="2">  1       -4 0.90862897E-01 0.12499878E+03</pdfrwt>
<totfact> 0.49044704E+03</totfact>
</mgrwt>
</event>
<event>
 5    1  0.3312904E-002  0.1250023E+03  0.7818608E-02  0.1235066E+00
          4   -1    0    0  501    0  0.00000000000E+00  0.00000000000E+00  0.46407764672E+02  0.46425138900E+02  0.12700000000E+01 0. -1.
         -4   -1    0    0    0  501 -0.00000000000E+00 -0.00000000000E+00 -0.84137481343E+02  0.84147065705E+02  0.12700000000E+01 0. -1.
         25    2    1    2    0    0  0.00000000000E+00  0.00000000000E+00 -0.37729716671E+02  0.13057220461E+03  0.12500227636E+03 0.  0.
    9000005    1    3    3    0    0 -0.15588267489E+01  0.35423287448E+02 -0.72618062230E+02  0.80818452080E+02  0.10000000000E+01 0.  0.
    9000005    1    3    3    0    0  0.15588267489E+01 -0.35423287448E+02  0.34888345559E+02  0.49753752525E+02  0.10000000000E+01 0.  0.
<mgrwt>
<rscale>  0 0.12500228E+03</rscale>
<asrwt>0</asrwt>
<pdfrwt beam="1">  1        4 0.71417299E-02 0.12500228E+03</pdfrwt>
<pdfrwt beam="2">  1       -4 0.12946302E-01 0.12500228E+03</pdfrwt>
<totfact> 0.10331739E+04</totfact>
</mgrwt>
</event>
<event>
 5    1  0.3312904E-002  0.1249937E+03  0.7818608E-02  0.1235079E+00
         -4   -1    0    0    0  501 -0.00000000000E+00  0.00000000000E+00  0.12713559526E+02  0.12776834343E+02  0.12700000000E+01 0.  1.
          4   -1    0    0  501    0  0.00000000000E+00 -0.00000000000E+00 -0.30639236892E+03  0.30639500099E+03  0.12700000000E+01 0.  1.
         25    2    1    2    0    0  0.00000000000E+00  0.00000000000E+00 -0.29367880939E+03  0.31917183533E+03  0.12499366937E+03 0.  0.
    9000005    1    3    3    0    0  0.31205145249E+02  0.44818459480E+02 -0.69286879714E+02  0.88227700303E+02  0.10000000000E+01 0.  0.
    9000005    1    3    3    0    0 -0.31205145249E+02 -0.44818459480E+02 -0.22439192968E+03  0.23094413503E+03  0.10000000000E+01 0.  0.
<mgrwt>
<rscale>  0 0.12499367E+03</rscale>
<asrwt>0</asrwt>
<pdfrwt beam="2">  1        4 0.47142352E-01 0.12499367E+03</pdfrwt>
<pdfrwt beam="1">  1       -4 0.19610022E-02 0.12499367E+03</pdfrwt>
<totfact> 0.73265016E+03</totfact>
</mgrwt>
</event>
<event>
 5    1  0.3312904E-002  0.1250027E+03  0.7818608E-02  0.1235065E+00
          4   -1    0    0  501    0  0.00000000000E+00  0.00000000000E+00  0.23139930643E+03  0.23140279151E+03  0.12700000000E+01 0. -1.
         -4   -1    0    0    0  501 -0.00000000000E+00 -0.00000000000E+00 -0.16854218736E+02  0.16901999562E+02  0.12700000000E+01 0. -1.
         25    2    1    2    0    0  0.00000000000E+00  0.00000000000E+00  0.21454508770E+03  0.24830479107E+03  0.12500269842E+03 0.  0.
    9000005    1    3    3    0    0 -0.59222303416E+01  0.35352273320E+02  0.55861182756E+01  0.36291331726E+02  0.10000000000E+01 0.  0.
    9000005    1    3    3    0    0  0.59222303416E+01 -0.35352273320E+02  0.20895896942E+03  0.21201345934E+03  0.10000000000E+01 0.  0.
<mgrwt>
<rscale>  0 0.12500270E+03</rscale>
<asrwt>0</asrwt>
<pdfrwt beam="1">  1        4 0.35603835E-01 0.12500270E+03</pdfrwt>
<pdfrwt beam="2">  1       -4 0.25969004E-02 0.12500270E+03</pdfrwt>
<totfact> 0.82570894E+03</totfact>
</mgrwt>
</event>
<event>
 5    1  0.3312904E-002  0.1249793E+03  0.7818608E-02  0.1235102E+00
         -4   -1    0    0    0  501 -0.00000000000E+00  0.00000000000E+00  0.50382135222E+03  0.50382295289E+03  0.12700000000E+01 0. -1.
          4   -1    0    0  501    0  0.00000000000E+00 -0.00000000000E+00 -0.76970258517E+01  0.78010965230E+01  0.12700000000E+01 0. -1.
         25    2    1    2    0    0  0.00000000000E+00  0.00000000000E+00  0.49612432637E+03  0.51162404941E+03  0.12497928115E+03 0.  0.
    9000005    1    3    3    0    0 -0.34991308736E+02 -0.32734389031E+02  0.83905281923E+02  0.96628299410E+02  0.10000000000E+01 0.  0.
    9000005    1    3    3    0    0  0.34991308736E+02  0.32734389031E+02  0.41221904445E+03  0.41499575000E+03  0.10000000000E+01 0.  0.
<mgrwt>
<rscale>  0 0.12497928E+03</rscale>
<asrwt>0</asrwt>
<pdfrwt beam="2">  1        4 0.11922864E-02 0.12497928E+03</pdfrwt>
<pdfrwt beam="1">  1       -4 0.77519104E-01 0.12497928E+03</pdfrwt>
<totfact> 0.54998671E+03</totfact>
</mgrwt>
</event>
<event>
 5    1  0.3312904E-002  0.1250069E+03  0.7818608E-02  0.1235059E+00
          4   -1    0    0  501    0  0.00000000000E+00  0.00000000000E+00  0.13702631321E+02  0.13761359131E+02  0.12700000000E+01 0. -1.
         -4   -1    0    0    0  501 -0.00000000000E+00 -0.00000000000E+00 -0.28443447268E+03  0.28443730794E+03  0.12700000000E+01 0. -1.
         25    2    1    2    0    0  0.00000000000E+00  0.00000000000E+00 -0.27073184136E+03  0.29819866707E+03  0.12500686028E+03 0.  0.
    9000005    1    3    3    0    0  0.10345571344E+02 -0.13258054641E+02  0.82155312652E+01  0.18743047065E+02  0.10000000000E+01 0.  0.
    9000005    1    3    3    0    0 -0.10345571344E+02  0.13258054641E+02 -0.27894737262E+03  0.27945562001E+03  0.10000000000E+01 0.  0.
<mgrwt>
<rscale>  0 0.12500686E+03</rscale>
<asrwt>0</asrwt>
<pdfrwt beam="1">  1        4 0.21128330E-02 0.12500686E+03</pdfrwt>
<pdfrwt beam="2">  1       -4 0.43763881E-01 0.12500686E+03</pdfrwt>
<totfact> 0.75813806E+03</totfact>
</mgrwt>
</event>
<event>
 5    1  0.3312904E-002  0.1249972E+03  0.7818608E-02  0.1235074E+00
          4   -1    0    0  501    0  0.00000000000E+00  0.00000000000E+00  0.45647625100E+03  0.45647801768E+03  0.12700000000E+01 0. -1.
         -4   -1    0    0    0  501 -0.00000000000E+00 -0.00000000000E+00 -0.85080959856E+01  0.86023599843E+01  0.12700000000E+01 0. -1.
         25    2    1    2    0    0  0.00000000000E+00  0.00000000000E+00  0.44796815501E+03  0.46508037766E+03  0.12499715910E+03 0.  0.
    9000005    1    3    3    0    0 -0.21236362679E+02  0.44899436978E+02  0.82884103910E+02  0.96631864422E+02  0.10000000000E+01 0.  0.
    9000005    1    3    3    0    0  0.21236362679E+02 -0.44899436978E+02  0.36508405110E+03  0.36844851324E+03  0.10000000000E+01 0.  0.
<mgrwt>
<rscale>  0 0.12499716E+03</rscale>
<asrwt>0</asrwt>
<pdfrwt beam="1">  1        4 0.70234513E-01 0.12499716E+03</pdfrwt>
<pdfrwt beam="2">  1       -4 0.13163246E-02 0.12499716E+03</pdfrwt>
<totfact> 0.58682950E+03</totfact>
</mgrwt>
</event>
<event>
 5    1  0.3312904E-002  0.1250009E+03  0.7818608E-02  0.1235068E+00
          4   -1    0    0  501    0  0.00000000000E+00  0.00000000000E+00  0.21215172132E+03  0.21215552258E+03  0.12700000000E+01 0. -1.
         -4   -1    0    0    0  501 -0.00000000000E+00 -0.00000000000E+00 -0.18386922754E+02  0.18430730543E+02  0.12700000000E+01 0. -1.
         25    2    1    2    0    0  0.00000000000E+00  0.00000000000E+00  0.19376479857E+03  0.23058625312E+03  0.12500089185E+03 0.  0.
    9000005    1    3    3    0    0 -0.32262451970E+02  0.49710057485E+02  0.60296819355E+02  0.84549760772E+02  0.10000000000E+01 0.  0.
    9000005    1    3    3    0    0  0.32262451970E+02 -0.49710057485E+02  0.13346797921E+03  0.14603649235E+03  0.10000000000E+01 0.  0.
<mgrwt>
<rscale>  0 0.12500089E+03</rscale>
<asrwt>0</asrwt>
<pdfrwt beam="1">  1        4 0.32642389E-01 0.12500089E+03</pdfrwt>
<pdfrwt beam="2">  1       -4 0.28324196E-02 0.12500089E+03</pdfrwt>
<totfact> 0.85217962E+03</totfact>
</mgrwt>
</event>
<event>
 5    1  0.3312904E-002  0.1250033E+03  0.7818608E-02  0.1235064E+00
         -4   -1    0    0    0  501 -0.00000000000E+00  0.00000000000E+00  0.31754762092E+02  0.31780148135E+02  0.12700000000E+01 0.  1.
          4   -1    0    0  501    0  0.00000000000E+00 -0.00000000000E+00 -0.12294168689E+03  0.12294824633E+03  0.12700000000E+01 0.  1.
         25    2    1    2    0    0  0.00000000000E+00  0.00000000000E+00 -0.91186924801E+02  0.15472839447E+03  0.12500328315E+03 0.  0.
    9000005    1    3    3    0    0  0.41620379535E+02  0.16093620039E+02  0.85619220100E+01  0.45448510505E+02  0.10000000000E+01 0.  0.
    9000005    1    3    3    0    0 -0.41620379535E+02 -0.16093620039E+02 -0.99748846811E+02  0.10927988396E+03  0.10000000000E+01 0.  0.
<mgrwt>
<rscale>  0 0.12500328E+03</rscale>
<asrwt>0</asrwt>
<pdfrwt beam="2">  1        4 0.18916563E-01 0.12500328E+03</pdfrwt>
<pdfrwt beam="1">  1       -4 0.48878054E-02 0.12500328E+03</pdfrwt>
<totfact> 0.98361582E+03</totfact>
</mgrwt>
</event>
<event>
 5    1  0.3312904E-002  0.1250020E+03  0.7818608E-02  0.1235066E+00
          4   -1    0    0  501    0  0.00000000000E+00  0.00000000000E+00  0.74082580829E+03  0.74082689688E+03  0.12700000000E+01 0. -1.
         -4   -1    0    0    0  501 -0.00000000000E+00 -0.00000000000E+00 -0.51954216491E+01  0.53483928532E+01  0.12700000000E+01 0. -1.
         25    2    1    2    0    0  0.00000000000E+00  0.00000000000E+00  0.73563038665E+03  0.74617528973E+03  0.12500198897E+03 0.  0.
    9000005    1    3    3    0    0 -0.62202254887E+02  0.19416671504E+01  0.40183696045E+03  0.40662861848E+03  0.10000000000E+01 0.  0.
    9000005    1    3    3    0    0  0.62202254887E+02 -0.19416671504E+01  0.33379342620E+03  0.33954667125E+03  0.10000000000E+01 0.  0.
<mgrwt>
<rscale>  0 0.12500199E+03</rscale>
<asrwt>0</asrwt>
<pdfrwt beam="1">  1        4 0.11398507E+00 0.12500199E+03</pdfrwt>
<pdfrwt beam="2">  1       -4 0.81114625E-03 0.12500199E+03</pdfrwt>
<totfact> 0.40755963E+03</totfact>
</mgrwt>
</event>
<event>
 5    1  0.3312904E-002  0.1250083E+03  0.7818608E-02  0.1235056E+00
         -4   -1    0    0    0  501 -0.00000000000E+00  0.00000000000E+00  0.19150668227E+03  0.19151089330E+03  0.12700000000E+01 0. -1.
          4   -1    0    0  501    0  0.00000000000E+00 -0.00000000000E+00 -0.20375949226E+02  0.20415489386E+02  0.12700000000E+01 0. -1.
         25    2    1    2    0    0  0.00000000000E+00  0.00000000000E+00  0.17113073304E+03  0.21192638269E+03  0.12500825528E+03 0.  0.
    9000005    1    3    3    0    0  0.16522918694E+02 -0.57621787201E+02  0.11553376526E+03  0.13016269864E+03  0.10000000000E+01 0.  0.
    9000005    1    3    3    0    0 -0.16522918694E+02  0.57621787201E+02  0.55596967784E+02  0.81763684049E+02  0.10000000000E+01 0.  0.
<mgrwt>
<rscale>  0 0.12500826E+03</rscale>
<asrwt>0</asrwt>
<pdfrwt beam="2">  1        4 0.31381269E-02 0.12500826E+03</pdfrwt>
<pdfrwt beam="1">  1       -4 0.29465932E-01 0.12500826E+03</pdfrwt>
<totfact> 0.88145974E+03</totfact>
</mgrwt>
</event>
<event>
 5    1  0.3312904E-002  0.1250026E+03  0.7818608E-02  0.1235065E+00
          4   -1    0    0  501    0  0.00000000000E+00  0.00000000000E+00  0.36586695204E+03  0.36586915625E+03  0.12700000000E+01 0.  1.
         -4   -1    0    0    0  501 -0.00000000000E+00 -0.00000000000E+00 -0.10637128809E+02  0.10712675170E+02  0.12700000000E+01 0.  1.
         25    2    1    2    0    0  0.00000000000E+00  0.00000000000E+00  0.35522982324E+03  0.37658183142E+03  0.12500259374E+03 0.  0.
    9000005    1    3    3    0    0 -0.90049339198E+00  0.13907314596E+02 -0.59107531984E+01  0.15171067563E+02  0.10000000000E+01 0.  0.
    9000005    1    3    3    0    0  0.90049339198E+00 -0.13907314596E+02  0.36114057643E+03  0.36141076386E+03  0.10000000000E+01 0.  0.
<mgrwt>
<rscale>  0 0.12500259E+03</rscale>
<asrwt>0</asrwt>
<pdfrwt beam="1">  1        4 0.56293215E-01 0.12500259E+03</pdfrwt>
<pdfrwt beam="2">  1       -4 0.16424618E-02 0.12500259E+03</pdfrwt>
<totfact> 0.66892086E+03</totfact>
</mgrwt>
</event>
<event>
 5    1  0.3312904E-002  0.1250063E+03  0.7818608E-02  0.1235059E+00
         -4   -1    0    0    0  501 -0.00000000000E+00  0.00000000000E+00  0.21405556403E+02  0.21443198103E+02  0.12700000000E+01 0. -1.
          4   -1    0    0  501    0  0.00000000000E+00 -0.00000000000E+00 -0.18230589770E+03  0.18231032125E+03  0.12700000000E+01 0. -1.
         25    2    1    2    0    0  0.00000000000E+00  0.00000000000E+00 -0.16090034130E+03  0.20375351936E+03  0.12500630713E+03 0.  0.
    9000005    1    3    3    0    0  0.30964580109E+02  0.50688835309E+02 -0.11211817662E+03  0.12688439137E+03  0.10000000000E+01 0.  0.
    9000005    1    3    3    0    0 -0.30964580109E+02 -0.50688835309E+02 -0.48782164681E+02  0.76869127986E+02  0.10000000000E+01 0.  0.
<mgrwt>
<rscale>  0 0.12500631E+03</rscale>
<asrwt>0</asrwt>
<pdfrwt beam="2">  1        4 0.28050296E-01 0.12500631E+03</pdfrwt>
<pdfrwt beam="1">  1       -4 0.32963984E-02 0.12500631E+03</pdfrwt>
<totfact> 0.89493657E+03</totfact>
</mgrwt>
</event>
<event>
 5    1  0.3312904E-002  0.1249984E+03  0.7818608E-02  0.1235072E+00
         -4   -1    0    0    0  501 -0.00000000000E+00  0.00000000000E+00  0.10142136054E+02  0.10221341582E+02  0.12700000000E+01 0. -1.
          4   -1    0    0  501    0  0.00000000000E+00 -0.00000000000E+00 -0.38356260777E+03  0.38356471029E+03  0.12700000000E+01 0. -1.
         25    2    1    2    0    0  0.00000000000E+00  0.00000000000E+00 -0.37342047172E+03  0.39378605187E+03  0.12499842380E+03 0.  0.
    9000005    1    3    3    0    0  0.32702131815E+02  0.48015734805E+02 -0.11416978151E+03  0.12810417333E+03  0.10000000000E+01 0.  0.
    9000005    1    3    3    0    0 -0.32702131815E+02 -0.48015734805E+02 -0.25925069021E+03  0.26568187854E+03  0.10000000000E+01 0.  0.
<mgrwt>
<rscale>  0 0.12499842E+03</rscale>
<asrwt>0</asrwt>
<pdfrwt beam="2">  1        4 0.59015875E-01 0.12499842E+03</pdfrwt>
<pdfrwt beam="1">  1       -4 0.15665834E-02 0.12499842E+03</pdfrwt>
<totfact> 0.65163944E+03</totfact>
</mgrwt>
</event>
<event>
 5    1  0.3312904E-002  0.1250024E+03  0.7818608E-02  0.1235066E+00
          4   -1    0    0  501    0  0.00000000000E+00  0.00000000000E+00  0.70346244560E+02  0.70357707636E+02  0.12700000000E+01 0.  1.
         -4   -1    0    0    0  501 -0.00000000000E+00 -0.00000000000E+00 -0.55507764877E+02  0.55522291574E+02  0.12700000000E+01 0.  1.
         25    2    1    2    0    0  0.00000000000E+00  0.00000000000E+00  0.14838479683E+02  0.12587999921E+03  0.12500237486E+03 0.  0.
    9000005    1    3    3    0    0  0.40886447963E+02 -0.35944939240E+02  0.38321134052E+02  0.66582652388E+02  0.10000000000E+01 0.  0.
    9000005    1    3    3    0    0 -0.40886447963E+02  0.35944939240E+02 -0.23482654368E+02  0.59297346822E+02  0.10000000000E+01 0.  0.
<mgrwt>
<rscale>  0 0.12500237E+03</rscale>
<asrwt>0</asrwt>
<pdfrwt beam="1">  1        4 0.10824498E-01 0.12500237E+03</pdfrwt>
<pdfrwt beam="2">  1       -4 0.85416554E-02 0.12500237E+03</pdfrwt>
<totfact> 0.10433029E+04</totfact>
</mgrwt>
</event>
<event>
 5    1  0.3312904E-002  0.1250040E+03  0.7818608E-02  0.1235063E+00
          4   -1    0    0  501    0  0.00000000000E+00  0.00000000000E+00  0.77139165379E+02  0.77149619153E+02  0.12700000000E+01 0. -1.
         -4   -1    0    0    0  501 -0.00000000000E+00 -0.00000000000E+00 -0.50620353964E+02  0.50636282797E+02  0.12700000000E+01 0. -1.
         25    2    1    2    0    0  0.00000000000E+00  0.00000000000E+00  0.26518811415E+02  0.12778590195E+03  0.12500395745E+03 0.  0.
    9000005    1    3    3    0    0  0.27262295200E+02 -0.29601222322E+02  0.62135934637E+02  0.74036068748E+02  0.10000000000E+01 0.  0.
    9000005    1    3    3    0    0 -0.27262295200E+02  0.29601222322E+02 -0.35617123222E+02  0.53749833201E+02  0.10000000000E+01 0.  0.
<mgrwt>
<rscale>  0 0.12500396E+03</rscale>
<asrwt>0</asrwt>
<pdfrwt beam="1">  1        4 0.11869593E-01 0.12500396E+03</pdfrwt>
<pdfrwt beam="2">  1       -4 0.77897762E-02 0.12500396E+03</pdfrwt>
<totfact> 0.10391186E+04</totfact>
</mgrwt>
</event>
<event>
 5    1  0.3312904E-002  0.1249993E+03  0.7818608E-02  0.1235070E+00
          4   -1    0    0  501    0  0.00000000000E+00  0.00000000000E+00  0.16660052603E+03  0.16660536658E+03  0.12700000000E+01 0.  1.
         -4   -1    0    0    0  501 -0.00000000000E+00 -0.00000000000E+00 -0.23424159468E+02  0.23458562334E+02  0.12700000000E+01 0.  1.
         25    2    1    2    0    0  0.00000000000E+00  0.00000000000E+00  0.14317636656E+03  0.19006392891E+03  0.12499930053E+03 0.  0.
    9000005    1    3    3    0    0  0.51418340194E+02 -0.35266909851E+02  0.77968145124E+02  0.99838030294E+02  0.10000000000E+01 0.  0.
    9000005    1    3    3    0    0 -0.51418340194E+02  0.35266909851E+02  0.65208221434E+02  0.90225898618E+02  0.10000000000E+01 0.  0.
<mgrwt>
<rscale>  0 0.12499930E+03</rscale>
<asrwt>0</asrwt>
<pdfrwt beam="1">  1        4 0.25633869E-01 0.12499930E+03</pdfrwt>
<pdfrwt beam="2">  1       -4 0.36067355E-02 0.12499930E+03</pdfrwt>
<totfact> 0.91837630E+03</totfact>
</mgrwt>
</event>
<event>
 5    1  0.3312904E-002  0.1250001E+03  0.7818608E-02  0.1235069E+00
          4   -1    0    0  501    0  0.00000000000E+00  0.00000000000E+00  0.67204145138E+02  0.67216144071E+02  0.12700000000E+01 0. -1.
         -4   -1    0    0    0  501 -0.00000000000E+00 -0.00000000000E+00 -0.58101103227E+02  0.58114981685E+02  0.12700000000E+01 0. -1.
         25    2    1    2    0    0  0.00000000000E+00  0.00000000000E+00  0.91030419109E+01  0.12533112576E+03  0.12500010284E+03 0.  0.
    9000005    1    3    3    0    0 -0.56644814869E+02 -0.11527411047E+02  0.28357610436E+02  0.64394645171E+02  0.10000000000E+01 0.  0.
    9000005    1    3    3    0    0  0.56644814869E+02  0.11527411047E+02 -0.19254568525E+02  0.60936480585E+02  0.10000000000E+01 0.  0.
<mgrwt>
<rscale>  0 0.12500010E+03</rscale>
<asrwt>0</asrwt>
<pdfrwt beam="1">  1        4 0.10341090E-01 0.12500010E+03</pdfrwt>
<pdfrwt beam="2">  1       -4 0.89406218E-02 0.12500010E+03</pdfrwt>
<totfact> 0.10445650E+04</totfact>
</mgrwt>
</event>
<event>
 5    1  0.3312904E-002  0.1250007E+03  0.7818608E-02  0.1235068E+00
         -4   -1    0    0    0  501 -0.00000000000E+00  0.00000000000E+00  0.10212983607E+04  0.10212991503E+04  0.12700000000E+01 0.  1.
          4   -1    0    0  501    0  0.00000000000E+00 -0.00000000000E+00 -0.37185933311E+01  0.39294829637E+01  0.12700000000E+01 0.  1.
         25    2    1    2    0    0  0.00000000000E+00  0.00000000000E+00  0.10175797673E+04  0.10252286333E+04  0.12500067028E+03 0.  0.
    9000005    1    3    3    0    0 -0.18670953481E+02  0.94690729202E+01  0.25856962330E+02  0.33284385930E+02  0.10000000000E+01 0.  0.
    9000005    1    3    3    0    0  0.18670953481E+02 -0.94690729202E+01  0.99172280501E+03  0.99194424734E+03  0.10000000000E+01 0.  0.
<mgrwt>
<rscale>  0 0.12500067E+03</rscale>
<asrwt>0</asrwt>
<pdfrwt beam="2">  1        4 0.58837353E-03 0.12500067E+03</pdfrwt>
<pdfrwt beam="1">  1       -4 0.15713931E+00 0.12500067E+03</pdfrwt>
<totfact> 0.29780520E+03</totfact>
</mgrwt>
</event>
<event>
 5    1  0.3312904E-002  0.1250006E+03  0.7818608E-02  0.1235068E+00
          4   -1    0    0  501    0  0.00000000000E+00  0.00000000000E+00  0.18453869077E+01  0.22401680381E+01  0.12700000000E+01 0.  1.
         -4   -1    0    0    0  501 -0.00000000000E+00 -0.00000000000E+00 -0.19118473999E+04  0.19118478217E+04  0.12700000000E+01 0.  1.
         25    2    1    2    0    0  0.00000000000E+00  0.00000000000E+00 -0.19100020130E+04  0.19140879898E+04  0.12500057156E+03 0.  0.
    9000005    1    3    3    0    0  0.22716494787E+02 -0.46172404825E+02 -0.41202709538E+03  0.41522916255E+03  0.10000000000E+01 0.  0.
    9000005    1    3    3    0    0 -0.22716494787E+02  0.46172404825E+02 -0.14979749176E+04  0.14988588272E+04  0.10000000000E+01 0.  0.
<mgrwt>
<rscale>  0 0.12500057E+03</rscale>
<asrwt>0</asrwt>
<pdfrwt beam="1">  1        4 0.31430743E-03 0.12500057E+03</pdfrwt>
<pdfrwt beam="2">  1       -4 0.29415934E+00 0.12500057E+03</pdfrwt>
<totfact> 0.11024538E+03</totfact>
</mgrwt>
</event>
<event>
 5    1  0.3312904E-002  0.1250002E+03  0.7818608E-02  0.1235069E+00
         -4   -1    0    0    0  501 -0.00000000000E+00  0.00000000000E+00  0.55144570121E+02  0.55159192469E+02  0.12700000000E+01 0.  1.
          4   -1    0    0  501    0  0.00000000000E+00 -0.00000000000E+00 -0.70807048511E+02  0.70818436998E+02  0.12700000000E+01 0.  1.
         25    2    1    2    0    0  0.00000000000E+00  0.00000000000E+00 -0.15662478391E+02  0.12597762947E+03  0.12500019959E+03 0.  0.
    9000005    1    3    3    0    0 -0.56863994049E+02 -0.32715331058E+00  0.18287459029E+02  0.59741543387E+02  0.10000000000E+01 0.  0.
    9000005    1    3    3    0    0  0.56863994049E+02  0.32715331058E+00 -0.33949937419E+02  0.66236086081E+02  0.10000000000E+01 0.  0.
<mgrwt>
<rscale>  0 0.12500020E+03</rscale>
<asrwt>0</asrwt>
<pdfrwt beam="2">  1        4 0.10895393E-01 0.12500020E+03</pdfrwt>
<pdfrwt beam="1">  1       -4 0.84857808E-02 0.12500020E+03</pdfrwt>
<totfact> 0.10431400E+04</totfact>
</mgrwt>
</event>
<event>
 5    1  0.3312904E-002  0.1250030E+03  0.7818608E-02  0.1235065E+00
         -4   -1    0    0    0  501 -0.00000000000E+00  0.00000000000E+00  0.27266078549E+02  0.27295639569E+02  0.12700000000E+01 0. -1.
          4   -1    0    0  501    0  0.00000000000E+00 -0.00000000000E+00 -0.14316101297E+03  0.14316664602E+03  0.12700000000E+01 0. -1.
         25    2    1    2    0    0  0.00000000000E+00  0.00000000000E+00 -0.11589493442E+03  0.17046228559E+03  0.12500301991E+03 0.  0.
    9000005    1    3    3    0    0  0.46095467972E+02  0.20920869459E+02 -0.79739455724E+01  0.51254841279E+02  0.10000000000E+01 0.  0.
    9000005    1    3    3    0    0 -0.46095467972E+02 -0.20920869459E+02 -0.10792098884E+03  0.11920744431E+03  0.10000000000E+01 0.  0.
<mgrwt>
<rscale>  0 0.12500302E+03</rscale>
<asrwt>0</asrwt>
<pdfrwt beam="2">  1        4 0.22027478E-01 0.12500302E+03</pdfrwt>
<pdfrwt beam="1">  1       -4 0.41974886E-02 0.12500302E+03</pdfrwt>
<totfact> 0.95356080E+03</totfact>
</mgrwt>
</event>
<event>
 5    1  0.3312904E-002  0.1249927E+03  0.7818608E-02  0.1235081E+00
         -4   -1    0    0    0  501 -0.00000000000E+00  0.00000000000E+00  0.16590390261E+03  0.16590876348E+03  0.12700000000E+01 0. -1.
          4   -1    0    0  501    0  0.00000000000E+00 -0.00000000000E+00 -0.23520179169E+02  0.23554441793E+02  0.12700000000E+01 0. -1.
         25    2    1    2    0    0  0.00000000000E+00  0.00000000000E+00  0.14238372344E+03  0.18946320528E+03  0.12499272560E+03 0.  0.
    9000005    1    3    3    0    0  0.14282116391E+02  0.60343204257E+02  0.59498200827E+02  0.85943685343E+02  0.10000000000E+01 0.  0.
    9000005    1    3    3    0    0 -0.14282116391E+02 -0.60343204257E+02  0.82885522613E+02  0.10351951993E+03  0.10000000000E+01 0.  0.
<mgrwt>
<rscale>  0 0.12499273E+03</rscale>
<asrwt>0</asrwt>
<pdfrwt beam="2">  1        4 0.36214986E-02 0.12499273E+03</pdfrwt>
<pdfrwt beam="1">  1       -4 0.25526687E-01 0.12499273E+03</pdfrwt>
<totfact> 0.91955782E+03</totfact>
</mgrwt>
</event>
<event>
 5    1  0.3312904E-002  0.1250030E+03  0.7818608E-02  0.1235065E+00
          4   -1    0    0  501    0  0.00000000000E+00  0.00000000000E+00  0.18356115739E+02  0.18399996875E+02  0.12700000000E+01 0. -1.
         -4   -1    0    0    0  501 -0.00000000000E+00 -0.00000000000E+00 -0.21251412413E+03  0.21251791890E+03  0.12700000000E+01 0. -1.
         25    2    1    2    0    0  0.00000000000E+00  0.00000000000E+00 -0.19415800839E+03  0.23091791577E+03  0.12500300638E+03 0.  0.
    9000005    1    3    3    0    0  0.40305128984E+02 -0.47269847864E+02 -0.10967535619E+03  0.12605009201E+03  0.10000000000E+01 0.  0.
    9000005    1    3    3    0    0 -0.40305128984E+02  0.47269847864E+02 -0.84482652198E+02  0.10486782377E+03  0.10000000000E+01 0.  0.
<mgrwt>
<rscale>  0 0.12500301E+03</rscale>
<asrwt>0</asrwt>
<pdfrwt beam="1">  1        4 0.28276853E-02 0.12500301E+03</pdfrwt>
<pdfrwt beam="2">  1       -4 0.32698146E-01 0.12500301E+03</pdfrwt>
<totfact> 0.85163138E+03</totfact>
</mgrwt>
</event>
<event>
 4    1  0.3312904E-002  0.1250685E+03  0.7818608E-02  0.1234962E+00
          4   -1    0    0  501    0  0.00000000000E+00  0.00000000000E+00  0.51279802723E+02  0.51295526777E+02  0.12700000000E+01 0. -1.
         -4   -1    0    0    0  501 -0.00000000000E+00 -0.00000000000E+00 -0.76225975327E+02  0.76236554319E+02  0.12700000000E+01 0. -1.
    9000005    1    1    2    0    0 -0.23450081543E+02 -0.29040106893E+02  0.38677721129E+02  0.53760582628E+02  0.10000000000E+01 0.  0.
    9000005    1    1    2    0    0  0.23450081543E+02  0.29040106893E+02 -0.63623893732E+02  0.73771498469E+02  0.10000000000E+01 0.  0.
<mgrwt>
<rscale>  0 0.12506846E+03</rscale>
<asrwt>0</asrwt>
<pdfrwt beam="1">  1        4 0.78912237E-02 0.12506846E+03</pdfrwt>
<pdfrwt beam="2">  1       -4 0.11729096E-01 0.12506846E+03</pdfrwt>
<totfact> 0.10381553E+04</totfact>
</mgrwt>
</event>
<event>
 5    1  0.3312904E-002  0.1250014E+03  0.7818608E-02  0.1235067E+00
          4   -1    0    0  501    0  0.00000000000E+00  0.00000000000E+00  0.20692391702E+02  0.20731328331E+02  0.12700000000E+01 0.  1.
         -4   -1    0    0    0  501 -0.00000000000E+00 -0.00000000000E+00 -0.18856287557E+03  0.18856715234E+03  0.12700000000E+01 0.  1.
         25    2    1    2    0    0  0.00000000000E+00  0.00000000000E+00 -0.16787048387E+03  0.20929848067E+03  0.12500141863E+03 0.  0.
    9000005    1    3    3    0    0 -0.50995078565E+02  0.30055439724E+02 -0.50384668313E+02  0.77739579983E+02  0.10000000000E+01 0.  0.
    9000005    1    3    3    0    0  0.50995078565E+02 -0.30055439724E+02 -0.11748581555E+03  0.13155890069E+03  0.10000000000E+01 0.  0.
<mgrwt>
<rscale>  0 0.12500142E+03</rscale>
<asrwt>0</asrwt>
<pdfrwt beam="1">  1        4 0.31867691E-02 0.12500142E+03</pdfrwt>
<pdfrwt beam="2">  1       -4 0.29012996E-01 0.12500142E+03</pdfrwt>
<totfact> 0.88587767E+03</totfact>
</mgrwt>
</event>
<event>
 5    1  0.3312904E-002  0.1250004E+03  0.7818608E-02  0.1235069E+00
         -4   -1    0    0    0  501 -0.00000000000E+00  0.00000000000E+00  0.98166067006E+01  0.98984174045E+01  0.12700000000E+01 0.  1.
          4   -1    0    0  501    0  0.00000000000E+00 -0.00000000000E+00 -0.39619127941E+03  0.39619331491E+03  0.12700000000E+01 0.  1.
         25    2    1    2    0    0  0.00000000000E+00  0.00000000000E+00 -0.38637467271E+03  0.40609173231E+03  0.12500042938E+03 0.  0.
    9000005    1    3    3    0    0 -0.10037205449E+02 -0.25540152094E+02 -0.10788640908E+02  0.29503213975E+02  0.10000000000E+01 0.  0.
    9000005    1    3    3    0    0  0.10037205449E+02  0.25540152094E+02 -0.37558603180E+03  0.37658851834E+03  0.10000000000E+01 0.  0.
<mgrwt>
<rscale>  0 0.12500043E+03</rscale>
<asrwt>0</asrwt>
<pdfrwt beam="2">  1        4 0.60958942E-01 0.12500043E+03</pdfrwt>
<pdfrwt beam="1">  1       -4 0.15166972E-02 0.12500043E+03</pdfrwt>
<totfact> 0.63963995E+03</totfact>
</mgrwt>
</event>
<event>
 5    1  0.3312904E-002  0.1249967E+03  0.7818608E-02  0.1235074E+00
          4   -1    0    0  501    0  0.00000000000E+00  0.00000000000E+00  0.85000880215E+03  0.85000975090E+03  0.12700000000E+01 0. -1.
         -4   -1    0    0    0  501 -0.00000000000E+00 -0.00000000000E+00 -0.45065800175E+01  0.46821110041E+01  0.12700000000E+01 0. -1.
         25    2    1    2    0    0  0.00000000000E+00  0.00000000000E+00  0.84550222213E+03  0.85469186191E+03  0.12499668468E+03 0.  0.
    9000005    1    3    3    0    0 -0.56289052062E+02  0.16449091486E+02  0.27514307616E+03  0.28132497641E+03  0.10000000000E+01 0.  0.
    9000005    1    3    3    0    0  0.56289052062E+02 -0.16449091486E+02  0.57035914597E+03  0.57336688550E+03  0.10000000000E+01 0.  0.
<mgrwt>
<rscale>  0 0.12499668E+03</rscale>
<asrwt>0</asrwt>
<pdfrwt beam="1">  1        4 0.13078423E+00 0.12499668E+03</pdfrwt>
<pdfrwt beam="2">  1       -4 0.70689500E-03 0.12499668E+03</pdfrwt>
<totfact> 0.35938676E+03</totfact>
</mgrwt>
</event>
<event>
 5    1  0.3312904E-002  0.1250158E+03  0.7818608E-02  0.1235045E+00
          4   -1    0    0  501    0  0.00000000000E+00  0.00000000000E+00  0.16288229941E+02  0.16337666131E+02  0.12700000000E+01 0. -1.
         -4   -1    0    0    0  501 -0.00000000000E+00 -0.00000000000E+00 -0.23946626473E+03  0.23946963241E+03  0.12700000000E+01 0. -1.
         25    2    1    2    0    0  0.00000000000E+00  0.00000000000E+00 -0.22317803479E+03  0.25580729854E+03  0.12501575409E+03 0.  0.
    9000005    1    3    3    0    0 -0.41960664035E+02 -0.24946433933E+02 -0.19144886495E+03  0.19757704771E+03  0.10000000000E+01 0.  0.
    9000005    1    3    3    0    0  0.41960664035E+02  0.24946433933E+02 -0.31729169840E+02  0.58230250824E+02  0.10000000000E+01 0.  0.
<mgrwt>
<rscale>  0 0.12501575E+03</rscale>
<asrwt>0</asrwt>
<pdfrwt beam="1">  1        4 0.25099435E-02 0.12501575E+03</pdfrwt>
<pdfrwt beam="2">  1       -4 0.36845023E-01 0.12501575E+03</pdfrwt>
<totfact> 0.81469490E+03</totfact>
</mgrwt>
</event>
<event>
 5    1  0.3312904E-002  0.1249794E+03  0.7818608E-02  0.1235101E+00
          4   -1    0    0  501    0  0.00000000000E+00  0.00000000000E+00  0.53710346106E+01  0.55191405842E+01  0.12700000000E+01 0.  1.
         -4   -1    0    0    0  501 -0.00000000000E+00 -0.00000000000E+00 -0.71700462369E+03  0.71700574844E+03  0.12700000000E+01 0.  1.
         25    2    1    2    0    0  0.00000000000E+00  0.00000000000E+00 -0.71163358908E+03  0.72252488903E+03  0.12497939890E+03 0.  0.
    9000005    1    3    3    0    0 -0.48580395486E+02 -0.15977022089E+02 -0.56334665869E+03  0.56566401505E+03  0.10000000000E+01 0.  0.
    9000005    1    3    3    0    0  0.48580395486E+02  0.15977022089E+02 -0.14828693039E+03  0.15686087398E+03  0.10000000000E+01 0.  0.
<mgrwt>
<rscale>  0 0.12497940E+03</rscale>
<asrwt>0</asrwt>
<pdfrwt beam="1">  1        4 0.83779287E-03 0.12497940E+03</pdfrwt>
<pdfrwt beam="2">  1       -4 0.11031981E+00 0.12497940E+03</pdfrwt>
<totfact> 0.41942891E+03</totfact>
</mgrwt>
</event>
<event>
 5    1  0.3312904E-002  0.1249998E+03  0.7818608E-02  0.1235070E+00
         -4   -1    0    0    0  501 -0.00000000000E+00  0.00000000000E+00  0.16761304548E+04  0.16761309360E+04  0.12700000000E+01 0. -1.
          4   -1    0    0  501    0  0.00000000000E+00 -0.00000000000E+00 -0.21569706390E+01  0.25030825670E+01  0.12700000000E+01 0. -1.
         25    2    1    2    0    0  0.00000000000E+00  0.00000000000E+00  0.16739734842E+04  0.16786340185E+04  0.12499976963E+03 0.  0.
    9000005    1    3    3    0    0 -0.12411231094E+02  0.14692525412E+02  0.38511268784E+02  0.43058411299E+02  0.10000000000E+01 0.  0.
    9000005    1    3    3    0    0  0.12411231094E+02 -0.14692525412E+02  0.16354622154E+04  0.16355756072E+04  0.10000000000E+01 0.  0.
<mgrwt>
<rscale>  0 0.12499977E+03</rscale>
<asrwt>0</asrwt>
<pdfrwt beam="2">  1        4 0.35850173E-03 0.12499977E+03</pdfrwt>
<pdfrwt beam="1">  1       -4 0.25789354E+00 0.12499977E+03</pdfrwt>
<totfact> 0.14667517E+03</totfact>
</mgrwt>
</event>
<event>
 5    1  0.3312904E-002  0.1249980E+03  0.7818608E-02  0.1235072E+00
          4   -1    0    0  501    0  0.00000000000E+00  0.00000000000E+00  0.18512833451E+02  0.18556343993E+02  0.12700000000E+01 0.  1.
         -4   -1    0    0    0  501 -0.00000000000E+00 -0.00000000000E+00 -0.21070231144E+03  0.21070613884E+03  0.12700000000E+01 0.  1.
         25    2    1    2    0    0  0.00000000000E+00  0.00000000000E+00 -0.19218947799E+03  0.22926248283E+03  0.12499796233E+03 0.  0.
    9000005    1    3    3    0    0  0.19695385571E+01 -0.72910729416E+01 -0.20987117346E+03  0.21000940044E+03  0.10000000000E+01 0.  0.
    9000005    1    3    3    0    0 -0.19695385571E+01  0.72910729416E+01  0.17681695471E+02  0.19253082389E+02  0.10000000000E+01 0.  0.
<mgrwt>
<rscale>  0 0.12499796E+03</rscale>
<asrwt>0</asrwt>
<pdfrwt beam="1">  1        4 0.28517697E-02 0.12499796E+03</pdfrwt>
<pdfrwt beam="2">  1       -4 0.32419380E-01 0.12499796E+03</pdfrwt>
<totfact> 0.85426857E+03</totfact>
</mgrwt>
</event>
<event>
 5    1  0.3312904E-002  0.1250020E+03  0.7818608E-02  0.1235066E+00
         -4   -1    0    0    0  501 -0.00000000000E+00  0.00000000000E+00  0.75390704617E+01  0.76452915854E+01  0.12700000000E+01 0. -1.
          4   -1    0    0  501    0  0.00000000000E+00 -0.00000000000E+00 -0.51441871408E+03  0.51442028177E+03  0.12700000000E+01 0. -1.
         25    2    1    2    0    0  0.00000000000E+00  0.00000000000E+00 -0.50687964362E+03  0.52206557335E+03  0.12500195906E+03 0.  0.
    9000005    1    3    3    0    0  0.11920148639E+02  0.14832737260E+02 -0.48344509412E+01  0.19658889951E+02  0.10000000000E+01 0.  0.
    9000005    1    3    3    0    0 -0.11920148639E+02 -0.14832737260E+02 -0.50204519268E+03  0.50240668340E+03  0.10000000000E+01 0.  0.
<mgrwt>
<rscale>  0 0.12500196E+03</rscale>
<asrwt>0</asrwt>
<pdfrwt beam="2">  1        4 0.79149605E-01 0.12500196E+03</pdfrwt>
<pdfrwt beam="1">  1       -4 0.11681488E-02 0.12500196E+03</pdfrwt>
<totfact> 0.54189770E+03</totfact>
</mgrwt>
</event>
<event>
 5    1  0.3312904E-002  0.1249956E+03  0.7818608E-02  0.1235076E+00
          4   -1    0    0  501    0  0.00000000000E+00  0.00000000000E+00  0.16138247920E+02  0.16188142139E+02  0.12700000000E+01 0.  1.
         -4   -1    0    0    0  501 -0.00000000000E+00 -0.00000000000E+00 -0.24160703112E+03  0.24161036895E+03  0.12700000000E+01 0.  1.
         25    2    1    2    0    0  0.00000000000E+00  0.00000000000E+00 -0.22546878320E+03  0.25779851109E+03  0.12499560042E+03 0.  0.
    9000005    1    3    3    0    0 -0.42412723383E+02 -0.21904119947E+02 -0.29559531702E+02  0.56155102082E+02  0.10000000000E+01 0.  0.
    9000005    1    3    3    0    0  0.42412723383E+02  0.21904119947E+02 -0.19590925150E+03  0.20164340901E+03  0.10000000000E+01 0.  0.
<mgrwt>
<rscale>  0 0.12499560E+03</rscale>
<asrwt>0</asrwt>
<pdfrwt beam="1">  1        4 0.24869023E-02 0.12499560E+03</pdfrwt>
<pdfrwt beam="2">  1       -4 0.37174405E-01 0.12499560E+03</pdfrwt>
<totfact> 0.81223961E+03</totfact>
</mgrwt>
</event>
<event>
 5    1  0.3312904E-002  0.1249975E+03  0.7818608E-02  0.1235073E+00
         -4   -1    0    0    0  501 -0.00000000000E+00  0.00000000000E+00  0.42498939330E+02  0.42517910864E+02  0.12700000000E+01 0.  1.
          4   -1    0    0  501    0  0.00000000000E+00 -0.00000000000E+00 -0.91866542986E+02  0.91875321061E+02  0.12700000000E+01 0.  1.
         25    2    1    2    0    0  0.00000000000E+00  0.00000000000E+00 -0.49367603655E+02  0.13439323193E+03  0.12499752196E+03 0.  0.
    9000005    1    3    3    0    0  0.53858958513E+02  0.29610776897E+02 -0.36824605674E+02  0.71656382156E+02  0.10000000000E+01 0.  0.
    9000005    1    3    3    0    0 -0.53858958513E+02 -0.29610776897E+02 -0.12542997981E+02  0.62736849769E+02  0.10000000000E+01 0.  0.
<mgrwt>
<rscale>  0 0.12499752E+03</rscale>
<asrwt>0</asrwt>
<pdfrwt beam="2">  1        4 0.14135449E-01 0.12499752E+03</pdfrwt>
<pdfrwt beam="1">  1       -4 0.65404330E-02 0.12499752E+03</pdfrwt>
<totfact> 0.10251449E+04</totfact>
</mgrwt>
</event>
<event>
 5    1  0.3312904E-002  0.1250020E+03  0.7818608E-02  0.1235066E+00
          4   -1    0    0  501    0  0.00000000000E+00  0.00000000000E+00  0.86129416335E+01  0.87060705018E+01  0.12700000000E+01 0.  1.
         -4   -1    0    0    0  501 -0.00000000000E+00 -0.00000000000E+00 -0.45101442009E+03  0.45101620817E+03  0.12700000000E+01 0.  1.
         25    2    1    2    0    0  0.00000000000E+00  0.00000000000E+00 -0.44240147846E+03  0.45972227867E+03  0.12500202144E+03 0.  0.
    9000005    1    3    3    0    0  0.31164105520E+02  0.49027071855E+02 -0.30590979534E+03  0.31137864110E+03  0.10000000000E+01 0.  0.
    9000005    1    3    3    0    0 -0.31164105520E+02 -0.49027071855E+02 -0.13649168312E+03  0.14834363757E+03  0.10000000000E+01 0.  0.
<mgrwt>
<rscale>  0 0.12500202E+03</rscale>
<asrwt>0</asrwt>
<pdfrwt beam="1">  1        4 0.13323696E-02 0.12500202E+03</pdfrwt>
<pdfrwt beam="2">  1       -4 0.69394117E-01 0.12500202E+03</pdfrwt>
<totfact> 0.59128088E+03</totfact>
</mgrwt>
</event>
<event>
 5    1  0.3312904E-002  0.1249968E+03  0.7818608E-02  0.1235074E+00
          4   -1    0    0  501    0  0.00000000000E+00  0.00000000000E+00  0.54934027003E+03  0.54934173806E+03  0.12700000000E+01 0.  1.
         -4   -1    0    0    0  501 -0.00000000000E+00 -0.00000000000E+00 -0.70522360688E+01  0.71656774676E+01  0.12700000000E+01 0.  1.
         25    2    1    2    0    0  0.00000000000E+00  0.00000000000E+00  0.54228803396E+03  0.55650741553E+03  0.12499676700E+03 0.  0.
    9000005    1    3    3    0    0  0.24989396085E+02 -0.39303686180E+02  0.85653461478E+02  0.97502641643E+02  0.10000000000E+01 0.  0.
    9000005    1    3    3    0    0 -0.24989396085E+02  0.39303686180E+02  0.45663457248E+03  0.45900477389E+03  0.10000000000E+01 0.  0.
<mgrwt>
<rscale>  0 0.12499677E+03</rscale>
<asrwt>0</asrwt>
<pdfrwt beam="1">  1        4 0.84522745E-01 0.12499677E+03</pdfrwt>
<pdfrwt beam="2">  1       -4 0.10937984E-02 0.12499677E+03</pdfrwt>
<totfact> 0.51737012E+03</totfact>
</mgrwt>
</event>
<event>
 5    1  0.3312904E-002  0.1250010E+03  0.7818608E-02  0.1235068E+00
          4   -1    0    0  501    0  0.00000000000E+00  0.00000000000E+00  0.21666488023E+03  0.21666860230E+03  0.12700000000E+01 0. -1.
         -4   -1    0    0    0  501 -0.00000000000E+00 -0.00000000000E+00 -0.18003035267E+02  0.18047774900E+02  0.12700000000E+01 0. -1.
         25    2    1    2    0    0  0.00000000000E+00  0.00000000000E+00  0.19866184496E+03  0.23471637720E+03  0.12500099633E+03 0.  0.
    9000005    1    3    3    0    0  0.18497964144E+02 -0.15128124024E+02  0.20775626101E+03  0.20912842658E+03  0.10000000000E+01 0.  0.
    9000005    1    3    3    0    0 -0.18497964144E+02  0.15128124024E+02 -0.90944160492E+01  0.25587950626E+02  0.10000000000E+01 0.  0.
<mgrwt>
<rscale>  0 0.12500100E+03</rscale>
<asrwt>0</asrwt>
<pdfrwt beam="1">  1        4 0.33336785E-01 0.12500100E+03</pdfrwt>
<pdfrwt beam="2">  1       -4 0.27734257E-02 0.12500100E+03</pdfrwt>
<totfact> 0.84588736E+03</totfact>
</mgrwt>
</event>
<event>
 5    1  0.3312904E-002  0.1250024E+03  0.7818608E-02  0.1235065E+00
          4   -1    0    0  501    0  0.00000000000E+00  0.00000000000E+00  0.71504305780E+02  0.71515583232E+02  0.12700000000E+01 0. -1.
         -4   -1    0    0    0  501 -0.00000000000E+00 -0.00000000000E+00 -0.54608735521E+02  0.54623501309E+02  0.12700000000E+01 0. -1.
         25    2    1    2    0    0  0.00000000000E+00  0.00000000000E+00  0.16895570258E+02  0.12613908454E+03  0.12500243339E+03 0.  0.
    9000005    1    3    3    0    0  0.21681973000E+02  0.55236687168E+02  0.28227103245E+02  0.65718862742E+02  0.10000000000E+01 0.  0.
    9000005    1    3    3    0    0 -0.21681973000E+02 -0.55236687168E+02 -0.11331532986E+02  0.60420221799E+02  0.10000000000E+01 0.  0.
<mgrwt>
<rscale>  0 0.12500243E+03</rscale>
<asrwt>0</asrwt>
<pdfrwt beam="1">  1        4 0.11002666E-01 0.12500243E+03</pdfrwt>
<pdfrwt beam="2">  1       -4 0.84033473E-02 0.12500243E+03</pdfrwt>
<totfact> 0.10427339E+04</totfact>
</mgrwt>
</event>
<event>
 5    1  0.3312904E-002  0.1249897E+03  0.7818608E-02  0.1235085E+00
         -4   -1    0    0    0  501 -0.00000000000E+00  0.00000000000E+00  0.23471399258E+02  0.23505732984E+02  0.12700000000E+01 0.  1.
          4   -1    0    0  501    0  0.00000000000E+00 -0.00000000000E+00 -0.16624020716E+03  0.16624505820E+03  0.12700000000E+01 0.  1.
         25    2    1    2    0    0  0.00000000000E+00  0.00000000000E+00 -0.14276880790E+03  0.18975079118E+03  0.12498972056E+03 0.  0.
    9000005    1    3    3    0    0 -0.58139990213E+02 -0.14541582750E+02 -0.44530578571E+02  0.74670533135E+02  0.10000000000E+01 0.  0.
    9000005    1    3    3    0    0  0.58139990213E+02  0.14541582750E+02 -0.98238229328E+02  0.11508025805E+03  0.10000000000E+01 0.  0.
<mgrwt>
<rscale>  0 0.12498972E+03</rscale>
<asrwt>0</asrwt>
<pdfrwt beam="2">  1        4 0.25578430E-01 0.12498972E+03</pdfrwt>
<pdfrwt beam="1">  1       -4 0.36139988E-02 0.12498972E+03</pdfrwt>
<totfact> 0.91911857E+03</totfact>
</mgrwt>
</event>
<event>
 5    1  0.3312904E-002  0.1249999E+03  0.7818608E-02  0.1235069E+00
         -4   -1    0    0    0  501 -0.00000000000E+00  0.00000000000E+00  0.83772009485E+02  0.83781635656E+02  0.12700000000E+01 0. -1.
          4   -1    0    0  501    0  0.00000000000E+00 -0.00000000000E+00 -0.46608510890E+02  0.46625810314E+02  0.12700000000E+01 0. -1.
         25    2    1    2    0    0  0.00000000000E+00  0.00000000000E+00  0.37163498595E+02  0.13040744597E+03  0.12499990535E+03 0.  0.
    9000005    1    3    3    0    0 -0.13648996137E+02  0.60809753541E+02  0.13786964768E+02  0.63837305854E+02  0.10000000000E+01 0.  0.
    9000005    1    3    3    0    0  0.13648996137E+02 -0.60809753541E+02  0.23376533827E+02  0.66570140115E+02  0.10000000000E+01 0.  0.
<mgrwt>
<rscale>  0 0.12499991E+03</rscale>
<asrwt>0</asrwt>
<pdfrwt beam="2">  1        4 0.71726114E-02 0.12499991E+03</pdfrwt>
<pdfrwt beam="1">  1       -4 0.12890073E-01 0.12499991E+03</pdfrwt>
<totfact> 0.10335821E+04</totfact>
</mgrwt>
</event>
<event>
 5    1  0.3312904E-002  0.1249892E+03  0.7818608E-02  0.1235086E+00
          4   -1    0    0  501    0  0.00000000000E+00  0.00000000000E+00  0.62403012069E+02  0.62415933986E+02  0.12700000000E+01 0. -1.
         -4   -1    0    0    0  501 -0.00000000000E+00 -0.00000000000E+00 -0.62560457969E+02  0.62573347372E+02  0.12700000000E+01 0. -1.
         25    2    1    2    0    0  0.00000000000E+00  0.00000000000E+00 -0.15744590017E+00  0.12498928136E+03  0.12498918219E+03 0.  0.
    9000005    1    3    3    0    0  0.21972769952E+02  0.92946003108E+01  0.57674086458E+02  0.62421890896E+02  0.10000000000E+01 0.  0.
    9000005    1    3    3    0    0 -0.21972769952E+02 -0.92946003108E+01 -0.57831532358E+02  0.62567390461E+02  0.10000000000E+01 0.  0.
<mgrwt>
<rscale>  0 0.12498918E+03</rscale>
<asrwt>0</asrwt>
<pdfrwt beam="1">  1        4 0.96024489E-02 0.12498918E+03</pdfrwt>
<pdfrwt beam="2">  1       -4 0.96266713E-02 0.12498918E+03</pdfrwt>
<totfact> 0.10455651E+04</totfact>
</mgrwt>
</event>
<event>
 5    1  0.3312904E-002  0.1250006E+03  0.7818608E-02  0.1235068E+00
         -4   -1    0    0    0  501 -0.00000000000E+00  0.00000000000E+00  0.12462847461E+02  0.12527388668E+02  0.12700000000E+01 0.  1.
          4   -1    0    0  501    0  0.00000000000E+00 -0.00000000000E+00 -0.31255931731E+03  0.31256189745E+03  0.12700000000E+01 0.  1.
         25    2    1    2    0    0  0.00000000000E+00  0.00000000000E+00 -0.30009646985E+03  0.32508928612E+03  0.12500061093E+03 0.  0.
    9000005    1    3    3    0    0 -0.50846080817E+02 -0.31648015682E+02 -0.19645216715E+03  0.20538104784E+03  0.10000000000E+01 0.  0.
    9000005    1    3    3    0    0  0.50846080817E+02  0.31648015682E+02 -0.10364430270E+03  0.11970823828E+03  0.10000000000E+01 0.  0.
<mgrwt>
<rscale>  0 0.12500061E+03</rscale>
<asrwt>0</asrwt>
<pdfrwt beam="2">  1        4 0.48091206E-01 0.12500061E+03</pdfrwt>
<pdfrwt beam="1">  1       -4 0.19225246E-02 0.12500061E+03</pdfrwt>
<totfact> 0.72553903E+03</totfact>
</mgrwt>
</event>
<event>
 5    1  0.3312904E-002  0.1250003E+03  0.7818608E-02  0.1235069E+00
         -4   -1    0    0    0  501 -0.00000000000E+00  0.00000000000E+00  0.11782619728E+03  0.11783304148E+03  0.12700000000E+01 0. -1.
          4   -1    0    0  501    0  0.00000000000E+00 -0.00000000000E+00 -0.33132811946E+02  0.33157142932E+02  0.12700000000E+01 0. -1.
         25    2    1    2    0    0  0.00000000000E+00  0.00000000000E+00  0.84693385331E+02  0.15099018441E+03  0.12500026508E+03 0.  0.
    9000005    1    3    3    0    0  0.35952300904E+02  0.16690443728E+00  0.10408861183E+03  0.11012735768E+03  0.10000000000E+01 0.  0.
    9000005    1    3    3    0    0 -0.35952300904E+02 -0.16690443728E+00 -0.19395226500E+02  0.40862826730E+02  0.10000000000E+01 0.  0.
<mgrwt>
<rscale>  0 0.12500027E+03</rscale>
<asrwt>0</asrwt>
<pdfrwt beam="2">  1        4 0.50997537E-02 0.12500027E+03</pdfrwt>
<pdfrwt beam="1">  1       -4 0.18129506E-01 0.12500027E+03</pdfrwt>
<totfact> 0.99106094E+03</totfact>
</mgrwt>
</event>
<event>
 5    1  0.3312904E-002  0.1250006E+03  0.7818608E-02  0.1235068E+00
          4   -1    0    0  501    0  0.00000000000E+00  0.00000000000E+00  0.22757080259E+01  0.26060980448E+01  0.12700000000E+01 0.  1.
         -4   -1    0    0    0  501 -0.00000000000E+00 -0.00000000000E+00 -0.16000153054E+04  0.16000158094E+04  0.12700000000E+01 0.  1.
         25    2    1    2    0    0  0.00000000000E+00  0.00000000000E+00 -0.15977395974E+04  0.16026219075E+04  0.12500062916E+03 0.  0.
    9000005    1    3    3    0    0 -0.47901047473E+02  0.39712586620E+02 -0.72445389596E+03  0.72712175545E+03  0.10000000000E+01 0.  0.
    9000005    1    3    3    0    0  0.47901047473E+02 -0.39712586620E+02 -0.87328570142E+03  0.87550015202E+03  0.10000000000E+01 0.  0.
<mgrwt>
<rscale>  0 0.12500063E+03</rscale>
<asrwt>0</asrwt>
<pdfrwt beam="1">  1        4 0.37556359E-03 0.12500063E+03</pdfrwt>
<pdfrwt beam="2">  1       -4 0.24618082E+00 0.12500063E+03</pdfrwt>
<totfact> 0.15998702E+03</totfact>
</mgrwt>
</event>
<event>
 5    1  0.3312904E-002  0.1249997E+03  0.7818608E-02  0.1235070E+00
         -4   -1    0    0    0  501 -0.00000000000E+00  0.00000000000E+00  0.14874971972E+04  0.14874977394E+04  0.12700000000E+01 0.  1.
          4   -1    0    0  501    0  0.00000000000E+00 -0.00000000000E+00 -0.24719216028E+01  0.27790819366E+01  0.12700000000E+01 0.  1.
         25    2    1    2    0    0  0.00000000000E+00  0.00000000000E+00  0.14850252756E+04  0.14902768213E+04  0.12499973963E+03 0.  0.
    9000005    1    3    3    0    0 -0.39697663868E+02  0.43957222795E+02  0.98008903062E+03  0.98187761452E+03  0.10000000000E+01 0.  0.
    9000005    1    3    3    0    0  0.39697663868E+02 -0.43957222795E+02  0.50493624498E+03  0.50839920677E+03  0.10000000000E+01 0.  0.
<mgrwt>
<rscale>  0 0.12499974E+03</rscale>
<asrwt>0</asrwt>
<pdfrwt beam="2">  1        4 0.40396493E-03 0.12499974E+03</pdfrwt>
<pdfrwt beam="1">  1       -4 0.22886946E+00 0.12499974E+03</pdfrwt>
<totfact> 0.18122514E+03</totfact>
</mgrwt>
</event>
<event>
 5    1  0.3312904E-002  0.1250019E+03  0.7818608E-02  0.1235066E+00
         -4   -1    0    0    0  501 -0.00000000000E+00  0.00000000000E+00  0.37408421522E+03  0.37408637101E+03  0.12700000000E+01 0. -1.
          4   -1    0    0  501    0  0.00000000000E+00 -0.00000000000E+00 -0.10401684305E+02  0.10478928207E+02  0.12700000000E+01 0. -1.
         25    2    1    2    0    0  0.00000000000E+00  0.00000000000E+00  0.36368253092E+03  0.38456529922E+03  0.12500194427E+03 0.  0.
    9000005    1    3    3    0    0 -0.74951496639E+01  0.29413907384E+02  0.34989722632E+03  0.35121279048E+03  0.10000000000E+01 0.  0.
    9000005    1    3    3    0    0  0.74951496639E+01 -0.29413907384E+02  0.13785304602E+02  0.33352508737E+02  0.10000000000E+01 0.  0.
<mgrwt>
<rscale>  0 0.12500194E+03</rscale>
<asrwt>0</asrwt>
<pdfrwt beam="2">  1        4 0.16063669E-02 0.12500194E+03</pdfrwt>
<pdfrwt beam="1">  1       -4 0.57557523E-01 0.12500194E+03</pdfrwt>
<totfact> 0.66079314E+03</totfact>
</mgrwt>
</event>
<event>
 5    1  0.3312904E-002  0.1250009E+03  0.7818608E-02  0.1235068E+00
         -4   -1    0    0    0  501 -0.00000000000E+00  0.00000000000E+00  0.37802179341E+03  0.37802392674E+03  0.12700000000E+01 0. -1.
          4   -1    0    0  501    0  0.00000000000E+00 -0.00000000000E+00 -0.10292361570E+02  0.10370419793E+02  0.12700000000E+01 0. -1.
         25    2    1    2    0    0  0.00000000000E+00  0.00000000000E+00  0.36772943184E+03  0.38839434654E+03  0.12500093353E+03 0.  0.
    9000005    1    3    3    0    0  0.18355892907E+02 -0.40525617969E+02  0.47502915656E+02  0.65090640740E+02  0.10000000000E+01 0.  0.
    9000005    1    3    3    0    0 -0.18355892907E+02  0.40525617969E+02  0.32022651618E+03  0.32330370580E+03  0.10000000000E+01 0.  0.
<mgrwt>
<rscale>  0 0.12500093E+03</rscale>
<asrwt>0</asrwt>
<pdfrwt beam="2">  1        4 0.15896087E-02 0.12500093E+03</pdfrwt>
<pdfrwt beam="1">  1       -4 0.58163373E-01 0.12500093E+03</pdfrwt>
<totfact> 0.65696052E+03</totfact>
</mgrwt>
</event>
<event>
 5    1  0.3312904E-002  0.1249801E+03  0.7818608E-02  0.1235100E+00
         -4   -1    0    0    0  501 -0.00000000000E+00  0.00000000000E+00  0.10641837620E+03  0.10642595404E+03  0.12700000000E+01 0.  1.
          4   -1    0    0  501    0  0.00000000000E+00 -0.00000000000E+00 -0.36674993915E+02  0.36696976424E+02  0.12700000000E+01 0.  1.
         25    2    1    2    0    0  0.00000000000E+00  0.00000000000E+00  0.69743382289E+02  0.14312293047E+03  0.12498013383E+03 0.  0.
    9000005    1    3    3    0    0 -0.38793935046E+02  0.31337955620E+02  0.77978791258E+02  0.92567428099E+02  0.10000000000E+01 0.  0.
    9000005    1    3    3    0    0  0.38793935046E+02 -0.31337955620E+02 -0.82354089692E+01  0.50555502368E+02  0.10000000000E+01 0.  0.
<mgrwt>
<rscale>  0 0.12498013E+03</rscale>
<asrwt>0</asrwt>
<pdfrwt beam="2">  1        4 0.56445806E-02 0.12498013E+03</pdfrwt>
<pdfrwt beam="1">  1       -4 0.16374332E-01 0.12498013E+03</pdfrwt>
<totfact> 0.10073773E+04</totfact>
</mgrwt>
</event>
<event>
 5    1  0.3312904E-002  0.1250008E+03  0.7818608E-02  0.1235068E+00
          4   -1    0    0  501    0  0.00000000000E+00  0.00000000000E+00  0.13290217599E+03  0.13290824385E+03  0.12700000000E+01 0. -1.
         -4   -1    0    0    0  501 -0.00000000000E+00 -0.00000000000E+00 -0.29371849777E+02  0.29399293517E+02  0.12700000000E+01 0. -1.
         25    2    1    2    0    0  0.00000000000E+00  0.00000000000E+00  0.10353032622E+03  0.16230753737E+03  0.12500083296E+03 0.  0.
    9000005    1    3    3    0    0 -0.48372535029E+02 -0.23983349900E+02  0.92624093040E+02  0.10721625730E+03  0.10000000000E+01 0.  0.
    9000005    1    3    3    0    0  0.48372535029E+02  0.23983349900E+02  0.10906233175E+02  0.55091280069E+02  0.10000000000E+01 0.  0.
<mgrwt>
<rscale>  0 0.12500083E+03</rscale>
<asrwt>0</asrwt>
<pdfrwt beam="1">  1        4 0.20449066E-01 0.12500083E+03</pdfrwt>
<pdfrwt beam="2">  1       -4 0.45213240E-02 0.12500083E+03</pdfrwt>
<totfact> 0.96897932E+03</totfact>
</mgrwt>
</event>
<event>
 5    1  0.3312904E-002  0.1249955E+03  0.7818608E-02  0.1235076E+00
          4   -1    0    0  501    0  0.00000000000E+00  0.00000000000E+00  0.22750284041E+03  0.22750638518E+03  0.12700000000E+01 0. -1.
         -4   -1    0    0    0  501 -0.00000000000E+00 -0.00000000000E+00 -0.17141707014E+02  0.17188688703E+02  0.12700000000E+01 0. -1.
         25    2    1    2    0    0  0.00000000000E+00  0.00000000000E+00  0.21036113340E+03  0.24469507388E+03  0.12499549086E+03 0.  0.
    9000005    1    3    3    0    0 -0.24570683393E+02 -0.55607730977E+02  0.13348374099E+03  0.14667940325E+03  0.10000000000E+01 0.  0.
    9000005    1    3    3    0    0  0.24570683393E+02  0.55607730977E+02  0.76877392406E+02  0.98015670635E+02  0.10000000000E+01 0.  0.
<mgrwt>
<rscale>  0 0.12499549E+03</rscale>
<asrwt>0</asrwt>
<pdfrwt beam="1">  1        4 0.35004323E-01 0.12499549E+03</pdfrwt>
<pdfrwt beam="2">  1       -4 0.26410724E-02 0.12499549E+03</pdfrwt>
<totfact> 0.83111402E+03</totfact>
</mgrwt>
</event>
<event>
 5    1  0.3312904E-002  0.1249937E+03  0.7818608E-02  0.1235079E+00
          4   -1    0    0  501    0  0.00000000000E+00  0.00000000000E+00  0.25415727126E+02  0.25447437697E+02  0.12700000000E+01 0. -1.
         -4   -1    0    0    0  501 -0.00000000000E+00 -0.00000000000E+00 -0.15354844911E+03  0.15355370111E+03  0.12700000000E+01 0. -1.
         25    2    1    2    0    0  0.00000000000E+00  0.00000000000E+00 -0.12813272198E+03  0.17900113881E+03  0.12499365284E+03 0.  0.
    9000005    1    3    3    0    0  0.54572534469E+02  0.30317909993E+02 -0.60140228814E+02  0.86690162686E+02  0.10000000000E+01 0.  0.
    9000005    1    3    3    0    0 -0.54572534469E+02 -0.30317909993E+02 -0.67992493170E+02  0.92310976120E+02  0.10000000000E+01 0.  0.
<mgrwt>
<rscale>  0 0.12499365E+03</rscale>
<asrwt>0</asrwt>
<pdfrwt beam="1">  1        4 0.39129552E-02 0.12499365E+03</pdfrwt>
<pdfrwt beam="2">  1       -4 0.23625681E-01 0.12499365E+03</pdfrwt>
<totfact> 0.93810462E+03</totfact>
</mgrwt>
</event>
<event>
 5    1  0.3312904E-002  0.1249999E+03  0.7818608E-02  0.1235070E+00
         -4   -1    0    0    0  501 -0.00000000000E+00  0.00000000000E+00  0.43975220033E+03  0.43975403420E+03  0.12700000000E+01 0. -1.
          4   -1    0    0  501    0  0.00000000000E+00 -0.00000000000E+00 -0.88355666545E+01  0.89263731776E+01  0.12700000000E+01 0. -1.
         25    2    1    2    0    0  0.00000000000E+00  0.00000000000E+00  0.43091663367E+03  0.44868040737E+03  0.12499985114E+03 0.  0.
    9000005    1    3    3    0    0  0.28922759728E+02 -0.36367347950E+02  0.65467047692E+02  0.80287261510E+02  0.10000000000E+01 0.  0.
    9000005    1    3    3    0    0 -0.28922759728E+02  0.36367347950E+02  0.36544958598E+03  0.36839314586E+03  0.10000000000E+01 0.  0.
<mgrwt>
<rscale>  0 0.12499985E+03</rscale>
<asrwt>0</asrwt>
<pdfrwt beam="2">  1        4 0.13664443E-02 0.12499985E+03</pdfrwt>
<pdfrwt beam="1">  1       -4 0.67661301E-01 0.12499985E+03</pdfrwt>
<totfact> 0.60078482E+03</totfact>
</mgrwt>
</event>
<event>
 5    1  0.3312904E-002  0.1249992E+03  0.7818608E-02  0.1235071E+00
          4   -1    0    0  501    0  0.00000000000E+00  0.00000000000E+00  0.13166275087E+03  0.13166887584E+03  0.12700000000E+01 0. -1.
         -4   -1    0    0    0  501 -0.00000000000E+00 -0.00000000000E+00 -0.29647812403E+02  0.29675000932E+02  0.12700000000E+01 0. -1.
         25    2    1    2    0    0  0.00000000000E+00  0.00000000000E+00  0.10201493846E+03  0.16134387677E+03  0.12499919561E+03 0.  0.
    9000005    1    3    3    0    0  0.51808341969E+02  0.16465982275E+02  0.90790649369E+02  0.10582615406E+03  0.10000000000E+01 0.  0.
    9000005    1    3    3    0    0 -0.51808341969E+02 -0.16465982275E+02  0.11224289094E+02  0.55517722716E+02  0.10000000000E+01 0.  0.
<mgrwt>
<rscale>  0 0.12499920E+03</rscale>
<asrwt>0</asrwt>
<pdfrwt beam="1">  1        4 0.20258370E-01 0.12499920E+03</pdfrwt>
<pdfrwt beam="2">  1       -4 0.45637645E-02 0.12499920E+03</pdfrwt>
<totfact> 0.97086075E+03</totfact>
</mgrwt>
</event>
<event>
 5    1  0.3312904E-002  0.1249730E+03  0.7818608E-02  0.1235111E+00
          4   -1    0    0  501    0  0.00000000000E+00  0.00000000000E+00  0.95407729220E+02  0.95416181515E+02  0.12700000000E+01 0.  1.
         -4   -1    0    0    0  501 -0.00000000000E+00 -0.00000000000E+00 -0.40904895009E+02  0.40924605505E+02  0.12700000000E+01 0.  1.
         25    2    1    2    0    0  0.00000000000E+00  0.00000000000E+00  0.54502834211E+02  0.13634078702E+03  0.12497300216E+03 0.  0.
    9000005    1    3    3    0    0 -0.54836225136E+02  0.79957444208E+01 -0.42284456940E+01  0.55586178759E+02  0.10000000000E+01 0.  0.
    9000005    1    3    3    0    0  0.54836225136E+02 -0.79957444208E+01  0.58731279905E+02  0.80754608261E+02  0.10000000000E+01 0.  0.
<mgrwt>
<rscale>  0 0.12497300E+03</rscale>
<asrwt>0</asrwt>
<pdfrwt beam="1">  1        4 0.14680278E-01 0.12497300E+03</pdfrwt>
<pdfrwt beam="2">  1       -4 0.62952272E-02 0.12497300E+03</pdfrwt>
<totfact> 0.10216105E+04</totfact>
</mgrwt>
</event>
<event>
 5    1  0.3312904E-002  0.1250241E+03  0.7818608E-02  0.1235032E+00
         -4   -1    0    0    0  501 -0.00000000000E+00  0.00000000000E+00  0.96534898111E+02  0.96543251723E+02  0.12700000000E+01 0. -1.
          4   -1    0    0  501    0  0.00000000000E+00 -0.00000000000E+00 -0.40460206713E+02  0.40480133736E+02  0.12700000000E+01 0. -1.
         25    2    1    2    0    0  0.00000000000E+00  0.00000000000E+00  0.56074691398E+02  0.13702338546E+03  0.12502414626E+03 0.  0.
    9000005    1    3    3    0    0  0.20619440758E+02 -0.41074957996E+02 -0.18389156571E+02  0.49512368061E+02  0.10000000000E+01 0.  0.
    9000005    1    3    3    0    0 -0.20619440758E+02  0.41074957996E+02  0.74463847969E+02  0.87511017398E+02  0.10000000000E+01 0.  0.
<mgrwt>
<rscale>  0 0.12502415E+03</rscale>
<asrwt>0</asrwt>
<pdfrwt beam="2">  1        4 0.62268227E-02 0.12502415E+03</pdfrwt>
<pdfrwt beam="1">  1       -4 0.14853698E-01 0.12502415E+03</pdfrwt>
<totfact> 0.10190048E+04</totfact>
</mgrwt>
</event>
<event>
 5    1  0.3312904E-002  0.1249963E+03  0.7818608E-02  0.1235075E+00
          4   -1    0    0  501    0  0.00000000000E+00  0.00000000000E+00  0.72536306198E+01  0.73639702042E+01  0.12700000000E+01 0.  1.
         -4   -1    0    0    0  501 -0.00000000000E+00 -0.00000000000E+00 -0.53431592944E+03  0.53431743875E+03  0.12700000000E+01 0.  1.
         25    2    1    2    0    0  0.00000000000E+00  0.00000000000E+00 -0.52706229882E+03  0.54168140895E+03  0.12499632783E+03 0.  0.
    9000005    1    3    3    0    0  0.55553116083E+02  0.26570476900E+02 -0.30957356974E+03  0.31564051393E+03  0.10000000000E+01 0.  0.
    9000005    1    3    3    0    0 -0.55553116083E+02 -0.26570476900E+02 -0.21748872907E+03  0.22604089502E+03  0.10000000000E+01 0.  0.
<mgrwt>
<rscale>  0 0.12499633E+03</rscale>
<asrwt>0</asrwt>
<pdfrwt beam="1">  1        4 0.11245474E-02 0.12499633E+03</pdfrwt>
<pdfrwt beam="2">  1       -4 0.82211024E-01 0.12499633E+03</pdfrwt>
<totfact> 0.52773743E+03</totfact>
</mgrwt>
</event>
<event>
 5    1  0.3312904E-002  0.1250010E+03  0.7818608E-02  0.1235068E+00
         -4   -1    0    0    0  501 -0.00000000000E+00  0.00000000000E+00  0.72440092447E+02  0.72451224239E+02  0.12700000000E+01 0.  1.
          4   -1    0    0  501    0  0.00000000000E+00 -0.00000000000E+00 -0.53901962979E+02  0.53916922325E+02  0.12700000000E+01 0.  1.
         25    2    1    2    0    0  0.00000000000E+00  0.00000000000E+00  0.18538129468E+02  0.12636814656E+03  0.12500098488E+03 0.  0.
    9000005    1    3    3    0    0 -0.48055766415E+02  0.25372373792E+02 -0.21926130174E+02  0.58607757354E+02  0.10000000000E+01 0.  0.
    9000005    1    3    3    0    0  0.48055766415E+02 -0.25372373792E+02  0.40464259642E+02  0.67760389211E+02  0.10000000000E+01 0.  0.
<mgrwt>
<rscale>  0 0.12500098E+03</rscale>
<asrwt>0</asrwt>
<pdfrwt beam="2">  1        4 0.82946168E-02 0.12500098E+03</pdfrwt>
<pdfrwt beam="1">  1       -4 0.11146636E-01 0.12500098E+03</pdfrwt>
<totfact> 0.10422673E+04</totfact>
</mgrwt>
</event>
<event>
 5    1  0.3312904E-002  0.1249980E+03  0.7818608E-02  0.1235072E+00
          4   -1    0    0  501    0  0.00000000000E+00  0.00000000000E+00  0.13779983918E+04  0.13779989770E+04  0.12700000000E+01 0. -1.
         -4   -1    0    0    0  501 -0.00000000000E+00 -0.00000000000E+00 -0.26917733038E+01  0.29763305460E+01  0.12700000000E+01 0. -1.
         25    2    1    2    0    0  0.00000000000E+00  0.00000000000E+00  0.13753066185E+04  0.13809753076E+04  0.12499802104E+03 0.  0.
    9000005    1    3    3    0    0 -0.27318556172E+01 -0.62424281028E+02  0.67733412766E+03  0.68021083084E+03  0.10000000000E+01 0.  0.
    9000005    1    3    3    0    0  0.27318556172E+01  0.62424281028E+02  0.69797249082E+03  0.70076447672E+03  0.10000000000E+01 0.  0.
<mgrwt>
<rscale>  0 0.12499802E+03</rscale>
<asrwt>0</asrwt>
<pdfrwt beam="1">  1        4 0.21202173E+00 0.12499802E+03</pdfrwt>
<pdfrwt beam="2">  1       -4 0.43605291E-03 0.12499802E+03</pdfrwt>
<totfact> 0.20393768E+03</totfact>
</mgrwt>
</event>
<event>
 5    1  0.3312904E-002  0.1250002E+03  0.7818608E-02  0.1235069E+00
         -4   -1    0    0    0  501 -0.00000000000E+00  0.00000000000E+00  0.18537210957E+03  0.18537645995E+03  0.12700000000E+01 0.  1.
          4   -1    0    0  501    0  0.00000000000E+00 -0.00000000000E+00 -0.21048806155E+02  0.21087084686E+02  0.12700000000E+01 0.  1.
         25    2    1    2    0    0  0.00000000000E+00  0.00000000000E+00  0.16432330341E+03  0.20646354464E+03  0.12500018889E+03 0.  0.
    9000005    1    3    3    0    0  0.18607435439E+02 -0.53695745361E+01  0.18029845872E+03  0.18133836660E+03  0.10000000000E+01 0.  0.
    9000005    1    3    3    0    0 -0.18607435439E+02  0.53695745361E+01 -0.15975155310E+02  0.25125178039E+02  0.10000000000E+01 0.  0.
<mgrwt>
<rscale>  0 0.12500019E+03</rscale>
<asrwt>0</asrwt>
<pdfrwt beam="2">  1        4 0.32415570E-02 0.12500019E+03</pdfrwt>
<pdfrwt beam="1">  1       -4 0.28522065E-01 0.12500019E+03</pdfrwt>
<totfact> 0.89056330E+03</totfact>
</mgrwt>
</event>
<event>
 5    1  0.3312904E-002  0.1250007E+03  0.7818608E-02  0.1235068E+00
          4   -1    0    0  501    0  0.00000000000E+00  0.00000000000E+00  0.18545747741E+02  0.18589181242E+02  0.12700000000E+01 0.  1.
         -4   -1    0    0    0  501 -0.00000000000E+00 -0.00000000000E+00 -0.21033840622E+03  0.21034224024E+03  0.12700000000E+01 0.  1.
         25    2    1    2    0    0  0.00000000000E+00  0.00000000000E+00 -0.19179265848E+03  0.22893142148E+03  0.12500068759E+03 0.  0.
    9000005    1    3    3    0    0  0.68523099593E+01 -0.54232104552E+02 -0.40430027922E+02  0.67997518144E+02  0.10000000000E+01 0.  0.
    9000005    1    3    3    0    0 -0.68523099593E+01  0.54232104552E+02 -0.15136263055E+03  0.16093390334E+03  0.10000000000E+01 0.  0.
<mgrwt>
<rscale>  0 0.12500069E+03</rscale>
<asrwt>0</asrwt>
<pdfrwt beam="1">  1        4 0.28568281E-02 0.12500069E+03</pdfrwt>
<pdfrwt beam="2">  1       -4 0.32363389E-01 0.12500069E+03</pdfrwt>
<totfact> 0.85472638E+03</totfact>
</mgrwt>
</event>
<event>
 5    1  0.3312904E-002  0.1250005E+03  0.7818608E-02  0.1235069E+00
         -4   -1    0    0    0  501 -0.00000000000E+00  0.00000000000E+00  0.43583011077E+02  0.43601510920E+02  0.12700000000E+01 0.  1.
          4   -1    0    0  501    0  0.00000000000E+00 -0.00000000000E+00 -0.89586439792E+02  0.89595441260E+02  0.12700000000E+01 0.  1.
         25    2    1    2    0    0  0.00000000000E+00  0.00000000000E+00 -0.46003428715E+02  0.13319695218E+03  0.12500045047E+03 0.  0.
    9000005    1    3    3    0    0  0.54601916769E+02 -0.29900601940E+02 -0.28824734385E+02  0.68609624861E+02  0.10000000000E+01 0.  0.
    9000005    1    3    3    0    0 -0.54601916769E+02  0.29900601940E+02 -0.17178694330E+02  0.64587327319E+02  0.10000000000E+01 0.  0.
<mgrwt>
<rscale>  0 0.12500045E+03</rscale>
<asrwt>0</asrwt>
<pdfrwt beam="2">  1        4 0.13784645E-01 0.12500045E+03</pdfrwt>
<pdfrwt beam="1">  1       -4 0.67071941E-02 0.12500045E+03</pdfrwt>
<totfact> 0.10276111E+04</totfact>
</mgrwt>
</event>
<event>
 5    1  0.3312904E-002  0.1249989E+03  0.7818608E-02  0.1235071E+00
          4   -1    0    0  501    0  0.00000000000E+00  0.00000000000E+00  0.27750073053E+01  0.30518134846E+01  0.12700000000E+01 0.  1.
         -4   -1    0    0    0  501 -0.00000000000E+00 -0.00000000000E+00 -0.13404808957E+04  0.13404814973E+04  0.12700000000E+01 0.  1.
         25    2    1    2    0    0  0.00000000000E+00  0.00000000000E+00 -0.13377058884E+04  0.13435333108E+04  0.12499885349E+03 0.  0.
    9000005    1    3    3    0    0 -0.70374535351E+01 -0.35730398569E+02 -0.12301045365E+03  0.12829169436E+03  0.10000000000E+01 0.  0.
    9000005    1    3    3    0    0  0.70374535351E+01  0.35730398569E+02 -0.12146954347E+04  0.12152416164E+04  0.10000000000E+01 0.  0.
<mgrwt>
<rscale>  0 0.12499885E+03</rscale>
<asrwt>0</asrwt>
<pdfrwt beam="1">  1        4 0.44826433E-03 0.12499885E+03</pdfrwt>
<pdfrwt beam="2">  1       -4 0.20624868E+00 0.12499885E+03</pdfrwt>
<totfact> 0.21224363E+03</totfact>
</mgrwt>
</event>
<event>
 5    1  0.3312904E-002  0.1250026E+03  0.7818608E-02  0.1235065E+00
         -4   -1    0    0    0  501 -0.00000000000E+00  0.00000000000E+00  0.32297604769E+02  0.32322564469E+02  0.12700000000E+01 0.  1.
          4   -1    0    0  501    0  0.00000000000E+00 -0.00000000000E+00 -0.12087546498E+03  0.12088213654E+03  0.12700000000E+01 0.  1.
         25    2    1    2    0    0  0.00000000000E+00  0.00000000000E+00 -0.88577860211E+02  0.15320470101E+03  0.12500257234E+03 0.  0.
    9000005    1    3    3    0    0 -0.27787517431E+02 -0.45851064597E+02 -0.49365694873E+01  0.53850125050E+02  0.10000000000E+01 0.  0.
    9000005    1    3    3    0    0  0.27787517431E+02  0.45851064597E+02 -0.83641290723E+02  0.99354575957E+02  0.10000000000E+01 0.  0.
<mgrwt>
<rscale>  0 0.12500257E+03</rscale>
<asrwt>0</asrwt>
<pdfrwt beam="2">  1        4 0.18598658E-01 0.12500257E+03</pdfrwt>
<pdfrwt beam="1">  1       -4 0.49712955E-02 0.12500257E+03</pdfrwt>
<totfact> 0.98662972E+03</totfact>
</mgrwt>
</event>
<event>
 5    1  0.3312904E-002  0.1249987E+03  0.7818608E-02  0.1235071E+00
         -4   -1    0    0    0  501 -0.00000000000E+00  0.00000000000E+00  0.65209984080E+03  0.65210107750E+03  0.12700000000E+01 0.  1.
          4   -1    0    0  501    0  0.00000000000E+00 -0.00000000000E+00 -0.59215693613E+01  0.60562268535E+01  0.12700000000E+01 0.  1.
         25    2    1    2    0    0  0.00000000000E+00  0.00000000000E+00  0.64617827144E+03  0.65815730435E+03  0.12499871515E+03 0.  0.
    9000005    1    3    3    0    0  0.52669857315E+02  0.21172964564E+02  0.46067019106E+03  0.46415561316E+03  0.10000000000E+01 0.  0.
    9000005    1    3    3    0    0 -0.52669857315E+02 -0.21172964564E+02  0.18550808037E+03  0.19400169118E+03  0.10000000000E+01 0.  0.
<mgrwt>
<rscale>  0 0.12499872E+03</rscale>
<asrwt>0</asrwt>
<pdfrwt beam="2">  1        4 0.92146438E-03 0.12499872E+03</pdfrwt>
<pdfrwt beam="1">  1       -4 0.10033347E+00 0.12499872E+03</pdfrwt>
<totfact> 0.45390535E+03</totfact>
</mgrwt>
</event>
<event>
 5    1  0.3312904E-002  0.1249994E+03  0.7818608E-02  0.1235070E+00
          4   -1    0    0  501    0  0.00000000000E+00  0.00000000000E+00  0.62771181487E+01  0.64043041974E+01  0.12700000000E+01 0. -1.
         -4   -1    0    0    0  501 -0.00000000000E+00 -0.00000000000E+00 -0.61592446346E+03  0.61592577279E+03  0.12700000000E+01 0. -1.
         25    2    1    2    0    0  0.00000000000E+00  0.00000000000E+00 -0.60964734531E+03  0.62233007699E+03  0.12499935632E+03 0.  0.
    9000005    1    3    3    0    0  0.52469403924E+02 -0.21421163685E+02 -0.17373196132E+03  0.18274490140E+03  0.10000000000E+01 0.  0.
    9000005    1    3    3    0    0 -0.52469403924E+02  0.21421163685E+02 -0.43591538399E+03  0.43958517559E+03  0.10000000000E+01 0.  0.
<mgrwt>
<rscale>  0 0.12499936E+03</rscale>
<asrwt>0</asrwt>
<pdfrwt beam="1">  1        4 0.97559523E-03 0.12499936E+03</pdfrwt>
<pdfrwt beam="2">  1       -4 0.94767447E-01 0.12499936E+03</pdfrwt>
<totfact> 0.47488429E+03</totfact>
</mgrwt>
</event>
<event>
 5    1  0.3312904E-002  0.1250065E+03  0.7818608E-02  0.1235059E+00
         -4   -1    0    0    0  501 -0.00000000000E+00  0.00000000000E+00  0.37227319404E+03  0.37227536032E+03  0.12700000000E+01 0. -1.
          4   -1    0    0  501    0  0.00000000000E+00 -0.00000000000E+00 -0.10453434855E+02  0.10530299154E+02  0.12700000000E+01 0. -1.
         25    2    1    2    0    0  0.00000000000E+00  0.00000000000E+00  0.36181975918E+03  0.38280565947E+03  0.12500653898E+03 0.  0.
    9000005    1    3    3    0    0  0.90083819862E+01  0.53790097477E+02  0.87465859029E+02  0.10308153098E+03  0.10000000000E+01 0.  0.
    9000005    1    3    3    0    0 -0.90083819862E+01 -0.53790097477E+02  0.27435390015E+03  0.27972412849E+03  0.10000000000E+01 0.  0.
<mgrwt>
<rscale>  0 0.12500654E+03</rscale>
<asrwt>0</asrwt>
<pdfrwt beam="2">  1        4 0.16143002E-02 0.12500654E+03</pdfrwt>
<pdfrwt beam="1">  1       -4 0.57278873E-01 0.12500654E+03</pdfrwt>
<totfact> 0.66250595E+03</totfact>
</mgrwt>
</event>
<event>
 5    1  0.3312904E-002  0.1250009E+03  0.7818608E-02  0.1235068E+00
          4   -1    0    0  501    0  0.00000000000E+00  0.00000000000E+00  0.87140552531E+01  0.88061148615E+01  0.12700000000E+01 0. -1.
         -4   -1    0    0    0  501 -0.00000000000E+00 -0.00000000000E+00 -0.44582828204E+03  0.44583009092E+03  0.12700000000E+01 0. -1.
         25    2    1    2    0    0  0.00000000000E+00  0.00000000000E+00 -0.43711422679E+03  0.45463620578E+03  0.12500092938E+03 0.  0.
    9000005    1    3    3    0    0  0.10172891546E+02  0.19181958363E+02 -0.54279496995E+01  0.22403077623E+02  0.10000000000E+01 0.  0.
    9000005    1    3    3    0    0 -0.10172891546E+02 -0.19181958363E+02 -0.43168627709E+03  0.43223312816E+03  0.10000000000E+01 0.  0.
<mgrwt>
<rscale>  0 0.12500093E+03</rscale>
<asrwt>0</asrwt>
<pdfrwt beam="1">  1        4 0.13478449E-02 0.12500093E+03</pdfrwt>
<pdfrwt beam="2">  1       -4 0.68596170E-01 0.12500093E+03</pdfrwt>
<totfact> 0.59563043E+03</totfact>
</mgrwt>
</event>
<event>
 5    1  0.3312904E-002  0.1249976E+03  0.7818608E-02  0.1235073E+00
         -4   -1    0    0    0  501 -0.00000000000E+00  0.00000000000E+00  0.31014503334E+03  0.31014763356E+03  0.12700000000E+01 0. -1.
          4   -1    0    0  501    0  0.00000000000E+00 -0.00000000000E+00 -0.12559751261E+02  0.12623797041E+02  0.12700000000E+01 0. -1.
         25    2    1    2    0    0  0.00000000000E+00  0.00000000000E+00  0.29758528208E+03  0.32277143060E+03  0.12499758520E+03 0.  0.
    9000005    1    3    3    0    0  0.39662722117E+02 -0.15150421511E+00  0.27348865705E+03  0.27635158768E+03  0.10000000000E+01 0.  0.
    9000005    1    3    3    0    0 -0.39662722117E+02  0.15150421511E+00  0.24096625028E+02  0.46419842922E+02  0.10000000000E+01 0.  0.
<mgrwt>
<rscale>  0 0.12499759E+03</rscale>
<asrwt>0</asrwt>
<pdfrwt beam="2">  1        4 0.19373963E-02 0.12499759E+03</pdfrwt>
<pdfrwt beam="1">  1       -4 0.47719740E-01 0.12499759E+03</pdfrwt>
<totfact> 0.72831610E+03</totfact>
</mgrwt>
</event>
<event>
 5    1  0.3312904E-002  0.1250000E+03  0.7818608E-02  0.1235069E+00
         -4   -1    0    0    0  501 -0.00000000000E+00  0.00000000000E+00  0.20576045706E+02  0.20615202083E+02  0.12700000000E+01 0. -1.
          4   -1    0    0  501    0  0.00000000000E+00 -0.00000000000E+00 -0.18962292474E+03  0.18962717760E+03  0.12700000000E+01 0. -1.
         25    2    1    2    0    0  0.00000000000E+00  0.00000000000E+00 -0.16904687903E+03  0.21024237969E+03  0.12500004362E+03 0.  0.
    9000005    1    3    3    0    0  0.32536880513E+02 -0.30264396103E+02 -0.15842679800E+03  0.16454371027E+03  0.10000000000E+01 0.  0.
    9000005    1    3    3    0    0 -0.32536880513E+02  0.30264396103E+02 -0.10620081026E+02  0.45698669411E+02  0.10000000000E+01 0.  0.
<mgrwt>
<rscale>  0 0.12500004E+03</rscale>
<asrwt>0</asrwt>
<pdfrwt beam="2">  1        4 0.29176096E-01 0.12500004E+03</pdfrwt>
<pdfrwt beam="1">  1       -4 0.31688848E-02 0.12500004E+03</pdfrwt>
<totfact> 0.88436227E+03</totfact>
</mgrwt>
</event>
<event>
 5    1  0.3312904E-002  0.1250010E+03  0.7818608E-02  0.1235068E+00
          4   -1    0    0  501    0  0.00000000000E+00  0.00000000000E+00  0.76671549483E+02  0.76682067005E+02  0.12700000000E+01 0.  1.
         -4   -1    0    0    0  501 -0.00000000000E+00 -0.00000000000E+00 -0.50926745555E+02  0.50942578584E+02  0.12700000000E+01 0.  1.
         25    2    1    2    0    0  0.00000000000E+00  0.00000000000E+00  0.25744803928E+02  0.12762464559E+03  0.12500102093E+03 0.  0.
    9000005    1    3    3    0    0 -0.98125007916E+01  0.77170482438E+01 -0.49645769410E+02  0.51200980710E+02  0.10000000000E+01 0.  0.
    9000005    1    3    3    0    0  0.98125007916E+01 -0.77170482438E+01  0.75390573338E+02  0.76423664879E+02  0.10000000000E+01 0.  0.
<mgrwt>
<rscale>  0 0.12500102E+03</rscale>
<asrwt>0</asrwt>
<pdfrwt beam="1">  1        4 0.11797650E-01 0.12500102E+03</pdfrwt>
<pdfrwt beam="2">  1       -4 0.78369109E-02 0.12500102E+03</pdfrwt>
<totfact> 0.10395362E+04</totfact>
</mgrwt>
</event>
<event>
 5    1  0.3312904E-002  0.1249877E+03  0.7818608E-02  0.1235088E+00
         -4   -1    0    0    0  501 -0.00000000000E+00  0.00000000000E+00  0.21545999300E+02  0.21583396068E+02  0.12700000000E+01 0. -1.
          4   -1    0    0  501    0  0.00000000000E+00 -0.00000000000E+00 -0.18106582447E+03  0.18107027832E+03  0.12700000000E+01 0. -1.
         25    2    1    2    0    0  0.00000000000E+00  0.00000000000E+00 -0.15951982517E+03  0.20265367438E+03  0.12498774788E+03 0.  0.
    9000005    1    3    3    0    0 -0.57736000074E+02  0.19980489830E+02 -0.10101300497E+03  0.11805631220E+03  0.10000000000E+01 0.  0.
    9000005    1    3    3    0    0  0.57736000074E+02 -0.19980489830E+02 -0.58506820201E+02  0.84597362183E+02  0.10000000000E+01 0.  0.
<mgrwt>
<rscale>  0 0.12498775E+03</rscale>
<asrwt>0</asrwt>
<pdfrwt beam="2">  1        4 0.27859499E-01 0.12498775E+03</pdfrwt>
<pdfrwt beam="1">  1       -4 0.33179885E-02 0.12498775E+03</pdfrwt>
<totfact> 0.89714454E+03</totfact>
</mgrwt>
</event>
<event>
 5    1  0.3312904E-002  0.1249978E+03  0.7818608E-02  0.1235073E+00
          4   -1    0    0  501    0  0.00000000000E+00  0.00000000000E+00  0.15977355505E+03  0.15977860243E+03  0.12700000000E+01 0.  1.
         -4   -1    0    0    0  501 -0.00000000000E+00 -0.00000000000E+00 -0.24425878332E+02  0.24458872261E+02  0.12700000000E+01 0.  1.
         25    2    1    2    0    0  0.00000000000E+00  0.00000000000E+00  0.13534767672E+03  0.18423747469E+03  0.12499781393E+03 0.  0.
    9000005    1    3    3    0    0 -0.39406269577E+02  0.10359224520E+02 -0.21620207949E+01  0.40814727103E+02  0.10000000000E+01 0.  0.
    9000005    1    3    3    0    0  0.39406269577E+02 -0.10359224520E+02  0.13750969752E+03  0.14342274759E+03  0.10000000000E+01 0.  0.
<mgrwt>
<rscale>  0 0.12499781E+03</rscale>
<asrwt>0</asrwt>
<pdfrwt beam="1">  1        4 0.24583474E-01 0.12499781E+03</pdfrwt>
<pdfrwt beam="2">  1       -4 0.37607536E-02 0.12499781E+03</pdfrwt>
<totfact> 0.92864306E+03</totfact>
</mgrwt>
</event>
<event>
 5    1  0.3312904E-002  0.1249978E+03  0.7818608E-02  0.1235073E+00
          4   -1    0    0  501    0  0.00000000000E+00  0.00000000000E+00  0.39341591788E+02  0.39362085112E+02  0.12700000000E+01 0.  1.
         -4   -1    0    0    0  501 -0.00000000000E+00 -0.00000000000E+00 -0.99236701059E+02  0.99244827256E+02  0.12700000000E+01 0.  1.
         25    2    1    2    0    0  0.00000000000E+00  0.00000000000E+00 -0.59895109272E+02  0.13860691237E+03  0.12499780815E+03 0.  0.
    9000005    1    3    3    0    0 -0.24503591534E+02 -0.28439099940E+02  0.25450751115E+02  0.45364624277E+02  0.10000000000E+01 0.  0.
    9000005    1    3    3    0    0  0.24503591534E+02  0.28439099940E+02 -0.85345860387E+02  0.93242288092E+02  0.10000000000E+01 0.  0.
<mgrwt>
<rscale>  0 0.12499781E+03</rscale>
<asrwt>0</asrwt>
<pdfrwt beam="1">  1        4 0.60547541E-02 0.12499781E+03</pdfrwt>
<pdfrwt beam="2">  1       -4 0.15269386E-01 0.12499781E+03</pdfrwt>
<totfact> 0.10163042E+04</totfact>
</mgrwt>
</event>
<event>
 5    1  0.3312904E-002  0.1249980E+03  0.7818608E-02  0.1235072E+00
         -4   -1    0    0    0  501 -0.00000000000E+00  0.00000000000E+00  0.53636693027E+02  0.53651726337E+02  0.12700000000E+01 0.  1.
          4   -1    0    0  501    0  0.00000000000E+00 -0.00000000000E+00 -0.72794881129E+02  0.72805958675E+02  0.12700000000E+01 0.  1.
         25    2    1    2    0    0  0.00000000000E+00  0.00000000000E+00 -0.19158188102E+02  0.12645768501E+03  0.12499803969E+03 0.  0.
    9000005    1    3    3    0    0  0.15310996299E+01 -0.19981172836E+02 -0.69460958518E+02  0.72300873385E+02  0.10000000000E+01 0.  0.
    9000005    1    3    3    0    0 -0.15310996299E+01  0.19981172836E+02  0.50302770417E+02  0.54156811627E+02  0.10000000000E+01 0.  0.
<mgrwt>
<rscale>  0 0.12499804E+03</rscale>
<asrwt>0</asrwt>
<pdfrwt beam="2">  1        4 0.11201221E-01 0.12499804E+03</pdfrwt>
<pdfrwt beam="1">  1       -4 0.82538075E-02 0.12499804E+03</pdfrwt>
<totfact> 0.10421412E+04</totfact>
</mgrwt>
</event>
<event>
 5    1  0.3312904E-002  0.1249983E+03  0.7818608E-02  0.1235072E+00
         -4   -1    0    0    0  501 -0.00000000000E+00  0.00000000000E+00  0.87006700959E+01  0.87928698453E+01  0.12700000000E+01 0. -1.
          4   -1    0    0  501    0  0.00000000000E+00 -0.00000000000E+00 -0.44648786915E+03  0.44648967535E+03  0.12700000000E+01 0. -1.
         25    2    1    2    0    0  0.00000000000E+00  0.00000000000E+00 -0.43778719905E+03  0.45528254520E+03  0.12499825722E+03 0.  0.
    9000005    1    3    3    0    0  0.24610601419E+02 -0.55958268446E+02 -0.17166536912E+03  0.18222790255E+03  0.10000000000E+01 0.  0.
    9000005    1    3    3    0    0 -0.24610601419E+02  0.55958268446E+02 -0.26612182993E+03  0.27305464265E+03  0.10000000000E+01 0.  0.
<mgrwt>
<rscale>  0 0.12499826E+03</rscale>
<asrwt>0</asrwt>
<pdfrwt beam="2">  1        4 0.68697655E-01 0.12499826E+03</pdfrwt>
<pdfrwt beam="1">  1       -4 0.13457962E-02 0.12499826E+03</pdfrwt>
<totfact> 0.59511177E+03</totfact>
</mgrwt>
</event>
<event>
 5    1  0.3312904E-002  0.1249978E+03  0.7818608E-02  0.1235073E+00
         -4   -1    0    0    0  501 -0.00000000000E+00  0.00000000000E+00  0.14532202441E+03  0.14532757370E+03  0.12700000000E+01 0.  1.
          4   -1    0    0  501    0  0.00000000000E+00 -0.00000000000E+00 -0.26857936005E+02  0.26887945746E+02  0.12700000000E+01 0.  1.
         25    2    1    2    0    0  0.00000000000E+00  0.00000000000E+00  0.11846408840E+03  0.17221551945E+03  0.12499777957E+03 0.  0.
    9000005    1    3    3    0    0  0.46681825594E+02 -0.26741823996E+02  0.15429317052E+02  0.55976618477E+02  0.10000000000E+01 0.  0.
    9000005    1    3    3    0    0 -0.46681825594E+02  0.26741823996E+02  0.10303477135E+03  0.11623890097E+03  0.10000000000E+01 0.  0.
<mgrwt>
<rscale>  0 0.12499778E+03</rscale>
<asrwt>0</asrwt>
<pdfrwt beam="2">  1        4 0.41347254E-02 0.12499778E+03</pdfrwt>
<pdfrwt beam="1">  1       -4 0.22359970E-01 0.12499778E+03</pdfrwt>
<totfact> 0.95042035E+03</totfact>
</mgrwt>
</event>
<event>
 5    1  0.3312904E-002  0.1249765E+03  0.7818608E-02  0.1235106E+00
          4   -1    0    0  501    0  0.00000000000E+00  0.00000000000E+00  0.29104918877E+03  0.29105195960E+03  0.12700000000E+01 0. -1.
         -4   -1    0    0    0  501 -0.00000000000E+00 -0.00000000000E+00 -0.13383335823E+02  0.13443458549E+02  0.12700000000E+01 0. -1.
         25    2    1    2    0    0  0.00000000000E+00  0.00000000000E+00  0.27766585295E+03  0.30449541815E+03  0.12497653291E+03 0.  0.
    9000005    1    3    3    0    0  0.10406540201E+02 -0.60859556685E+02  0.11551423817E+03  0.13098366668E+03  0.10000000000E+01 0.  0.
    9000005    1    3    3    0    0 -0.10406540201E+02  0.60859556685E+02  0.16215161478E+03  0.17351175146E+03  0.10000000000E+01 0.  0.
<mgrwt>
<rscale>  0 0.12497653E+03</rscale>
<asrwt>0</asrwt>
<pdfrwt beam="1">  1        4 0.44781635E-01 0.12497653E+03</pdfrwt>
<pdfrwt beam="2">  1       -4 0.20638127E-02 0.12497653E+03</pdfrwt>
<totfact> 0.75077472E+03</totfact>
</mgrwt>
</event>
<event>
 5    1  0.3312904E-002  0.1249990E+03  0.7818608E-02  0.1235071E+00
         -4   -1    0    0    0  501 -0.00000000000E+00  0.00000000000E+00  0.16241478665E+02  0.16291056725E+02  0.12700000000E+01 0.  1.
          4   -1    0    0  501    0  0.00000000000E+00 -0.00000000000E+00 -0.24008900425E+03  0.24009236319E+03  0.12700000000E+01 0.  1.
         25    2    1    2    0    0  0.00000000000E+00  0.00000000000E+00 -0.22384752558E+03  0.25638341991E+03  0.12499897318E+03 0.  0.
    9000005    1    3    3    0    0 -0.38129001746E+02 -0.45716800831E+02 -0.72934860035E+02  0.94150626449E+02  0.10000000000E+01 0.  0.
    9000005    1    3    3    0    0  0.38129001746E+02  0.45716800831E+02 -0.15091266555E+03  0.16223279346E+03  0.10000000000E+01 0.  0.
<mgrwt>
<rscale>  0 0.12499897E+03</rscale>
<asrwt>0</asrwt>
<pdfrwt beam="2">  1        4 0.36940839E-01 0.12499897E+03</pdfrwt>
<pdfrwt beam="1">  1       -4 0.25027613E-02 0.12499897E+03</pdfrwt>
<totfact> 0.81418153E+03</totfact>
</mgrwt>
</event>
<event>
 5    1  0.3312904E-002  0.1250005E+03  0.7818608E-02  0.1235068E+00
          4   -1    0    0  501    0  0.00000000000E+00  0.00000000000E+00  0.31909299515E+03  0.31909552246E+03  0.12700000000E+01 0. -1.
         -4   -1    0    0    0  501 -0.00000000000E+00 -0.00000000000E+00 -0.12206313400E+02  0.12272203829E+02  0.12700000000E+01 0. -1.
         25    2    1    2    0    0  0.00000000000E+00  0.00000000000E+00  0.30688668175E+03  0.33136772629E+03  0.12500053836E+03 0.  0.
    9000005    1    3    3    0    0  0.54024646067E+02  0.16841845278E+02  0.83157506440E+02  0.10059066066E+03  0.10000000000E+01 0.  0.
    9000005    1    3    3    0    0 -0.54024646067E+02 -0.16841845278E+02  0.22372917531E+03  0.23077706563E+03  0.10000000000E+01 0.  0.
<mgrwt>
<rscale>  0 0.12500054E+03</rscale>
<asrwt>0</asrwt>
<pdfrwt beam="1">  1        4 0.49096487E-01 0.12500054E+03</pdfrwt>
<pdfrwt beam="2">  1       -4 0.18831575E-02 0.12500054E+03</pdfrwt>
<totfact> 0.71823322E+03</totfact>
</mgrwt>
</event>
<event>
 5    1  0.3312904E-002  0.1249996E+03  0.7818608E-02  0.1235070E+00
         -4   -1    0    0    0  501 -0.00000000000E+00  0.00000000000E+00  0.10997891830E+03  0.10998625082E+03  0.12700000000E+01 0.  1.
          4   -1    0    0  501    0  0.00000000000E+00 -0.00000000000E+00 -0.35498071373E+02  0.35520782244E+02  0.12700000000E+01 0.  1.
         25    2    1    2    0    0  0.00000000000E+00  0.00000000000E+00  0.74480846926E+02  0.14550703307E+03  0.12499960045E+03 0.  0.
    9000005    1    3    3    0    0 -0.48380269770E+02  0.24390356101E+02  0.99186738589E+00  0.54198927800E+02  0.10000000000E+01 0.  0.
    9000005    1    3    3    0    0  0.48380269770E+02 -0.24390356101E+02  0.73488979540E+02  0.91308105268E+02  0.10000000000E+01 0.  0.
<mgrwt>
<rscale>  0 0.12499960E+03</rscale>
<asrwt>0</asrwt>
<pdfrwt beam="2">  1        4 0.54635526E-02 0.12499960E+03</pdfrwt>
<pdfrwt beam="1">  1       -4 0.16922145E-01 0.12499960E+03</pdfrwt>
<totfact> 0.10020787E+04</totfact>
</mgrwt>
</event>
<event>
 5    1  0.3312904E-002  0.1250052E+03  0.7818608E-02  0.1235061E+00
         -4   -1    0    0    0  501 -0.00000000000E+00  0.00000000000E+00  0.25290876524E+03  0.25291195392E+03  0.12700000000E+01 0. -1.
          4   -1    0    0  501    0  0.00000000000E+00 -0.00000000000E+00 -0.15417193155E+02  0.15469413201E+02  0.12700000000E+01 0. -1.
         25    2    1    2    0    0  0.00000000000E+00  0.00000000000E+00  0.23749157209E+03  0.26838136712E+03  0.12500524551E+03 0.  0.
    9000005    1    3    3    0    0 -0.34847561661E+01 -0.53166047088E+02  0.48621766844E+02  0.72137703731E+02  0.10000000000E+01 0.  0.
    9000005    1    3    3    0    0  0.34847561661E+01  0.53166047088E+02  0.18886980525E+03  0.19624366339E+03  0.10000000000E+01 0.  0.
<mgrwt>
<rscale>  0 0.12500525E+03</rscale>
<asrwt>0</asrwt>
<pdfrwt beam="2">  1        4 0.23761383E-02 0.12500525E+03</pdfrwt>
<pdfrwt beam="1">  1       -4 0.38913299E-01 0.12500525E+03</pdfrwt>
<totfact> 0.79734752E+03</totfact>
</mgrwt>
</event>
<event>
 5    1  0.3312904E-002  0.1249982E+03  0.7818608E-02  0.1235072E+00
          4   -1    0    0  501    0  0.00000000000E+00  0.00000000000E+00  0.53325548058E+02  0.53340669059E+02  0.12700000000E+01 0.  1.
         -4   -1    0    0    0  501 -0.00000000000E+00 -0.00000000000E+00 -0.73219772519E+02  0.73230785792E+02  0.12700000000E+01 0.  1.
         25    2    1    2    0    0  0.00000000000E+00  0.00000000000E+00 -0.19894224461E+02  0.12657145485E+03  0.12499821205E+03 0.  0.
    9000005    1    3    3    0    0  0.19486169317E+02  0.99910653798E+01  0.49318214215E+02  0.53970533029E+02  0.10000000000E+01 0.  0.
    9000005    1    3    3    0    0 -0.19486169317E+02 -0.99910653798E+01 -0.69212438675E+02  0.72600921822E+02  0.10000000000E+01 0.  0.
<mgrwt>
<rscale>  0 0.12499821E+03</rscale>
<asrwt>0</asrwt>
<pdfrwt beam="1">  1        4 0.82059408E-02 0.12499821E+03</pdfrwt>
<pdfrwt beam="2">  1       -4 0.11266591E-01 0.12499821E+03</pdfrwt>
<totfact> 0.10418891E+04</totfact>
</mgrwt>
</event>
<event>
 5    1  0.3312904E-002  0.1249940E+03  0.7818608E-02  0.1235079E+00
          4   -1    0    0  501    0  0.00000000000E+00  0.00000000000E+00  0.11327925579E+04  0.11327932698E+04  0.12700000000E+01 0.  1.
         -4   -1    0    0    0  501 -0.00000000000E+00 -0.00000000000E+00 -0.33303263435E+01  0.35642633958E+01  0.12700000000E+01 0.  1.
         25    2    1    2    0    0  0.00000000000E+00  0.00000000000E+00  0.11294622315E+04  0.11363575332E+04  0.12499404293E+03 0.  0.
    9000005    1    3    3    0    0  0.25522772983E+02  0.38434823444E+02  0.18157541442E+03  0.18734801498E+03  0.10000000000E+01 0.  0.
    9000005    1    3    3    0    0 -0.25522772983E+02 -0.38434823444E+02  0.94788681709E+03  0.94900951818E+03  0.10000000000E+01 0.  0.
<mgrwt>
<rscale>  0 0.12499404E+03</rscale>
<asrwt>0</asrwt>
<pdfrwt beam="1">  1        4 0.17429392E+00 0.12499404E+03</pdfrwt>
<pdfrwt beam="2">  1       -4 0.53040753E-03 0.12499404E+03</pdfrwt>
<totfact> 0.26445231E+03</totfact>
</mgrwt>
</event>
<event>
 5    1  0.3312904E-002  0.1249982E+03  0.7818608E-02  0.1235072E+00
          4   -1    0    0  501    0  0.00000000000E+00  0.00000000000E+00  0.28321759629E+02  0.28350219902E+02  0.12700000000E+01 0.  1.
         -4   -1    0    0    0  501 -0.00000000000E+00 -0.00000000000E+00 -0.13781928934E+03  0.13782514072E+03  0.12700000000E+01 0.  1.
         25    2    1    2    0    0  0.00000000000E+00  0.00000000000E+00 -0.10949752971E+03  0.16617536062E+03  0.12499816584E+03 0.  0.
    9000005    1    3    3    0    0  0.34578867042E+02  0.48364311513E+02 -0.80332140213E+02  0.99945272151E+02  0.10000000000E+01 0.  0.
    9000005    1    3    3    0    0 -0.34578867042E+02 -0.48364311513E+02 -0.29165389495E+02  0.66230088468E+02  0.10000000000E+01 0.  0.
<mgrwt>
<rscale>  0 0.12499817E+03</rscale>
<asrwt>0</asrwt>
<pdfrwt beam="1">  1        4 0.43598332E-02 0.12499817E+03</pdfrwt>
<pdfrwt beam="2">  1       -4 0.21205606E-01 0.12499817E+03</pdfrwt>
<totfact> 0.96169222E+03</totfact>
</mgrwt>
</event>
<event>
 5    1  0.3312904E-002  0.1250017E+03  0.7818608E-02  0.1235067E+00
         -4   -1    0    0    0  501 -0.00000000000E+00  0.00000000000E+00  0.17962112854E+03  0.17962561821E+03  0.12700000000E+01 0. -1.
          4   -1    0    0  501    0  0.00000000000E+00 -0.00000000000E+00 -0.21724453732E+02  0.21761543832E+02  0.12700000000E+01 0. -1.
         25    2    1    2    0    0  0.00000000000E+00  0.00000000000E+00  0.15789667480E+03  0.20138716204E+03  0.12500171647E+03 0.  0.
    9000005    1    3    3    0    0 -0.85913514466E+01 -0.78275667488E+01  0.17787248770E+03  0.17825460443E+03  0.10000000000E+01 0.  0.
    9000005    1    3    3    0    0  0.85913514466E+01  0.78275667488E+01 -0.19975812893E+02  0.23132557611E+02  0.10000000000E+01 0.  0.
<mgrwt>
<rscale>  0 0.12500172E+03</rscale>
<asrwt>0</asrwt>
<pdfrwt beam="2">  1        4 0.33454223E-02 0.12500172E+03</pdfrwt>
<pdfrwt beam="1">  1       -4 0.27637217E-01 0.12500172E+03</pdfrwt>
<totfact> 0.89898625E+03</totfact>
</mgrwt>
</event>
<event>
 5    1  0.3312904E-002  0.1250109E+03  0.7818608E-02  0.1235052E+00
          4   -1    0    0  501    0  0.00000000000E+00  0.00000000000E+00  0.30426438010E+02  0.30452931386E+02  0.12700000000E+01 0.  1.
         -4   -1    0    0    0  501 -0.00000000000E+00 -0.00000000000E+00 -0.12832024231E+03  0.12832652683E+03  0.12700000000E+01 0.  1.
         25    2    1    2    0    0  0.00000000000E+00  0.00000000000E+00 -0.97893804302E+02  0.15877945821E+03  0.12501087724E+03 0.  0.
    9000005    1    3    3    0    0 -0.27209622591E+02 -0.43505993823E+02 -0.94260203948E+02  0.10732716855E+03  0.10000000000E+01 0.  0.
    9000005    1    3    3    0    0  0.27209622591E+02  0.43505993823E+02 -0.36336003536E+01  0.51452289664E+02  0.10000000000E+01 0.  0.
<mgrwt>
<rscale>  0 0.12501088E+03</rscale>
<asrwt>0</asrwt>
<pdfrwt beam="1">  1        4 0.46835119E-02 0.12501088E+03</pdfrwt>
<pdfrwt beam="2">  1       -4 0.19744097E-01 0.12501088E+03</pdfrwt>
<totfact> 0.97554756E+03</totfact>
</mgrwt>
</event>
<event>
 5    1  0.3312904E-002  0.1250132E+03  0.7818608E-02  0.1235049E+00
         -4   -1    0    0    0  501 -0.00000000000E+00  0.00000000000E+00  0.45628923451E+02  0.45646594125E+02  0.12700000000E+01 0. -1.
          4   -1    0    0  501    0  0.00000000000E+00 -0.00000000000E+00 -0.85588143086E+02  0.85597565018E+02  0.12700000000E+01 0. -1.
         25    2    1    2    0    0  0.00000000000E+00  0.00000000000E+00 -0.39959219636E+02  0.13124415914E+03  0.12501315961E+03 0.  0.
    9000005    1    3    3    0    0 -0.39913371379E+02  0.31319142676E+02  0.18337588257E+02  0.53955843575E+02  0.10000000000E+01 0.  0.
    9000005    1    3    3    0    0  0.39913371379E+02 -0.31319142676E+02 -0.58296807893E+02  0.77288315568E+02  0.10000000000E+01 0.  0.
<mgrwt>
<rscale>  0 0.12501316E+03</rscale>
<asrwt>0</asrwt>
<pdfrwt beam="2">  1        4 0.13169491E-01 0.12501316E+03</pdfrwt>
<pdfrwt beam="1">  1       -4 0.70219185E-02 0.12501316E+03</pdfrwt>
<totfact> 0.10314795E+04</totfact>
</mgrwt>
</event>
<event>
 5    1  0.3312904E-002  0.1249999E+03  0.7818608E-02  0.1235069E+00
          4   -1    0    0  501    0  0.00000000000E+00  0.00000000000E+00  0.10877879728E+02  0.10951765491E+02  0.12700000000E+01 0.  1.
         -4   -1    0    0    0  501 -0.00000000000E+00 -0.00000000000E+00 -0.35780916602E+03  0.35781141987E+03  0.12700000000E+01 0.  1.
         25    2    1    2    0    0  0.00000000000E+00  0.00000000000E+00 -0.34693128629E+03  0.36876318536E+03  0.12499987787E+03 0.  0.
    9000005    1    3    3    0    0 -0.37646300173E+02 -0.37103977656E+02 -0.27181065014E+03  0.27690427697E+03  0.10000000000E+01 0.  0.
    9000005    1    3    3    0    0  0.37646300173E+02  0.37103977656E+02 -0.75120636156E+02  0.91858908392E+02  0.10000000000E+01 0.  0.
<mgrwt>
<rscale>  0 0.12499988E+03</rscale>
<asrwt>0</asrwt>
<pdfrwt beam="1">  1        4 0.16793771E-02 0.12499988E+03</pdfrwt>
<pdfrwt beam="2">  1       -4 0.55053412E-01 0.12499988E+03</pdfrwt>
<totfact> 0.67708717E+03</totfact>
</mgrwt>
</event>
<event>
 5    1  0.3312904E-002  0.1249998E+03  0.7818608E-02  0.1235070E+00
          4   -1    0    0  501    0  0.00000000000E+00  0.00000000000E+00  0.74505966101E+02  0.74516789281E+02  0.12700000000E+01 0.  1.
         -4   -1    0    0    0  501 -0.00000000000E+00 -0.00000000000E+00 -0.52406212822E+02  0.52421599006E+02  0.12700000000E+01 0.  1.
         25    2    1    2    0    0  0.00000000000E+00  0.00000000000E+00  0.22099753280E+02  0.12693838829E+03  0.12499982130E+03 0.  0.
    9000005    1    3    3    0    0 -0.43000243966E+02 -0.18066374246E+02  0.53286048011E+02  0.70822438338E+02  0.10000000000E+01 0.  0.
    9000005    1    3    3    0    0  0.43000243966E+02  0.18066374246E+02 -0.31186294731E+02  0.56115949948E+02  0.10000000000E+01 0.  0.
<mgrwt>
<rscale>  0 0.12499982E+03</rscale>
<asrwt>0</asrwt>
<pdfrwt beam="1">  1        4 0.11464472E-01 0.12499982E+03</pdfrwt>
<pdfrwt beam="2">  1       -4 0.80645104E-02 0.12499982E+03</pdfrwt>
<totfact> 0.10410526E+04</totfact>
</mgrwt>
</event>
<event>
 5    1  0.3312904E-002  0.1249936E+03  0.7818608E-02  0.1235079E+00
          4   -1    0    0  501    0  0.00000000000E+00  0.00000000000E+00  0.11314578303E+03  0.11315291033E+03  0.12700000000E+01 0.  1.
         -4   -1    0    0    0  501 -0.00000000000E+00 -0.00000000000E+00 -0.34500606884E+02  0.34523973922E+02  0.12700000000E+01 0.  1.
         25    2    1    2    0    0  0.00000000000E+00  0.00000000000E+00  0.78645176144E+02  0.14767688426E+03  0.12499359349E+03 0.  0.
    9000005    1    3    3    0    0 -0.25916609232E+02  0.53390248813E+02  0.16210910440E+02  0.61530341456E+02  0.10000000000E+01 0.  0.
    9000005    1    3    3    0    0  0.25916609232E+02 -0.53390248813E+02  0.62434265704E+02  0.86146542800E+02  0.10000000000E+01 0.  0.
<mgrwt>
<rscale>  0 0.12499359E+03</rscale>
<asrwt>0</asrwt>
<pdfrwt beam="1">  1        4 0.17409389E-01 0.12499359E+03</pdfrwt>
<pdfrwt beam="2">  1       -4 0.53101315E-02 0.12499359E+03</pdfrwt>
<totfact> 0.99783198E+03</totfact>
</mgrwt>
</event>
<event>
 5    1  0.3312904E-002  0.1249996E+03  0.7818608E-02  0.1235070E+00
          4   -1    0    0  501    0  0.00000000000E+00  0.00000000000E+00  0.13084610522E+04  0.13084616685E+04  0.12700000000E+01 0.  1.
         -4   -1    0    0    0  501 -0.00000000000E+00 -0.00000000000E+00 -0.28496462053E+01  0.31198370944E+01  0.12700000000E+01 0.  1.
         25    2    1    2    0    0  0.00000000000E+00  0.00000000000E+00  0.13056114060E+04  0.13115815056E+04  0.12499960978E+03 0.  0.
    9000005    1    3    3    0    0  0.24391181225E+02 -0.54533508958E+01  0.51825160717E+02  0.57545773440E+02  0.10000000000E+01 0.  0.
    9000005    1    3    3    0    0 -0.24391181225E+02  0.54533508958E+01  0.12537862453E+04  0.12540357322E+04  0.10000000000E+01 0.  0.
<mgrwt>
<rscale>  0 0.12499961E+03</rscale>
<asrwt>0</asrwt>
<pdfrwt beam="1">  1        4 0.20132218E+00 0.12499961E+03</pdfrwt>
<pdfrwt beam="2">  1       -4 0.45923924E-03 0.12499961E+03</pdfrwt>
<totfact> 0.21957053E+03</totfact>
</mgrwt>
</event>
<event>
 5    1  0.3312904E-002  0.1249933E+03  0.7818608E-02  0.1235080E+00
         -4   -1    0    0    0  501 -0.00000000000E+00  0.00000000000E+00  0.89796988268E+02  0.89805968632E+02  0.12700000000E+01 0. -1.
          4   -1    0    0  501    0  0.00000000000E+00 -0.00000000000E+00 -0.43475831425E+02  0.43494376856E+02  0.12700000000E+01 0. -1.
         25    2    1    2    0    0  0.00000000000E+00  0.00000000000E+00  0.46321156843E+02  0.13330034549E+03  0.12499332997E+03 0.  0.
    9000005    1    3    3    0    0  0.39407503722E+02 -0.21146287490E+02  0.69704137210E+02  0.82823810395E+02  0.10000000000E+01 0.  0.
    9000005    1    3    3    0    0 -0.39407503722E+02  0.21146287490E+02 -0.23382980367E+02  0.50476535093E+02  0.10000000000E+01 0.  0.
<mgrwt>
<rscale>  0 0.12499333E+03</rscale>
<asrwt>0</asrwt>
<pdfrwt beam="2">  1        4 0.66907069E-02 0.12499333E+03</pdfrwt>
<pdfrwt beam="1">  1       -4 0.13817039E-01 0.12499333E+03</pdfrwt>
<totfact> 0.10275567E+04</totfact>
</mgrwt>
</event>
<event>
 5    1  0.3312904E-002  0.1249954E+03  0.7818608E-02  0.1235076E+00
         -4   -1    0    0    0  501 -0.00000000000E+00  0.00000000000E+00  0.14176439118E+03  0.14177007973E+03  0.12700000000E+01 0.  1.
          4   -1    0    0  501    0  0.00000000000E+00 -0.00000000000E+00 -0.27531631036E+02  0.27560907233E+02  0.12700000000E+01 0.  1.
         25    2    1    2    0    0  0.00000000000E+00  0.00000000000E+00  0.11423276015E+03  0.16933098697E+03  0.12499543854E+03 0.  0.
    9000005    1    3    3    0    0 -0.75989555892E+01 -0.44395734506E+02  0.11579588186E+03  0.12425140492E+03  0.10000000000E+01 0.  0.
    9000005    1    3    3    0    0  0.75989555892E+01  0.44395734506E+02 -0.15631217105E+01  0.45079582051E+02  0.10000000000E+01 0.  0.
<mgrwt>
<rscale>  0 0.12499544E+03</rscale>
<asrwt>0</asrwt>
<pdfrwt beam="2">  1        4 0.42383252E-02 0.12499544E+03</pdfrwt>
<pdfrwt beam="1">  1       -4 0.21812596E-01 0.12499544E+03</pdfrwt>
<totfact> 0.95583190E+03</totfact>
</mgrwt>
</event>
<event>
 5    1  0.3312904E-002  0.1250023E+03  0.7818608E-02  0.1235066E+00
         -4   -1    0    0    0  501 -0.00000000000E+00  0.00000000000E+00  0.47197801751E+03  0.47197972616E+03  0.12700000000E+01 0.  1.
          4   -1    0    0  501    0  0.00000000000E+00 -0.00000000000E+00 -0.82261936753E+01  0.83236507846E+01  0.12700000000E+01 0.  1.
         25    2    1    2    0    0  0.00000000000E+00  0.00000000000E+00  0.46375182383E+03  0.48030337695E+03  0.12500231918E+03 0.  0.
    9000005    1    3    3    0    0 -0.75182420951E+01  0.54322147106E+01 -0.55854654876E+01  0.10873377836E+02  0.10000000000E+01 0.  0.
    9000005    1    3    3    0    0  0.75182420951E+01 -0.54322147106E+01  0.46933728932E+03  0.46942999911E+03  0.10000000000E+01 0.  0.
<mgrwt>
<rscale>  0 0.12500232E+03</rscale>
<asrwt>0</asrwt>
<pdfrwt beam="2">  1        4 0.12731962E-02 0.12500232E+03</pdfrwt>
<pdfrwt beam="1">  1       -4 0.72619644E-01 0.12500232E+03</pdfrwt>
<totfact> 0.57422697E+03</totfact>
</mgrwt>
</event>
<event>
 5    1  0.3312904E-002  0.1249986E+03  0.7818608E-02  0.1235072E+00
         -4   -1    0    0    0  501 -0.00000000000E+00  0.00000000000E+00  0.25648807004E+02  0.25680229763E+02  0.12700000000E+01 0. -1.
          4   -1    0    0  501    0  0.00000000000E+00 -0.00000000000E+00 -0.15216673339E+03  0.15217203307E+03  0.12700000000E+01 0. -1.
         25    2    1    2    0    0  0.00000000000E+00  0.00000000000E+00 -0.12651792638E+03  0.17785226284E+03  0.12499856679E+03 0.  0.
    9000005    1    3    3    0    0 -0.54301807818E+02  0.17844531659E+02 -0.99199174247E+02  0.11449275005E+03  0.10000000000E+01 0.  0.
    9000005    1    3    3    0    0  0.54301807818E+02 -0.17844531659E+02 -0.27318752137E+02  0.63359512788E+02  0.10000000000E+01 0.  0.
<mgrwt>
<rscale>  0 0.12499857E+03</rscale>
<asrwt>0</asrwt>
<pdfrwt beam="2">  1        4 0.23413091E-01 0.12499857E+03</pdfrwt>
<pdfrwt beam="1">  1       -4 0.39487952E-02 0.12499857E+03</pdfrwt>
<totfact> 0.94008059E+03</totfact>
</mgrwt>
</event>
<event>
 5    1  0.3312904E-002  0.1250000E+03  0.7818608E-02  0.1235069E+00
          4   -1    0    0  501    0  0.00000000000E+00  0.00000000000E+00  0.39122914143E+03  0.39123120275E+03  0.12700000000E+01 0. -1.
         -4   -1    0    0    0  501 -0.00000000000E+00 -0.00000000000E+00 -0.99420762070E+01  0.10022862830E+02  0.12700000000E+01 0. -1.
         25    2    1    2    0    0  0.00000000000E+00  0.00000000000E+00  0.38128706522E+03  0.40125406558E+03  0.12499999615E+03 0.  0.
    9000005    1    3    3    0    0  0.21240810993E+02 -0.26615020687E+02  0.35884796730E+03  0.36046136410E+03  0.10000000000E+01 0.  0.
    9000005    1    3    3    0    0 -0.21240810993E+02  0.26615020687E+02  0.22439097923E+02  0.40792701473E+02  0.10000000000E+01 0.  0.
<mgrwt>
<rscale>  0 0.12500000E+03</rscale>
<asrwt>0</asrwt>
<pdfrwt beam="1">  1        4 0.60195487E-01 0.12500000E+03</pdfrwt>
<pdfrwt beam="2">  1       -4 0.15359227E-02 0.12500000E+03</pdfrwt>
<totfact> 0.64430997E+03</totfact>
</mgrwt>
</event>
<event>
 5    1  0.3312904E-002  0.1249941E+03  0.7818608E-02  0.1235078E+00
          4   -1    0    0  501    0  0.00000000000E+00  0.00000000000E+00  0.25099723519E+04  0.25099726732E+04  0.12700000000E+01 0.  1.
         -4   -1    0    0    0  501 -0.00000000000E+00 -0.00000000000E+00 -0.12966530321E+01  0.18149956159E+01  0.12700000000E+01 0.  1.
         25    2    1    2    0    0  0.00000000000E+00  0.00000000000E+00  0.25086756989E+04  0.25117876688E+04  0.12499412433E+03 0.  0.
    9000005    1    3    3    0    0 -0.31555454429E+02  0.23916191986E+02  0.28285130553E+03  0.28561091013E+03  0.10000000000E+01 0.  0.
    9000005    1    3    3    0    0  0.31555454429E+02 -0.23916191986E+02  0.22258243933E+04  0.22261767587E+04  0.10000000000E+01 0.  0.
<mgrwt>
<rscale>  0 0.12499412E+03</rscale>
<asrwt>0</asrwt>
<pdfrwt beam="1">  1        4 0.38618962E+00 0.12499412E+03</pdfrwt>
<pdfrwt beam="2">  1       -4 0.23938222E-03 0.12499412E+03</pdfrwt>
<totfact> 0.45779847E+02</totfact>
</mgrwt>
</event>
<event>
 5    1  0.3312904E-002  0.1249972E+03  0.7818608E-02  0.1235074E+00
         -4   -1    0    0    0  501 -0.00000000000E+00  0.00000000000E+00  0.99452706626E+02  0.99460815175E+02  0.12700000000E+01 0.  1.
          4   -1    0    0  501    0  0.00000000000E+00 -0.00000000000E+00 -0.39255720818E+02  0.39276258948E+02  0.12700000000E+01 0.  1.
         25    2    1    2    0    0  0.00000000000E+00  0.00000000000E+00  0.60196985807E+02  0.13873707412E+03  0.12499719451E+03 0.  0.
    9000005    1    3    3    0    0 -0.45027138351E+02 -0.41650045225E+02  0.43366823598E+02  0.75125567182E+02  0.10000000000E+01 0.  0.
    9000005    1    3    3    0    0  0.45027138351E+02  0.41650045225E+02  0.16830162209E+02  0.63611506941E+02  0.10000000000E+01 0.  0.
<mgrwt>
<rscale>  0 0.12499719E+03</rscale>
<asrwt>0</asrwt>
<pdfrwt beam="2">  1        4 0.60415453E-02 0.12499719E+03</pdfrwt>
<pdfrwt beam="1">  1       -4 0.15302620E-01 0.12499719E+03</pdfrwt>
<totfact> 0.10160470E+04</totfact>
</mgrwt>
</event>
<event>
 5    1  0.3312904E-002  0.1249999E+03  0.7818608E-02  0.1235069E+00
         -4   -1    0    0    0  501 -0.00000000000E+00  0.00000000000E+00  0.78905435011E+03  0.78905537216E+03  0.12700000000E+01 0.  1.
          4   -1    0    0  501    0  0.00000000000E+00 -0.00000000000E+00 -0.48680432319E+01  0.50309785238E+01  0.12700000000E+01 0.  1.
         25    2    1    2    0    0  0.00000000000E+00  0.00000000000E+00  0.78418630688E+03  0.79408635068E+03  0.12499987376E+03 0.  0.
    9000005    1    3    3    0    0 -0.19383103092E+02 -0.58153894246E+02  0.31489755424E+03  0.32080999013E+03  0.10000000000E+01 0.  0.
    9000005    1    3    3    0    0  0.19383103092E+02  0.58153894246E+02  0.46928875264E+03  0.47327636055E+03  0.10000000000E+01 0.  0.
<mgrwt>
<rscale>  0 0.12499987E+03</rscale>
<asrwt>0</asrwt>
<pdfrwt beam="2">  1        4 0.76154178E-03 0.12499987E+03</pdfrwt>
<pdfrwt beam="1">  1       -4 0.12140560E+00 0.12499987E+03</pdfrwt>
<totfact> 0.38530197E+03</totfact>
</mgrwt>
</event>
<event>
 5    1  0.3312904E-002  0.1250010E+03  0.7818608E-02  0.1235068E+00
         -4   -1    0    0    0  501 -0.00000000000E+00  0.00000000000E+00  0.13160810977E+03  0.13161423729E+03  0.12700000000E+01 0.  1.
          4   -1    0    0  501    0  0.00000000000E+00 -0.00000000000E+00 -0.29661012161E+02  0.29688188601E+02  0.12700000000E+01 0.  1.
         25    2    1    2    0    0  0.00000000000E+00  0.00000000000E+00  0.10194709760E+03  0.16130242589E+03  0.12500104754E+03 0.  0.
    9000005    1    3    3    0    0  0.50742846466E+02 -0.20962727303E+02  0.89492689881E+02  0.10499625682E+03  0.10000000000E+01 0.  0.
    9000005    1    3    3    0    0 -0.50742846466E+02  0.20962727303E+02  0.12454407724E+02  0.56306169069E+02  0.10000000000E+01 0.  0.
<mgrwt>
<rscale>  0 0.12500105E+03</rscale>
<asrwt>0</asrwt>
<pdfrwt beam="2">  1        4 0.45657944E-02 0.12500105E+03</pdfrwt>
<pdfrwt beam="1">  1       -4 0.20249964E-01 0.12500105E+03</pdfrwt>
<totfact> 0.97089987E+03</totfact>
</mgrwt>
</event>
<event>
 5    1  0.3312904E-002  0.1249987E+03  0.7818608E-02  0.1235071E+00
          4   -1    0    0  501    0  0.00000000000E+00  0.00000000000E+00  0.68221326015E+02  0.68233146075E+02  0.12700000000E+01 0.  1.
         -4   -1    0    0    0  501 -0.00000000000E+00 -0.00000000000E+00 -0.57233500735E+02  0.57247589525E+02  0.12700000000E+01 0.  1.
         25    2    1    2    0    0  0.00000000000E+00  0.00000000000E+00  0.10987825280E+02  0.12548073560E+03  0.12499873080E+03 0.  0.
    9000005    1    3    3    0    0  0.36659092363E+02 -0.36594236973E+02  0.40587886130E+02  0.65813400861E+02  0.10000000000E+01 0.  0.
    9000005    1    3    3    0    0 -0.36659092363E+02  0.36594236973E+02 -0.29600060849E+02  0.59667334738E+02  0.10000000000E+01 0.  0.
<mgrwt>
<rscale>  0 0.12499873E+03</rscale>
<asrwt>0</asrwt>
<pdfrwt beam="1">  1        4 0.10497582E-01 0.12499873E+03</pdfrwt>
<pdfrwt beam="2">  1       -4 0.88071469E-02 0.12499873E+03</pdfrwt>
<totfact> 0.10442679E+04</totfact>
</mgrwt>
</event>
<event>
 5    1  0.3312904E-002  0.1249992E+03  0.7818608E-02  0.1235071E+00
         -4   -1    0    0    0  501 -0.00000000000E+00  0.00000000000E+00  0.68714499163E+02  0.68726234403E+02  0.12700000000E+01 0.  1.
          4   -1    0    0  501    0  0.00000000000E+00 -0.00000000000E+00 -0.56823097107E+02  0.56837287627E+02  0.12700000000E+01 0.  1.
         25    2    1    2    0    0  0.00000000000E+00  0.00000000000E+00  0.11891402056E+02  0.12556352203E+03  0.12499917048E+03 0.  0.
    9000005    1    3    3    0    0 -0.10440404292E+02  0.42488298280E+02  0.50767110776E+02  0.67026540035E+02  0.10000000000E+01 0.  0.
    9000005    1    3    3    0    0  0.10440404292E+02 -0.42488298280E+02 -0.38875708720E+02  0.58536981995E+02  0.10000000000E+01 0.  0.
<mgrwt>
<rscale>  0 0.12499917E+03</rscale>
<asrwt>0</asrwt>
<pdfrwt beam="2">  1        4 0.87440092E-02 0.12499917E+03</pdfrwt>
<pdfrwt beam="1">  1       -4 0.10573456E-01 0.12499917E+03</pdfrwt>
<totfact> 0.10440747E+04</totfact>
</mgrwt>
</event>
<event>
 5    1  0.3312904E-002  0.1249965E+03  0.7818608E-02  0.1235075E+00
         -4   -1    0    0    0  501 -0.00000000000E+00  0.00000000000E+00  0.39682143822E+03  0.39682347049E+03  0.12700000000E+01 0.  1.
          4   -1    0    0  501    0  0.00000000000E+00 -0.00000000000E+00 -0.98002720635E+01  0.98822179959E+01  0.12700000000E+01 0.  1.
         25    2    1    2    0    0  0.00000000000E+00  0.00000000000E+00  0.38702116616E+03  0.40670568848E+03  0.12499653592E+03 0.  0.
    9000005    1    3    3    0    0  0.36661412190E+01  0.27883259664E+02  0.11938233375E+02  0.30568581534E+02  0.10000000000E+01 0.  0.
    9000005    1    3    3    0    0 -0.36661412190E+01 -0.27883259664E+02  0.37508293278E+03  0.37613710695E+03  0.10000000000E+01 0.  0.
<mgrwt>
<rscale>  0 0.12499654E+03</rscale>
<asrwt>0</asrwt>
<pdfrwt beam="2">  1        4 0.15141942E-02 0.12499654E+03</pdfrwt>
<pdfrwt beam="1">  1       -4 0.61055906E-01 0.12499654E+03</pdfrwt>
<totfact> 0.63910674E+03</totfact>
</mgrwt>
</event>
<event>
 5    1  0.3312904E-002  0.1250060E+03  0.7818608E-02  0.1235060E+00
         -4   -1    0    0    0  501 -0.00000000000E+00  0.00000000000E+00  0.14706980653E+03  0.14707528988E+03  0.12700000000E+01 0.  1.
          4   -1    0    0  501    0  0.00000000000E+00 -0.00000000000E+00 -0.26541886966E+02  0.26572253644E+02  0.12700000000E+01 0.  1.
         25    2    1    2    0    0  0.00000000000E+00  0.00000000000E+00  0.12052791956E+03  0.17364754352E+03  0.12500595976E+03 0.  0.
    9000005    1    3    3    0    0  0.10695885501E+02 -0.18528559240E+02 -0.21303338173E+02  0.30208305008E+02  0.10000000000E+01 0.  0.
    9000005    1    3    3    0    0 -0.10695885501E+02  0.18528559240E+02  0.14183125774E+03  0.14343923851E+03  0.10000000000E+01 0.  0.
<mgrwt>
<rscale>  0 0.12500596E+03</rscale>
<asrwt>0</asrwt>
<pdfrwt beam="2">  1        4 0.40861250E-02 0.12500596E+03</pdfrwt>
<pdfrwt beam="1">  1       -4 0.22628881E-01 0.12500596E+03</pdfrwt>
<totfact> 0.94760453E+03</totfact>
</mgrwt>
</event>
<event>
 5    1  0.3312904E-002  0.1250024E+03  0.7818608E-02  0.1235066E+00
         -4   -1    0    0    0  501 -0.00000000000E+00  0.00000000000E+00  0.38173336687E+01  0.40230506259E+01  0.12700000000E+01 0. -1.
          4   -1    0    0  501    0  0.00000000000E+00 -0.00000000000E+00 -0.99627514257E+03  0.99627595204E+03  0.12700000000E+01 0. -1.
         25    2    1    2    0    0  0.00000000000E+00  0.00000000000E+00 -0.99245780891E+03  0.10002990027E+04  0.12500236908E+03 0.  0.
    9000005    1    3    3    0    0 -0.20839814378E+02  0.57502160952E+02 -0.59889540015E+03  0.60201120978E+03  0.10000000000E+01 0.  0.
    9000005    1    3    3    0    0  0.20839814378E+02 -0.57502160952E+02 -0.39356240875E+03  0.39828779289E+03  0.10000000000E+01 0.  0.
<mgrwt>
<rscale>  0 0.12500237E+03</rscale>
<asrwt>0</asrwt>
<pdfrwt beam="2">  1        4 0.15328878E+00 0.12500237E+03</pdfrwt>
<pdfrwt beam="1">  1       -4 0.60316955E-03 0.12500237E+03</pdfrwt>
<totfact> 0.30593073E+03</totfact>
</mgrwt>
</event>
<event>
 5    1  0.3312904E-002  0.1249987E+03  0.7818608E-02  0.1235071E+00
         -4   -1    0    0    0  501 -0.00000000000E+00  0.00000000000E+00  0.24838480315E+01  0.27896955109E+01  0.12700000000E+01 0.  1.
          4   -1    0    0  501    0  0.00000000000E+00 -0.00000000000E+00 -0.14811140754E+04  0.14811146199E+04  0.12700000000E+01 0.  1.
         25    2    1    2    0    0  0.00000000000E+00  0.00000000000E+00 -0.14786302274E+04  0.14839043154E+04  0.12499867189E+03 0.  0.
    9000005    1    3    3    0    0  0.40893034720E+02 -0.21346164088E+02 -0.23884637154E+03  0.24326217998E+03  0.10000000000E+01 0.  0.
    9000005    1    3    3    0    0 -0.40893034720E+02  0.21346164088E+02 -0.12397838559E+04  0.12406421354E+04  0.10000000000E+01 0.  0.
<mgrwt>
<rscale>  0 0.12499867E+03</rscale>
<asrwt>0</asrwt>
<pdfrwt beam="2">  1        4 0.22788661E+00 0.12499867E+03</pdfrwt>
<pdfrwt beam="1">  1       -4 0.40570026E-03 0.12499867E+03</pdfrwt>
<totfact> 0.18249433E+03</totfact>
</mgrwt>
</event>
<event>
 5    1  0.3312904E-002  0.1249962E+03  0.7818608E-02  0.1235075E+00
         -4   -1    0    0    0  501 -0.00000000000E+00  0.00000000000E+00  0.13209442963E+03  0.13210053459E+03  0.12700000000E+01 0.  1.
          4   -1    0    0  501    0  0.00000000000E+00 -0.00000000000E+00 -0.29549427331E+02  0.29576706301E+02  0.12700000000E+01 0.  1.
         25    2    1    2    0    0  0.00000000000E+00  0.00000000000E+00  0.10254500230E+03  0.16167724089E+03  0.12499621085E+03 0.  0.
    9000005    1    3    3    0    0 -0.52423928166E+02  0.17730303503E+02  0.13731453053E+02  0.57027929206E+02  0.10000000000E+01 0.  0.
    9000005    1    3    3    0    0  0.52423928166E+02 -0.17730303503E+02  0.88813549242E+02  0.10464931168E+03  0.10000000000E+01 0.  0.
<mgrwt>
<rscale>  0 0.12499621E+03</rscale>
<asrwt>0</asrwt>
<pdfrwt beam="2">  1        4 0.45486337E-02 0.12499621E+03</pdfrwt>
<pdfrwt beam="1">  1       -4 0.20324788E-01 0.12499621E+03</pdfrwt>
<totfact> 0.97028659E+03</totfact>
</mgrwt>
</event>
<event>
 5    1  0.3312904E-002  0.1250021E+03  0.7818608E-02  0.1235066E+00
          4   -1    0    0  501    0  0.00000000000E+00  0.00000000000E+00  0.48262761445E+03  0.48262928541E+03  0.12700000000E+01 0. -1.
         -4   -1    0    0    0  501 -0.00000000000E+00 -0.00000000000E+00 -0.80424699808E+01  0.81421264662E+01  0.12700000000E+01 0. -1.
         25    2    1    2    0    0  0.00000000000E+00  0.00000000000E+00  0.47458514447E+03  0.49077141187E+03  0.12500207742E+03 0.  0.
    9000005    1    3    3    0    0  0.84084274004E+01 -0.55371794269E+02  0.34614152314E+03  0.35064467955E+03  0.10000000000E+01 0.  0.
    9000005    1    3    3    0    0 -0.84084274004E+01  0.55371794269E+02  0.12844362133E+03  0.14012673233E+03  0.10000000000E+01 0.  0.
<mgrwt>
<rscale>  0 0.12500208E+03</rscale>
<asrwt>0</asrwt>
<pdfrwt beam="1">  1        4 0.74258224E-01 0.12500208E+03</pdfrwt>
<pdfrwt beam="2">  1       -4 0.12450970E-02 0.12500208E+03</pdfrwt>
<totfact> 0.56584967E+03</totfact>
</mgrwt>
</event>
<event>
 5    1  0.3312904E-002  0.1250024E+03  0.7818608E-02  0.1235065E+00
         -4   -1    0    0    0  501 -0.00000000000E+00  0.00000000000E+00  0.84425994987E+02  0.84435546600E+02  0.12700000000E+01 0.  1.
          4   -1    0    0  501    0  0.00000000000E+00 -0.00000000000E+00 -0.46249259823E+02  0.46266693573E+02  0.12700000000E+01 0.  1.
         25    2    1    2    0    0  0.00000000000E+00  0.00000000000E+00  0.38176735164E+02  0.13070224017E+03  0.12500244989E+03 0.  0.
    9000005    1    3    3    0    0 -0.35825946607E+02  0.49573720540E+02  0.32492865492E+02  0.69266431454E+02  0.10000000000E+01 0.  0.
    9000005    1    3    3    0    0  0.35825946607E+02 -0.49573720540E+02  0.56838696725E+01  0.61435808719E+02  0.10000000000E+01 0.  0.
<mgrwt>
<rscale>  0 0.12500245E+03</rscale>
<asrwt>0</asrwt>
<pdfrwt beam="2">  1        4 0.71173466E-02 0.12500245E+03</pdfrwt>
<pdfrwt beam="1">  1       -4 0.12990690E-01 0.12500245E+03</pdfrwt>
<totfact> 0.10328906E+04</totfact>
</mgrwt>
</event>
<event>
 5    1  0.3312904E-002  0.1250006E+03  0.7818608E-02  0.1235068E+00
          4   -1    0    0  501    0  0.00000000000E+00  0.00000000000E+00  0.18509975402E+02  0.18553492647E+02  0.12700000000E+01 0.  1.
         -4   -1    0    0    0  501 -0.00000000000E+00 -0.00000000000E+00 -0.21074351054E+03  0.21074733720E+03  0.12700000000E+01 0.  1.
         25    2    1    2    0    0  0.00000000000E+00  0.00000000000E+00 -0.19223353514E+03  0.22930082985E+03  0.12500055414E+03 0.  0.
    9000005    1    3    3    0    0  0.23306937187E+02 -0.18923195145E+02  0.44240692517E+01  0.30362361968E+02  0.10000000000E+01 0.  0.
    9000005    1    3    3    0    0 -0.23306937187E+02  0.18923195145E+02 -0.19665760439E+03  0.19893846788E+03  0.10000000000E+01 0.  0.
<mgrwt>
<rscale>  0 0.12500055E+03</rscale>
<asrwt>0</asrwt>
<pdfrwt beam="1">  1        4 0.28513305E-02 0.12500055E+03</pdfrwt>
<pdfrwt beam="2">  1       -4 0.32425719E-01 0.12500055E+03</pdfrwt>
<totfact> 0.85416015E+03</totfact>
</mgrwt>
</event>
<event>
 5    1  0.3312904E-002  0.1249997E+03  0.7818608E-02  0.1235070E+00
          4   -1    0    0  501    0  0.00000000000E+00  0.00000000000E+00  0.89787468512E+02  0.89796449828E+02  0.12700000000E+01 0.  1.
         -4   -1    0    0    0  501 -0.00000000000E+00 -0.00000000000E+00 -0.43484906845E+02  0.43503448407E+02  0.12700000000E+01 0.  1.
         25    2    1    2    0    0  0.00000000000E+00  0.00000000000E+00  0.46302561667E+02  0.13329989824E+03  0.12499974261E+03 0.  0.
    9000005    1    3    3    0    0  0.31079089227E+02 -0.49123819583E+02  0.47612921798E+02  0.75146854623E+02  0.10000000000E+01 0.  0.
    9000005    1    3    3    0    0 -0.31079089227E+02  0.49123819583E+02 -0.13103601311E+01  0.58153043612E+02  0.10000000000E+01 0.  0.
<mgrwt>
<rscale>  0 0.12499974E+03</rscale>
<asrwt>0</asrwt>
<pdfrwt beam="1">  1        4 0.13815574E-01 0.12499974E+03</pdfrwt>
<pdfrwt beam="2">  1       -4 0.66921028E-02 0.12499974E+03</pdfrwt>
<totfact> 0.10274090E+04</totfact>
</mgrwt>
</event>
<event>
 5    1  0.3312904E-002  0.1250014E+03  0.7818608E-02  0.1235067E+00
         -4   -1    0    0    0  501 -0.00000000000E+00  0.00000000000E+00  0.54559499200E+01  0.56018112722E+01  0.12700000000E+01 0.  1.
          4   -1    0    0  501    0  0.00000000000E+00 -0.00000000000E+00 -0.70638659089E+03  0.70638773255E+03  0.12700000000E+01 0.  1.
         25    2    1    2    0    0  0.00000000000E+00  0.00000000000E+00 -0.70093064097E+03  0.71198954382E+03  0.12500138821E+03 0.  0.
    9000005    1    3    3    0    0 -0.38572466606E+02 -0.41064546641E+02 -0.19644492479E+03  0.20436668184E+03  0.10000000000E+01 0.  0.
    9000005    1    3    3    0    0  0.38572466606E+02  0.41064546641E+02 -0.50448571618E+03  0.50762286197E+03  0.10000000000E+01 0.  0.
<mgrwt>
<rscale>  0 0.12500139E+03</rscale>
<asrwt>0</asrwt>
<pdfrwt beam="2">  1        4 0.10868610E+00 0.12500139E+03</pdfrwt>
<pdfrwt beam="1">  1       -4 0.85068539E-03 0.12500139E+03</pdfrwt>
<totfact> 0.42460032E+03</totfact>
</mgrwt>
</event>
<event>
 5    1  0.3312904E-002  0.1249998E+03  0.7818608E-02  0.1235070E+00
          4   -1    0    0  501    0  0.00000000000E+00  0.00000000000E+00  0.74198058992E+02  0.74208927079E+02  0.12700000000E+01 0.  1.
         -4   -1    0    0    0  501 -0.00000000000E+00 -0.00000000000E+00 -0.52623668401E+02  0.52638991023E+02  0.12700000000E+01 0.  1.
         25    2    1    2    0    0  0.00000000000E+00  0.00000000000E+00  0.21574390591E+02  0.12684791810E+03  0.12499975999E+03 0.  0.
    9000005    1    3    3    0    0 -0.40107378597E+02 -0.37432444382E+02 -0.19579231563E+02  0.58259214026E+02  0.10000000000E+01 0.  0.
    9000005    1    3    3    0    0  0.40107378597E+02  0.37432444382E+02  0.41153622154E+02  0.68588704076E+02  0.10000000000E+01 0.  0.
<mgrwt>
<rscale>  0 0.12499976E+03</rscale>
<asrwt>0</asrwt>
<pdfrwt beam="1">  1        4 0.11417101E-01 0.12499976E+03</pdfrwt>
<pdfrwt beam="2">  1       -4 0.80979636E-02 0.12499976E+03</pdfrwt>
<totfact> 0.10412508E+04</totfact>
</mgrwt>
</event>
<event>
 5    1  0.3312904E-002  0.1250067E+03  0.7818608E-02  0.1235059E+00
          4   -1    0    0  501    0  0.00000000000E+00  0.00000000000E+00  0.13616784243E+04  0.13616790166E+04  0.12700000000E+01 0.  1.
         -4   -1    0    0    0  501 -0.00000000000E+00 -0.00000000000E+00 -0.27278431184E+01  0.30089912061E+01  0.12700000000E+01 0.  1.
         25    2    1    2    0    0  0.00000000000E+00  0.00000000000E+00  0.13589505812E+04  0.13646880078E+04  0.12500670546E+03 0.  0.
    9000005    1    3    3    0    0 -0.18348761824E+02  0.62980959865E+01  0.13280290113E+04  0.13281710725E+04  0.10000000000E+01 0.  0.
    9000005    1    3    3    0    0  0.18348761824E+02 -0.62980959865E+01  0.30921569884E+02  0.36516935217E+02  0.10000000000E+01 0.  0.
<mgrwt>
<rscale>  0 0.12500671E+03</rscale>
<asrwt>0</asrwt>
<pdfrwt beam="1">  1        4 0.20951061E+00 0.12500671E+03</pdfrwt>
<pdfrwt beam="2">  1       -4 0.44134062E-03 0.12500671E+03</pdfrwt>
<totfact> 0.20748153E+03</totfact>
</mgrwt>
</event>
<event>
 5    1  0.3312904E-002  0.1249996E+03  0.7818608E-02  0.1235070E+00
         -4   -1    0    0    0  501 -0.00000000000E+00  0.00000000000E+00  0.14246364018E+03  0.14246930081E+03  0.12700000000E+01 0.  1.
          4   -1    0    0  501    0  0.00000000000E+00 -0.00000000000E+00 -0.27398199620E+02  0.27427618241E+02  0.12700000000E+01 0.  1.
         25    2    1    2    0    0  0.00000000000E+00  0.00000000000E+00  0.11506544056E+03  0.16989691905E+03  0.12499962997E+03 0.  0.
    9000005    1    3    3    0    0  0.51088012868E+02  0.10491375798E+02  0.10432429085E+03  0.11663880867E+03  0.10000000000E+01 0.  0.
    9000005    1    3    3    0    0 -0.51088012868E+02 -0.10491375798E+02  0.10741149709E+02  0.53258110387E+02  0.10000000000E+01 0.  0.
<mgrwt>
<rscale>  0 0.12499963E+03</rscale>
<asrwt>0</asrwt>
<pdfrwt beam="2">  1        4 0.42178061E-02 0.12499963E+03</pdfrwt>
<pdfrwt beam="1">  1       -4 0.21920181E-01 0.12499963E+03</pdfrwt>
<totfact> 0.95468646E+03</totfact>
</mgrwt>
</event>
<event>
 5    1  0.3312904E-002  0.1250003E+03  0.7818608E-02  0.1235069E+00
          4   -1    0    0  501    0  0.00000000000E+00  0.00000000000E+00  0.16613415690E+03  0.16613901104E+03  0.12700000000E+01 0.  1.
         -4   -1    0    0    0  501 -0.00000000000E+00 -0.00000000000E+00 -0.23490375923E+02  0.23524681954E+02  0.12700000000E+01 0.  1.
         25    2    1    2    0    0  0.00000000000E+00  0.00000000000E+00  0.14264378097E+03  0.18966369299E+03  0.12500027275E+03 0.  0.
    9000005    1    3    3    0    0 -0.12544193930E+02 -0.40587822617E+02  0.17812628072E+01  0.42531177309E+02  0.10000000000E+01 0.  0.
    9000005    1    3    3    0    0  0.12544193930E+02  0.40587822617E+02  0.14086251817E+03  0.14713251568E+03  0.10000000000E+01 0.  0.
<mgrwt>
<rscale>  0 0.12500027E+03</rscale>
<asrwt>0</asrwt>
<pdfrwt beam="1">  1        4 0.25562112E-01 0.12500027E+03</pdfrwt>
<pdfrwt beam="2">  1       -4 0.36169165E-02 0.12500027E+03</pdfrwt>
<totfact> 0.91905303E+03</totfact>
</mgrwt>
</event>
<event>
 5    1  0.3312904E-002  0.1250014E+03  0.7818608E-02  0.1235067E+00
         -4   -1    0    0    0  501 -0.00000000000E+00  0.00000000000E+00  0.32517799561E+01  0.34909845148E+01  0.12700000000E+01 0.  1.
          4   -1    0    0  501    0  0.00000000000E+00 -0.00000000000E+00 -0.11584365520E+04  0.11584372482E+04  0.12700000000E+01 0.  1.
         25    2    1    2    0    0  0.00000000000E+00  0.00000000000E+00 -0.11551847721E+04  0.11619282327E+04  0.12500144123E+03 0.  0.
    9000005    1    3    3    0    0  0.56090760276E+02  0.23227337803E+02 -0.71535687020E+03  0.71792905941E+03  0.10000000000E+01 0.  0.
    9000005    1    3    3    0    0 -0.56090760276E+02 -0.23227337803E+02 -0.43982790188E+03  0.44399917329E+03  0.10000000000E+01 0.  0.
<mgrwt>
<rscale>  0 0.12500144E+03</rscale>
<asrwt>0</asrwt>
<pdfrwt beam="2">  1        4 0.17823914E+00 0.12500144E+03</pdfrwt>
<pdfrwt beam="1">  1       -4 0.51872866E-03 0.12500144E+03</pdfrwt>
<totfact> 0.25730825E+03</totfact>
</mgrwt>
</event>
<event>
 5    1  0.3312904E-002  0.1250004E+03  0.7818608E-02  0.1235069E+00
         -4   -1    0    0    0  501 -0.00000000000E+00  0.00000000000E+00  0.12529070465E+01  0.17840056242E+01  0.12700000000E+01 0. -1.
          4   -1    0    0  501    0  0.00000000000E+00 -0.00000000000E+00 -0.25720001818E+04  0.25720004954E+04  0.12700000000E+01 0. -1.
         25    2    1    2    0    0  0.00000000000E+00  0.00000000000E+00 -0.25707472748E+04  0.25737845010E+04  0.12500042721E+03 0.  0.
    9000005    1    3    3    0    0  0.36883192833E+02  0.97069510679E+01 -0.23046786373E+04  0.23049944070E+04  0.10000000000E+01 0.  0.
    9000005    1    3    3    0    0 -0.36883192833E+02 -0.97069510679E+01 -0.26606863743E+03  0.26879009401E+03  0.10000000000E+01 0.  0.
<mgrwt>
<rscale>  0 0.12500043E+03</rscale>
<asrwt>0</asrwt>
<pdfrwt beam="2">  1        4 0.39572973E+00 0.12500043E+03</pdfrwt>
<pdfrwt beam="1">  1       -4 0.23363484E-03 0.12500043E+03</pdfrwt>
<totfact> 0.41153729E+02</totfact>
</mgrwt>
</event>
<event>
 5    1  0.3312904E-002  0.1249992E+03  0.7818608E-02  0.1235071E+00
          4   -1    0    0  501    0  0.00000000000E+00  0.00000000000E+00  0.19030221188E+03  0.19030644956E+03  0.12700000000E+01 0.  1.
         -4   -1    0    0    0  501 -0.00000000000E+00 -0.00000000000E+00 -0.20502170874E+02  0.20541468072E+02  0.12700000000E+01 0.  1.
         25    2    1    2    0    0  0.00000000000E+00  0.00000000000E+00  0.16980004100E+03  0.21084791764E+03  0.12499916178E+03 0.  0.
    9000005    1    3    3    0    0  0.39874599302E+02  0.22504993972E+02  0.13161867731E+02  0.47651790998E+02  0.10000000000E+01 0.  0.
    9000005    1    3    3    0    0 -0.39874599302E+02 -0.22504993972E+02  0.15663817327E+03  0.16319612664E+03  0.10000000000E+01 0.  0.
<mgrwt>
<rscale>  0 0.12499916E+03</rscale>
<asrwt>0</asrwt>
<pdfrwt beam="1">  1        4 0.29280612E-01 0.12499916E+03</pdfrwt>
<pdfrwt beam="2">  1       -4 0.31575290E-02 0.12499916E+03</pdfrwt>
<totfact> 0.88339246E+03</totfact>
</mgrwt>
</event>
<event>
 5    1  0.3312904E-002  0.1249971E+03  0.7818608E-02  0.1235074E+00
         -4   -1    0    0    0  501 -0.00000000000E+00  0.00000000000E+00  0.14074112396E+02  0.14131296463E+02  0.12700000000E+01 0. -1.
          4   -1    0    0  501    0  0.00000000000E+00 -0.00000000000E+00 -0.27691418591E+03  0.27691709816E+03  0.12700000000E+01 0. -1.
         25    2    1    2    0    0  0.00000000000E+00  0.00000000000E+00 -0.26284007351E+03  0.29104839463E+03  0.12499705506E+03 0.  0.
    9000005    1    3    3    0    0  0.31401628002E+02  0.12208858582E+02 -0.88734572293E+01  0.34854794681E+02  0.10000000000E+01 0.  0.
    9000005    1    3    3    0    0 -0.31401628002E+02 -0.12208858582E+02 -0.25396661628E+03  0.25619359995E+03  0.10000000000E+01 0.  0.
<mgrwt>
<rscale>  0 0.12499706E+03</rscale>
<asrwt>0</asrwt>
<pdfrwt beam="2">  1        4 0.42606801E-01 0.12499706E+03</pdfrwt>
<pdfrwt beam="1">  1       -4 0.21698710E-02 0.12499706E+03</pdfrwt>
<totfact> 0.76740630E+03</totfact>
</mgrwt>
</event>
<event>
 5    1  0.3312904E-002  0.1249992E+03  0.7818608E-02  0.1235071E+00
         -4   -1    0    0    0  501 -0.00000000000E+00  0.00000000000E+00  0.24483614141E+03  0.24483943522E+03  0.12700000000E+01 0.  1.
          4   -1    0    0  501    0  0.00000000000E+00 -0.00000000000E+00 -0.15925660519E+02  0.15976218669E+02  0.12700000000E+01 0.  1.
         25    2    1    2    0    0  0.00000000000E+00  0.00000000000E+00  0.22891048089E+03  0.26081565389E+03  0.12499918821E+03 0.  0.
    9000005    1    3    3    0    0 -0.76182790475E+01 -0.43486258471E+02  0.20673845189E+03  0.21140217677E+03  0.10000000000E+01 0.  0.
    9000005    1    3    3    0    0  0.76182790475E+01  0.43486258471E+02  0.22172028995E+02  0.49413477121E+02  0.10000000000E+01 0.  0.
<mgrwt>
<rscale>  0 0.12499919E+03</rscale>
<asrwt>0</asrwt>
<pdfrwt beam="2">  1        4 0.24542441E-02 0.12499919E+03</pdfrwt>
<pdfrwt beam="1">  1       -4 0.37671241E-01 0.12499919E+03</pdfrwt>
<totfact> 0.80793190E+03</totfact>
</mgrwt>
</event>
<event>
 5    1  0.3312904E-002  0.1249979E+03  0.7818608E-02  0.1235072E+00
         -4   -1    0    0    0  501 -0.00000000000E+00  0.00000000000E+00  0.43556120664E+02  0.43574631924E+02  0.12700000000E+01 0.  1.
          4   -1    0    0  501    0  0.00000000000E+00 -0.00000000000E+00 -0.89638131608E+02  0.89647127886E+02  0.12700000000E+01 0.  1.
         25    2    1    2    0    0  0.00000000000E+00  0.00000000000E+00 -0.46082010944E+02  0.13322175981E+03  0.12499794220E+03 0.  0.
    9000005    1    3    3    0    0  0.19651760534E+02 -0.55046145319E+02  0.52363484960E+00  0.58459763941E+02  0.10000000000E+01 0.  0.
    9000005    1    3    3    0    0 -0.19651760534E+02  0.55046145319E+02 -0.46605645794E+02  0.74761995869E+02  0.10000000000E+01 0.  0.
<mgrwt>
<rscale>  0 0.12499794E+03</rscale>
<asrwt>0</asrwt>
<pdfrwt beam="2">  1        4 0.13792598E-01 0.12499794E+03</pdfrwt>
<pdfrwt beam="1">  1       -4 0.67030576E-02 0.12499794E+03</pdfrwt>
<totfact> 0.10276166E+04</totfact>
</mgrwt>
</event>
<event>
 5    1  0.3312904E-002  0.1250013E+03  0.7818608E-02  0.1235067E+00
         -4   -1    0    0    0  501 -0.00000000000E+00  0.00000000000E+00  0.32782336449E+02  0.32806927364E+02  0.12700000000E+01 0.  1.
          4   -1    0    0  501    0  0.00000000000E+00 -0.00000000000E+00 -0.11908704412E+03  0.11909381587E+03  0.12700000000E+01 0.  1.
         25    2    1    2    0    0  0.00000000000E+00  0.00000000000E+00 -0.86304707676E+02  0.15190074323E+03  0.12500133290E+03 0.  0.
    9000005    1    3    3    0    0 -0.19839207487E+02  0.48068296451E+02 -0.10361765794E+01  0.52021427694E+02  0.10000000000E+01 0.  0.
    9000005    1    3    3    0    0  0.19839207487E+02 -0.48068296451E+02 -0.85268531096E+02  0.99879315540E+02  0.10000000000E+01 0.  0.
<mgrwt>
<rscale>  0 0.12500133E+03</rscale>
<asrwt>0</asrwt>
<pdfrwt beam="2">  1        4 0.18323496E-01 0.12500133E+03</pdfrwt>
<pdfrwt beam="1">  1       -4 0.50458489E-02 0.12500133E+03</pdfrwt>
<totfact> 0.98923188E+03</totfact>
</mgrwt>
</event>
<event>
 5    1  0.3312904E-002  0.1250002E+03  0.7818608E-02  0.1235069E+00
          4   -1    0    0  501    0  0.00000000000E+00  0.00000000000E+00  0.12759361299E+03  0.12759993329E+03  0.12700000000E+01 0. -1.
         -4   -1    0    0    0  501 -0.00000000000E+00 -0.00000000000E+00 -0.30594625383E+02  0.30620973243E+02  0.12700000000E+01 0. -1.
         25    2    1    2    0    0  0.00000000000E+00  0.00000000000E+00  0.96998987606E+02  0.15822090653E+03  0.12500020667E+03 0.  0.
    9000005    1    3    3    0    0 -0.91139124180E+01  0.14254347338E+02  0.12464569026E+03  0.12579267832E+03  0.10000000000E+01 0.  0.
    9000005    1    3    3    0    0  0.91139124180E+01 -0.14254347338E+02 -0.27646702654E+02  0.32428228217E+02  0.10000000000E+01 0.  0.
<mgrwt>
<rscale>  0 0.12500021E+03</rscale>
<asrwt>0</asrwt>
<pdfrwt beam="1">  1        4 0.19632299E-01 0.12500021E+03</pdfrwt>
<pdfrwt beam="2">  1       -4 0.47093784E-02 0.12500021E+03</pdfrwt>
<totfact> 0.97686426E+03</totfact>
</mgrwt>
</event>
<event>
 5    1  0.3312904E-002  0.1250110E+03  0.7818608E-02  0.1235052E+00
          4   -1    0    0  501    0  0.00000000000E+00  0.00000000000E+00  0.86917791259E+03  0.86917884042E+03  0.12700000000E+01 0.  1.
         -4   -1    0    0    0  501 -0.00000000000E+00 -0.00000000000E+00 -0.44043241325E+01  0.45837725799E+01  0.12700000000E+01 0.  1.
         25    2    1    2    0    0  0.00000000000E+00  0.00000000000E+00  0.86477358845E+03  0.87376261300E+03  0.12501097785E+03 0.  0.
    9000005    1    3    3    0    0 -0.22652788121E+02  0.22279684463E+02  0.56224899170E+02  0.64589259449E+02  0.10000000000E+01 0.  0.
    9000005    1    3    3    0    0  0.22652788121E+02 -0.22279684463E+02  0.80854868928E+03  0.80917335355E+03  0.10000000000E+01 0.  0.
<mgrwt>
<rscale>  0 0.12501098E+03</rscale>
<asrwt>0</asrwt>
<pdfrwt beam="1">  1        4 0.13373347E+00 0.12501098E+03</pdfrwt>
<pdfrwt beam="2">  1       -4 0.69146386E-03 0.12501098E+03</pdfrwt>
<totfact> 0.35165768E+03</totfact>
</mgrwt>
</event>
<event>
 5    1  0.3312904E-002  0.1250029E+03  0.7818608E-02  0.1235065E+00
          4   -1    0    0  501    0  0.00000000000E+00  0.00000000000E+00  0.33085279153E+03  0.33085522901E+03  0.12700000000E+01 0.  1.
         -4   -1    0    0    0  501 -0.00000000000E+00 -0.00000000000E+00 -0.11770528325E+02  0.11838844413E+02  0.12700000000E+01 0.  1.
         25    2    1    2    0    0  0.00000000000E+00  0.00000000000E+00  0.31908226321E+03  0.34269407343E+03  0.12500294903E+03 0.  0.
    9000005    1    3    3    0    0 -0.50531977015E+01  0.48297257370E+02  0.51703582051E+02  0.70939553659E+02  0.10000000000E+01 0.  0.
    9000005    1    3    3    0    0  0.50531977015E+01 -0.48297257370E+02  0.26737868116E+03  0.27175451977E+03  0.10000000000E+01 0.  0.
<mgrwt>
<rscale>  0 0.12500295E+03</rscale>
<asrwt>0</asrwt>
<pdfrwt beam="1">  1        4 0.50905871E-01 0.12500295E+03</pdfrwt>
<pdfrwt beam="2">  1       -4 0.18162931E-02 0.12500295E+03</pdfrwt>
<totfact> 0.70531240E+03</totfact>
</mgrwt>
</event>
<event>
 5    1  0.3312904E-002  0.1250013E+03  0.7818608E-02  0.1235067E+00
          4   -1    0    0  501    0  0.00000000000E+00  0.00000000000E+00  0.30115309248E+02  0.30142076092E+02  0.12700000000E+01 0. -1.
         -4   -1    0    0    0  501 -0.00000000000E+00 -0.00000000000E+00 -0.12962501059E+03  0.12963123185E+03  0.12700000000E+01 0. -1.
         25    2    1    2    0    0  0.00000000000E+00  0.00000000000E+00 -0.99509701340E+02  0.15977330794E+03  0.12500131707E+03 0.  0.
    9000005    1    3    3    0    0 -0.59419987426E+02  0.16091022735E+02 -0.63501979985E+02  0.88448614349E+02  0.10000000000E+01 0.  0.
    9000005    1    3    3    0    0  0.59419987426E+02 -0.16091022735E+02 -0.36007721355E+02  0.71324693589E+02  0.10000000000E+01 0.  0.
<mgrwt>
<rscale>  0 0.12500132E+03</rscale>
<asrwt>0</asrwt>
<pdfrwt beam="1">  1        4 0.46356621E-02 0.12500132E+03</pdfrwt>
<pdfrwt beam="2">  1       -4 0.19944847E-01 0.12500132E+03</pdfrwt>
<totfact> 0.97383624E+03</totfact>
</mgrwt>
</event>
<event>
 5    1  0.3312904E-002  0.1249965E+03  0.7818608E-02  0.1235075E+00
          4   -1    0    0  501    0  0.00000000000E+00  0.00000000000E+00  0.37796386530E+02  0.37817717206E+02  0.12700000000E+01 0. -1.
         -4   -1    0    0    0  501 -0.00000000000E+00 -0.00000000000E+00 -0.10328966533E+03  0.10329747269E+03  0.12700000000E+01 0. -1.
         25    2    1    2    0    0  0.00000000000E+00  0.00000000000E+00 -0.65493278804E+02  0.14111518990E+03  0.12499650896E+03 0.  0.
    9000005    1    3    3    0    0 -0.52453201724E+02  0.33949928070E+02 -0.33928446695E+02  0.71106086112E+02  0.10000000000E+01 0.  0.
    9000005    1    3    3    0    0  0.52453201724E+02 -0.33949928070E+02 -0.31564832110E+02  0.70009103788E+02  0.10000000000E+01 0.  0.
<mgrwt>
<rscale>  0 0.12499651E+03</rscale>
<asrwt>0</asrwt>
<pdfrwt beam="1">  1        4 0.58170701E-02 0.12499651E+03</pdfrwt>
<pdfrwt beam="2">  1       -4 0.15892959E-01 0.12499651E+03</pdfrwt>
<totfact> 0.10111320E+04</totfact>
</mgrwt>
</event>
<event>
 5    1  0.3312904E-002  0.1249985E+03  0.7818608E-02  0.1235072E+00
          4   -1    0    0  501    0  0.00000000000E+00  0.00000000000E+00  0.17251779665E+03  0.17252247117E+03  0.12700000000E+01 0.  1.
         -4   -1    0    0    0  501 -0.00000000000E+00 -0.00000000000E+00 -0.22619269602E+02  0.22654894777E+02  0.12700000000E+01 0.  1.
         25    2    1    2    0    0  0.00000000000E+00  0.00000000000E+00  0.14989852705E+03  0.19517736595E+03  0.12499854307E+03 0.  0.
    9000005    1    3    3    0    0 -0.46635082266E+02  0.20614008061E+02  0.18534241584E+02  0.54261278434E+02  0.10000000000E+01 0.  0.
    9000005    1    3    3    0    0  0.46635082266E+02 -0.20614008061E+02  0.13136428546E+03  0.14091608752E+03  0.10000000000E+01 0.  0.
<mgrwt>
<rscale>  0 0.12499854E+03</rscale>
<asrwt>0</asrwt>
<pdfrwt beam="1">  1        4 0.26544300E-01 0.12499854E+03</pdfrwt>
<pdfrwt beam="2">  1       -4 0.34829876E-02 0.12499854E+03</pdfrwt>
<totfact> 0.90957158E+03</totfact>
</mgrwt>
</event>
<event>
 5    1  0.3312904E-002  0.1249939E+03  0.7818608E-02  0.1235079E+00
         -4   -1    0    0    0  501 -0.00000000000E+00  0.00000000000E+00  0.97854334170E+02  0.97862575155E+02  0.12700000000E+01 0.  1.
          4   -1    0    0  501    0  0.00000000000E+00 -0.00000000000E+00 -0.39895098831E+02  0.39915307975E+02  0.12700000000E+01 0.  1.
         25    2    1    2    0    0  0.00000000000E+00  0.00000000000E+00  0.57959235339E+02  0.13777788313E+03  0.12499388832E+03 0.  0.
    9000005    1    3    3    0    0  0.28999683463E+02  0.38569645775E+02  0.72742495269E+02  0.87298739018E+02  0.10000000000E+01 0.  0.
    9000005    1    3    3    0    0 -0.28999683463E+02 -0.38569645775E+02 -0.14783259930E+02  0.50479144112E+02  0.10000000000E+01 0.  0.
<mgrwt>
<rscale>  0 0.12499389E+03</rscale>
<asrwt>0</asrwt>
<pdfrwt beam="2">  1        4 0.61398960E-02 0.12499389E+03</pdfrwt>
<pdfrwt beam="1">  1       -4 0.15056701E-01 0.12499389E+03</pdfrwt>
<totfact> 0.10181249E+04</totfact>
</mgrwt>
</event>
<event>
 5    1  0.3312904E-002  0.1249985E+03  0.7818608E-02  0.1235072E+00
          4   -1    0    0  501    0  0.00000000000E+00  0.00000000000E+00  0.29427209938E+03  0.29427483986E+03  0.12700000000E+01 0.  1.
         -4   -1    0    0    0  501 -0.00000000000E+00 -0.00000000000E+00 -0.13240775749E+02  0.13301542859E+02  0.12700000000E+01 0.  1.
         25    2    1    2    0    0  0.00000000000E+00  0.00000000000E+00  0.28103132363E+03  0.30757638272E+03  0.12499850537E+03 0.  0.
    9000005    1    3    3    0    0 -0.51004745723E+01  0.94104140824E+01 -0.10980396600E+02  0.15366842342E+02  0.10000000000E+01 0.  0.
    9000005    1    3    3    0    0  0.51004745723E+01 -0.94104140824E+01  0.29201172023E+03  0.29220954038E+03  0.10000000000E+01 0.  0.
<mgrwt>
<rscale>  0 0.12499851E+03</rscale>
<asrwt>0</asrwt>
<pdfrwt beam="1">  1        4 0.45277514E-01 0.12499851E+03</pdfrwt>
<pdfrwt beam="2">  1       -4 0.20419277E-02 0.12499851E+03</pdfrwt>
<totfact> 0.74660670E+03</totfact>
</mgrwt>
</event>
<event>
 5    1  0.3312904E-002  0.1249989E+03  0.7818608E-02  0.1235071E+00
          4   -1    0    0  501    0  0.00000000000E+00  0.00000000000E+00  0.12294355473E+03  0.12295011407E+03  0.12700000000E+01 0.  1.
         -4   -1    0    0    0  501 -0.00000000000E+00 -0.00000000000E+00 -0.31752040866E+02  0.31777429083E+02  0.12700000000E+01 0.  1.
         25    2    1    2    0    0  0.00000000000E+00  0.00000000000E+00  0.91191513869E+02  0.15472754316E+03  0.12499888163E+03 0.  0.
    9000005    1    3    3    0    0  0.42848151374E+02  0.35959812425E+02  0.80080147799E+02  0.97687779468E+02  0.10000000000E+01 0.  0.
    9000005    1    3    3    0    0 -0.42848151374E+02 -0.35959812425E+02  0.11111366070E+02  0.57039763689E+02  0.10000000000E+01 0.  0.
<mgrwt>
<rscale>  0 0.12499888E+03</rscale>
<asrwt>0</asrwt>
<pdfrwt beam="1">  1        4 0.18916851E-01 0.12499888E+03</pdfrwt>
<pdfrwt beam="2">  1       -4 0.48873868E-02 0.12499888E+03</pdfrwt>
<totfact> 0.98371486E+03</totfact>
</mgrwt>
</event>
<event>
 5    1  0.3312904E-002  0.1249967E+03  0.7818608E-02  0.1235074E+00
         -4   -1    0    0    0  501 -0.00000000000E+00  0.00000000000E+00  0.47031545324E+02  0.47048689202E+02  0.12700000000E+01 0. -1.
          4   -1    0    0  501    0  0.00000000000E+00 -0.00000000000E+00 -0.83014497190E+02  0.83024211189E+02  0.12700000000E+01 0. -1.
         25    2    1    2    0    0  0.00000000000E+00  0.00000000000E+00 -0.35982951865E+02  0.13007290039E+03  0.12499674632E+03 0.  0.
    9000005    1    3    3    0    0  0.31557501708E+02  0.28858267761E+02 -0.65409189105E+02  0.78153934971E+02  0.10000000000E+01 0.  0.
    9000005    1    3    3    0    0 -0.31557501708E+02 -0.28858267761E+02  0.29426237239E+02  0.51918965420E+02  0.10000000000E+01 0.  0.
<mgrwt>
<rscale>  0 0.12499675E+03</rscale>
<asrwt>0</asrwt>
<pdfrwt beam="2">  1        4 0.12773527E-01 0.12499675E+03</pdfrwt>
<pdfrwt beam="1">  1       -4 0.72376883E-02 0.12499675E+03</pdfrwt>
<totfact> 0.10343708E+04</totfact>
</mgrwt>
</event>
<event>
 5    1  0.3312904E-002  0.1250036E+03  0.7818608E-02  0.1235064E+00
          4   -1    0    0  501    0  0.00000000000E+00  0.00000000000E+00  0.92413083263E+02  0.92421809429E+02  0.12700000000E+01 0. -1.
         -4   -1    0    0    0  501 -0.00000000000E+00 -0.00000000000E+00 -0.42251622698E+02  0.42270705230E+02  0.12700000000E+01 0. -1.
         25    2    1    2    0    0  0.00000000000E+00  0.00000000000E+00  0.50161460565E+02  0.13469251466E+03  0.12500360546E+03 0.  0.
    9000005    1    3    3    0    0  0.36610732427E+02 -0.10559813290E+02  0.78454093455E+02  0.87223277658E+02  0.10000000000E+01 0.  0.
    9000005    1    3    3    0    0 -0.36610732427E+02  0.10559813290E+02 -0.28292632891E+02  0.47469237001E+02  0.10000000000E+01 0.  0.
<mgrwt>
<rscale>  0 0.12500361E+03</rscale>
<asrwt>0</asrwt>
<pdfrwt beam="1">  1        4 0.14219536E-01 0.12500361E+03</pdfrwt>
<pdfrwt beam="2">  1       -4 0.65023888E-02 0.12500361E+03</pdfrwt>
<totfact> 0.10243723E+04</totfact>
</mgrwt>
</event>
<event>
 5    1  0.3312904E-002  0.1249972E+03  0.7818608E-02  0.1235074E+00
          4   -1    0    0  501    0  0.00000000000E+00  0.00000000000E+00  0.92556628646E+02  0.92565341280E+02  0.12700000000E+01 0.  1.
         -4   -1    0    0    0  501 -0.00000000000E+00 -0.00000000000E+00 -0.42181766750E+02  0.42200880870E+02  0.12700000000E+01 0.  1.
         25    2    1    2    0    0  0.00000000000E+00  0.00000000000E+00  0.50374861895E+02  0.13476622215E+03  0.12499723166E+03 0.  0.
    9000005    1    3    3    0    0 -0.40297125827E+02 -0.14103494129E+02 -0.24011238829E+02  0.48992922822E+02  0.10000000000E+01 0.  0.
    9000005    1    3    3    0    0  0.40297125827E+02  0.14103494129E+02  0.74386100725E+02  0.85773299328E+02  0.10000000000E+01 0.  0.
<mgrwt>
<rscale>  0 0.12499723E+03</rscale>
<asrwt>0</asrwt>
<pdfrwt beam="1">  1        4 0.14241622E-01 0.12499723E+03</pdfrwt>
<pdfrwt beam="2">  1       -4 0.64916433E-02 0.12499723E+03</pdfrwt>
<totfact> 0.10243640E+04</totfact>
</mgrwt>
</event>
<event>
 5    1  0.3312904E-002  0.1249973E+03  0.7818608E-02  0.1235073E+00
         -4   -1    0    0    0  501 -0.00000000000E+00  0.00000000000E+00  0.26838176807E+03  0.26838477292E+03  0.12700000000E+01 0. -1.
          4   -1    0    0  501    0  0.00000000000E+00 -0.00000000000E+00 -0.14523400738E+02  0.14578822620E+02  0.12700000000E+01 0. -1.
         25    2    1    2    0    0  0.00000000000E+00  0.00000000000E+00  0.25385836734E+03  0.28296359554E+03  0.12499730290E+03 0.  0.
    9000005    1    3    3    0    0  0.51586924563E+01 -0.32945548309E+02  0.72909289112E+01  0.34149361716E+02  0.10000000000E+01 0.  0.
    9000005    1    3    3    0    0 -0.51586924563E+01  0.32945548309E+02  0.24656743842E+03  0.24881423382E+03  0.10000000000E+01 0.  0.
<mgrwt>
<rscale>  0 0.12499730E+03</rscale>
<asrwt>0</asrwt>
<pdfrwt beam="2">  1        4 0.22388636E-02 0.12499730E+03</pdfrwt>
<pdfrwt beam="1">  1       -4 0.41293998E-01 0.12499730E+03</pdfrwt>
<totfact> 0.77791448E+03</totfact>
</mgrwt>
</event>
<event>
 5    1  0.3312904E-002  0.1250091E+03  0.7818608E-02  0.1235055E+00
          4   -1    0    0  501    0  0.00000000000E+00  0.00000000000E+00  0.71881509312E+02  0.71892727595E+02  0.12700000000E+01 0. -1.
         -4   -1    0    0    0  501 -0.00000000000E+00 -0.00000000000E+00 -0.54327897451E+02  0.54342739547E+02  0.12700000000E+01 0. -1.
         25    2    1    2    0    0  0.00000000000E+00  0.00000000000E+00  0.17553611861E+02  0.12623546714E+03  0.12500905517E+03 0.  0.
    9000005    1    3    3    0    0 -0.21208018372E+02 -0.15412403631E+02  0.66065147897E+02  0.71083936270E+02  0.10000000000E+01 0.  0.
    9000005    1    3    3    0    0  0.21208018372E+02  0.15412403631E+02 -0.48511536036E+02  0.55151530872E+02  0.10000000000E+01 0.  0.
<mgrwt>
<rscale>  0 0.12500906E+03</rscale>
<asrwt>0</asrwt>
<pdfrwt beam="1">  1        4 0.11060698E-01 0.12500906E+03</pdfrwt>
<pdfrwt beam="2">  1       -4 0.83601427E-02 0.12500906E+03</pdfrwt>
<totfact> 0.10423673E+04</totfact>
</mgrwt>
</event>
<event>
 5    1  0.3312904E-002  0.1249911E+03  0.7818608E-02  0.1235083E+00
          4   -1    0    0  501    0  0.00000000000E+00  0.00000000000E+00  0.26666917741E+02  0.26697142203E+02  0.12700000000E+01 0. -1.
         -4   -1    0    0    0  501 -0.00000000000E+00 -0.00000000000E+00 -0.14634630176E+03  0.14635181221E+03  0.12700000000E+01 0. -1.
         25    2    1    2    0    0  0.00000000000E+00  0.00000000000E+00 -0.11967938401E+03  0.17304895441E+03  0.12499114235E+03 0.  0.
    9000005    1    3    3    0    0 -0.11125889220E+02 -0.49730899439E+02 -0.97726559782E+01  0.51898483357E+02  0.10000000000E+01 0.  0.
    9000005    1    3    3    0    0  0.11125889220E+02  0.49730899439E+02 -0.10990672804E+03  0.12115047106E+03  0.10000000000E+01 0.  0.
<mgrwt>
<rscale>  0 0.12499114E+03</rscale>
<asrwt>0</asrwt>
<pdfrwt beam="1">  1        4 0.41053517E-02 0.12499114E+03</pdfrwt>
<pdfrwt beam="2">  1       -4 0.22517564E-01 0.12499114E+03</pdfrwt>
<totfact> 0.94902250E+03</totfact>
</mgrwt>
</event>
<event>
 5    1  0.3312904E-002  0.1249830E+03  0.7818608E-02  0.1235096E+00
         -4   -1    0    0    0  501 -0.00000000000E+00  0.00000000000E+00  0.31640534789E+02  0.31666012407E+02  0.12700000000E+01 0.  1.
          4   -1    0    0  501    0  0.00000000000E+00 -0.00000000000E+00 -0.12334511471E+03  0.12335165270E+03  0.12700000000E+01 0.  1.
         25    2    1    2    0    0  0.00000000000E+00  0.00000000000E+00 -0.91704579922E+02  0.15501766510E+03  0.12498298491E+03 0.  0.
    9000005    1    3    3    0    0 -0.42793582549E+02 -0.21771315731E+02 -0.95447727789E+02  0.10684825519E+03  0.10000000000E+01 0.  0.
    9000005    1    3    3    0    0  0.42793582549E+02  0.21771315731E+02  0.37431478671E+01  0.48169409919E+02  0.10000000000E+01 0.  0.
<mgrwt>
<rscale>  0 0.12498298E+03</rscale>
<asrwt>0</asrwt>
<pdfrwt beam="2">  1        4 0.18978634E-01 0.12498298E+03</pdfrwt>
<pdfrwt beam="1">  1       -4 0.48702374E-02 0.12498298E+03</pdfrwt>
<totfact> 0.98349661E+03</totfact>
</mgrwt>
</event>
<event>
 5    1  0.3312904E-002  0.1249990E+03  0.7818608E-02  0.1235071E+00
          4   -1    0    0  501    0  0.00000000000E+00  0.00000000000E+00  0.21112666248E+03  0.21113048219E+03  0.12700000000E+01 0.  1.
         -4   -1    0    0    0  501 -0.00000000000E+00 -0.00000000000E+00 -0.18475830592E+02  0.18519428070E+02  0.12700000000E+01 0.  1.
         25    2    1    2    0    0  0.00000000000E+00  0.00000000000E+00  0.19265083189E+03  0.22964991026E+03  0.12499895302E+03 0.  0.
    9000005    1    3    3    0    0  0.17595421365E+02  0.41365536948E+02  0.17607996207E+03  0.18173018336E+03  0.10000000000E+01 0.  0.
    9000005    1    3    3    0    0 -0.17595421365E+02 -0.41365536948E+02  0.16570869818E+02  0.47919726904E+02  0.10000000000E+01 0.  0.
<mgrwt>
<rscale>  0 0.12499895E+03</rscale>
<asrwt>0</asrwt>
<pdfrwt beam="1">  1        4 0.32484670E-01 0.12499895E+03</pdfrwt>
<pdfrwt beam="2">  1       -4 0.28460831E-02 0.12499895E+03</pdfrwt>
<totfact> 0.85365378E+03</totfact>
</mgrwt>
</event>
<event>
 5    1  0.3312904E-002  0.1249555E+03  0.7818608E-02  0.1235139E+00
          4   -1    0    0  501    0  0.00000000000E+00  0.00000000000E+00  0.47115030527E+03  0.47115201693E+03  0.12700000000E+01 0.  1.
         -4   -1    0    0    0  501 -0.00000000000E+00 -0.00000000000E+00 -0.82345672080E+01  0.83319263740E+01  0.12700000000E+01 0.  1.
         25    2    1    2    0    0  0.00000000000E+00  0.00000000000E+00  0.46291573806E+03  0.47948394330E+03  0.12495547743E+03 0.  0.
    9000005    1    3    3    0    0  0.53983853213E+02  0.30514898686E+02  0.26044169234E+03  0.26772428086E+03  0.10000000000E+01 0.  0.
    9000005    1    3    3    0    0 -0.53983853213E+02 -0.30514898686E+02  0.20247404572E+03  0.21175966244E+03  0.10000000000E+01 0.  0.
<mgrwt>
<rscale>  0 0.12495548E+03</rscale>
<asrwt>0</asrwt>
<pdfrwt beam="1">  1        4 0.72492302E-01 0.12495548E+03</pdfrwt>
<pdfrwt beam="2">  1       -4 0.12744770E-02 0.12495548E+03</pdfrwt>
<totfact> 0.57548400E+03</totfact>
</mgrwt>
</event>
<event>
 5    1  0.3312904E-002  0.1250010E+03  0.7818608E-02  0.1235068E+00
         -4   -1    0    0    0  501 -0.00000000000E+00  0.00000000000E+00  0.36931080395E+02  0.36952910564E+02  0.12700000000E+01 0. -1.
          4   -1    0    0  501    0  0.00000000000E+00 -0.00000000000E+00 -0.10571613522E+03  0.10572376339E+03  0.12700000000E+01 0. -1.
         25    2    1    2    0    0  0.00000000000E+00  0.00000000000E+00 -0.68785054824E+02  0.14267667396E+03  0.12500099809E+03 0.  0.
    9000005    1    3    3    0    0 -0.38822403715E+02  0.48417781338E+02 -0.42768584184E+02  0.75376470951E+02  0.10000000000E+01 0.  0.
    9000005    1    3    3    0    0  0.38822403715E+02 -0.48417781338E+02 -0.26016470640E+02  0.67300203005E+02  0.10000000000E+01 0.  0.
<mgrwt>
<rscale>  0 0.12500100E+03</rscale>
<asrwt>0</asrwt>
<pdfrwt beam="2">  1        4 0.16266287E-01 0.12500100E+03</pdfrwt>
<pdfrwt beam="1">  1       -4 0.56839707E-02 0.12500100E+03</pdfrwt>
<totfact> 0.10078182E+04</totfact>
</mgrwt>
</event>
<event>
 5    1  0.3312904E-002  0.1250016E+03  0.7818608E-02  0.1235067E+00
         -4   -1    0    0    0  501 -0.00000000000E+00  0.00000000000E+00  0.41174026288E+02  0.41193608009E+02  0.12700000000E+01 0. -1.
          4   -1    0    0  501    0  0.00000000000E+00 -0.00000000000E+00 -0.94827736936E+02  0.94836240923E+02  0.12700000000E+01 0. -1.
         25    2    1    2    0    0  0.00000000000E+00  0.00000000000E+00 -0.53653710648E+02  0.13602984893E+03  0.12500159653E+03 0.  0.
    9000005    1    3    3    0    0  0.19444717624E+02  0.54985411230E+02 -0.51253984550E+02  0.77649619599E+02  0.10000000000E+01 0.  0.
    9000005    1    3    3    0    0 -0.19444717624E+02 -0.54985411230E+02 -0.23997260973E+01  0.58380229333E+02  0.10000000000E+01 0.  0.
<mgrwt>
<rscale>  0 0.12500160E+03</rscale>
<asrwt>0</asrwt>
<pdfrwt beam="2">  1        4 0.14591043E-01 0.12500160E+03</pdfrwt>
<pdfrwt beam="1">  1       -4 0.63366260E-02 0.12500160E+03</pdfrwt>
<totfact> 0.10216042E+04</totfact>
</mgrwt>
</event>
<event>
 5    1  0.3312904E-002  0.1249994E+03  0.7818608E-02  0.1235070E+00
          4   -1    0    0  501    0  0.00000000000E+00  0.00000000000E+00  0.77499547752E+02  0.77509952921E+02  0.12700000000E+01 0. -1.
         -4   -1    0    0    0  501 -0.00000000000E+00 -0.00000000000E+00 -0.50381215795E+02  0.50397220211E+02  0.12700000000E+01 0. -1.
         25    2    1    2    0    0  0.00000000000E+00  0.00000000000E+00  0.27118331958E+02  0.12790717313E+03  0.12499936404E+03 0.  0.
    9000005    1    3    3    0    0  0.46901824037E+02 -0.39167148495E+02  0.16405154064E+00  0.61113611676E+02  0.10000000000E+01 0.  0.
    9000005    1    3    3    0    0 -0.46901824037E+02  0.39167148495E+02  0.26954280417E+02  0.66793561456E+02  0.10000000000E+01 0.  0.
<mgrwt>
<rscale>  0 0.12499936E+03</rscale>
<asrwt>0</asrwt>
<pdfrwt beam="1">  1        4 0.11925039E-01 0.12499936E+03</pdfrwt>
<pdfrwt beam="2">  1       -4 0.77529878E-02 0.12499936E+03</pdfrwt>
<totfact> 0.10389642E+04</totfact>
</mgrwt>
</event>
<event>
 5    1  0.3312904E-002  0.1250097E+03  0.7818608E-02  0.1235054E+00
         -4   -1    0    0    0  501 -0.00000000000E+00  0.00000000000E+00  0.12273243497E+03  0.12273900559E+03  0.12700000000E+01 0.  1.
          4   -1    0    0  501    0  0.00000000000E+00 -0.00000000000E+00 -0.31812188660E+02  0.31837528914E+02  0.12700000000E+01 0.  1.
         25    2    1    2    0    0  0.00000000000E+00  0.00000000000E+00  0.90920246308E+02  0.15457653450E+03  0.12500965495E+03 0.  0.
    9000005    1    3    3    0    0  0.59597514480E+02 -0.15518256887E+02  0.58614559582E+02  0.85025564532E+02  0.10000000000E+01 0.  0.
    9000005    1    3    3    0    0 -0.59597514480E+02  0.15518256887E+02  0.32305686726E+02  0.69550969971E+02  0.10000000000E+01 0.  0.
<mgrwt>
<rscale>  0 0.12500965E+03</rscale>
<asrwt>0</asrwt>
<pdfrwt beam="2">  1        4 0.48966375E-02 0.12500965E+03</pdfrwt>
<pdfrwt beam="1">  1       -4 0.18884368E-01 0.12500965E+03</pdfrwt>
<totfact> 0.98377330E+03</totfact>
</mgrwt>
</event>
<event>
 5    1  0.3312904E-002  0.1249975E+03  0.7818608E-02  0.1235073E+00
          4   -1    0    0  501    0  0.00000000000E+00  0.00000000000E+00  0.46117200214E+03  0.46117375084E+03  0.12700000000E+01 0.  1.
         -4   -1    0    0    0  501 -0.00000000000E+00 -0.00000000000E+00 -0.84205481238E+01  0.85157812739E+01  0.12700000000E+01 0.  1.
         25    2    1    2    0    0  0.00000000000E+00  0.00000000000E+00  0.45275145402E+03  0.46968953211E+03  0.12499750981E+03 0.  0.
    9000005    1    3    3    0    0  0.59649390449E+01 -0.51353656741E+02  0.35828354295E+03  0.36199568465E+03  0.10000000000E+01 0.  0.
    9000005    1    3    3    0    0 -0.59649390449E+01  0.51353656741E+02  0.94467911072E+02  0.10769384746E+03  0.10000000000E+01 0.  0.
<mgrwt>
<rscale>  0 0.12499751E+03</rscale>
<asrwt>0</asrwt>
<pdfrwt beam="1">  1        4 0.70957008E-01 0.12499751E+03</pdfrwt>
<pdfrwt beam="2">  1       -4 0.13029289E-02 0.12499751E+03</pdfrwt>
<totfact> 0.58298437E+03</totfact>
</mgrwt>
</event>
<event>
 5    1  0.3312904E-002  0.1250017E+03  0.7818608E-02  0.1235067E+00
          4   -1    0    0  501    0  0.00000000000E+00  0.00000000000E+00  0.35474853661E+03  0.35475080990E+03  0.12700000000E+01 0.  1.
         -4   -1    0    0    0  501 -0.00000000000E+00 -0.00000000000E+00 -0.10972690159E+02  0.11045941758E+02  0.12700000000E+01 0.  1.
         25    2    1    2    0    0  0.00000000000E+00  0.00000000000E+00  0.34377584645E+03  0.36579675166E+03  0.12500172368E+03 0.  0.
    9000005    1    3    3    0    0 -0.22496796828E+02  0.49859816452E+02  0.26032183135E+03  0.26600857701E+03  0.10000000000E+01 0.  0.
    9000005    1    3    3    0    0  0.22496796828E+02 -0.49859816452E+02  0.83454015100E+02  0.99788174653E+02  0.10000000000E+01 0.  0.
<mgrwt>
<rscale>  0 0.12500172E+03</rscale>
<asrwt>0</asrwt>
<pdfrwt beam="1">  1        4 0.54582498E-01 0.12500172E+03</pdfrwt>
<pdfrwt beam="2">  1       -4 0.16939161E-02 0.12500172E+03</pdfrwt>
<totfact> 0.68018392E+03</totfact>
</mgrwt>
</event>
<event>
 5    1  0.3312904E-002  0.1249815E+03  0.7818608E-02  0.1235098E+00
         -4   -1    0    0    0  501 -0.00000000000E+00  0.00000000000E+00  0.16736721501E+02  0.16784836806E+02  0.12700000000E+01 0. -1.
          4   -1    0    0  501    0  0.00000000000E+00 -0.00000000000E+00 -0.23294006583E+03  0.23294352786E+03  0.12700000000E+01 0. -1.
         25    2    1    2    0    0  0.00000000000E+00  0.00000000000E+00 -0.21620334433E+03  0.24972836466E+03  0.12498147869E+03 0.  0.
    9000005    1    3    3    0    0  0.24020769139E+02  0.32747748996E+02 -0.20297948825E+03  0.20700503633E+03  0.10000000000E+01 0.  0.
    9000005    1    3    3    0    0 -0.24020769139E+02 -0.32747748996E+02 -0.13223856081E+02  0.42723328335E+02  0.10000000000E+01 0.  0.
<mgrwt>
<rscale>  0 0.12498148E+03</rscale>
<asrwt>0</asrwt>
<pdfrwt beam="2">  1        4 0.35840898E-01 0.12498148E+03</pdfrwt>
<pdfrwt beam="1">  1       -4 0.25788479E-02 0.12498148E+03</pdfrwt>
<totfact> 0.82403499E+03</totfact>
</mgrwt>
</event>
<event>
 5    1  0.3312904E-002  0.1249969E+03  0.7818608E-02  0.1235074E+00
          4   -1    0    0  501    0  0.00000000000E+00  0.00000000000E+00  0.27886311564E+03  0.27886600755E+03  0.12700000000E+01 0.  1.
         -4   -1    0    0    0  501 -0.00000000000E+00 -0.00000000000E+00 -0.13975311723E+02  0.14032898409E+02  0.12700000000E+01 0.  1.
         25    2    1    2    0    0  0.00000000000E+00  0.00000000000E+00  0.26488780392E+03  0.29289890596E+03  0.12499688174E+03 0.  0.
    9000005    1    3    3    0    0  0.30271306535E+02  0.49574013936E+02  0.18644654331E+03  0.19528760424E+03  0.10000000000E+01 0.  0.
    9000005    1    3    3    0    0 -0.30271306535E+02 -0.49574013936E+02  0.78441260610E+02  0.97611301719E+02  0.10000000000E+01 0.  0.
<mgrwt>
<rscale>  0 0.12499688E+03</rscale>
<asrwt>0</asrwt>
<pdfrwt beam="1">  1        4 0.42906668E-01 0.12499688E+03</pdfrwt>
<pdfrwt beam="2">  1       -4 0.21547003E-02 0.12499688E+03</pdfrwt>
<totfact> 0.76503607E+03</totfact>
</mgrwt>
</event>
<event>
 5    1  0.3312904E-002  0.1249987E+03  0.7818608E-02  0.1235071E+00
          4   -1    0    0  501    0  0.00000000000E+00  0.00000000000E+00  0.62510033208E+03  0.62510162219E+03  0.12700000000E+01 0. -1.
         -4   -1    0    0    0  501 -0.00000000000E+00 -0.00000000000E+00 -0.61830319100E+01  0.63121140358E+01  0.12700000000E+01 0. -1.
         25    2    1    2    0    0  0.00000000000E+00  0.00000000000E+00  0.61891730017E+03  0.63141373623E+03  0.12499872738E+03 0.  0.
    9000005    1    3    3    0    0  0.20511409280E+02  0.38570155623E+02  0.53518135436E+03  0.53696224902E+03  0.10000000000E+01 0.  0.
    9000005    1    3    3    0    0 -0.20511409280E+02 -0.38570155623E+02  0.83735945812E+02  0.94451487212E+02  0.10000000000E+01 0.  0.
<mgrwt>
<rscale>  0 0.12499873E+03</rscale>
<asrwt>0</asrwt>
<pdfrwt beam="1">  1        4 0.96179346E-01 0.12499873E+03</pdfrwt>
<pdfrwt beam="2">  1       -4 0.96126396E-03 0.12499873E+03</pdfrwt>
<totfact> 0.46944179E+03</totfact>
</mgrwt>
</event>
<event>
 5    1  0.3312904E-002  0.1250015E+03  0.7818608E-02  0.1235067E+00
          4   -1    0    0  501    0  0.00000000000E+00  0.00000000000E+00  0.33156069210E+02  0.33180383143E+02  0.12700000000E+01 0.  1.
         -4   -1    0    0    0  501 -0.00000000000E+00 -0.00000000000E+00 -0.11774591988E+03  0.11775276875E+03  0.12700000000E+01 0.  1.
         25    2    1    2    0    0  0.00000000000E+00  0.00000000000E+00 -0.84589850673E+02  0.15093315190E+03  0.12500149401E+03 0.  0.
    9000005    1    3    3    0    0  0.21318136594E+02 -0.22492016454E+02  0.23230722318E+02  0.38743002096E+02  0.10000000000E+01 0.  0.
    9000005    1    3    3    0    0 -0.21318136594E+02  0.22492016454E+02 -0.10782057299E+03  0.11219014980E+03  0.10000000000E+01 0.  0.
<mgrwt>
<rscale>  0 0.12500149E+03</rscale>
<asrwt>0</asrwt>
<pdfrwt beam="1">  1        4 0.51033309E-02 0.12500149E+03</pdfrwt>
<pdfrwt beam="2">  1       -4 0.18117154E-01 0.12500149E+03</pdfrwt>
<totfact> 0.99114681E+03</totfact>
</mgrwt>
</event>
<event>
 4    1  0.3312904E-002  0.1250795E+03  0.7818608E-02  0.1234945E+00
          4   -1    0    0  501    0  0.00000000000E+00  0.00000000000E+00  0.35117198106E+03  0.35117427750E+03  0.12700000000E+01 0. -1.
         -4   -1    0    0    0  501 -0.00000000000E+00 -0.00000000000E+00 -0.11099080572E+02  0.11171503460E+02  0.12700000000E+01 0. -1.
    9000005    1    1    2    0    0 -0.25692865160E+02 -0.33500254680E+02  0.30366695250E+03  0.30658931558E+03  0.10000000000E+01 0.  0.
    9000005    1    1    2    0    0  0.25692865160E+02  0.33500254680E+02  0.36405947981E+02  0.55756465385E+02  0.10000000000E+01 0.  0.
<mgrwt>
<rscale>  0 0.12507952E+03</rscale>
<asrwt>0</asrwt>
<pdfrwt beam="1">  1        4 0.54032206E-01 0.12507952E+03</pdfrwt>
<pdfrwt beam="2">  1       -4 0.17132985E-02 0.12507952E+03</pdfrwt>
<totfact> 0.68267247E+03</totfact>
</mgrwt>
</event>
<event>
 5    1  0.3312904E-002  0.1249999E+03  0.7818608E-02  0.1235069E+00
          4   -1    0    0  501    0  0.00000000000E+00  0.00000000000E+00  0.87287638758E+01  0.88206699746E+01  0.12700000000E+01 0.  1.
         -4   -1    0    0    0  501 -0.00000000000E+00 -0.00000000000E+00 -0.44507786229E+03  0.44507967422E+03  0.12700000000E+01 0.  1.
         25    2    1    2    0    0  0.00000000000E+00  0.00000000000E+00 -0.43634909841E+03  0.45390034419E+03  0.12499994708E+03 0.  0.
    9000005    1    3    3    0    0  0.27003633793E+02  0.17785275554E+02 -0.41235859032E+03  0.41362557860E+03  0.10000000000E+01 0.  0.
    9000005    1    3    3    0    0 -0.27003633793E+02 -0.17785275554E+02 -0.23990508096E+02  0.40274765590E+02  0.10000000000E+01 0.  0.
<mgrwt>
<rscale>  0 0.12499995E+03</rscale>
<asrwt>0</asrwt>
<pdfrwt beam="1">  1        4 0.13500962E-02 0.12499995E+03</pdfrwt>
<pdfrwt beam="2">  1       -4 0.68480709E-01 0.12499995E+03</pdfrwt>
<totfact> 0.59627469E+03</totfact>
</mgrwt>
</event>
<event>
 5    1  0.3312904E-002  0.1249957E+03  0.7818608E-02  0.1235076E+00
         -4   -1    0    0    0  501 -0.00000000000E+00  0.00000000000E+00  0.13793334605E+02  0.13851677859E+02  0.12700000000E+01 0.  1.
          4   -1    0    0  501    0  0.00000000000E+00 -0.00000000000E+00 -0.28252171072E+03  0.28252456517E+03  0.12700000000E+01 0.  1.
         25    2    1    2    0    0  0.00000000000E+00  0.00000000000E+00 -0.26872837611E+03  0.29637624303E+03  0.12499574915E+03 0.  0.
    9000005    1    3    3    0    0 -0.43517090380E+02 -0.58639457847E+01 -0.28940975657E+02  0.52599459002E+02  0.10000000000E+01 0.  0.
    9000005    1    3    3    0    0  0.43517090380E+02  0.58639457847E+01 -0.23978740046E+03  0.24377678403E+03  0.10000000000E+01 0.  0.
<mgrwt>
<rscale>  0 0.12499575E+03</rscale>
<asrwt>0</asrwt>
<pdfrwt beam="2">  1        4 0.43469582E-01 0.12499575E+03</pdfrwt>
<pdfrwt beam="1">  1       -4 0.21267592E-02 0.12499575E+03</pdfrwt>
<totfact> 0.76062837E+03</totfact>
</mgrwt>
</event>
<event>
 5    1  0.3312904E-002  0.1249976E+03  0.7818608E-02  0.1235073E+00
          4   -1    0    0  501    0  0.00000000000E+00  0.00000000000E+00  0.70044656506E+03  0.70044771639E+03  0.12700000000E+01 0.  1.
         -4   -1    0    0    0  501 -0.00000000000E+00 -0.00000000000E+00 -0.55031076823E+01  0.56477512483E+01  0.12700000000E+01 0.  1.
         25    2    1    2    0    0  0.00000000000E+00  0.00000000000E+00  0.69494345738E+03  0.70609546764E+03  0.12499760188E+03 0.  0.
    9000005    1    3    3    0    0  0.58232265499E+02 -0.22646020427E+02  0.34112803607E+03  0.34680423293E+03  0.10000000000E+01 0.  0.
    9000005    1    3    3    0    0 -0.58232265499E+02  0.22646020427E+02  0.35381542131E+03  0.35929123471E+03  0.10000000000E+01 0.  0.
<mgrwt>
<rscale>  0 0.12499760E+03</rscale>
<asrwt>0</asrwt>
<pdfrwt beam="1">  1        4 0.10777226E+00 0.12499760E+03</pdfrwt>
<pdfrwt beam="2">  1       -4 0.85784665E-03 0.12499760E+03</pdfrwt>
<totfact> 0.42769102E+03</totfact>
</mgrwt>
</event>
<event>
 5    1  0.3312904E-002  0.1250132E+03  0.7818608E-02  0.1235049E+00
          4   -1    0    0  501    0  0.00000000000E+00  0.00000000000E+00  0.21775795876E+03  0.21776166215E+03  0.12700000000E+01 0. -1.
         -4   -1    0    0    0  501 -0.00000000000E+00 -0.00000000000E+00 -0.17915949834E+02  0.17960906393E+02  0.12700000000E+01 0. -1.
         25    2    1    2    0    0  0.00000000000E+00  0.00000000000E+00  0.19984200893E+03  0.23572256855E+03  0.12501320246E+03 0.  0.
    9000005    1    3    3    0    0  0.19532338463E+01  0.24100912313E+02 -0.87481464230E+01  0.25733230707E+02  0.10000000000E+01 0.  0.
    9000005    1    3    3    0    0 -0.19532338463E+01 -0.24100912313E+02  0.20859015535E+03  0.20998933784E+03  0.10000000000E+01 0.  0.
<mgrwt>
<rscale>  0 0.12501320E+03</rscale>
<asrwt>0</asrwt>
<pdfrwt beam="1">  1        4 0.33504967E-01 0.12501320E+03</pdfrwt>
<pdfrwt beam="2">  1       -4 0.27600431E-02 0.12501320E+03</pdfrwt>
<totfact> 0.84413711E+03</totfact>
</mgrwt>
</event>
<event>
 5    1  0.3312904E-002  0.1250019E+03  0.7818608E-02  0.1235066E+00
         -4   -1    0    0    0  501 -0.00000000000E+00  0.00000000000E+00  0.48778007879E+02  0.48794538144E+02  0.12700000000E+01 0.  1.
          4   -1    0    0  501    0  0.00000000000E+00 -0.00000000000E+00 -0.80049540860E+02  0.80059614613E+02  0.12700000000E+01 0.  1.
         25    2    1    2    0    0  0.00000000000E+00  0.00000000000E+00 -0.31271532981E+02  0.12885415276E+03  0.12500193562E+03 0.  0.
    9000005    1    3    3    0    0 -0.49156628541E+02 -0.30622462567E+02 -0.39838285264E+02  0.70300770379E+02  0.10000000000E+01 0.  0.
    9000005    1    3    3    0    0  0.49156628541E+02  0.30622462567E+02  0.85667522829E+01  0.58553382377E+02  0.10000000000E+01 0.  0.
<mgrwt>
<rscale>  0 0.12500194E+03</rscale>
<asrwt>0</asrwt>
<pdfrwt beam="2">  1        4 0.12317360E-01 0.12500194E+03</pdfrwt>
<pdfrwt beam="1">  1       -4 0.75063554E-02 0.12500194E+03</pdfrwt>
<totfact> 0.10368629E+04</totfact>
</mgrwt>
</event>
<event>
 5    1  0.3312904E-002  0.1249915E+03  0.7818608E-02  0.1235083E+00
          4   -1    0    0  501    0  0.00000000000E+00  0.00000000000E+00  0.87465948428E+01  0.88383155264E+01  0.12700000000E+01 0. -1.
         -4   -1    0    0    0  501 -0.00000000000E+00 -0.00000000000E+00 -0.44411992798E+03  0.44412174381E+03  0.12700000000E+01 0. -1.
         25    2    1    2    0    0  0.00000000000E+00  0.00000000000E+00 -0.43537333314E+03  0.45296005934E+03  0.12499150432E+03 0.  0.
    9000005    1    3    3    0    0 -0.50140922785E+02  0.36876456926E+01 -0.35216356138E+03  0.35573569519E+03  0.10000000000E+01 0.  0.
    9000005    1    3    3    0    0  0.50140922785E+02 -0.36876456926E+01 -0.83209771751E+02  0.97224364145E+02  0.10000000000E+01 0.  0.
<mgrwt>
<rscale>  0 0.12499150E+03</rscale>
<asrwt>0</asrwt>
<pdfrwt beam="1">  1        4 0.13528254E-02 0.12499150E+03</pdfrwt>
<pdfrwt beam="2">  1       -4 0.68333320E-01 0.12499150E+03</pdfrwt>
<totfact> 0.59719402E+03</totfact>
</mgrwt>
</event>
<event>
 5    1  0.3312904E-002  0.1249985E+03  0.7818608E-02  0.1235072E+00
          4   -1    0    0  501    0  0.00000000000E+00  0.00000000000E+00  0.38581959318E+03  0.38582168340E+03  0.12700000000E+01 0. -1.
         -4   -1    0    0    0  501 -0.00000000000E+00 -0.00000000000E+00 -0.10082356292E+02  0.10162027770E+02  0.12700000000E+01 0. -1.
         25    2    1    2    0    0  0.00000000000E+00  0.00000000000E+00  0.37573723689E+03  0.39598371117E+03  0.12499851330E+03 0.  0.
    9000005    1    3    3    0    0  0.95057603870E+01  0.54022306345E+02  0.28271494069E+03  0.28798872678E+03  0.10000000000E+01 0.  0.
    9000005    1    3    3    0    0 -0.95057603870E+01 -0.54022306345E+02  0.93022296199E+02  0.10799498439E+03  0.10000000000E+01 0.  0.
<mgrwt>
<rscale>  0 0.12499851E+03</rscale>
<asrwt>0</asrwt>
<pdfrwt beam="1">  1        4 0.59363149E-01 0.12499851E+03</pdfrwt>
<pdfrwt beam="2">  1       -4 0.15574211E-02 0.12499851E+03</pdfrwt>
<totfact> 0.64947422E+03</totfact>
</mgrwt>
</event>
<event>
 5    1  0.3312904E-002  0.1249944E+03  0.7818608E-02  0.1235078E+00
          4   -1    0    0  501    0  0.00000000000E+00  0.00000000000E+00  0.86246182724E+02  0.86255532776E+02  0.12700000000E+01 0.  1.
         -4   -1    0    0    0  501 -0.00000000000E+00 -0.00000000000E+00 -0.45267112586E+02  0.45284924444E+02  0.12700000000E+01 0.  1.
         25    2    1    2    0    0  0.00000000000E+00  0.00000000000E+00  0.40979070138E+02  0.13154045722E+03  0.12499443066E+03 0.  0.
    9000005    1    3    3    0    0  0.58912534561E+02  0.19581173147E+02  0.27989685805E+02  0.68106766049E+02  0.10000000000E+01 0.  0.
    9000005    1    3    3    0    0 -0.58912534561E+02 -0.19581173147E+02  0.12989384333E+02  0.63433691171E+02  0.10000000000E+01 0.  0.
<mgrwt>
<rscale>  0 0.12499443E+03</rscale>
<asrwt>0</asrwt>
<pdfrwt beam="1">  1        4 0.13270733E-01 0.12499443E+03</pdfrwt>
<pdfrwt beam="2">  1       -4 0.69662607E-02 0.12499443E+03</pdfrwt>
<totfact> 0.10312812E+04</totfact>
</mgrwt>
</event>
<event>
 5    1  0.3312904E-002  0.1249872E+03  0.7818608E-02  0.1235089E+00
         -4   -1    0    0    0  501 -0.00000000000E+00  0.00000000000E+00  0.15921973712E+01  0.20366620900E+01  0.12700000000E+01 0. -1.
          4   -1    0    0  501    0  0.00000000000E+00 -0.00000000000E+00 -0.21519938759E+04  0.21519942507E+04  0.12700000000E+01 0. -1.
         25    2    1    2    0    0  0.00000000000E+00  0.00000000000E+00 -0.21504016786E+04  0.21540309128E+04  0.12498717535E+03 0.  0.
    9000005    1    3    3    0    0 -0.48117356671E+02  0.24357934194E+02 -0.16190588377E+04  0.16199571318E+04  0.10000000000E+01 0.  0.
    9000005    1    3    3    0    0  0.48117356671E+02 -0.24357934194E+02 -0.53134284089E+03  0.53407378099E+03  0.10000000000E+01 0.  0.
<mgrwt>
<rscale>  0 0.12498718E+03</rscale>
<asrwt>0</asrwt>
<pdfrwt beam="2">  1        4 0.33110816E+00 0.12498718E+03</pdfrwt>
<pdfrwt beam="1">  1       -4 0.27917358E-03 0.12498718E+03</pdfrwt>
<totfact> 0.79847721E+02</totfact>
</mgrwt>
</event>
<event>
 5    1  0.3312904E-002  0.1250046E+03  0.7818608E-02  0.1235062E+00
          4   -1    0    0  501    0  0.00000000000E+00  0.00000000000E+00  0.45813000262E+01  0.47540729832E+01  0.12700000000E+01 0.  1.
         -4   -1    0    0    0  501 -0.00000000000E+00 -0.00000000000E+00 -0.83675862218E+03  0.83675958595E+03  0.12700000000E+01 0.  1.
         25    2    1    2    0    0  0.00000000000E+00  0.00000000000E+00 -0.83217732215E+03  0.84151365894E+03  0.12500457063E+03 0.  0.
    9000005    1    3    3    0    0  0.51895684326E+02  0.15072905095E+02 -0.62738565751E+03  0.62970955032E+03  0.10000000000E+01 0.  0.
    9000005    1    3    3    0    0 -0.51895684326E+02 -0.15072905095E+02 -0.20479166464E+03  0.21180410862E+03  0.10000000000E+01 0.  0.
<mgrwt>
<rscale>  0 0.12500457E+03</rscale>
<asrwt>0</asrwt>
<pdfrwt beam="1">  1        4 0.71818042E-03 0.12500457E+03</pdfrwt>
<pdfrwt beam="2">  1       -4 0.12874534E+00 0.12500457E+03</pdfrwt>
<totfact> 0.36473522E+03</totfact>
</mgrwt>
</event>
<event>
 5    1  0.3312904E-002  0.1250019E+03  0.7818608E-02  0.1235066E+00
         -4   -1    0    0    0  501 -0.00000000000E+00  0.00000000000E+00  0.20827044064E+03  0.20827431273E+03  0.12700000000E+01 0. -1.
          4   -1    0    0  501    0  0.00000000000E+00 -0.00000000000E+00 -0.18730686985E+02  0.18773692629E+02  0.12700000000E+01 0. -1.
         25    2    1    2    0    0  0.00000000000E+00  0.00000000000E+00  0.18953975365E+03  0.22704800536E+03  0.12500191408E+03 0.  0.
    9000005    1    3    3    0    0  0.12854804025E+01 -0.37266824834E+01 -0.18513525275E+02  0.18954979301E+02  0.10000000000E+01 0.  0.
    9000005    1    3    3    0    0 -0.12854804025E+01  0.37266824834E+01  0.20805327893E+03  0.20809302606E+03  0.10000000000E+01 0.  0.
<mgrwt>
<rscale>  0 0.12500191E+03</rscale>
<asrwt>0</asrwt>
<pdfrwt beam="2">  1        4 0.28852501E-02 0.12500191E+03</pdfrwt>
<pdfrwt beam="1">  1       -4 0.32045212E-01 0.12500191E+03</pdfrwt>
<totfact> 0.85761285E+03</totfact>
</mgrwt>
</event>
<event>
 5    1  0.3312904E-002  0.1250008E+03  0.7818608E-02  0.1235068E+00
          4   -1    0    0  501    0  0.00000000000E+00  0.00000000000E+00  0.39950120510E+03  0.39950322373E+03  0.12700000000E+01 0.  1.
         -4   -1    0    0    0  501 -0.00000000000E+00 -0.00000000000E+00 -0.97346557296E+01  0.98171493914E+01  0.12700000000E+01 0.  1.
         25    2    1    2    0    0  0.00000000000E+00  0.00000000000E+00  0.38976654937E+03  0.40932037313E+03  0.12500081940E+03 0.  0.
    9000005    1    3    3    0    0  0.15293261260E+02 -0.21640853805E+02  0.38020875219E+03  0.38113239909E+03  0.10000000000E+01 0.  0.
    9000005    1    3    3    0    0 -0.15293261260E+02  0.21640853805E+02  0.95577971767E+01  0.28187974036E+02  0.10000000000E+01 0.  0.
<mgrwt>
<rscale>  0 0.12500082E+03</rscale>
<asrwt>0</asrwt>
<pdfrwt beam="1">  1        4 0.61468228E-01 0.12500082E+03</pdfrwt>
<pdfrwt beam="2">  1       -4 0.15041402E-02 0.12500082E+03</pdfrwt>
<totfact> 0.63655129E+03</totfact>
</mgrwt>
</event>
<event>
 5    1  0.3312904E-002  0.1249998E+03  0.7818608E-02  0.1235070E+00
         -4   -1    0    0    0  501 -0.00000000000E+00  0.00000000000E+00  0.76766475043E+03  0.76766580095E+03  0.12700000000E+01 0.  1.
          4   -1    0    0  501    0  0.00000000000E+00 -0.00000000000E+00 -0.50081547797E+01  0.51666734266E+01  0.12700000000E+01 0.  1.
         25    2    1    2    0    0  0.00000000000E+00  0.00000000000E+00  0.76265659565E+03  0.77283247438E+03  0.12499980227E+03 0.  0.
    9000005    1    3    3    0    0  0.14821073090E+02  0.19057826680E+02  0.73769753713E+03  0.73809316570E+03  0.10000000000E+01 0.  0.
    9000005    1    3    3    0    0 -0.14821073090E+02 -0.19057826680E+02  0.24959058521E+02  0.34739308681E+02  0.10000000000E+01 0.  0.
<mgrwt>
<rscale>  0 0.12499980E+03</rscale>
<asrwt>0</asrwt>
<pdfrwt beam="2">  1        4 0.78276002E-03 0.12499980E+03</pdfrwt>
<pdfrwt beam="1">  1       -4 0.11811453E+00 0.12499980E+03</pdfrwt>
<totfact> 0.39505294E+03</totfact>
</mgrwt>
</event>
<event>
 5    1  0.3312904E-002  0.1250005E+03  0.7818608E-02  0.1235068E+00
         -4   -1    0    0    0  501 -0.00000000000E+00  0.00000000000E+00  0.56292934392E+01  0.57707750454E+01  0.12700000000E+01 0. -1.
          4   -1    0    0  501    0  0.00000000000E+00 -0.00000000000E+00 -0.68516684444E+03  0.68516802145E+03  0.12700000000E+01 0. -1.
         25    2    1    2    0    0  0.00000000000E+00  0.00000000000E+00 -0.67953755100E+03  0.69093879649E+03  0.12500054914E+03 0.  0.
    9000005    1    3    3    0    0 -0.17732608701E+02 -0.29233464334E+02 -0.62890667892E+03  0.62983621017E+03  0.10000000000E+01 0.  0.
    9000005    1    3    3    0    0  0.17732608701E+02  0.29233464334E+02 -0.50630872075E+02  0.61102586324E+02  0.10000000000E+01 0.  0.
<mgrwt>
<rscale>  0 0.12500055E+03</rscale>
<asrwt>0</asrwt>
<pdfrwt beam="2">  1        4 0.10542119E+00 0.12500055E+03</pdfrwt>
<pdfrwt beam="1">  1       -4 0.87701943E-03 0.12500055E+03</pdfrwt>
<totfact> 0.43568852E+03</totfact>
</mgrwt>
</event>
<event>
 5    1  0.3312904E-002  0.1249932E+03  0.7818608E-02  0.1235080E+00
          4   -1    0    0  501    0  0.00000000000E+00  0.00000000000E+00  0.12803790644E+03  0.12804420481E+03  0.12700000000E+01 0.  1.
         -4   -1    0    0    0  501 -0.00000000000E+00 -0.00000000000E+00 -0.30484960535E+02  0.30511403095E+02  0.12700000000E+01 0.  1.
         25    2    1    2    0    0  0.00000000000E+00  0.00000000000E+00  0.97552945905E+02  0.15855560791E+03  0.12499321399E+03 0.  0.
    9000005    1    3    3    0    0 -0.22739894257E+02  0.38218234496E+02  0.10446248677E+03  0.11353918875E+03  0.10000000000E+01 0.  0.
    9000005    1    3    3    0    0  0.22739894257E+02 -0.38218234496E+02 -0.69095408678E+01  0.45016419158E+02  0.10000000000E+01 0.  0.
<mgrwt>
<rscale>  0 0.12499321E+03</rscale>
<asrwt>0</asrwt>
<pdfrwt beam="1">  1        4 0.19700657E-01 0.12499321E+03</pdfrwt>
<pdfrwt beam="2">  1       -4 0.46925126E-02 0.12499321E+03</pdfrwt>
<totfact> 0.97636872E+03</totfact>
</mgrwt>
</event>
<event>
 5    1  0.3312904E-002  0.1250022E+03  0.7818608E-02  0.1235066E+00
         -4   -1    0    0    0  501 -0.00000000000E+00  0.00000000000E+00  0.51224526920E+01  0.52775393491E+01  0.12700000000E+01 0. -1.
          4   -1    0    0  501    0  0.00000000000E+00 -0.00000000000E+00 -0.75107341852E+03  0.75107449225E+03  0.12700000000E+01 0. -1.
         25    2    1    2    0    0  0.00000000000E+00  0.00000000000E+00 -0.74595096583E+03  0.75635203160E+03  0.12500220911E+03 0.  0.
    9000005    1    3    3    0    0  0.88360578750E+01 -0.26336767154E+02 -0.71169021557E+03  0.71223287214E+03  0.10000000000E+01 0.  0.
    9000005    1    3    3    0    0 -0.88360578750E+01  0.26336767154E+02 -0.34260750263E+02  0.44119159460E+02  0.10000000000E+01 0.  0.
<mgrwt>
<rscale>  0 0.12500221E+03</rscale>
<asrwt>0</asrwt>
<pdfrwt beam="2">  1        4 0.11556168E+00 0.12500221E+03</pdfrwt>
<pdfrwt beam="1">  1       -4 0.80008258E-03 0.12500221E+03</pdfrwt>
<totfact> 0.40270228E+03</totfact>
</mgrwt>
</event>
<event>
 5    1  0.3312904E-002  0.1249996E+03  0.7818608E-02  0.1235070E+00
         -4   -1    0    0    0  501 -0.00000000000E+00  0.00000000000E+00  0.42221443580E+03  0.42221634584E+03  0.12700000000E+01 0.  1.
          4   -1    0    0  501    0  0.00000000000E+00 -0.00000000000E+00 -0.92062393981E+01  0.92934247646E+01  0.12700000000E+01 0.  1.
         25    2    1    2    0    0  0.00000000000E+00  0.00000000000E+00  0.41300819640E+03  0.43150977061E+03  0.12499964734E+03 0.  0.
    9000005    1    3    3    0    0 -0.35700744554E+02  0.44687424806E+02  0.11960201995E+03  0.13257885304E+03  0.10000000000E+01 0.  0.
    9000005    1    3    3    0    0  0.35700744554E+02 -0.44687424806E+02  0.29340617646E+03  0.29893091757E+03  0.10000000000E+01 0.  0.
<mgrwt>
<rscale>  0 0.12499965E+03</rscale>
<asrwt>0</asrwt>
<pdfrwt beam="2">  1        4 0.14231982E-02 0.12499965E+03</pdfrwt>
<pdfrwt beam="1">  1       -4 0.64962911E-01 0.12499965E+03</pdfrwt>
<totfact> 0.61599861E+03</totfact>
</mgrwt>
</event>
<event>
 5    1  0.3312904E-002  0.1249946E+03  0.7818608E-02  0.1235078E+00
          4   -1    0    0  501    0  0.00000000000E+00  0.00000000000E+00  0.97501796892E+02  0.97510067671E+02  0.12700000000E+01 0. -1.
         -4   -1    0    0    0  501 -0.00000000000E+00 -0.00000000000E+00 -0.40039852855E+02  0.40059988975E+02  0.12700000000E+01 0. -1.
         25    2    1    2    0    0  0.00000000000E+00  0.00000000000E+00  0.57461944037E+02  0.13757005665E+03  0.12499458177E+03 0.  0.
    9000005    1    3    3    0    0 -0.25431620088E+02 -0.56324968587E+02  0.18545619092E+02  0.64530685524E+02  0.10000000000E+01 0.  0.
    9000005    1    3    3    0    0  0.25431620088E+02  0.56324968587E+02  0.38916324945E+02  0.73039371122E+02  0.10000000000E+01 0.  0.
<mgrwt>
<rscale>  0 0.12499458E+03</rscale>
<asrwt>0</asrwt>
<pdfrwt beam="1">  1        4 0.15002462E-01 0.12499458E+03</pdfrwt>
<pdfrwt beam="2">  1       -4 0.61621625E-02 0.12499458E+03</pdfrwt>
<totfact> 0.10185424E+04</totfact>
</mgrwt>
</event>
<event>
 5    1  0.3312904E-002  0.1249966E+03  0.7818608E-02  0.1235075E+00
          4   -1    0    0  501    0  0.00000000000E+00  0.00000000000E+00  0.57469556694E+01  0.58856095237E+01  0.12700000000E+01 0.  1.
         -4   -1    0    0    0  501 -0.00000000000E+00 -0.00000000000E+00 -0.67143019809E+03  0.67143139918E+03  0.12700000000E+01 0.  1.
         25    2    1    2    0    0  0.00000000000E+00  0.00000000000E+00 -0.66568324242E+03  0.67731700871E+03  0.12499660412E+03 0.  0.
    9000005    1    3    3    0    0 -0.10785358992E+02 -0.60000302924E+02 -0.40727260445E+03  0.41181104241E+03  0.10000000000E+01 0.  0.
    9000005    1    3    3    0    0  0.10785358992E+02  0.60000302924E+02 -0.25841063798E+03  0.26550596630E+03  0.10000000000E+01 0.  0.
<mgrwt>
<rscale>  0 0.12499660E+03</rscale>
<asrwt>0</asrwt>
<pdfrwt beam="1">  1        4 0.89490563E-03 0.12499660E+03</pdfrwt>
<pdfrwt beam="2">  1       -4 0.10330765E+00 0.12499660E+03</pdfrwt>
<totfact> 0.44314771E+03</totfact>
</mgrwt>
</event>
<event>
 5    1  0.3312904E-002  0.1249991E+03  0.7818608E-02  0.1235071E+00
         -4   -1    0    0    0  501 -0.00000000000E+00  0.00000000000E+00  0.99853092111E+03  0.99853172875E+03  0.12700000000E+01 0. -1.
          4   -1    0    0  501    0  0.00000000000E+00 -0.00000000000E+00 -0.38080368288E+01  0.40142302487E+01  0.12700000000E+01 0. -1.
         25    2    1    2    0    0  0.00000000000E+00  0.00000000000E+00  0.99472288428E+03  0.10025459590E+04  0.12499913353E+03 0.  0.
    9000005    1    3    3    0    0 -0.44897663988E+02 -0.21242088598E+02  0.19320130658E+03  0.19948626876E+03  0.10000000000E+01 0.  0.
    9000005    1    3    3    0    0  0.44897663988E+02  0.21242088598E+02  0.80152157770E+03  0.80305969024E+03  0.10000000000E+01 0.  0.
<mgrwt>
<rscale>  0 0.12499913E+03</rscale>
<asrwt>0</asrwt>
<pdfrwt beam="2">  1        4 0.60177400E-03 0.12499913E+03</pdfrwt>
<pdfrwt beam="1">  1       -4 0.15363632E+00 0.12499913E+03</pdfrwt>
<totfact> 0.30521090E+03</totfact>
</mgrwt>
</event>
<event>
 5    1  0.3312904E-002  0.1250008E+03  0.7818608E-02  0.1235068E+00
         -4   -1    0    0    0  501 -0.00000000000E+00  0.00000000000E+00  0.85671074700E+02  0.85680487511E+02  0.12700000000E+01 0. -1.
          4   -1    0    0  501    0  0.00000000000E+00 -0.00000000000E+00 -0.45575717469E+02  0.45593408765E+02  0.12700000000E+01 0. -1.
         25    2    1    2    0    0  0.00000000000E+00  0.00000000000E+00  0.40095357231E+02  0.13127389628E+03  0.12500079269E+03 0.  0.
    9000005    1    3    3    0    0  0.56011886004E+02  0.26069059767E+02  0.10175257593E+02  0.62621586677E+02  0.10000000000E+01 0.  0.
    9000005    1    3    3    0    0 -0.56011886004E+02 -0.26069059767E+02  0.29920099638E+02  0.68652309599E+02  0.10000000000E+01 0.  0.
<mgrwt>
<rscale>  0 0.12500079E+03</rscale>
<asrwt>0</asrwt>
<pdfrwt beam="2">  1        4 0.70137339E-02 0.12500079E+03</pdfrwt>
<pdfrwt beam="1">  1       -4 0.13182250E-01 0.12500079E+03</pdfrwt>
<totfact> 0.10317037E+04</totfact>
</mgrwt>
</event>
<event>
 5    1  0.3312904E-002  0.1249998E+03  0.7818608E-02  0.1235070E+00
          4   -1    0    0  501    0  0.00000000000E+00  0.00000000000E+00  0.24429626227E+03  0.24429956336E+03  0.12700000000E+01 0.  1.
         -4   -1    0    0    0  501 -0.00000000000E+00 -0.00000000000E+00 -0.15961129781E+02  0.16011575934E+02  0.12700000000E+01 0.  1.
         25    2    1    2    0    0  0.00000000000E+00  0.00000000000E+00  0.22833513249E+03  0.26031113930E+03  0.12499982605E+03 0.  0.
    9000005    1    3    3    0    0 -0.47817235720E+02 -0.79447680573E+01  0.32030961906E+02  0.58108432194E+02  0.10000000000E+01 0.  0.
    9000005    1    3    3    0    0  0.47817235720E+02  0.79447680573E+01  0.19630417058E+03  0.20220270710E+03  0.10000000000E+01 0.  0.
<mgrwt>
<rscale>  0 0.12499983E+03</rscale>
<asrwt>0</asrwt>
<pdfrwt beam="1">  1        4 0.37588174E-01 0.12499983E+03</pdfrwt>
<pdfrwt beam="2">  1       -4 0.24596929E-02 0.12499983E+03</pdfrwt>
<totfact> 0.80862730E+03</totfact>
</mgrwt>
</event>
<event>
 5    1  0.3312904E-002  0.1250013E+03  0.7818608E-02  0.1235067E+00
          4   -1    0    0  501    0  0.00000000000E+00  0.00000000000E+00  0.57343949464E+01  0.58733453330E+01  0.12700000000E+01 0. -1.
         -4   -1    0    0    0  501 -0.00000000000E+00 -0.00000000000E+00 -0.67291656946E+03  0.67291776790E+03  0.12700000000E+01 0. -1.
         25    2    1    2    0    0  0.00000000000E+00  0.00000000000E+00 -0.66718217451E+03  0.67879111323E+03  0.12500128565E+03 0.  0.
    9000005    1    3    3    0    0 -0.57007104136E+01  0.62022289693E+02 -0.36131625315E+03  0.36664655638E+03  0.10000000000E+01 0.  0.
    9000005    1    3    3    0    0  0.57007104136E+01 -0.62022289693E+02 -0.30586592136E+03  0.31214455685E+03  0.10000000000E+01 0.  0.
<mgrwt>
<rscale>  0 0.12500129E+03</rscale>
<asrwt>0</asrwt>
<pdfrwt beam="1">  1        4 0.89299582E-03 0.12500129E+03</pdfrwt>
<pdfrwt beam="2">  1       -4 0.10353635E+00 0.12500129E+03</pdfrwt>
<totfact> 0.44228960E+03</totfact>
</mgrwt>
</event>
<event>
 5    1  0.3312904E-002  0.1249978E+03  0.7818608E-02  0.1235073E+00
          4   -1    0    0  501    0  0.00000000000E+00  0.00000000000E+00  0.31131337779E+02  0.31157231775E+02  0.12700000000E+01 0. -1.
         -4   -1    0    0    0  501 -0.00000000000E+00 -0.00000000000E+00 -0.12539067404E+03  0.12539710537E+03  0.12700000000E+01 0. -1.
         25    2    1    2    0    0  0.00000000000E+00  0.00000000000E+00 -0.94259336257E+02  0.15655433714E+03  0.12499775201E+03 0.  0.
    9000005    1    3    3    0    0 -0.33434969434E+02  0.42749288428E+02 -0.85929787381E+02  0.10163821723E+03  0.10000000000E+01 0.  0.
    9000005    1    3    3    0    0  0.33434969434E+02 -0.42749288428E+02 -0.83295488759E+01  0.54916119916E+02  0.10000000000E+01 0.  0.
<mgrwt>
<rscale>  0 0.12499775E+03</rscale>
<asrwt>0</asrwt>
<pdfrwt beam="1">  1        4 0.47919232E-02 0.12499775E+03</pdfrwt>
<pdfrwt beam="2">  1       -4 0.19293359E-01 0.12499775E+03</pdfrwt>
<totfact> 0.98016179E+03</totfact>
</mgrwt>
</event>
<event>
 5    1  0.3312904E-002  0.1249987E+03  0.7818608E-02  0.1235071E+00
          4   -1    0    0  501    0  0.00000000000E+00  0.00000000000E+00  0.29197830867E+03  0.29198107068E+03  0.12700000000E+01 0. -1.
         -4   -1    0    0    0  501 -0.00000000000E+00 -0.00000000000E+00 -0.13345319732E+02  0.13405612957E+02  0.12700000000E+01 0. -1.
         25    2    1    2    0    0  0.00000000000E+00  0.00000000000E+00  0.27863298894E+03  0.30538668363E+03  0.12499873606E+03 0.  0.
    9000005    1    3    3    0    0  0.33769416705E+02 -0.43433405647E+02  0.66910419266E+02  0.86630470604E+02  0.10000000000E+01 0.  0.
    9000005    1    3    3    0    0 -0.33769416705E+02  0.43433405647E+02  0.21172256967E+03  0.21875621303E+03  0.10000000000E+01 0.  0.
<mgrwt>
<rscale>  0 0.12499874E+03</rscale>
<asrwt>0</asrwt>
<pdfrwt beam="1">  1        4 0.44924583E-01 0.12499874E+03</pdfrwt>
<pdfrwt beam="2">  1       -4 0.20579768E-02 0.12499874E+03</pdfrwt>
<totfact> 0.74930179E+03</totfact>
</mgrwt>
</event>
<event>
 5    1  0.3312904E-002  0.1250004E+03  0.7818608E-02  0.1235069E+00
         -4   -1    0    0    0  501 -0.00000000000E+00  0.00000000000E+00  0.49822102917E+03  0.49822264782E+03  0.12700000000E+01 0. -1.
          4   -1    0    0  501    0  0.00000000000E+00 -0.00000000000E+00 -0.77873744913E+01  0.78902535744E+01  0.12700000000E+01 0. -1.
         25    2    1    2    0    0  0.00000000000E+00  0.00000000000E+00  0.49043365468E+03  0.50611290140E+03  0.12500039729E+03 0.  0.
    9000005    1    3    3    0    0  0.18207157884E+02 -0.35380205563E+02  0.50111758714E+02  0.63995686615E+02  0.10000000000E+01 0.  0.
    9000005    1    3    3    0    0 -0.18207157884E+02  0.35380205563E+02  0.44032189596E+03  0.44211721478E+03  0.10000000000E+01 0.  0.
<mgrwt>
<rscale>  0 0.12500040E+03</rscale>
<asrwt>0</asrwt>
<pdfrwt beam="2">  1        4 0.12060957E-02 0.12500040E+03</pdfrwt>
<pdfrwt beam="1">  1       -4 0.76657437E-01 0.12500040E+03</pdfrwt>
<totfact> 0.55392690E+03</totfact>
</mgrwt>
</event>
<event>
 5    1  0.3312904E-002  0.1250016E+03  0.7818608E-02  0.1235067E+00
         -4   -1    0    0    0  501 -0.00000000000E+00  0.00000000000E+00  0.39710183182E+03  0.39710386266E+03  0.12700000000E+01 0. -1.
          4   -1    0    0  501    0  0.00000000000E+00 -0.00000000000E+00 -0.97940990396E+01  0.98760961922E+01  0.12700000000E+01 0. -1.
         25    2    1    2    0    0  0.00000000000E+00  0.00000000000E+00  0.38730773278E+03  0.40697995885E+03  0.12500162811E+03 0.  0.
    9000005    1    3    3    0    0 -0.59233640650E+02  0.19204716390E+02  0.21085311938E+03  0.21985787061E+03  0.10000000000E+01 0.  0.
    9000005    1    3    3    0    0  0.59233640650E+02 -0.19204716390E+02  0.17645461340E+03  0.18712208824E+03  0.10000000000E+01 0.  0.
<mgrwt>
<rscale>  0 0.12500163E+03</rscale>
<asrwt>0</asrwt>
<pdfrwt beam="2">  1        4 0.15132481E-02 0.12500163E+03</pdfrwt>
<pdfrwt beam="1">  1       -4 0.61099054E-01 0.12500163E+03</pdfrwt>
<totfact> 0.63877244E+03</totfact>
</mgrwt>
</event>
<event>
 5    1  0.3312904E-002  0.1249984E+03  0.7818608E-02  0.1235072E+00
         -4   -1    0    0    0  501 -0.00000000000E+00  0.00000000000E+00  0.42553140607E+01  0.44407879656E+01  0.12700000000E+01 0. -1.
          4   -1    0    0  501    0  0.00000000000E+00 -0.00000000000E+00 -0.89818144146E+03  0.89818233933E+03  0.12700000000E+01 0. -1.
         25    2    1    2    0    0  0.00000000000E+00  0.00000000000E+00 -0.89392612740E+03  0.90262312729E+03  0.12499835471E+03 0.  0.
    9000005    1    3    3    0    0 -0.55798902971E+02 -0.21236003183E+02 -0.31368340953E+03  0.31931609232E+03  0.10000000000E+01 0.  0.
    9000005    1    3    3    0    0  0.55798902971E+02  0.21236003183E+02 -0.58024271787E+03  0.58330703497E+03  0.10000000000E+01 0.  0.
<mgrwt>
<rscale>  0 0.12499835E+03</rscale>
<asrwt>0</asrwt>
<pdfrwt beam="2">  1        4 0.13819595E+00 0.12499835E+03</pdfrwt>
<pdfrwt beam="1">  1       -4 0.66900071E-03 0.12499835E+03</pdfrwt>
<totfact> 0.34060932E+03</totfact>
</mgrwt>
</event>
<event>
 5    1  0.3312904E-002  0.1250008E+03  0.7818608E-02  0.1235068E+00
         -4   -1    0    0    0  501 -0.00000000000E+00  0.00000000000E+00  0.21059539211E+02  0.21097798268E+02  0.12700000000E+01 0.  1.
          4   -1    0    0  501    0  0.00000000000E+00 -0.00000000000E+00 -0.18527967798E+03  0.18528403054E+03  0.12700000000E+01 0.  1.
         25    2    1    2    0    0  0.00000000000E+00  0.00000000000E+00 -0.16422013877E+03  0.20638182881E+03  0.12500082113E+03 0.  0.
    9000005    1    3    3    0    0 -0.36814760141E+02 -0.37424641827E+02 -0.13808437273E+03  0.14773024190E+03  0.10000000000E+01 0.  0.
    9000005    1    3    3    0    0  0.36814760141E+02  0.37424641827E+02 -0.26135766045E+02  0.58651586909E+02  0.10000000000E+01 0.  0.
<mgrwt>
<rscale>  0 0.12500082E+03</rscale>
<asrwt>0</asrwt>
<pdfrwt beam="2">  1        4 0.28507843E-01 0.12500082E+03</pdfrwt>
<pdfrwt beam="1">  1       -4 0.32432070E-02 0.12500082E+03</pdfrwt>
<totfact> 0.89068571E+03</totfact>
</mgrwt>
</event>
<event>
 5    1  0.3312904E-002  0.1249819E+03  0.7818608E-02  0.1235098E+00
          4   -1    0    0  501    0  0.00000000000E+00  0.00000000000E+00  0.69505414187E+02  0.69517015912E+02  0.12700000000E+01 0. -1.
         -4   -1    0    0    0  501 -0.00000000000E+00 -0.00000000000E+00 -0.56160919344E+02  0.56175277138E+02  0.12700000000E+01 0. -1.
         25    2    1    2    0    0  0.00000000000E+00  0.00000000000E+00  0.13344494843E+02  0.12569229305E+03  0.12498190665E+03 0.  0.
    9000005    1    3    3    0    0 -0.38824535937E+02  0.47474971331E+02 -0.53498511058E+01  0.61569784801E+02  0.10000000000E+01 0.  0.
    9000005    1    3    3    0    0  0.38824535937E+02 -0.47474971331E+02  0.18694345949E+02  0.64122508248E+02  0.10000000000E+01 0.  0.
<mgrwt>
<rscale>  0 0.12498191E+03</rscale>
<asrwt>0</asrwt>
<pdfrwt beam="1">  1        4 0.10695137E-01 0.12498191E+03</pdfrwt>
<pdfrwt beam="2">  1       -4 0.86421384E-02 0.12498191E+03</pdfrwt>
<totfact> 0.10441976E+04</totfact>
</mgrwt>
</event>
<event>
 5    1  0.3312904E-002  0.1249981E+03  0.7818608E-02  0.1235072E+00
         -4   -1    0    0    0  501 -0.00000000000E+00  0.00000000000E+00  0.84655677798E+03  0.84655773061E+03  0.12700000000E+01 0.  1.
          4   -1    0    0  501    0  0.00000000000E+00 -0.00000000000E+00 -0.45257746428E+01  0.47005889118E+01  0.12700000000E+01 0.  1.
         25    2    1    2    0    0  0.00000000000E+00  0.00000000000E+00  0.84203100334E+03  0.85125831952E+03  0.12499806383E+03 0.  0.
    9000005    1    3    3    0    0 -0.46075505375E+02 -0.10021824425E+02  0.14173701120E+03  0.14937794182E+03  0.10000000000E+01 0.  0.
    9000005    1    3    3    0    0  0.46075505375E+02  0.10021824425E+02  0.70029399214E+03  0.70188037770E+03  0.10000000000E+01 0.  0.
<mgrwt>
<rscale>  0 0.12499806E+03</rscale>
<asrwt>0</asrwt>
<pdfrwt beam="2">  1        4 0.70979405E-03 0.12499806E+03</pdfrwt>
<pdfrwt beam="1">  1       -4 0.13025293E+00 0.12499806E+03</pdfrwt>
<totfact> 0.36077434E+03</totfact>
</mgrwt>
</event>
<event>
 5    1  0.3312904E-002  0.1250023E+03  0.7818608E-02  0.1235066E+00
         -4   -1    0    0    0  501 -0.00000000000E+00  0.00000000000E+00  0.15118423089E+03  0.15118956502E+03  0.12700000000E+01 0. -1.
          4   -1    0    0  501    0  0.00000000000E+00 -0.00000000000E+00 -0.25817214691E+02  0.25848432726E+02  0.12700000000E+01 0. -1.
         25    2    1    2    0    0  0.00000000000E+00  0.00000000000E+00  0.12536701620E+03  0.17703799774E+03  0.12500225556E+03 0.  0.
    9000005    1    3    3    0    0 -0.86096519707E+01 -0.57477297853E+02  0.95215552960E+02  0.11155611772E+03  0.10000000000E+01 0.  0.
    9000005    1    3    3    0    0  0.86096519707E+01  0.57477297853E+02  0.30151463238E+02  0.65481880020E+02  0.10000000000E+01 0.  0.
<mgrwt>
<rscale>  0 0.12500226E+03</rscale>
<asrwt>0</asrwt>
<pdfrwt beam="2">  1        4 0.39746908E-02 0.12500226E+03</pdfrwt>
<pdfrwt beam="1">  1       -4 0.23261925E-01 0.12500226E+03</pdfrwt>
<totfact> 0.94148143E+03</totfact>
</mgrwt>
</event>
<event>
 5    1  0.3312904E-002  0.1250120E+03  0.7818608E-02  0.1235051E+00
         -4   -1    0    0    0  501 -0.00000000000E+00  0.00000000000E+00  0.63491971358E+02  0.63504671694E+02  0.12700000000E+01 0.  1.
          4   -1    0    0  501    0  0.00000000000E+00 -0.00000000000E+00 -0.61509903854E+02  0.61523013353E+02  0.12700000000E+01 0.  1.
         25    2    1    2    0    0  0.00000000000E+00  0.00000000000E+00  0.19820675045E+01  0.12502768505E+03  0.12501197317E+03 0.  0.
    9000005    1    3    3    0    0 -0.29456042539E+01 -0.46707196481E+02  0.42417968012E+02  0.63170584910E+02  0.10000000000E+01 0.  0.
    9000005    1    3    3    0    0  0.29456042539E+01  0.46707196481E+02 -0.40435900507E+02  0.61857100137E+02  0.10000000000E+01 0.  0.
<mgrwt>
<rscale>  0 0.12501197E+03</rscale>
<asrwt>0</asrwt>
<pdfrwt beam="2">  1        4 0.94650475E-02 0.12501197E+03</pdfrwt>
<pdfrwt beam="1">  1       -4 0.97699810E-02 0.12501197E+03</pdfrwt>
<totfact> 0.10449433E+04</totfact>
</mgrwt>
</event>
<event>
 5    1  0.3312904E-002  0.1249998E+03  0.7818608E-02  0.1235070E+00
          4   -1    0    0  501    0  0.00000000000E+00  0.00000000000E+00  0.51653032403E+03  0.51653188531E+03  0.12700000000E+01 0. -1.
         -4   -1    0    0    0  501 -0.00000000000E+00 -0.00000000000E+00 -0.75075571776E+01  0.76142179359E+01  0.12700000000E+01 0. -1.
         25    2    1    2    0    0  0.00000000000E+00  0.00000000000E+00  0.50902276685E+03  0.52414610324E+03  0.12499984150E+03 0.  0.
    9000005    1    3    3    0    0  0.39716663773E+02  0.47974790387E+02  0.27599345271E+03  0.28293529266E+03  0.10000000000E+01 0.  0.
    9000005    1    3    3    0    0 -0.39716663773E+02 -0.47974790387E+02  0.23302931414E+03  0.24121081059E+03  0.10000000000E+01 0.  0.
<mgrwt>
<rscale>  0 0.12499984E+03</rscale>
<asrwt>0</asrwt>
<pdfrwt beam="1">  1        4 0.79474568E-01 0.12499984E+03</pdfrwt>
<pdfrwt beam="2">  1       -4 0.11633330E-02 0.12499984E+03</pdfrwt>
<totfact> 0.54038585E+03</totfact>
</mgrwt>
</event>
<event>
 5    1  0.3312904E-002  0.1250000E+03  0.7818608E-02  0.1235069E+00
          4   -1    0    0  501    0  0.00000000000E+00  0.00000000000E+00  0.10883759242E+02  0.10957605361E+02  0.12700000000E+01 0. -1.
         -4   -1    0    0    0  501 -0.00000000000E+00 -0.00000000000E+00 -0.35761782426E+03  0.35762007932E+03  0.12700000000E+01 0. -1.
         25    2    1    2    0    0  0.00000000000E+00  0.00000000000E+00 -0.34673406502E+03  0.36857768468E+03  0.12499999119E+03 0.  0.
    9000005    1    3    3    0    0 -0.19942393108E+02 -0.55073913914E+02 -0.23759112738E+03  0.24470672007E+03  0.10000000000E+01 0.  0.
    9000005    1    3    3    0    0  0.19942393108E+02  0.55073913914E+02 -0.10914293764E+03  0.12387096461E+03  0.10000000000E+01 0.  0.
<mgrwt>
<rscale>  0 0.12499999E+03</rscale>
<asrwt>0</asrwt>
<pdfrwt beam="1">  1        4 0.16802787E-02 0.12499999E+03</pdfrwt>
<pdfrwt beam="2">  1       -4 0.55023972E-01 0.12499999E+03</pdfrwt>
<totfact> 0.67728018E+03</totfact>
</mgrwt>
</event>
<event>
 5    1  0.3312904E-002  0.1250014E+03  0.7818608E-02  0.1235067E+00
          4   -1    0    0  501    0  0.00000000000E+00  0.00000000000E+00  0.40839448569E+03  0.40839646037E+03  0.12700000000E+01 0. -1.
         -4   -1    0    0    0  501 -0.00000000000E+00 -0.00000000000E+00 -0.95209476630E+01  0.96052769040E+01  0.12700000000E+01 0. -1.
         25    2    1    2    0    0  0.00000000000E+00  0.00000000000E+00  0.39887353803E+03  0.41800173727E+03  0.12500141209E+03 0.  0.
    9000005    1    3    3    0    0 -0.42934706123E+02  0.42219752195E+02  0.25533638775E+03  0.26234246201E+03  0.10000000000E+01 0.  0.
    9000005    1    3    3    0    0  0.42934706123E+02 -0.42219752195E+02  0.14353715028E+03  0.15565927526E+03  0.10000000000E+01 0.  0.
<mgrwt>
<rscale>  0 0.12500141E+03</rscale>
<asrwt>0</asrwt>
<pdfrwt beam="1">  1        4 0.62836554E-01 0.12500141E+03</pdfrwt>
<pdfrwt beam="2">  1       -4 0.14714001E-02 0.12500141E+03</pdfrwt>
<totfact> 0.62836870E+03</totfact>
</mgrwt>
</event>
<event>
 5    1  0.3312904E-002  0.1250362E+03  0.7818608E-02  0.1235013E+00
          4   -1    0    0  501    0  0.00000000000E+00  0.00000000000E+00  0.76399967602E+02  0.76410522506E+02  0.12700000000E+01 0.  1.
         -4   -1    0    0    0  501 -0.00000000000E+00 -0.00000000000E+00 -0.51136567904E+02  0.51152335987E+02  0.12700000000E+01 0.  1.
         25    2    1    2    0    0  0.00000000000E+00  0.00000000000E+00  0.25263399699E+02  0.12756285849E+03  0.12503616878E+03 0.  0.
    9000005    1    3    3    0    0 -0.62029425355E+02 -0.11948352827E+01  0.48330389951E+01  0.62236930412E+02  0.10000000000E+01 0.  0.
    9000005    1    3    3    0    0  0.62029425355E+02  0.11948352827E+01  0.20430360703E+02  0.65325928081E+02  0.10000000000E+01 0.  0.
<mgrwt>
<rscale>  0 0.12503617E+03</rscale>
<asrwt>0</asrwt>
<pdfrwt beam="1">  1        4 0.11755866E-01 0.12503617E+03</pdfrwt>
<pdfrwt beam="2">  1       -4 0.78691891E-02 0.12503617E+03</pdfrwt>
<totfact> 0.10388455E+04</totfact>
</mgrwt>
</event>
<event>
 5    1  0.3312904E-002  0.1249953E+03  0.7818608E-02  0.1235077E+00
          4   -1    0    0  501    0  0.00000000000E+00  0.00000000000E+00  0.17831583744E+04  0.17831588267E+04  0.12700000000E+01 0.  1.
         -4   -1    0    0    0  501 -0.00000000000E+00 -0.00000000000E+00 -0.20058983917E+01  0.23741373923E+01  0.12700000000E+01 0.  1.
         25    2    1    2    0    0  0.00000000000E+00  0.00000000000E+00  0.17811524761E+04  0.17855329641E+04  0.12499529161E+03 0.  0.
    9000005    1    3    3    0    0 -0.59095608120E+01 -0.12438398088E+02  0.19868754705E+02  0.24195124913E+02  0.10000000000E+01 0.  0.
    9000005    1    3    3    0    0  0.59095608120E+01  0.12438398088E+02  0.17612837214E+04  0.17613378392E+04  0.10000000000E+01 0.  0.
<mgrwt>
<rscale>  0 0.12499529E+03</rscale>
<asrwt>0</asrwt>
<pdfrwt beam="1">  1        4 0.27435924E+00 0.12499529E+03</pdfrwt>
<pdfrwt beam="2">  1       -4 0.33696207E-03 0.12499529E+03</pdfrwt>
<totfact> 0.12929151E+03</totfact>
</mgrwt>
</event>
<event>
 5    1  0.3312904E-002  0.1250010E+03  0.7818608E-02  0.1235068E+00
         -4   -1    0    0    0  501 -0.00000000000E+00  0.00000000000E+00  0.21689151212E+04  0.21689154930E+04  0.12700000000E+01 0.  1.
          4   -1    0    0  501    0  0.00000000000E+00 -0.00000000000E+00 -0.15767426824E+01  0.20246030442E+01  0.12700000000E+01 0.  1.
         25    2    1    2    0    0  0.00000000000E+00  0.00000000000E+00  0.21673383785E+04  0.21709400960E+04  0.12500101484E+03 0.  0.
    9000005    1    3    3    0    0  0.49451181696E+01 -0.42215461551E+02  0.18792987948E+04  0.18797796571E+04  0.10000000000E+01 0.  0.
    9000005    1    3    3    0    0 -0.49451181696E+01  0.42215461551E+02  0.28803958372E+03  0.29116043889E+03  0.10000000000E+01 0.  0.
<mgrwt>
<rscale>  0 0.12500101E+03</rscale>
<asrwt>0</asrwt>
<pdfrwt beam="2">  1        4 0.27705374E-03 0.12500101E+03</pdfrwt>
<pdfrwt beam="1">  1       -4 0.33371548E+00 0.12500101E+03</pdfrwt>
<totfact> 0.77915281E+02</totfact>
</mgrwt>
</event>
<event>
 5    1  0.3312904E-002  0.1250039E+03  0.7818608E-02  0.1235063E+00
         -4   -1    0    0    0  501 -0.00000000000E+00  0.00000000000E+00  0.25239012462E+02  0.25270944780E+02  0.12700000000E+01 0. -1.
          4   -1    0    0  501    0  0.00000000000E+00 -0.00000000000E+00 -0.15464761047E+03  0.15465282514E+03  0.12700000000E+01 0. -1.
         25    2    1    2    0    0  0.00000000000E+00  0.00000000000E+00 -0.12940859801E+03  0.17992376992E+03  0.12500391092E+03 0.  0.
    9000005    1    3    3    0    0 -0.18426506842E+02  0.24740500108E+02  0.13523359607E+02  0.33697325637E+02  0.10000000000E+01 0.  0.
    9000005    1    3    3    0    0  0.18426506842E+02 -0.24740500108E+02 -0.14293195762E+03  0.14622644429E+03  0.10000000000E+01 0.  0.
<mgrwt>
<rscale>  0 0.12500391E+03</rscale>
<asrwt>0</asrwt>
<pdfrwt beam="2">  1        4 0.23794797E-01 0.12500391E+03</pdfrwt>
<pdfrwt beam="1">  1       -4 0.38857826E-02 0.12500391E+03</pdfrwt>
<totfact> 0.93622517E+03</totfact>
</mgrwt>
</event>
<event>
 5    1  0.3312904E-002  0.1249996E+03  0.7818608E-02  0.1235070E+00
         -4   -1    0    0    0  501 -0.00000000000E+00  0.00000000000E+00  0.17544430305E+03  0.17544889961E+03  0.12700000000E+01 0. -1.
          4   -1    0    0  501    0  0.00000000000E+00 -0.00000000000E+00 -0.22241772310E+02  0.22278001156E+02  0.12700000000E+01 0. -1.
         25    2    1    2    0    0  0.00000000000E+00  0.00000000000E+00  0.15320253074E+03  0.19772690076E+03  0.12499964744E+03 0.  0.
    9000005    1    3    3    0    0  0.16427393528E+02  0.46080315754E+02  0.15093631764E+02  0.51206176170E+02  0.10000000000E+01 0.  0.
    9000005    1    3    3    0    0 -0.16427393528E+02 -0.46080315754E+02  0.13810889898E+03  0.14652072459E+03  0.10000000000E+01 0.  0.
<mgrwt>
<rscale>  0 0.12499965E+03</rscale>
<asrwt>0</asrwt>
<pdfrwt beam="2">  1        4 0.34249517E-02 0.12499965E+03</pdfrwt>
<pdfrwt beam="1">  1       -4 0.26994570E-01 0.12499965E+03</pdfrwt>
<totfact> 0.90520685E+03</totfact>
</mgrwt>
</event>
<event>
 5    1  0.3312904E-002  0.1249998E+03  0.7818608E-02  0.1235070E+00
         -4   -1    0    0    0  501 -0.00000000000E+00  0.00000000000E+00  0.22982296146E+04  0.22982299655E+04  0.12700000000E+01 0.  1.
          4   -1    0    0  501    0  0.00000000000E+00 -0.00000000000E+00 -0.14620342044E+01  0.19366063139E+01  0.12700000000E+01 0.  1.
         25    2    1    2    0    0  0.00000000000E+00  0.00000000000E+00  0.22967675803E+04  0.23001665718E+04  0.12499975894E+03 0.  0.
    9000005    1    3    3    0    0 -0.14973991239E+02  0.49191654121E+02  0.49489017279E+03  0.49755534604E+03  0.10000000000E+01 0.  0.
    9000005    1    3    3    0    0  0.14973991239E+02 -0.49191654121E+02  0.18018774076E+04  0.18026112257E+04  0.10000000000E+01 0.  0.
<mgrwt>
<rscale>  0 0.12499976E+03</rscale>
<asrwt>0</asrwt>
<pdfrwt beam="2">  1        4 0.26145953E-03 0.12499976E+03</pdfrwt>
<pdfrwt beam="1">  1       -4 0.35361215E+00 0.12499976E+03</pdfrwt>
<totfact> 0.64345407E+02</totfact>
</mgrwt>
</event>
<event>
 5    1  0.3312904E-002  0.1250006E+03  0.7818608E-02  0.1235068E+00
         -4   -1    0    0    0  501 -0.00000000000E+00  0.00000000000E+00  0.37795865994E+01  0.39872515424E+01  0.12700000000E+01 0. -1.
          4   -1    0    0  501    0  0.00000000000E+00 -0.00000000000E+00 -0.10056812067E+04  0.10056820086E+04  0.12700000000E+01 0. -1.
         25    2    1    2    0    0  0.00000000000E+00  0.00000000000E+00 -0.10019016201E+04  0.10096692602E+04  0.12500063402E+03 0.  0.
    9000005    1    3    3    0    0 -0.35951933610E+02 -0.11232884381E+02 -0.90373025449E+03  0.90451539075E+03  0.10000000000E+01 0.  0.
    9000005    1    3    3    0    0  0.35951933610E+02  0.11232884381E+02 -0.98171365658E+02  0.10515386943E+03  0.10000000000E+01 0.  0.
<mgrwt>
<rscale>  0 0.12500063E+03</rscale>
<asrwt>0</asrwt>
<pdfrwt beam="2">  1        4 0.15473601E+00 0.12500063E+03</pdfrwt>
<pdfrwt beam="1">  1       -4 0.59751157E-03 0.12500063E+03</pdfrwt>
<totfact> 0.30286957E+03</totfact>
</mgrwt>
</event>
<event>
 5    1  0.3312904E-002  0.1250007E+03  0.7818608E-02  0.1235068E+00
         -4   -1    0    0    0  501 -0.00000000000E+00  0.00000000000E+00  0.13573544977E+02  0.13632828878E+02  0.12700000000E+01 0.  1.
          4   -1    0    0  501    0  0.00000000000E+00 -0.00000000000E+00 -0.28709956868E+03  0.28710237762E+03  0.12700000000E+01 0.  1.
         25    2    1    2    0    0  0.00000000000E+00  0.00000000000E+00 -0.27352602370E+03  0.30073520650E+03  0.12500071514E+03 0.  0.
    9000005    1    3    3    0    0  0.53973502279E+02  0.11391435001E+02 -0.20741491620E+03  0.21462723779E+03  0.10000000000E+01 0.  0.
    9000005    1    3    3    0    0 -0.53973502279E+02 -0.11391435001E+02 -0.66111107498E+02  0.86107968704E+02  0.10000000000E+01 0.  0.
<mgrwt>
<rscale>  0 0.12500072E+03</rscale>
<asrwt>0</asrwt>
<pdfrwt beam="2">  1        4 0.44173936E-01 0.12500072E+03</pdfrwt>
<pdfrwt beam="1">  1       -4 0.20930143E-02 0.12500072E+03</pdfrwt>
<totfact> 0.75505511E+03</totfact>
</mgrwt>
</event>
<event>
 5    1  0.3312904E-002  0.1250027E+03  0.7818608E-02  0.1235065E+00
         -4   -1    0    0    0  501 -0.00000000000E+00  0.00000000000E+00  0.12663730454E+02  0.12727253003E+02  0.12700000000E+01 0.  1.
          4   -1    0    0  501    0  0.00000000000E+00 -0.00000000000E+00 -0.30763660137E+03  0.30763922279E+03  0.12700000000E+01 0.  1.
         25    2    1    2    0    0  0.00000000000E+00  0.00000000000E+00 -0.29497287092E+03  0.32036647580E+03  0.12500273693E+03 0.  0.
    9000005    1    3    3    0    0 -0.39331406982E+02 -0.91635495481E+01 -0.25258735812E+02  0.47643823842E+02  0.10000000000E+01 0.  0.
    9000005    1    3    3    0    0  0.39331406982E+02  0.91635495481E+01 -0.26971413510E+03  0.27272265196E+03  0.10000000000E+01 0.  0.
<mgrwt>
<rscale>  0 0.12500274E+03</rscale>
<asrwt>0</asrwt>
<pdfrwt beam="2">  1        4 0.47333790E-01 0.12500274E+03</pdfrwt>
<pdfrwt beam="1">  1       -4 0.19533545E-02 0.12500274E+03</pdfrwt>
<totfact> 0.73108126E+03</totfact>
</mgrwt>
</event>
<event>
 5    1  0.3312904E-002  0.1249984E+03  0.7818608E-02  0.1235072E+00
          4   -1    0    0  501    0  0.00000000000E+00  0.00000000000E+00  0.47031879222E+03  0.47032050691E+03  0.12700000000E+01 0.  1.
         -4   -1    0    0    0  501 -0.00000000000E+00 -0.00000000000E+00 -0.82550282774E+01  0.83521489367E+01  0.12700000000E+01 0.  1.
         25    2    1    2    0    0  0.00000000000E+00  0.00000000000E+00  0.46206376394E+03  0.47867265584E+03  0.12499835800E+03 0.  0.
    9000005    1    3    3    0    0 -0.46049764105E+02  0.41990057504E+02  0.21331618820E+03  0.22223532989E+03  0.10000000000E+01 0.  0.
    9000005    1    3    3    0    0  0.46049764105E+02 -0.41990057504E+02  0.24874757575E+03  0.25643732595E+03  0.10000000000E+01 0.  0.
<mgrwt>
<rscale>  0 0.12499836E+03</rscale>
<asrwt>0</asrwt>
<pdfrwt beam="1">  1        4 0.72364346E-01 0.12499836E+03</pdfrwt>
<pdfrwt beam="2">  1       -4 0.12776070E-02 0.12499836E+03</pdfrwt>
<totfact> 0.57560001E+03</totfact>
</mgrwt>
</event>
<event>
 5    1  0.3312904E-002  0.1250043E+03  0.7818608E-02  0.1235063E+00
          4   -1    0    0  501    0  0.00000000000E+00  0.00000000000E+00  0.19182417286E+03  0.19182837692E+03  0.12700000000E+01 0.  1.
         -4   -1    0    0    0  501 -0.00000000000E+00 -0.00000000000E+00 -0.20340865571E+02  0.20380473797E+02  0.12700000000E+01 0.  1.
         25    2    1    2    0    0  0.00000000000E+00  0.00000000000E+00  0.17148330729E+03  0.21220885072E+03  0.12500428651E+03 0.  0.
    9000005    1    3    3    0    0 -0.50224009123E+02  0.20958207916E+02  0.13789512901E+03  0.14824899385E+03  0.10000000000E+01 0.  0.
    9000005    1    3    3    0    0  0.50224009123E+02 -0.20958207916E+02  0.33588178276E+02  0.63959856873E+02  0.10000000000E+01 0.  0.
<mgrwt>
<rscale>  0 0.12500429E+03</rscale>
<asrwt>0</asrwt>
<pdfrwt beam="1">  1        4 0.29514781E-01 0.12500429E+03</pdfrwt>
<pdfrwt beam="2">  1       -4 0.31327341E-02 0.12500429E+03</pdfrwt>
<totfact> 0.88107970E+03</totfact>
</mgrwt>
</event>
<event>
 4    1  0.3312904E-002  0.1252490E+03  0.7818608E-02  0.1234681E+00
         -4   -1    0    0    0  501 -0.00000000000E+00  0.00000000000E+00  0.17275424454E+02  0.17322043473E+02  0.12700000000E+01 0.  1.
          4   -1    0    0  501    0  0.00000000000E+00 -0.00000000000E+00 -0.22666342400E+03  0.22666698189E+03  0.12700000000E+01 0.  1.
    9000005    1    1    2    0    0 -0.47654224848E+02  0.40516417702E+02 -0.11031375482E+03  0.12681730857E+03  0.10000000000E+01 0.  0.
    9000005    1    1    2    0    0  0.47654224848E+02 -0.40516417702E+02 -0.99074244722E+02  0.11717171679E+03  0.10000000000E+01 0.  0.
<mgrwt>
<rscale>  0 0.12524899E+03</rscale>
<asrwt>0</asrwt>
<pdfrwt beam="2">  1        4 0.34875154E-01 0.12524899E+03</pdfrwt>
<pdfrwt beam="1">  1       -4 0.26616175E-02 0.12524899E+03</pdfrwt>
<totfact> 0.82746787E+03</totfact>
</mgrwt>
</event>
<event>
 5    1  0.3312904E-002  0.1250059E+03  0.7818608E-02  0.1235060E+00
          4   -1    0    0  501    0  0.00000000000E+00  0.00000000000E+00  0.15041365493E+03  0.15041901638E+03  0.12700000000E+01 0.  1.
         -4   -1    0    0    0  501 -0.00000000000E+00 -0.00000000000E+00 -0.25951160062E+02  0.25982217161E+02  0.12700000000E+01 0.  1.
         25    2    1    2    0    0  0.00000000000E+00  0.00000000000E+00  0.12446249487E+03  0.17640123354E+03  0.12500593013E+03 0.  0.
    9000005    1    3    3    0    0  0.27064715508E+02  0.88284651773E+01 -0.16276760630E+02  0.32808132521E+02  0.10000000000E+01 0.  0.
    9000005    1    3    3    0    0 -0.27064715508E+02 -0.88284651773E+01  0.14073925550E+03  0.14359310102E+03  0.10000000000E+01 0.  0.
<mgrwt>
<rscale>  0 0.12500593E+03</rscale>
<asrwt>0</asrwt>
<pdfrwt beam="1">  1        4 0.23143363E-01 0.12500593E+03</pdfrwt>
<pdfrwt beam="2">  1       -4 0.39952877E-02 0.12500593E+03</pdfrwt>
<totfact> 0.94256295E+03</totfact>
</mgrwt>
</event>
<event>
 5    1  0.3312904E-002  0.1249999E+03  0.7818608E-02  0.1235069E+00
          4   -1    0    0  501    0  0.00000000000E+00  0.00000000000E+00  0.11050028725E+03  0.11050758518E+03  0.12700000000E+01 0. -1.
         -4   -1    0    0    0  501 -0.00000000000E+00 -0.00000000000E+00 -0.35330643239E+02  0.35353461665E+02  0.12700000000E+01 0. -1.
         25    2    1    2    0    0  0.00000000000E+00  0.00000000000E+00  0.75169644012E+02  0.14586104685E+03  0.12499987843E+03 0.  0.
    9000005    1    3    3    0    0  0.99654015163E+01 -0.30910633167E+02  0.99884766958E+02  0.10503686563E+03  0.10000000000E+01 0.  0.
    9000005    1    3    3    0    0 -0.99654015163E+01  0.30910633167E+02 -0.24715122946E+02  0.40824181221E+02  0.10000000000E+01 0.  0.
<mgrwt>
<rscale>  0 0.12499988E+03</rscale>
<asrwt>0</asrwt>
<pdfrwt beam="1">  1        4 0.17002361E-01 0.12499988E+03</pdfrwt>
<pdfrwt beam="2">  1       -4 0.54378001E-02 0.12499988E+03</pdfrwt>
<totfact> 0.10013551E+04</totfact>
</mgrwt>
</event>
<event>
 5    1  0.3312904E-002  0.1249973E+03  0.7818608E-02  0.1235073E+00
         -4   -1    0    0    0  501 -0.00000000000E+00  0.00000000000E+00  0.12337751409E+03  0.12338405036E+03  0.12700000000E+01 0. -1.
          4   -1    0    0  501    0  0.00000000000E+00 -0.00000000000E+00 -0.31639481813E+02  0.31664960278E+02  0.12700000000E+01 0. -1.
         25    2    1    2    0    0  0.00000000000E+00  0.00000000000E+00  0.91738032274E+02  0.15504901063E+03  0.12499731650E+03 0.  0.
    9000005    1    3    3    0    0 -0.13777295106E+02  0.46594830462E+02  0.94612740068E+02  0.10636476235E+03  0.10000000000E+01 0.  0.
    9000005    1    3    3    0    0  0.13777295106E+02 -0.46594830462E+02 -0.28747077938E+01  0.48684248286E+02  0.10000000000E+01 0.  0.
<mgrwt>
<rscale>  0 0.12499732E+03</rscale>
<asrwt>0</asrwt>
<pdfrwt beam="2">  1        4 0.48700753E-02 0.12499732E+03</pdfrwt>
<pdfrwt beam="1">  1       -4 0.18983619E-01 0.12499732E+03</pdfrwt>
<totfact> 0.98311811E+03</totfact>
</mgrwt>
</event>
<event>
 5    1  0.3312904E-002  0.1249999E+03  0.7818608E-02  0.1235069E+00
         -4   -1    0    0    0  501 -0.00000000000E+00  0.00000000000E+00  0.12218524283E+02  0.12284349216E+02  0.12700000000E+01 0. -1.
          4   -1    0    0  501    0  0.00000000000E+00 -0.00000000000E+00 -0.31877262872E+03  0.31877515857E+03  0.12700000000E+01 0. -1.
         25    2    1    2    0    0  0.00000000000E+00  0.00000000000E+00 -0.30655410444E+03  0.33105950779E+03  0.12499991499E+03 0.  0.
    9000005    1    3    3    0    0  0.55902980245E+02  0.10713602881E+02 -0.84962739719E+02  0.10227214492E+03  0.10000000000E+01 0.  0.
    9000005    1    3    3    0    0 -0.55902980245E+02 -0.10713602881E+02 -0.22159136472E+03  0.22878736286E+03  0.10000000000E+01 0.  0.
<mgrwt>
<rscale>  0 0.12499991E+03</rscale>
<asrwt>0</asrwt>
<pdfrwt beam="2">  1        4 0.49047195E-01 0.12499991E+03</pdfrwt>
<pdfrwt beam="1">  1       -4 0.18850313E-02 0.12499991E+03</pdfrwt>
<totfact> 0.71859906E+03</totfact>
</mgrwt>
</event>
<event>
 5    1  0.3312904E-002  0.1250084E+03  0.7818608E-02  0.1235056E+00
         -4   -1    0    0    0  501 -0.00000000000E+00  0.00000000000E+00  0.23847300561E+02  0.23881093862E+02  0.12700000000E+01 0. -1.
          4   -1    0    0  501    0  0.00000000000E+00 -0.00000000000E+00 -0.16367226599E+03  0.16367719314E+03  0.12700000000E+01 0. -1.
         25    2    1    2    0    0  0.00000000000E+00  0.00000000000E+00 -0.13982496543E+03  0.18755828700E+03  0.12500835998E+03 0.  0.
    9000005    1    3    3    0    0 -0.18191177000E+02 -0.58380139565E+02 -0.50545966133E+02  0.79341378288E+02  0.10000000000E+01 0.  0.
    9000005    1    3    3    0    0  0.18191177000E+02  0.58380139565E+02 -0.89278999296E+02  0.10821690871E+03  0.10000000000E+01 0.  0.
<mgrwt>
<rscale>  0 0.12500836E+03</rscale>
<asrwt>0</asrwt>
<pdfrwt beam="2">  1        4 0.25183326E-01 0.12500836E+03</pdfrwt>
<pdfrwt beam="1">  1       -4 0.36717941E-02 0.12500836E+03</pdfrwt>
<totfact> 0.92256627E+03</totfact>
</mgrwt>
</event>
<event>
 5    1  0.3312904E-002  0.1250079E+03  0.7818608E-02  0.1235057E+00
          4   -1    0    0  501    0  0.00000000000E+00  0.00000000000E+00  0.37477387294E+02  0.37498899429E+02  0.12700000000E+01 0.  1.
         -4   -1    0    0    0  501 -0.00000000000E+00 -0.00000000000E+00 -0.10418745445E+03  0.10419519454E+03  0.12700000000E+01 0.  1.
         25    2    1    2    0    0  0.00000000000E+00  0.00000000000E+00 -0.66710067157E+02  0.14169409397E+03  0.12500793257E+03 0.  0.
    9000005    1    3    3    0    0  0.20977533093E+02 -0.43835797768E+02 -0.77895374656E+02  0.91816792873E+02  0.10000000000E+01 0.  0.
    9000005    1    3    3    0    0 -0.20977533093E+02  0.43835797768E+02  0.11185307499E+02  0.49877301095E+02  0.10000000000E+01 0.  0.
<mgrwt>
<rscale>  0 0.12500793E+03</rscale>
<asrwt>0</asrwt>
<pdfrwt beam="1">  1        4 0.57680021E-02 0.12500793E+03</pdfrwt>
<pdfrwt beam="2">  1       -4 0.16031089E-01 0.12500793E+03</pdfrwt>
<totfact> 0.10096791E+04</totfact>
</mgrwt>
</event>
<event>
 5    1  0.3312904E-002  0.1249971E+03  0.7818608E-02  0.1235074E+00
         -4   -1    0    0    0  501 -0.00000000000E+00  0.00000000000E+00  0.93640458358E+02  0.93649070158E+02  0.12700000000E+01 0. -1.
          4   -1    0    0  501    0  0.00000000000E+00 -0.00000000000E+00 -0.41693273864E+02  0.41712611828E+02  0.12700000000E+01 0. -1.
         25    2    1    2    0    0  0.00000000000E+00  0.00000000000E+00  0.51947184493E+02  0.13536168199E+03  0.12499709986E+03 0.  0.
    9000005    1    3    3    0    0 -0.57880381978E+02  0.23542435758E+02  0.25078074225E+02  0.67337171801E+02  0.10000000000E+01 0.  0.
    9000005    1    3    3    0    0  0.57880381978E+02 -0.23542435758E+02  0.26869110268E+02  0.68024510185E+02  0.10000000000E+01 0.  0.
<mgrwt>
<rscale>  0 0.12499710E+03</rscale>
<asrwt>0</asrwt>
<pdfrwt beam="2">  1        4 0.64164998E-02 0.12499710E+03</pdfrwt>
<pdfrwt beam="1">  1       -4 0.14408374E-01 0.12499710E+03</pdfrwt>
<totfact> 0.10231122E+04</totfact>
</mgrwt>
</event>
<event>
 5    1  0.3312904E-002  0.1249959E+03  0.7818608E-02  0.1235076E+00
         -4   -1    0    0    0  501 -0.00000000000E+00  0.00000000000E+00  0.20622418690E+02  0.20661487184E+02  0.12700000000E+01 0. -1.
          4   -1    0    0  501    0  0.00000000000E+00 -0.00000000000E+00 -0.18918465244E+03  0.18918891516E+03  0.12700000000E+01 0. -1.
         25    2    1    2    0    0  0.00000000000E+00  0.00000000000E+00 -0.16856223375E+03  0.20985040235E+03  0.12499585880E+03 0.  0.
    9000005    1    3    3    0    0 -0.17202639761E+02 -0.46689516647E+02 -0.14774885149E+03  0.15590562817E+03  0.10000000000E+01 0.  0.
    9000005    1    3    3    0    0  0.17202639761E+02  0.46689516647E+02 -0.20813382266E+02  0.53944774175E+02  0.10000000000E+01 0.  0.
<mgrwt>
<rscale>  0 0.12499586E+03</rscale>
<asrwt>0</asrwt>
<pdfrwt beam="2">  1        4 0.29108663E-01 0.12499586E+03</pdfrwt>
<pdfrwt beam="1">  1       -4 0.31760131E-02 0.12499586E+03</pdfrwt>
<totfact> 0.88508513E+03</totfact>
</mgrwt>
</event>
<event>
 5    1  0.3312904E-002  0.1250006E+03  0.7818608E-02  0.1235068E+00
         -4   -1    0    0    0  501 -0.00000000000E+00  0.00000000000E+00  0.74705647644E+03  0.74705755594E+03  0.12700000000E+01 0.  1.
          4   -1    0    0  501    0  0.00000000000E+00 -0.00000000000E+00 -0.51506880546E+01  0.53049493340E+01  0.12700000000E+01 0.  1.
         25    2    1    2    0    0  0.00000000000E+00  0.00000000000E+00  0.74190578838E+03  0.75236250528E+03  0.12500056202E+03 0.  0.
    9000005    1    3    3    0    0 -0.42891561463E+02 -0.35346055691E+02  0.19899258408E+03  0.20661093440E+03  0.10000000000E+01 0.  0.
    9000005    1    3    3    0    0  0.42891561463E+02  0.35346055691E+02  0.54291320431E+03  0.54575157087E+03  0.10000000000E+01 0.  0.
<mgrwt>
<rscale>  0 0.12500056E+03</rscale>
<asrwt>0</asrwt>
<pdfrwt beam="2">  1        4 0.80436355E-03 0.12500056E+03</pdfrwt>
<pdfrwt beam="1">  1       -4 0.11494361E+00 0.12500056E+03</pdfrwt>
<totfact> 0.40460924E+03</totfact>
</mgrwt>
</event>
<event>
 5    1  0.3312904E-002  0.1250002E+03  0.7818608E-02  0.1235069E+00
          4   -1    0    0  501    0  0.00000000000E+00  0.00000000000E+00  0.45582086969E+02  0.45599775794E+02  0.12700000000E+01 0.  1.
         -4   -1    0    0    0  501 -0.00000000000E+00 -0.00000000000E+00 -0.85658294463E+02  0.85667708679E+02  0.12700000000E+01 0.  1.
         25    2    1    2    0    0  0.00000000000E+00  0.00000000000E+00 -0.40076207494E+02  0.13126748447E+03  0.12500020029E+03 0.  0.
    9000005    1    3    3    0    0  0.50452880632E+02 -0.36731311966E+02 -0.16622316327E+02  0.64590895975E+02  0.10000000000E+01 0.  0.
    9000005    1    3    3    0    0 -0.50452880632E+02  0.36731311966E+02 -0.23453891167E+02  0.66676588498E+02  0.10000000000E+01 0.  0.
<mgrwt>
<rscale>  0 0.12500020E+03</rscale>
<asrwt>0</asrwt>
<pdfrwt beam="1">  1        4 0.70147136E-02 0.12500020E+03</pdfrwt>
<pdfrwt beam="2">  1       -4 0.13180284E-01 0.12500020E+03</pdfrwt>
<totfact> 0.10317312E+04</totfact>
</mgrwt>
</event>
<event>
 5    1  0.3312904E-002  0.1249995E+03  0.7818608E-02  0.1235070E+00
          4   -1    0    0  501    0  0.00000000000E+00  0.00000000000E+00  0.30545310256E+03  0.30545574273E+03  0.12700000000E+01 0. -1.
         -4   -1    0    0    0  501 -0.00000000000E+00 -0.00000000000E+00 -0.12754039138E+02  0.12817114119E+02  0.12700000000E+01 0. -1.
         25    2    1    2    0    0  0.00000000000E+00  0.00000000000E+00  0.29269906343E+03  0.31827285685E+03  0.12499947870E+03 0.  0.
    9000005    1    3    3    0    0 -0.46643466088E+02 -0.39444421047E+02  0.17991123410E+03  0.19000138798E+03  0.10000000000E+01 0.  0.
    9000005    1    3    3    0    0  0.46643466088E+02  0.39444421047E+02  0.11278782933E+03  0.12827146887E+03  0.10000000000E+01 0.  0.
<mgrwt>
<rscale>  0 0.12499948E+03</rscale>
<asrwt>0</asrwt>
<pdfrwt beam="1">  1        4 0.46997835E-01 0.12499948E+03</pdfrwt>
<pdfrwt beam="2">  1       -4 0.19672151E-02 0.12499948E+03</pdfrwt>
<totfact> 0.73362868E+03</totfact>
</mgrwt>
</event>
<event>
 5    1  0.3312904E-002  0.1250003E+03  0.7818608E-02  0.1235069E+00
          4   -1    0    0  501    0  0.00000000000E+00  0.00000000000E+00  0.70868531482E+02  0.70879910091E+02  0.12700000000E+01 0. -1.
         -4   -1    0    0    0  501 -0.00000000000E+00 -0.00000000000E+00 -0.55096799806E+02  0.55111434828E+02  0.12700000000E+01 0. -1.
         25    2    1    2    0    0  0.00000000000E+00  0.00000000000E+00  0.15771731677E+02  0.12599134492E+03  0.12500028590E+03 0.  0.
    9000005    1    3    3    0    0  0.25836135897E+02  0.11173165988E+02  0.64121791320E+02  0.70035345922E+02  0.10000000000E+01 0.  0.
    9000005    1    3    3    0    0 -0.25836135897E+02 -0.11173165988E+02 -0.48350059643E+02  0.55955998997E+02  0.10000000000E+01 0.  0.
<mgrwt>
<rscale>  0 0.12500029E+03</rscale>
<asrwt>0</asrwt>
<pdfrwt beam="1">  1        4 0.10904852E-01 0.12500029E+03</pdfrwt>
<pdfrwt beam="2">  1       -4 0.84784317E-02 0.12500029E+03</pdfrwt>
<totfact> 0.10431079E+04</totfact>
</mgrwt>
</event>
<event>
 5    1  0.3312904E-002  0.1249918E+03  0.7818608E-02  0.1235082E+00
          4   -1    0    0  501    0  0.00000000000E+00  0.00000000000E+00  0.40105520588E+01  0.42068310896E+01  0.12700000000E+01 0.  1.
         -4   -1    0    0    0  501 -0.00000000000E+00 -0.00000000000E+00 -0.95040666749E+03  0.95040751602E+03  0.12700000000E+01 0.  1.
         25    2    1    2    0    0  0.00000000000E+00  0.00000000000E+00 -0.94639611543E+03  0.95461434711E+03  0.12499177735E+03 0.  0.
    9000005    1    3    3    0    0 -0.27518762475E+02  0.54312999739E+02 -0.58054436002E+03  0.58372933641E+03  0.10000000000E+01 0.  0.
    9000005    1    3    3    0    0  0.27518762475E+02 -0.54312999739E+02 -0.36585175541E+03  0.37088501071E+03  0.10000000000E+01 0.  0.
<mgrwt>
<rscale>  0 0.12499178E+03</rscale>
<asrwt>0</asrwt>
<pdfrwt beam="1">  1        4 0.63217242E-03 0.12499178E+03</pdfrwt>
<pdfrwt beam="2">  1       -4 0.14623140E+00 0.12499178E+03</pdfrwt>
<totfact> 0.32158514E+03</totfact>
</mgrwt>
</event>
<event>
 5    1  0.3312904E-002  0.1250069E+03  0.7818608E-02  0.1235059E+00
          4   -1    0    0  501    0  0.00000000000E+00  0.00000000000E+00  0.13145084058E+03  0.13145697543E+03  0.12700000000E+01 0. -1.
         -4   -1    0    0    0  501 -0.00000000000E+00 -0.00000000000E+00 -0.29699296135E+02  0.29726437575E+02  0.12700000000E+01 0. -1.
         25    2    1    2    0    0  0.00000000000E+00  0.00000000000E+00  0.10175154445E+03  0.16118341301E+03  0.12500686314E+03 0.  0.
    9000005    1    3    3    0    0 -0.81234964724E+01 -0.17992281165E+02 -0.25579739206E+02  0.32327023282E+02  0.10000000000E+01 0.  0.
    9000005    1    3    3    0    0  0.81234964724E+01  0.17992281165E+02  0.12733128365E+03  0.12885638973E+03  0.10000000000E+01 0.  0.
<mgrwt>
<rscale>  0 0.12500686E+03</rscale>
<asrwt>0</asrwt>
<pdfrwt beam="1">  1        4 0.20225766E-01 0.12500686E+03</pdfrwt>
<pdfrwt beam="2">  1       -4 0.45716822E-02 0.12500686E+03</pdfrwt>
<totfact> 0.97100138E+03</totfact>
</mgrwt>
</event>
<event>
 5    1  0.3312904E-002  0.1250010E+03  0.7818608E-02  0.1235068E+00
          4   -1    0    0  501    0  0.00000000000E+00  0.00000000000E+00  0.61684410101E+02  0.61697482522E+02  0.12700000000E+01 0. -1.
         -4   -1    0    0    0  501 -0.00000000000E+00 -0.00000000000E+00 -0.63301257320E+02  0.63313995912E+02  0.12700000000E+01 0. -1.
         25    2    1    2    0    0  0.00000000000E+00  0.00000000000E+00 -0.16168472190E+01  0.12501147843E+03  0.12500102218E+03 0.  0.
    9000005    1    3    3    0    0 -0.52596493082E+02 -0.20204849284E+02 -0.27841904986E+02  0.62855379184E+02  0.10000000000E+01 0.  0.
    9000005    1    3    3    0    0  0.52596493082E+02  0.20204849284E+02  0.26225057767E+02  0.62156099250E+02  0.10000000000E+01 0.  0.
<mgrwt>
<rscale>  0 0.12500102E+03</rscale>
<asrwt>0</asrwt>
<pdfrwt beam="1">  1        4 0.94918947E-02 0.12500102E+03</pdfrwt>
<pdfrwt beam="2">  1       -4 0.97406404E-02 0.12500102E+03</pdfrwt>
<totfact> 0.10452372E+04</totfact>
</mgrwt>
</event>
<event>
 5    1  0.3312904E-002  0.1249994E+03  0.7818608E-02  0.1235070E+00
         -4   -1    0    0    0  501 -0.00000000000E+00  0.00000000000E+00  0.61745171923E+02  0.61758231482E+02  0.12700000000E+01 0.  1.
          4   -1    0    0  501    0  0.00000000000E+00 -0.00000000000E+00 -0.63237325531E+02  0.63250076998E+02  0.12700000000E+01 0.  1.
         25    2    1    2    0    0  0.00000000000E+00  0.00000000000E+00 -0.14921536077E+01  0.12500830848E+03  0.12499940267E+03 0.  0.
    9000005    1    3    3    0    0 -0.15150874658E+02 -0.42001225408E+02 -0.44470590787E+02  0.63026069080E+02  0.10000000000E+01 0.  0.
    9000005    1    3    3    0    0  0.15150874658E+02  0.42001225408E+02  0.42978437179E+02  0.61982239400E+02  0.10000000000E+01 0.  0.
<mgrwt>
<rscale>  0 0.12499940E+03</rscale>
<asrwt>0</asrwt>
<pdfrwt beam="2">  1        4 0.97308048E-02 0.12499940E+03</pdfrwt>
<pdfrwt beam="1">  1       -4 0.95012427E-02 0.12499940E+03</pdfrwt>
<totfact> 0.10452823E+04</totfact>
</mgrwt>
</event>
<event>
 5    1  0.3312904E-002  0.1250007E+03  0.7818608E-02  0.1235068E+00
         -4   -1    0    0    0  501 -0.00000000000E+00  0.00000000000E+00  0.58967035407E+02  0.58980710106E+02  0.12700000000E+01 0. -1.
          4   -1    0    0  501    0  0.00000000000E+00 -0.00000000000E+00 -0.66217918132E+02  0.66230095740E+02  0.12700000000E+01 0. -1.
         25    2    1    2    0    0  0.00000000000E+00  0.00000000000E+00 -0.72508827257E+01  0.12521080585E+03  0.12500068240E+03 0.  0.
    9000005    1    3    3    0    0 -0.30889476316E+02 -0.14302728795E+02  0.48870334137E+02  0.59565404026E+02  0.10000000000E+01 0.  0.
    9000005    1    3    3    0    0  0.30889476316E+02  0.14302728795E+02 -0.56121216863E+02  0.65645401821E+02  0.10000000000E+01 0.  0.
<mgrwt>
<rscale>  0 0.12500068E+03</rscale>
<asrwt>0</asrwt>
<pdfrwt beam="2">  1        4 0.10189361E-01 0.12500068E+03</pdfrwt>
<pdfrwt beam="1">  1       -4 0.90738403E-02 0.12500068E+03</pdfrwt>
<totfact> 0.10448125E+04</totfact>
</mgrwt>
</event>
<event>
 5    1  0.3312904E-002  0.1250041E+03  0.7818608E-02  0.1235063E+00
         -4   -1    0    0    0  501 -0.00000000000E+00  0.00000000000E+00  0.23137332025E+03  0.23137680571E+03  0.12700000000E+01 0.  1.
          4   -1    0    0  501    0  0.00000000000E+00 -0.00000000000E+00 -0.16856495644E+02  0.16904270034E+02  0.12700000000E+01 0.  1.
         25    2    1    2    0    0  0.00000000000E+00  0.00000000000E+00  0.21451682460E+03  0.24828107575E+03  0.12500409808E+03 0.  0.
    9000005    1    3    3    0    0 -0.40063964680E+02 -0.47936966893E+02  0.11035588654E+03  0.12681678026E+03  0.10000000000E+01 0.  0.
    9000005    1    3    3    0    0  0.40063964680E+02  0.47936966893E+02  0.10416093807E+03  0.12146429549E+03  0.10000000000E+01 0.  0.
<mgrwt>
<rscale>  0 0.12500410E+03</rscale>
<asrwt>0</asrwt>
<pdfrwt beam="2">  1        4 0.25972502E-02 0.12500410E+03</pdfrwt>
<pdfrwt beam="1">  1       -4 0.35599837E-01 0.12500410E+03</pdfrwt>
<totfact> 0.82571763E+03</totfact>
</mgrwt>
</event>
<event>
 5    1  0.3312904E-002  0.1249998E+03  0.7818608E-02  0.1235070E+00
          4   -1    0    0  501    0  0.00000000000E+00  0.00000000000E+00  0.10176251435E+03  0.10177043887E+03  0.12700000000E+01 0.  1.
         -4   -1    0    0    0  501 -0.00000000000E+00 -0.00000000000E+00 -0.38365889686E+02  0.38386903905E+02  0.12700000000E+01 0.  1.
         25    2    1    2    0    0  0.00000000000E+00  0.00000000000E+00  0.63396624666E+02  0.14015734277E+03  0.12499979486E+03 0.  0.
    9000005    1    3    3    0    0 -0.22832573194E+02  0.57819024955E+02  0.24530033440E+02  0.66836281958E+02  0.10000000000E+01 0.  0.
    9000005    1    3    3    0    0  0.22832573194E+02 -0.57819024955E+02  0.38866591226E+02  0.73321060815E+02  0.10000000000E+01 0.  0.
<mgrwt>
<rscale>  0 0.12499979E+03</rscale>
<asrwt>0</asrwt>
<pdfrwt beam="1">  1        4 0.15657997E-01 0.12499979E+03</pdfrwt>
<pdfrwt beam="2">  1       -4 0.59046707E-02 0.12499979E+03</pdfrwt>
<totfact> 0.10130373E+04</totfact>
</mgrwt>
</event>
<event>
 5    1  0.3312904E-002  0.1250024E+03  0.7818608E-02  0.1235065E+00
         -4   -1    0    0    0  501 -0.00000000000E+00  0.00000000000E+00  0.45053756574E+01  0.46809518064E+01  0.12700000000E+01 0. -1.
          4   -1    0    0  501    0  0.00000000000E+00 -0.00000000000E+00 -0.85030569979E+03  0.85030664821E+03  0.12700000000E+01 0. -1.
         25    2    1    2    0    0  0.00000000000E+00  0.00000000000E+00 -0.84580032413E+03  0.85498760002E+03  0.12500243151E+03 0.  0.
    9000005    1    3    3    0    0 -0.97435879427E+01  0.95894895861E+01 -0.83998615739E+03  0.84009799453E+03  0.10000000000E+01 0.  0.
    9000005    1    3    3    0    0  0.97435879427E+01 -0.95894895861E+01 -0.58141667413E+01  0.14889605482E+02  0.10000000000E+01 0.  0.
<mgrwt>
<rscale>  0 0.12500243E+03</rscale>
<asrwt>0</asrwt>
<pdfrwt beam="2">  1        4 0.13082972E+00 0.12500243E+03</pdfrwt>
<pdfrwt beam="1">  1       -4 0.70671420E-03 0.12500243E+03</pdfrwt>
<totfact> 0.35922215E+03</totfact>
</mgrwt>
</event>
<event>
 5    1  0.3312904E-002  0.1250005E+03  0.7818608E-02  0.1235069E+00
          4   -1    0    0  501    0  0.00000000000E+00  0.00000000000E+00  0.46913122082E+03  0.46913293985E+03  0.12700000000E+01 0.  1.
         -4   -1    0    0    0  501 -0.00000000000E+00 -0.00000000000E+00 -0.82764516182E+01  0.83733237958E+01  0.12700000000E+01 0.  1.
         25    2    1    2    0    0  0.00000000000E+00  0.00000000000E+00  0.46085476920E+03  0.47750626364E+03  0.12500045408E+03 0.  0.
    9000005    1    3    3    0    0  0.11743651961E+02 -0.34112463008E+02  0.42535050773E+03  0.42687893825E+03  0.10000000000E+01 0.  0.
    9000005    1    3    3    0    0 -0.11743651961E+02  0.34112463008E+02  0.35504261473E+02  0.50627325395E+02  0.10000000000E+01 0.  0.
<mgrwt>
<rscale>  0 0.12500045E+03</rscale>
<asrwt>0</asrwt>
<pdfrwt beam="1">  1        4 0.72181622E-01 0.12500045E+03</pdfrwt>
<pdfrwt beam="2">  1       -4 0.12808841E-02 0.12500045E+03</pdfrwt>
<totfact> 0.57652260E+03</totfact>
</mgrwt>
</event>
<event>
 5    1  0.3312904E-002  0.1250000E+03  0.7818608E-02  0.1235069E+00
         -4   -1    0    0    0  501 -0.00000000000E+00  0.00000000000E+00  0.22646232167E+03  0.22646588272E+03  0.12700000000E+01 0. -1.
          4   -1    0    0  501    0  0.00000000000E+00 -0.00000000000E+00 -0.17221926350E+02  0.17268689794E+02  0.12700000000E+01 0. -1.
         25    2    1    2    0    0  0.00000000000E+00  0.00000000000E+00  0.20924039532E+03  0.24373457252E+03  0.12499999522E+03 0.  0.
    9000005    1    3    3    0    0  0.47661439718E+02 -0.31021923627E+02  0.15513958347E+03  0.16523699023E+03  0.10000000000E+01 0.  0.
    9000005    1    3    3    0    0 -0.47661439718E+02  0.31021923627E+02  0.54100811854E+02  0.78497582286E+02  0.10000000000E+01 0.  0.
<mgrwt>
<rscale>  0 0.12500000E+03</rscale>
<asrwt>0</asrwt>
<pdfrwt beam="2">  1        4 0.26533982E-02 0.12500000E+03</pdfrwt>
<pdfrwt beam="1">  1       -4 0.34844229E-01 0.12500000E+03</pdfrwt>
<totfact> 0.83244302E+03</totfact>
</mgrwt>
</event>
<event>
 5    1  0.3312904E-002  0.1249964E+03  0.7818608E-02  0.1235075E+00
         -4   -1    0    0    0  501 -0.00000000000E+00  0.00000000000E+00  0.67523283577E+01  0.68707232698E+01  0.12700000000E+01 0.  1.
          4   -1    0    0  501    0  0.00000000000E+00 -0.00000000000E+00 -0.57332393805E+03  0.57332534467E+03  0.12700000000E+01 0.  1.
         25    2    1    2    0    0  0.00000000000E+00  0.00000000000E+00 -0.56657160969E+03  0.58019606794E+03  0.12499635332E+03 0.  0.
    9000005    1    3    3    0    0  0.22188825725E+02 -0.31421281616E+02 -0.54690430503E+02  0.66870652113E+02  0.10000000000E+01 0.  0.
    9000005    1    3    3    0    0 -0.22188825725E+02  0.31421281616E+02 -0.51188117919E+03  0.51332541583E+03  0.10000000000E+01 0.  0.
<mgrwt>
<rscale>  0 0.12499635E+03</rscale>
<asrwt>0</asrwt>
<pdfrwt beam="2">  1        4 0.88212861E-01 0.12499635E+03</pdfrwt>
<pdfrwt beam="1">  1       -4 0.10480357E-02 0.12499635E+03</pdfrwt>
<totfact> 0.50146065E+03</totfact>
</mgrwt>
</event>
<event>
 5    1  0.3312904E-002  0.1250014E+03  0.7818608E-02  0.1235067E+00
         -4   -1    0    0    0  501 -0.00000000000E+00  0.00000000000E+00  0.50291439993E+02  0.50307472969E+02  0.12700000000E+01 0. -1.
          4   -1    0    0  501    0  0.00000000000E+00 -0.00000000000E+00 -0.77640395083E+02  0.77650781378E+02  0.12700000000E+01 0. -1.
         25    2    1    2    0    0  0.00000000000E+00  0.00000000000E+00 -0.27348955090E+02  0.12795825435E+03  0.12500139804E+03 0.  0.
    9000005    1    3    3    0    0 -0.31025162987E+02  0.35407855158E+02 -0.55744818389E+02  0.72970964928E+02  0.10000000000E+01 0.  0.
    9000005    1    3    3    0    0  0.31025162987E+02 -0.35407855158E+02  0.28395863299E+02  0.54987289420E+02  0.10000000000E+01 0.  0.
<mgrwt>
<rscale>  0 0.12500140E+03</rscale>
<asrwt>0</asrwt>
<pdfrwt beam="2">  1        4 0.11946708E-01 0.12500140E+03</pdfrwt>
<pdfrwt beam="1">  1       -4 0.77391769E-02 0.12500140E+03</pdfrwt>
<totfact> 0.10388061E+04</totfact>
</mgrwt>
</event>
<event>
 5    1  0.3312904E-002  0.1249992E+03  0.7818608E-02  0.1235071E+00
          4   -1    0    0  501    0  0.00000000000E+00  0.00000000000E+00  0.18740638271E+02  0.18783621132E+02  0.12700000000E+01 0. -1.
         -4   -1    0    0    0  501 -0.00000000000E+00 -0.00000000000E+00 -0.20815111578E+03  0.20815499010E+03  0.12700000000E+01 0. -1.
         25    2    1    2    0    0  0.00000000000E+00  0.00000000000E+00 -0.18941047751E+03  0.22693861123E+03  0.12499921710E+03 0.  0.
    9000005    1    3    3    0    0  0.44182792276E+02 -0.41772948013E+02 -0.12089551078E+03  0.13532857365E+03  0.10000000000E+01 0.  0.
    9000005    1    3    3    0    0 -0.44182792276E+02  0.41772948013E+02 -0.68514966730E+02  0.91610037578E+02  0.10000000000E+01 0.  0.
<mgrwt>
<rscale>  0 0.12499922E+03</rscale>
<asrwt>0</asrwt>
<pdfrwt beam="1">  1        4 0.28867797E-02 0.12499922E+03</pdfrwt>
<pdfrwt beam="2">  1       -4 0.32026851E-01 0.12499922E+03</pdfrwt>
<totfact> 0.85783403E+03</totfact>
</mgrwt>
</event>
<event>
 5    1  0.3312904E-002  0.1250008E+03  0.7818608E-02  0.1235068E+00
         -4   -1    0    0    0  501 -0.00000000000E+00  0.00000000000E+00  0.10708624504E+02  0.10783670005E+02  0.12700000000E+01 0. -1.
          4   -1    0    0  501    0  0.00000000000E+00 -0.00000000000E+00 -0.36343091951E+03  0.36343313850E+03  0.12700000000E+01 0. -1.
         25    2    1    2    0    0  0.00000000000E+00  0.00000000000E+00 -0.35272229501E+03  0.37421680850E+03  0.12500080948E+03 0.  0.
    9000005    1    3    3    0    0  0.43035305517E+02  0.41205507381E+02 -0.23279638767E+03  0.24030207963E+03  0.10000000000E+01 0.  0.
    9000005    1    3    3    0    0 -0.43035305517E+02 -0.41205507381E+02 -0.11992590734E+03  0.13391472888E+03  0.10000000000E+01 0.  0.
<mgrwt>
<rscale>  0 0.12500081E+03</rscale>
<asrwt>0</asrwt>
<pdfrwt beam="2">  1        4 0.55918383E-01 0.12500081E+03</pdfrwt>
<pdfrwt beam="1">  1       -4 0.16534244E-02 0.12500081E+03</pdfrwt>
<totfact> 0.67138878E+03</totfact>
</mgrwt>
</event>
<event>
 5    1  0.3312904E-002  0.1250021E+03  0.7818608E-02  0.1235066E+00
         -4   -1    0    0    0  501 -0.00000000000E+00  0.00000000000E+00  0.22132027614E+03  0.22132391993E+03  0.12700000000E+01 0. -1.
          4   -1    0    0  501    0  0.00000000000E+00 -0.00000000000E+00 -0.17623715599E+02  0.17669415709E+02  0.12700000000E+01 0. -1.
         25    2    1    2    0    0  0.00000000000E+00  0.00000000000E+00  0.20369656054E+03  0.23899333564E+03  0.12500210279E+03 0.  0.
    9000005    1    3    3    0    0  0.13537809792E+02  0.20604718154E+01  0.21842590370E+03  0.21885701552E+03  0.10000000000E+01 0.  0.
    9000005    1    3    3    0    0 -0.13537809792E+02 -0.20604718154E+01 -0.14729343151E+02  0.20136320114E+02  0.10000000000E+01 0.  0.
<mgrwt>
<rscale>  0 0.12500210E+03</rscale>
<asrwt>0</asrwt>
<pdfrwt beam="2">  1        4 0.27151365E-02 0.12500210E+03</pdfrwt>
<pdfrwt beam="1">  1       -4 0.34053069E-01 0.12500210E+03</pdfrwt>
<totfact> 0.83943584E+03</totfact>
</mgrwt>
</event>
<event>
 5    1  0.3312904E-002  0.1250070E+03  0.7818608E-02  0.1235058E+00
          4   -1    0    0  501    0  0.00000000000E+00  0.00000000000E+00  0.21464124110E+03  0.21464499827E+03  0.12700000000E+01 0.  1.
         -4   -1    0    0    0  501 -0.00000000000E+00 -0.00000000000E+00 -0.18174936527E+02  0.18219254040E+02  0.12700000000E+01 0.  1.
         25    2    1    2    0    0  0.00000000000E+00  0.00000000000E+00  0.19646630457E+03  0.23286425231E+03  0.12500700448E+03 0.  0.
    9000005    1    3    3    0    0  0.60466495392E+02  0.15752017655E+02  0.96057037205E+02  0.11459614968E+03  0.10000000000E+01 0.  0.
    9000005    1    3    3    0    0 -0.60466495392E+02 -0.15752017655E+02  0.10040926737E+03  0.11826810262E+03  0.10000000000E+01 0.  0.
<mgrwt>
<rscale>  0 0.12500700E+03</rscale>
<asrwt>0</asrwt>
<pdfrwt beam="1">  1        4 0.33025427E-01 0.12500700E+03</pdfrwt>
<pdfrwt beam="2">  1       -4 0.27998422E-02 0.12500700E+03</pdfrwt>
<totfact> 0.84858460E+03</totfact>
</mgrwt>
</event>
<event>
 5    1  0.3312904E-002  0.1249956E+03  0.7818608E-02  0.1235076E+00
         -4   -1    0    0    0  501 -0.00000000000E+00  0.00000000000E+00  0.13148219803E+03  0.13148833141E+03  0.12700000000E+01 0.  1.
          4   -1    0    0  501    0  0.00000000000E+00 -0.00000000000E+00 -0.29686836134E+02  0.29713988955E+02  0.12700000000E+01 0.  1.
         25    2    1    2    0    0  0.00000000000E+00  0.00000000000E+00  0.10179536189E+03  0.16120232037E+03  0.12499556948E+03 0.  0.
    9000005    1    3    3    0    0  0.13154082060E+02 -0.30739816048E+02 -0.17186417926E+02  0.37607700363E+02  0.10000000000E+01 0.  0.
    9000005    1    3    3    0    0 -0.13154082060E+02  0.30739816048E+02  0.11898177982E+03  0.12359462000E+03  0.10000000000E+01 0.  0.
<mgrwt>
<rscale>  0 0.12499557E+03</rscale>
<asrwt>0</asrwt>
<pdfrwt beam="2">  1        4 0.45697659E-02 0.12499557E+03</pdfrwt>
<pdfrwt beam="1">  1       -4 0.20230592E-01 0.12499557E+03</pdfrwt>
<totfact> 0.97121156E+03</totfact>
</mgrwt>
</event>
<event>
 5    1  0.3312904E-002  0.1249921E+03  0.7818608E-02  0.1235082E+00
         -4   -1    0    0    0  501 -0.00000000000E+00  0.00000000000E+00  0.14358868459E+03  0.14359430087E+03  0.12700000000E+01 0. -1.
          4   -1    0    0  501    0  0.00000000000E+00 -0.00000000000E+00 -0.27180014199E+02  0.27209668720E+02  0.12700000000E+01 0. -1.
         25    2    1    2    0    0  0.00000000000E+00  0.00000000000E+00  0.11640867039E+03  0.17080396959E+03  0.12499206969E+03 0.  0.
    9000005    1    3    3    0    0 -0.42010210783E+02 -0.32542541843E+02  0.10313099663E+03  0.11602102096E+03  0.10000000000E+01 0.  0.
    9000005    1    3    3    0    0  0.42010210783E+02  0.32542541843E+02  0.13277673761E+02  0.54782948625E+02  0.10000000000E+01 0.  0.
<mgrwt>
<rscale>  0 0.12499207E+03</rscale>
<asrwt>0</asrwt>
<pdfrwt beam="2">  1        4 0.41842538E-02 0.12499207E+03</pdfrwt>
<pdfrwt beam="1">  1       -4 0.22093280E-01 0.12499207E+03</pdfrwt>
<totfact> 0.95315963E+03</totfact>
</mgrwt>
</event>
<event>
 5    1  0.3312904E-002  0.1250006E+03  0.7818608E-02  0.1235068E+00
         -4   -1    0    0    0  501 -0.00000000000E+00  0.00000000000E+00  0.99246981292E+02  0.99255106647E+02  0.12700000000E+01 0. -1.
          4   -1    0    0  501    0  0.00000000000E+00 -0.00000000000E+00 -0.39339270695E+02  0.39359765228E+02  0.12700000000E+01 0. -1.
         25    2    1    2    0    0  0.00000000000E+00  0.00000000000E+00  0.59907710597E+02  0.13861487188E+03  0.12500059566E+03 0.  0.
    9000005    1    3    3    0    0 -0.67661398867E+01 -0.58931047171E+02  0.51758557458E+02  0.78731170700E+02  0.10000000000E+01 0.  0.
    9000005    1    3    3    0    0  0.67661398867E+01  0.58931047171E+02  0.81491531388E+01  0.59883701176E+02  0.10000000000E+01 0.  0.
<mgrwt>
<rscale>  0 0.12500060E+03</rscale>
<asrwt>0</asrwt>
<pdfrwt beam="2">  1        4 0.60543971E-02 0.12500060E+03</pdfrwt>
<pdfrwt beam="1">  1       -4 0.15270968E-01 0.12500060E+03</pdfrwt>
<totfact> 0.10162238E+04</totfact>
</mgrwt>
</event>
<event>
 5    1  0.3312904E-002  0.1250104E+03  0.7818608E-02  0.1235053E+00
         -4   -1    0    0    0  501 -0.00000000000E+00  0.00000000000E+00  0.60962902939E+02  0.60976130041E+02  0.12700000000E+01 0.  1.
          4   -1    0    0  501    0  0.00000000000E+00 -0.00000000000E+00 -0.64060031974E+02  0.64072619710E+02  0.12700000000E+01 0.  1.
         25    2    1    2    0    0  0.00000000000E+00  0.00000000000E+00 -0.30971290350E+01  0.12504874975E+03  0.12501038999E+03 0.  0.
    9000005    1    3    3    0    0  0.26801472829E+02  0.34529469191E+02  0.43133880855E+02  0.61417708082E+02  0.10000000000E+01 0.  0.
    9000005    1    3    3    0    0 -0.26801472829E+02 -0.34529469191E+02 -0.46231009890E+02  0.63631041669E+02  0.10000000000E+01 0.  0.
<mgrwt>
<rscale>  0 0.12501039E+03</rscale>
<asrwt>0</asrwt>
<pdfrwt beam="2">  1        4 0.98573753E-02 0.12501039E+03</pdfrwt>
<pdfrwt beam="1">  1       -4 0.93808939E-02 0.12501039E+03</pdfrwt>
<totfact> 0.10449350E+04</totfact>
</mgrwt>
</event>
<event>
 5    1  0.3312904E-002  0.1249998E+03  0.7818608E-02  0.1235070E+00
         -4   -1    0    0    0  501 -0.00000000000E+00  0.00000000000E+00  0.92936399541E+01  0.93800129848E+01  0.12700000000E+01 0. -1.
          4   -1    0    0  501    0  0.00000000000E+00 -0.00000000000E+00 -0.41828139772E+03  0.41828332572E+03  0.12700000000E+01 0. -1.
         25    2    1    2    0    0  0.00000000000E+00  0.00000000000E+00 -0.40898775776E+03  0.42766333871E+03  0.12499978109E+03 0.  0.
    9000005    1    3    3    0    0 -0.92103550818E+01 -0.52331991325E+02 -0.91966058359E+02  0.10621781323E+03  0.10000000000E+01 0.  0.
    9000005    1    3    3    0    0  0.92103550818E+01  0.52331991325E+02 -0.31702169941E+03  0.32144552548E+03  0.10000000000E+01 0.  0.
<mgrwt>
<rscale>  0 0.12499978E+03</rscale>
<asrwt>0</asrwt>
<pdfrwt beam="2">  1        4 0.64357762E-01 0.12499978E+03</pdfrwt>
<pdfrwt beam="1">  1       -4 0.14365835E-02 0.12499978E+03</pdfrwt>
<totfact> 0.61948673E+03</totfact>
</mgrwt>
</event>
<event>
 5    1  0.3312904E-002  0.1250017E+03  0.7818608E-02  0.1235067E+00
          4   -1    0    0  501    0  0.00000000000E+00  0.00000000000E+00  0.15611772995E+02  0.15663344344E+02  0.12700000000E+01 0. -1.
         -4   -1    0    0    0  501 -0.00000000000E+00 -0.00000000000E+00 -0.24975275964E+03  0.24975598861E+03  0.12700000000E+01 0. -1.
         25    2    1    2    0    0  0.00000000000E+00  0.00000000000E+00 -0.23414098664E+03  0.26541933295E+03  0.12500168271E+03 0.  0.
    9000005    1    3    3    0    0  0.53502852054E+02 -0.30736147892E+02 -0.13809991362E+03  0.15126087434E+03  0.10000000000E+01 0.  0.
    9000005    1    3    3    0    0 -0.53502852054E+02  0.30736147892E+02 -0.96041073023E+02  0.11415845861E+03  0.10000000000E+01 0.  0.
<mgrwt>
<rscale>  0 0.12500168E+03</rscale>
<asrwt>0</asrwt>
<pdfrwt beam="1">  1        4 0.24060268E-02 0.12500168E+03</pdfrwt>
<pdfrwt beam="2">  1       -4 0.38427714E-01 0.12500168E+03</pdfrwt>
<totfact> 0.80148499E+03</totfact>
</mgrwt>
</event>
<event>
 5    1  0.3312904E-002  0.1249996E+03  0.7818608E-02  0.1235070E+00
         -4   -1    0    0    0  501 -0.00000000000E+00  0.00000000000E+00  0.19142449172E+03  0.19142870456E+03  0.12700000000E+01 0.  1.
          4   -1    0    0  501    0  0.00000000000E+00 -0.00000000000E+00 -0.20381874325E+02  0.20421403013E+02  0.12700000000E+01 0.  1.
         25    2    1    2    0    0  0.00000000000E+00  0.00000000000E+00  0.17104261739E+03  0.21185010757E+03  0.12499956446E+03 0.  0.
    9000005    1    3    3    0    0 -0.12694350683E+02 -0.14422404401E+02 -0.15260151414E+02  0.24556557355E+02  0.10000000000E+01 0.  0.
    9000005    1    3    3    0    0  0.12694350683E+02  0.14422404401E+02  0.18630276881E+03  0.18729355022E+03  0.10000000000E+01 0.  0.
<mgrwt>
<rscale>  0 0.12499956E+03</rscale>
<asrwt>0</asrwt>
<pdfrwt beam="2">  1        4 0.31390378E-02 0.12499956E+03</pdfrwt>
<pdfrwt beam="1">  1       -4 0.29453286E-01 0.12499956E+03</pdfrwt>
<totfact> 0.88175481E+03</totfact>
</mgrwt>
</event>
<event>
 5    1  0.3312904E-002  0.1249858E+03  0.7818608E-02  0.1235091E+00
         -4   -1    0    0    0  501 -0.00000000000E+00  0.00000000000E+00  0.13349307735E+02  0.13409583029E+02  0.12700000000E+01 0.  1.
          4   -1    0    0  501    0  0.00000000000E+00 -0.00000000000E+00 -0.29183099755E+03  0.29183376095E+03  0.12700000000E+01 0.  1.
         25    2    1    2    0    0  0.00000000000E+00  0.00000000000E+00 -0.27848168982E+03  0.30524334398E+03  0.12498578912E+03 0.  0.
    9000005    1    3    3    0    0 -0.27817605496E+02 -0.53304278757E+02 -0.18077277634E+03  0.19051236699E+03  0.10000000000E+01 0.  0.
    9000005    1    3    3    0    0  0.27817605496E+02  0.53304278757E+02 -0.97708913478E+02  0.11473097700E+03  0.10000000000E+01 0.  0.
<mgrwt>
<rscale>  0 0.12498579E+03</rscale>
<asrwt>0</asrwt>
<pdfrwt beam="2">  1        4 0.44901921E-01 0.12498579E+03</pdfrwt>
<pdfrwt beam="1">  1       -4 0.20585890E-02 0.12498579E+03</pdfrwt>
<totfact> 0.74969438E+03</totfact>
</mgrwt>
</event>
<event>
 5    1  0.3312904E-002  0.1250008E+03  0.7818608E-02  0.1235068E+00
          4   -1    0    0  501    0  0.00000000000E+00  0.00000000000E+00  0.77600194052E+01  0.78632563973E+01  0.12700000000E+01 0. -1.
         -4   -1    0    0    0  501 -0.00000000000E+00 -0.00000000000E+00 -0.49995727040E+03  0.49995888344E+03  0.12700000000E+01 0. -1.
         25    2    1    2    0    0  0.00000000000E+00  0.00000000000E+00 -0.49219725100E+03  0.50782213984E+03  0.12500076727E+03 0.  0.
    9000005    1    3    3    0    0 -0.56861406746E+02  0.14757330148E+02 -0.33268910050E+03  0.33783729214E+03  0.10000000000E+01 0.  0.
    9000005    1    3    3    0    0  0.56861406746E+02 -0.14757330148E+02 -0.15950815050E+03  0.16998484769E+03  0.10000000000E+01 0.  0.
<mgrwt>
<rscale>  0 0.12500077E+03</rscale>
<asrwt>0</asrwt>
<pdfrwt beam="1">  1        4 0.12019149E-02 0.12500077E+03</pdfrwt>
<pdfrwt beam="2">  1       -4 0.76924543E-01 0.12500077E+03</pdfrwt>
<totfact> 0.55261610E+03</totfact>
</mgrwt>
</event>
<event>
 4    1  0.3312904E-002  0.1223010E+03  0.7818608E-02  0.1239349E+00
          4   -1    0    0  501    0  0.00000000000E+00  0.00000000000E+00  0.26102679276E+02  0.26133556309E+02  0.12700000000E+01 0.  1.
         -4   -1    0    0    0  501 -0.00000000000E+00 -0.00000000000E+00 -0.14313834090E+03  0.14314397484E+03  0.12700000000E+01 0.  1.
    9000005    1    1    2    0    0 -0.14892970084E+02 -0.50632562211E+02 -0.15791151267E+02  0.55098251989E+02  0.10000000000E+01 0.  0.
    9000005    1    1    2    0    0  0.14892970084E+02  0.50632562211E+02 -0.10124451035E+03  0.11417927916E+03  0.10000000000E+01 0.  0.
<mgrwt>
<rscale>  0 0.12230101E+03</rscale>
<asrwt>0</asrwt>
<pdfrwt beam="1">  1        4 0.40186054E-02 0.12230101E+03</pdfrwt>
<pdfrwt beam="2">  1       -4 0.22024091E-01 0.12230101E+03</pdfrwt>
<totfact> 0.10161267E+04</totfact>
</mgrwt>
</event>
<event>
 5    1  0.3312904E-002  0.1249998E+03  0.7818608E-02  0.1235070E+00
         -4   -1    0    0    0  501 -0.00000000000E+00  0.00000000000E+00  0.11097165955E+02  0.11169601257E+02  0.12700000000E+01 0. -1.
          4   -1    0    0  501    0  0.00000000000E+00 -0.00000000000E+00 -0.35078428286E+03  0.35078658184E+03  0.12700000000E+01 0. -1.
         25    2    1    2    0    0  0.00000000000E+00  0.00000000000E+00 -0.33968711690E+03  0.36195618310E+03  0.12499976437E+03 0.  0.
    9000005    1    3    3    0    0  0.21011796251E+02 -0.57936397304E+02 -0.13987478075E+03  0.15285311905E+03  0.10000000000E+01 0.  0.
    9000005    1    3    3    0    0 -0.21011796251E+02  0.57936397304E+02 -0.19981233616E+03  0.20910306405E+03  0.10000000000E+01 0.  0.
<mgrwt>
<rscale>  0 0.12499976E+03</rscale>
<asrwt>0</asrwt>
<pdfrwt beam="2">  1        4 0.53972553E-01 0.12499976E+03</pdfrwt>
<pdfrwt beam="1">  1       -4 0.17130054E-02 0.12499976E+03</pdfrwt>
<totfact> 0.68429312E+03</totfact>
</mgrwt>
</event>
<event>
 5    1  0.3312904E-002  0.1250014E+03  0.7818608E-02  0.1235067E+00
          4   -1    0    0  501    0  0.00000000000E+00  0.00000000000E+00  0.28195832768E+02  0.28224420020E+02  0.12700000000E+01 0.  1.
         -4   -1    0    0    0  501 -0.00000000000E+00 -0.00000000000E+00 -0.13844132070E+03  0.13844714579E+03  0.12700000000E+01 0.  1.
         25    2    1    2    0    0  0.00000000000E+00  0.00000000000E+00 -0.11024548793E+03  0.16667156581E+03  0.12500137295E+03 0.  0.
    9000005    1    3    3    0    0  0.42201645366E+02 -0.45829427768E+02 -0.48587863420E+02  0.79013263398E+02  0.10000000000E+01 0.  0.
    9000005    1    3    3    0    0 -0.42201645366E+02  0.45829427768E+02 -0.61657624511E+02  0.87658302410E+02  0.10000000000E+01 0.  0.
<mgrwt>
<rscale>  0 0.12500137E+03</rscale>
<asrwt>0</asrwt>
<pdfrwt beam="1">  1        4 0.43404676E-02 0.12500137E+03</pdfrwt>
<pdfrwt beam="2">  1       -4 0.21301311E-01 0.12500137E+03</pdfrwt>
<totfact> 0.96068795E+03</totfact>
</mgrwt>
</event>
<event>
 5    1  0.3312904E-002  0.1250044E+03  0.7818608E-02  0.1235062E+00
          4   -1    0    0  501    0  0.00000000000E+00  0.00000000000E+00  0.26657615119E+03  0.26657917639E+03  0.12700000000E+01 0.  1.
         -4   -1    0    0    0  501 -0.00000000000E+00 -0.00000000000E+00 -0.14623809616E+02  0.14678852396E+02  0.12700000000E+01 0.  1.
         25    2    1    2    0    0  0.00000000000E+00  0.00000000000E+00  0.25195234157E+03  0.28125802878E+03  0.12500438525E+03 0.  0.
    9000005    1    3    3    0    0 -0.25810249371E+02  0.54757020881E+02  0.91045283175E+02  0.10933775147E+03  0.10000000000E+01 0.  0.
    9000005    1    3    3    0    0  0.25810249371E+02 -0.54757020881E+02  0.16090705840E+03  0.17192027731E+03  0.10000000000E+01 0.  0.
<mgrwt>
<rscale>  0 0.12500439E+03</rscale>
<asrwt>0</asrwt>
<pdfrwt beam="1">  1        4 0.41016187E-01 0.12500439E+03</pdfrwt>
<pdfrwt beam="2">  1       -4 0.22542834E-02 0.12500439E+03</pdfrwt>
<totfact> 0.78003987E+03</totfact>
</mgrwt>
</event>
<event>
 4    1  0.3312904E-002  0.1250838E+03  0.7818608E-02  0.1234938E+00
          4   -1    0    0  501    0  0.00000000000E+00  0.00000000000E+00  0.58842872587E+02  0.58856576134E+02  0.12700000000E+01 0. -1.
         -4   -1    0    0    0  501 -0.00000000000E+00 -0.00000000000E+00 -0.66445936129E+02  0.66458071955E+02  0.12700000000E+01 0. -1.
    9000005    1    1    2    0    0 -0.11515793008E+02  0.24811122984E+02 -0.60139501922E+02  0.66075449327E+02  0.10000000000E+01 0.  0.
    9000005    1    1    2    0    0  0.11515793008E+02 -0.24811122984E+02  0.52536438380E+02  0.59239198762E+02  0.10000000000E+01 0.  0.
<mgrwt>
<rscale>  0 0.12508379E+03</rscale>
<asrwt>0</asrwt>
<pdfrwt beam="1">  1        4 0.90547373E-02 0.12508379E+03</pdfrwt>
<pdfrwt beam="2">  1       -4 0.10224439E-01 0.12508379E+03</pdfrwt>
<totfact> 0.10426276E+04</totfact>
</mgrwt>
</event>
<event>
 5    1  0.3312904E-002  0.1249977E+03  0.7818608E-02  0.1235073E+00
         -4   -1    0    0    0  501 -0.00000000000E+00  0.00000000000E+00  0.20712581412E+02  0.20751480158E+02  0.12700000000E+01 0. -1.
          4   -1    0    0  501    0  0.00000000000E+00 -0.00000000000E+00 -0.18836815047E+03  0.18837243166E+03  0.12700000000E+01 0. -1.
         25    2    1    2    0    0  0.00000000000E+00  0.00000000000E+00 -0.16765556905E+03  0.20912391182E+03  0.12499768262E+03 0.  0.
    9000005    1    3    3    0    0  0.10832554994E+02  0.61379127169E+02 -0.91377484752E+02  0.11061458412E+03  0.10000000000E+01 0.  0.
    9000005    1    3    3    0    0 -0.10832554994E+02 -0.61379127169E+02 -0.76278084301E+02  0.98509327702E+02  0.10000000000E+01 0.  0.
<mgrwt>
<rscale>  0 0.12499768E+03</rscale>
<asrwt>0</asrwt>
<pdfrwt beam="2">  1        4 0.28983036E-01 0.12499768E+03</pdfrwt>
<pdfrwt beam="1">  1       -4 0.31898726E-02 0.12499768E+03</pdfrwt>
<totfact> 0.88623750E+03</totfact>
</mgrwt>
</event>
<event>
 5    1  0.3312904E-002  0.1249982E+03  0.7818608E-02  0.1235072E+00
          4   -1    0    0  501    0  0.00000000000E+00  0.00000000000E+00  0.16088742343E+03  0.16089243587E+03  0.12700000000E+01 0. -1.
         -4   -1    0    0    0  501 -0.00000000000E+00 -0.00000000000E+00 -0.24256709602E+02  0.24289933321E+02  0.12700000000E+01 0. -1.
         25    2    1    2    0    0  0.00000000000E+00  0.00000000000E+00  0.13663071383E+03  0.18518236919E+03  0.12499823157E+03 0.  0.
    9000005    1    3    3    0    0 -0.32841575240E+02 -0.49418611874E+02  0.97360344342E+02  0.11402107224E+03  0.10000000000E+01 0.  0.
    9000005    1    3    3    0    0  0.32841575240E+02  0.49418611874E+02  0.39270369489E+02  0.71161296950E+02  0.10000000000E+01 0.  0.
<mgrwt>
<rscale>  0 0.12499823E+03</rscale>
<asrwt>0</asrwt>
<pdfrwt beam="1">  1        4 0.24754852E-01 0.12499823E+03</pdfrwt>
<pdfrwt beam="2">  1       -4 0.37347428E-02 0.12499823E+03</pdfrwt>
<totfact> 0.92696064E+03</totfact>
</mgrwt>
</event>
<event>
 5    1  0.3312904E-002  0.1250026E+03  0.7818608E-02  0.1235065E+00
          4   -1    0    0  501    0  0.00000000000E+00  0.00000000000E+00  0.21315051752E+02  0.21352852998E+02  0.12700000000E+01 0. -1.
         -4   -1    0    0    0  501 -0.00000000000E+00 -0.00000000000E+00 -0.18306764154E+03  0.18307204668E+03  0.12700000000E+01 0. -1.
         25    2    1    2    0    0  0.00000000000E+00  0.00000000000E+00 -0.16175258978E+03  0.20442489968E+03  0.12500255721E+03 0.  0.
    9000005    1    3    3    0    0 -0.14090046471E+01 -0.46614071809E+01  0.21012316983E+02  0.21592393939E+02  0.10000000000E+01 0.  0.
    9000005    1    3    3    0    0  0.14090046471E+01  0.46614071809E+01 -0.18276490677E+03  0.18283250574E+03  0.10000000000E+01 0.  0.
<mgrwt>
<rscale>  0 0.12500256E+03</rscale>
<asrwt>0</asrwt>
<pdfrwt beam="1">  1        4 0.32824855E-02 0.12500256E+03</pdfrwt>
<pdfrwt beam="2">  1       -4 0.28167498E-01 0.12500256E+03</pdfrwt>
<totfact> 0.89389427E+03</totfact>
</mgrwt>
</event>
<event>
 5    1  0.3312904E-002  0.1250019E+03  0.7818608E-02  0.1235066E+00
         -4   -1    0    0    0  501 -0.00000000000E+00  0.00000000000E+00  0.83338565284E+01  0.84300690766E+01  0.12700000000E+01 0. -1.
          4   -1    0    0  501    0  0.00000000000E+00 -0.00000000000E+00 -0.46594755635E+03  0.46594928712E+03  0.12700000000E+01 0. -1.
         25    2    1    2    0    0  0.00000000000E+00  0.00000000000E+00 -0.45761369982E+03  0.47437935620E+03  0.12500190127E+03 0.  0.
    9000005    1    3    3    0    0 -0.27711718461E+02  0.21439041919E+02 -0.32426519784E+02  0.47749880040E+02  0.10000000000E+01 0.  0.
    9000005    1    3    3    0    0  0.27711718461E+02 -0.21439041919E+02 -0.42518718004E+03  0.42662947616E+03  0.10000000000E+01 0.  0.
<mgrwt>
<rscale>  0 0.12500190E+03</rscale>
<asrwt>0</asrwt>
<pdfrwt beam="2">  1        4 0.71691753E-01 0.12500190E+03</pdfrwt>
<pdfrwt beam="1">  1       -4 0.12896662E-02 0.12500190E+03</pdfrwt>
<totfact> 0.57906078E+03</totfact>
</mgrwt>
</event>
<event>
 5    1  0.3312904E-002  0.1250209E+03  0.7818608E-02  0.1235037E+00
          4   -1    0    0  501    0  0.00000000000E+00  0.00000000000E+00  0.64388675357E+02  0.64401198857E+02  0.12700000000E+01 0.  1.
         -4   -1    0    0    0  501 -0.00000000000E+00 -0.00000000000E+00 -0.60661923216E+02  0.60675215931E+02  0.12700000000E+01 0.  1.
         25    2    1    2    0    0  0.00000000000E+00  0.00000000000E+00  0.37267521411E+01  0.12507641479E+03  0.12502088167E+03 0.  0.
    9000005    1    3    3    0    0  0.40994780947E+02  0.18915886539E+02 -0.41378182683E+02  0.61249790454E+02  0.10000000000E+01 0.  0.
    9000005    1    3    3    0    0 -0.40994780947E+02 -0.18915886539E+02  0.45104934825E+02  0.63826624335E+02  0.10000000000E+01 0.  0.
<mgrwt>
<rscale>  0 0.12502088E+03</rscale>
<asrwt>0</asrwt>
<pdfrwt beam="1">  1        4 0.99079358E-02 0.12502088E+03</pdfrwt>
<pdfrwt beam="2">  1       -4 0.93345895E-02 0.12502088E+03</pdfrwt>
<totfact> 0.10446272E+04</totfact>
</mgrwt>
</event>
<event>
 5    1  0.3312904E-002  0.1249990E+03  0.7818608E-02  0.1235071E+00
          4   -1    0    0  501    0  0.00000000000E+00  0.00000000000E+00  0.10486704815E+03  0.10487473809E+03  0.12700000000E+01 0. -1.
         -4   -1    0    0    0  501 -0.00000000000E+00 -0.00000000000E+00 -0.37229063994E+02  0.37250719535E+02  0.12700000000E+01 0. -1.
         25    2    1    2    0    0  0.00000000000E+00  0.00000000000E+00  0.67637984159E+02  0.14212545762E+03  0.12499899521E+03 0.  0.
    9000005    1    3    3    0    0  0.32530344241E+02  0.24090510037E+02  0.87950967032E+02  0.96824318082E+02  0.10000000000E+01 0.  0.
    9000005    1    3    3    0    0 -0.32530344241E+02 -0.24090510037E+02 -0.20312982872E+02  0.45301139538E+02  0.10000000000E+01 0.  0.
<mgrwt>
<rscale>  0 0.12499900E+03</rscale>
<asrwt>0</asrwt>
<pdfrwt beam="1">  1        4 0.16135649E-01 0.12499900E+03</pdfrwt>
<pdfrwt beam="2">  1       -4 0.57298056E-02 0.12499900E+03</pdfrwt>
<totfact> 0.10089951E+04</totfact>
</mgrwt>
</event>
<event>
 5    1  0.3312904E-002  0.1250009E+03  0.7818608E-02  0.1235068E+00
         -4   -1    0    0    0  501 -0.00000000000E+00  0.00000000000E+00  0.11420186508E+03  0.11420892648E+03  0.12700000000E+01 0. -1.
          4   -1    0    0  501    0  0.00000000000E+00 -0.00000000000E+00 -0.34185357226E+02  0.34208939602E+02  0.12700000000E+01 0. -1.
         25    2    1    2    0    0  0.00000000000E+00  0.00000000000E+00  0.80016507856E+02  0.14841786608E+03  0.12500088577E+03 0.  0.
    9000005    1    3    3    0    0  0.38720721895E+02 -0.47721661795E+02  0.26540820798E+02  0.66948237297E+02  0.10000000000E+01 0.  0.
    9000005    1    3    3    0    0 -0.38720721895E+02  0.47721661795E+02  0.53475687058E+02  0.81469628788E+02  0.10000000000E+01 0.  0.
<mgrwt>
<rscale>  0 0.12500089E+03</rscale>
<asrwt>0</asrwt>
<pdfrwt beam="2">  1        4 0.52616430E-02 0.12500089E+03</pdfrwt>
<pdfrwt beam="1">  1       -4 0.17571875E-01 0.12500089E+03</pdfrwt>
<totfact> 0.99618026E+03</totfact>
</mgrwt>
</event>
<event>
 5    1  0.3312904E-002  0.1250038E+03  0.7818608E-02  0.1235063E+00
          4   -1    0    0  501    0  0.00000000000E+00  0.00000000000E+00  0.45324205589E+01  0.47069880096E+01  0.12700000000E+01 0. -1.
         -4   -1    0    0    0  501 -0.00000000000E+00 -0.00000000000E+00 -0.84543951538E+03  0.84544046926E+03  0.12700000000E+01 0. -1.
         25    2    1    2    0    0  0.00000000000E+00  0.00000000000E+00 -0.84090709482E+03  0.85014745727E+03  0.12500382788E+03 0.  0.
    9000005    1    3    3    0    0  0.38848651702E+02 -0.40668616838E+02 -0.60575164022E+03  0.60835779255E+03  0.10000000000E+01 0.  0.
    9000005    1    3    3    0    0 -0.38848651702E+02  0.40668616838E+02 -0.23515545460E+03  0.24178966472E+03  0.10000000000E+01 0.  0.
<mgrwt>
<rscale>  0 0.12500383E+03</rscale>
<asrwt>0</asrwt>
<pdfrwt beam="1">  1        4 0.71079778E-03 0.12500383E+03</pdfrwt>
<pdfrwt beam="2">  1       -4 0.13008100E+00 0.12500383E+03</pdfrwt>
<totfact> 0.36118301E+03</totfact>
</mgrwt>
</event>
<event>
 5    1  0.3312904E-002  0.1249933E+03  0.7818608E-02  0.1235080E+00
          4   -1    0    0  501    0  0.00000000000E+00  0.00000000000E+00  0.15033734239E+03  0.15034270656E+03  0.12700000000E+01 0.  1.
         -4   -1    0    0    0  501 -0.00000000000E+00 -0.00000000000E+00 -0.25959105638E+02  0.25990153242E+02  0.12700000000E+01 0.  1.
         25    2    1    2    0    0  0.00000000000E+00  0.00000000000E+00  0.12437823675E+03  0.17633285980E+03  0.12499332650E+03 0.  0.
    9000005    1    3    3    0    0 -0.40123637365E+02  0.31427495529E+02  0.11182803155E+02  0.52188589146E+02  0.10000000000E+01 0.  0.
    9000005    1    3    3    0    0  0.40123637365E+02 -0.31427495529E+02  0.11319543359E+03  0.12414427066E+03  0.10000000000E+01 0.  0.
<mgrwt>
<rscale>  0 0.12499333E+03</rscale>
<asrwt>0</asrwt>
<pdfrwt beam="1">  1        4 0.23131623E-01 0.12499333E+03</pdfrwt>
<pdfrwt beam="2">  1       -4 0.39965095E-02 0.12499333E+03</pdfrwt>
<totfact> 0.94295410E+03</totfact>
</mgrwt>
</event>
<event>
 5    1  0.3312904E-002  0.1250017E+03  0.7818608E-02  0.1235067E+00
          4   -1    0    0  501    0  0.00000000000E+00  0.00000000000E+00  0.82168455798E+02  0.82178269806E+02  0.12700000000E+01 0.  1.
         -4   -1    0    0    0  501 -0.00000000000E+00 -0.00000000000E+00 -0.47519694680E+02  0.47536662509E+02  0.12700000000E+01 0.  1.
         25    2    1    2    0    0  0.00000000000E+00  0.00000000000E+00  0.34648761118E+02  0.12971493231E+03  0.12500170806E+03 0.  0.
    9000005    1    3    3    0    0 -0.37784673268E+02 -0.46470593984E+02 -0.11851843908E+01  0.59913289855E+02  0.10000000000E+01 0.  0.
    9000005    1    3    3    0    0  0.37784673268E+02  0.46470593984E+02  0.35833945509E+02  0.69801642459E+02  0.10000000000E+01 0.  0.
<mgrwt>
<rscale>  0 0.12500171E+03</rscale>
<asrwt>0</asrwt>
<pdfrwt beam="1">  1        4 0.12643361E-01 0.12500171E+03</pdfrwt>
<pdfrwt beam="2">  1       -4 0.73127825E-02 0.12500171E+03</pdfrwt>
<totfact> 0.10350210E+04</totfact>
</mgrwt>
</event>
<event>
 5    1  0.3312904E-002  0.1250005E+03  0.7818608E-02  0.1235069E+00
         -4   -1    0    0    0  501 -0.00000000000E+00  0.00000000000E+00  0.18764578728E+02  0.18807506874E+02  0.12700000000E+01 0.  1.
          4   -1    0    0  501    0  0.00000000000E+00 -0.00000000000E+00 -0.20789036643E+03  0.20789424560E+03  0.12700000000E+01 0.  1.
         25    2    1    2    0    0  0.00000000000E+00  0.00000000000E+00 -0.18912578770E+03  0.22670175247E+03  0.12500048400E+03 0.  0.
    9000005    1    3    3    0    0  0.29492751136E+02  0.55061452228E+02 -0.98048776398E+02  0.11625897146E+03  0.10000000000E+01 0.  0.
    9000005    1    3    3    0    0 -0.29492751136E+02 -0.55061452228E+02 -0.91077011301E+02  0.11044278102E+03  0.10000000000E+01 0.  0.
<mgrwt>
<rscale>  0 0.12500048E+03</rscale>
<asrwt>0</asrwt>
<pdfrwt beam="2">  1        4 0.31986732E-01 0.12500048E+03</pdfrwt>
<pdfrwt beam="1">  1       -4 0.28904590E-02 0.12500048E+03</pdfrwt>
<totfact> 0.85817706E+03</totfact>
</mgrwt>
</event>
<event>
 5    1  0.3312904E-002  0.1250155E+03  0.7818608E-02  0.1235045E+00
          4   -1    0    0  501    0  0.00000000000E+00  0.00000000000E+00  0.47076270955E+02  0.47093398550E+02  0.12700000000E+01 0. -1.
         -4   -1    0    0    0  501 -0.00000000000E+00 -0.00000000000E+00 -0.82960576501E+02  0.82970296814E+02  0.12700000000E+01 0. -1.
         25    2    1    2    0    0  0.00000000000E+00  0.00000000000E+00 -0.35884305546E+02  0.13006369536E+03  0.12501552490E+03 0.  0.
    9000005    1    3    3    0    0 -0.59682230141E+02  0.41143145451E+01  0.88051556752E+00  0.59838712272E+02  0.10000000000E+01 0.  0.
    9000005    1    3    3    0    0  0.59682230141E+02 -0.41143145451E+01 -0.36764821114E+02  0.70224983092E+02  0.10000000000E+01 0.  0.
<mgrwt>
<rscale>  0 0.12501552E+03</rscale>
<asrwt>0</asrwt>
<pdfrwt beam="1">  1        4 0.72445685E-02 0.12501552E+03</pdfrwt>
<pdfrwt beam="2">  1       -4 0.12765231E-01 0.12501552E+03</pdfrwt>
<totfact> 0.10339521E+04</totfact>
</mgrwt>
</event>
<event>
 5    1  0.3312904E-002  0.1249988E+03  0.7818608E-02  0.1235071E+00
          4   -1    0    0  501    0  0.00000000000E+00  0.00000000000E+00  0.47868527163E+02  0.47885371386E+02  0.12700000000E+01 0. -1.
         -4   -1    0    0    0  501 -0.00000000000E+00 -0.00000000000E+00 -0.81566047586E+02  0.81575934066E+02  0.12700000000E+01 0. -1.
         25    2    1    2    0    0  0.00000000000E+00  0.00000000000E+00 -0.33697520423E+02  0.12946130545E+03  0.12499882690E+03 0.  0.
    9000005    1    3    3    0    0 -0.11844766544E+02  0.51869347639E+02 -0.50797756616E+02  0.73567246762E+02  0.10000000000E+01 0.  0.
    9000005    1    3    3    0    0  0.11844766544E+02 -0.51869347639E+02  0.17100236193E+02  0.55894058690E+02  0.10000000000E+01 0.  0.
<mgrwt>
<rscale>  0 0.12499883E+03</rscale>
<asrwt>0</asrwt>
<pdfrwt beam="1">  1        4 0.73664450E-02 0.12499883E+03</pdfrwt>
<pdfrwt beam="2">  1       -4 0.12550679E-01 0.12499883E+03</pdfrwt>
<totfact> 0.10356319E+04</totfact>
</mgrwt>
</event>
<event>
 5    1  0.3312904E-002  0.1250190E+03  0.7818608E-02  0.1235040E+00
          4   -1    0    0  501    0  0.00000000000E+00  0.00000000000E+00  0.78176827166E+02  0.78187142202E+02  0.12700000000E+01 0.  1.
         -4   -1    0    0    0  501 -0.00000000000E+00 -0.00000000000E+00 -0.49960365697E+02  0.49976504886E+02  0.12700000000E+01 0.  1.
         25    2    1    2    0    0  0.00000000000E+00  0.00000000000E+00  0.28216461468E+02  0.12816364709E+03  0.12501900550E+03 0.  0.
    9000005    1    3    3    0    0 -0.21310771190E+02  0.22057605389E+02  0.69936756656E+02  0.76373011305E+02  0.10000000000E+01 0.  0.
    9000005    1    3    3    0    0  0.21310771190E+02 -0.22057605389E+02 -0.41720295188E+02  0.51790635783E+02  0.10000000000E+01 0.  0.
<mgrwt>
<rscale>  0 0.12501901E+03</rscale>
<asrwt>0</asrwt>
<pdfrwt beam="1">  1        4 0.12029239E-01 0.12501901E+03</pdfrwt>
<pdfrwt beam="2">  1       -4 0.76882451E-02 0.12501901E+03</pdfrwt>
<totfact> 0.10379501E+04</totfact>
</mgrwt>
</event>
<event>
 5    1  0.3312904E-002  0.1249981E+03  0.7818608E-02  0.1235072E+00
          4   -1    0    0  501    0  0.00000000000E+00  0.00000000000E+00  0.16716786143E+03  0.16717268555E+03  0.12700000000E+01 0. -1.
         -4   -1    0    0    0  501 -0.00000000000E+00 -0.00000000000E+00 -0.23344082801E+02  0.23378603504E+02  0.12700000000E+01 0. -1.
         25    2    1    2    0    0  0.00000000000E+00  0.00000000000E+00  0.14382377863E+03  0.19055128906E+03  0.12499805783E+03 0.  0.
    9000005    1    3    3    0    0  0.33029807296E+02 -0.52782586401E+02  0.63822469369E+02  0.89169934359E+02  0.10000000000E+01 0.  0.
    9000005    1    3    3    0    0 -0.33029807296E+02  0.52782586401E+02  0.80001309260E+02  0.10138135470E+03  0.10000000000E+01 0.  0.
<mgrwt>
<rscale>  0 0.12499806E+03</rscale>
<asrwt>0</asrwt>
<pdfrwt beam="1">  1        4 0.25721159E-01 0.12499806E+03</pdfrwt>
<pdfrwt beam="2">  1       -4 0.35944239E-02 0.12499806E+03</pdfrwt>
<totfact> 0.91755472E+03</totfact>
</mgrwt>
</event>
<event>
 5    1  0.3312904E-002  0.1250000E+03  0.7818608E-02  0.1235069E+00
         -4   -1    0    0    0  501 -0.00000000000E+00  0.00000000000E+00  0.27738405867E+03  0.27738696599E+03  0.12700000000E+01 0.  1.
          4   -1    0    0  501    0  0.00000000000E+00 -0.00000000000E+00 -0.14050837499E+02  0.14108115907E+02  0.12700000000E+01 0.  1.
         25    2    1    2    0    0  0.00000000000E+00  0.00000000000E+00  0.26333322117E+03  0.29149508190E+03  0.12499998960E+03 0.  0.
    9000005    1    3    3    0    0  0.35970573224E+02 -0.60517176603E+01  0.24999481545E+03  0.25264384650E+03  0.10000000000E+01 0.  0.
    9000005    1    3    3    0    0 -0.35970573224E+02  0.60517176603E+01  0.13338405719E+02  0.38851235396E+02  0.10000000000E+01 0.  0.
<mgrwt>
<rscale>  0 0.12499999E+03</rscale>
<asrwt>0</asrwt>
<pdfrwt beam="2">  1        4 0.21662971E-02 0.12499999E+03</pdfrwt>
<pdfrwt beam="1">  1       -4 0.42679099E-01 0.12499999E+03</pdfrwt>
<totfact> 0.76678234E+03</totfact>
</mgrwt>
</event>
<event>
 5    1  0.3312904E-002  0.1249986E+03  0.7818608E-02  0.1235072E+00
          4   -1    0    0  501    0  0.00000000000E+00  0.00000000000E+00  0.51810955120E+03  0.51811110773E+03  0.12700000000E+01 0. -1.
         -4   -1    0    0    0  501 -0.00000000000E+00 -0.00000000000E+00 -0.74841930878E+01  0.75911821330E+01  0.12700000000E+01 0. -1.
         25    2    1    2    0    0  0.00000000000E+00  0.00000000000E+00  0.51062535812E+03  0.52570228986E+03  0.12499856484E+03 0.  0.
    9000005    1    3    3    0    0  0.19749413559E+02 -0.42064128103E+02  0.43103356787E+03  0.43353242882E+03  0.10000000000E+01 0.  0.
    9000005    1    3    3    0    0 -0.19749413559E+02  0.42064128103E+02  0.79591790243E+02  0.92169861035E+02  0.10000000000E+01 0.  0.
<mgrwt>
<rscale>  0 0.12499856E+03</rscale>
<asrwt>0</asrwt>
<pdfrwt beam="1">  1        4 0.79717497E-01 0.12499856E+03</pdfrwt>
<pdfrwt beam="2">  1       -4 0.11597642E-02 0.12499856E+03</pdfrwt>
<totfact> 0.53925616E+03</totfact>
</mgrwt>
</event>
<event>
 5    1  0.3312904E-002  0.1250003E+03  0.7818608E-02  0.1235069E+00
         -4   -1    0    0    0  501 -0.00000000000E+00  0.00000000000E+00  0.96439301131E+01  0.97271932245E+01  0.12700000000E+01 0. -1.
          4   -1    0    0  501    0  0.00000000000E+00 -0.00000000000E+00 -0.40322417682E+03  0.40322617682E+03  0.12700000000E+01 0. -1.
         25    2    1    2    0    0  0.00000000000E+00  0.00000000000E+00 -0.39358024671E+03  0.41295337004E+03  0.12500030093E+03 0.  0.
    9000005    1    3    3    0    0 -0.30549176432E+02  0.50161945565E+02 -0.26732032685E+03  0.27369806377E+03  0.10000000000E+01 0.  0.
    9000005    1    3    3    0    0  0.30549176432E+02 -0.50161945565E+02 -0.12625991986E+03  0.13925530628E+03  0.10000000000E+01 0.  0.
<mgrwt>
<rscale>  0 0.12500030E+03</rscale>
<asrwt>0</asrwt>
<pdfrwt beam="2">  1        4 0.62041034E-01 0.12500030E+03</pdfrwt>
<pdfrwt beam="1">  1       -4 0.14902406E-02 0.12500030E+03</pdfrwt>
<totfact> 0.63311746E+03</totfact>
</mgrwt>
</event>
<event>
 5    1  0.3312904E-002  0.1250011E+03  0.7818608E-02  0.1235068E+00
         -4   -1    0    0    0  501 -0.00000000000E+00  0.00000000000E+00  0.18722336240E+02  0.18765361022E+02  0.12700000000E+01 0. -1.
          4   -1    0    0  501    0  0.00000000000E+00 -0.00000000000E+00 -0.20836024574E+03  0.20836411617E+03  0.12700000000E+01 0. -1.
         25    2    1    2    0    0  0.00000000000E+00  0.00000000000E+00 -0.18963790950E+03  0.22712947719E+03  0.12500105075E+03 0.  0.
    9000005    1    3    3    0    0 -0.13557975716E+02 -0.56764171604E+02 -0.13542136695E+03  0.14746503487E+03  0.10000000000E+01 0.  0.
    9000005    1    3    3    0    0  0.13557975716E+02  0.56764171604E+02 -0.54216542558E+02  0.79664442321E+02  0.10000000000E+01 0.  0.
<mgrwt>
<rscale>  0 0.12500105E+03</rscale>
<asrwt>0</asrwt>
<pdfrwt beam="2">  1        4 0.32059028E-01 0.12500105E+03</pdfrwt>
<pdfrwt beam="1">  1       -4 0.28839669E-02 0.12500105E+03</pdfrwt>
<totfact> 0.85750316E+03</totfact>
</mgrwt>
</event>
<event>
 5    1  0.3312904E-002  0.1249923E+03  0.7818608E-02  0.1235081E+00
         -4   -1    0    0    0  501 -0.00000000000E+00  0.00000000000E+00  0.91540564672E+01  0.92417341341E+01  0.12700000000E+01 0. -1.
          4   -1    0    0  501    0  0.00000000000E+00 -0.00000000000E+00 -0.42454881147E+03  0.42455071101E+03  0.12700000000E+01 0. -1.
         25    2    1    2    0    0  0.00000000000E+00  0.00000000000E+00 -0.41539475500E+03  0.43379244514E+03  0.12499233169E+03 0.  0.
    9000005    1    3    3    0    0  0.48732217109E+00 -0.52827736750E+02 -0.91874299134E+02  0.10598534849E+03  0.10000000000E+01 0.  0.
    9000005    1    3    3    0    0 -0.48732217109E+00  0.52827736750E+02 -0.32352045586E+03  0.32780709665E+03  0.10000000000E+01 0.  0.
<mgrwt>
<rscale>  0 0.12499233E+03</rscale>
<asrwt>0</asrwt>
<pdfrwt beam="2">  1        4 0.65322077E-01 0.12499233E+03</pdfrwt>
<pdfrwt beam="1">  1       -4 0.14152073E-02 0.12499233E+03</pdfrwt>
<totfact> 0.61404114E+03</totfact>
</mgrwt>
</event>
<event>
 5    1  0.3312904E-002  0.1250003E+03  0.7818608E-02  0.1235069E+00
         -4   -1    0    0    0  501 -0.00000000000E+00  0.00000000000E+00  0.14408811137E+02  0.14464672080E+02  0.12700000000E+01 0. -1.
          4   -1    0    0  501    0  0.00000000000E+00 -0.00000000000E+00 -0.27052106344E+03  0.27052404452E+03  0.12700000000E+01 0. -1.
         25    2    1    2    0    0  0.00000000000E+00  0.00000000000E+00 -0.25611225231E+03  0.28498871660E+03  0.12500033124E+03 0.  0.
    9000005    1    3    3    0    0  0.32919617321E+01 -0.58018955047E+02 -0.18045595902E+03  0.18958478131E+03  0.10000000000E+01 0.  0.
    9000005    1    3    3    0    0 -0.32919617321E+01  0.58018955047E+02 -0.75656293284E+02  0.95403935297E+02  0.10000000000E+01 0.  0.
<mgrwt>
<rscale>  0 0.12500033E+03</rscale>
<asrwt>0</asrwt>
<pdfrwt beam="2">  1        4 0.41623148E-01 0.12500033E+03</pdfrwt>
<pdfrwt beam="1">  1       -4 0.22212667E-02 0.12500033E+03</pdfrwt>
<totfact> 0.77520685E+03</totfact>
</mgrwt>
</event>
<event>
 5    1  0.3312904E-002  0.1250021E+03  0.7818608E-02  0.1235066E+00
          4   -1    0    0  501    0  0.00000000000E+00  0.00000000000E+00  0.12787182567E+03  0.12787813222E+03  0.12700000000E+01 0. -1.
         -4   -1    0    0    0  501 -0.00000000000E+00 -0.00000000000E+00 -0.30528909238E+02  0.30555313765E+02  0.12700000000E+01 0. -1.
         25    2    1    2    0    0  0.00000000000E+00  0.00000000000E+00  0.97342916436E+02  0.15843344599E+03  0.12500205369E+03 0.  0.
    9000005    1    3    3    0    0  0.28041375535E+02 -0.37138342867E+02  0.10153786226E+03  0.11169831120E+03  0.10000000000E+01 0.  0.
    9000005    1    3    3    0    0 -0.28041375535E+02  0.37138342867E+02 -0.41949458286E+01  0.46735134784E+02  0.10000000000E+01 0.  0.
<mgrwt>
<rscale>  0 0.12500205E+03</rscale>
<asrwt>0</asrwt>
<pdfrwt beam="1">  1        4 0.19675104E-01 0.12500205E+03</pdfrwt>
<pdfrwt beam="2">  1       -4 0.46992716E-02 0.12500205E+03</pdfrwt>
<totfact> 0.97641149E+03</totfact>
</mgrwt>
</event>
<event>
 5    1  0.3312904E-002  0.1250039E+03  0.7818608E-02  0.1235063E+00
         -4   -1    0    0    0  501 -0.00000000000E+00  0.00000000000E+00  0.16750173231E+02  0.16798250006E+02  0.12700000000E+01 0. -1.
          4   -1    0    0  501    0  0.00000000000E+00 -0.00000000000E+00 -0.23283705507E+03  0.23284051862E+03  0.12700000000E+01 0. -1.
         25    2    1    2    0    0  0.00000000000E+00  0.00000000000E+00 -0.21608688184E+03  0.24963876863E+03  0.12500389714E+03 0.  0.
    9000005    1    3    3    0    0 -0.44425260174E+02  0.21730183036E+02 -0.31744476519E+02  0.58775134077E+02  0.10000000000E+01 0.  0.
    9000005    1    3    3    0    0  0.44425260174E+02 -0.21730183036E+02 -0.18434240532E+03  0.19086363455E+03  0.10000000000E+01 0.  0.
<mgrwt>
<rscale>  0 0.12500390E+03</rscale>
<asrwt>0</asrwt>
<pdfrwt beam="2">  1        4 0.35825048E-01 0.12500390E+03</pdfrwt>
<pdfrwt beam="1">  1       -4 0.25809145E-02 0.12500390E+03</pdfrwt>
<totfact> 0.82375314E+03</totfact>
</mgrwt>
</event>
<event>
 5    1  0.3312904E-002  0.1249996E+03  0.7818608E-02  0.1235070E+00
          4   -1    0    0  501    0  0.00000000000E+00  0.00000000000E+00  0.65628731545E+02  0.65641018458E+02  0.12700000000E+01 0. -1.
         -4   -1    0    0    0  501 -0.00000000000E+00 -0.00000000000E+00 -0.59495407537E+02  0.59508960821E+02  0.12700000000E+01 0. -1.
         25    2    1    2    0    0  0.00000000000E+00  0.00000000000E+00  0.61333240078E+01  0.12514997928E+03  0.12499959860E+03 0.  0.
    9000005    1    3    3    0    0 -0.92867829994E+01 -0.54723651986E+02  0.31811870882E+02  0.63983728824E+02  0.10000000000E+01 0.  0.
    9000005    1    3    3    0    0  0.92867829994E+01  0.54723651986E+02 -0.25678546875E+02  0.61166250455E+02  0.10000000000E+01 0.  0.
<mgrwt>
<rscale>  0 0.12499960E+03</rscale>
<asrwt>0</asrwt>
<pdfrwt beam="1">  1        4 0.10098716E-01 0.12499960E+03</pdfrwt>
<pdfrwt beam="2">  1       -4 0.91551273E-02 0.12499960E+03</pdfrwt>
<totfact> 0.10449701E+04</totfact>
</mgrwt>
</event>
<event>
 5    1  0.3312904E-002  0.1249987E+03  0.7818608E-02  0.1235071E+00
          4   -1    0    0  501    0  0.00000000000E+00  0.00000000000E+00  0.46663290878E+02  0.46680570000E+02  0.12700000000E+01 0.  1.
         -4   -1    0    0    0  501 -0.00000000000E+00 -0.00000000000E+00 -0.83672106964E+02  0.83681744627E+02  0.12700000000E+01 0.  1.
         25    2    1    2    0    0  0.00000000000E+00  0.00000000000E+00 -0.37008816086E+02  0.13036231463E+03  0.12499872242E+03 0.  0.
    9000005    1    3    3    0    0 -0.31997116539E+02 -0.48902119727E+02 -0.41588711380E+02  0.71734605978E+02  0.10000000000E+01 0.  0.
    9000005    1    3    3    0    0  0.31997116539E+02  0.48902119727E+02  0.45798952937E+01  0.58627708649E+02  0.10000000000E+01 0.  0.
<mgrwt>
<rscale>  0 0.12499872E+03</rscale>
<asrwt>0</asrwt>
<pdfrwt beam="1">  1        4 0.71810384E-02 0.12499872E+03</pdfrwt>
<pdfrwt beam="2">  1       -4 0.12874702E-01 0.12499872E+03</pdfrwt>
<totfact> 0.10337061E+04</totfact>
</mgrwt>
</event>
<event>
 5    1  0.3312904E-002  0.1249990E+03  0.7818608E-02  0.1235071E+00
         -4   -1    0    0    0  501 -0.00000000000E+00  0.00000000000E+00  0.32980503878E+01  0.35341245536E+01  0.12700000000E+01 0. -1.
          4   -1    0    0  501    0  0.00000000000E+00 -0.00000000000E+00 -0.11432326670E+04  0.11432333724E+04  0.12700000000E+01 0. -1.
         25    2    1    2    0    0  0.00000000000E+00  0.00000000000E+00 -0.11399346166E+04  0.11467674970E+04  0.12499904778E+03 0.  0.
    9000005    1    3    3    0    0  0.49398705561E+02 -0.28347677096E+02 -0.80590108579E+03  0.80791174208E+03  0.10000000000E+01 0.  0.
    9000005    1    3    3    0    0 -0.49398705561E+02  0.28347677096E+02 -0.33403353084E+03  0.33885575490E+03  0.10000000000E+01 0.  0.
<mgrwt>
<rscale>  0 0.12499905E+03</rscale>
<asrwt>0</asrwt>
<pdfrwt beam="2">  1        4 0.17589986E+00 0.12499905E+03</pdfrwt>
<pdfrwt beam="1">  1       -4 0.52560709E-03 0.12499905E+03</pdfrwt>
<totfact> 0.26150690E+03</totfact>
</mgrwt>
</event>
<event>
 4    1  0.3312904E-002  0.1249087E+03  0.7818608E-02  0.1235212E+00
         -4   -1    0    0    0  501 -0.00000000000E+00  0.00000000000E+00  0.72018048159E+03  0.72018160137E+03  0.12700000000E+01 0. -1.
          4   -1    0    0  501    0  0.00000000000E+00 -0.00000000000E+00 -0.53404796517E+01  0.54894100694E+01  0.12700000000E+01 0. -1.
    9000005    1    1    2    0    0  0.56985662112E+02 -0.22220312883E+02  0.43054708212E+03  0.43487112793E+03  0.10000000000E+01 0.  0.
    9000005    1    1    2    0    0 -0.56985662112E+02  0.22220312883E+02  0.28429291982E+03  0.29079988351E+03  0.10000000000E+01 0.  0.
<mgrwt>
<rscale>  0 0.12490872E+03</rscale>
<asrwt>0</asrwt>
<pdfrwt beam="2">  1        4 0.83315444E-03 0.12490872E+03</pdfrwt>
<pdfrwt beam="1">  1       -4 0.11080856E+00 0.12490872E+03</pdfrwt>
<totfact> 0.41849164E+03</totfact>
</mgrwt>
</event>
<event>
 5    1  0.3312904E-002  0.1249998E+03  0.7818608E-02  0.1235070E+00
         -4   -1    0    0    0  501 -0.00000000000E+00  0.00000000000E+00  0.32417432540E+03  0.32417681309E+03  0.12700000000E+01 0.  1.
          4   -1    0    0  501    0  0.00000000000E+00 -0.00000000000E+00 -0.12013796780E+02  0.12080737274E+02  0.12700000000E+01 0.  1.
         25    2    1    2    0    0  0.00000000000E+00  0.00000000000E+00  0.31216052862E+03  0.33625755037E+03  0.12499977821E+03 0.  0.
    9000005    1    3    3    0    0  0.54456974132E+02  0.14280328167E+01  0.23845227513E+03  0.24459781034E+03  0.10000000000E+01 0.  0.
    9000005    1    3    3    0    0 -0.54456974132E+02 -0.14280328167E+01  0.73708253489E+02  0.91659740026E+02  0.10000000000E+01 0.  0.
<mgrwt>
<rscale>  0 0.12499978E+03</rscale>
<asrwt>0</asrwt>
<pdfrwt beam="2">  1        4 0.18536173E-02 0.12499978E+03</pdfrwt>
<pdfrwt beam="1">  1       -4 0.49878308E-01 0.12499978E+03</pdfrwt>
<totfact> 0.71263684E+03</totfact>
</mgrwt>
</event>
<event>
 5    1  0.3312904E-002  0.1249945E+03  0.7818608E-02  0.1235078E+00
          4   -1    0    0  501    0  0.00000000000E+00  0.00000000000E+00  0.28373568362E+02  0.28401976720E+02  0.12700000000E+01 0. -1.
         -4   -1    0    0    0  501 -0.00000000000E+00 -0.00000000000E+00 -0.13755987928E+03  0.13756574169E+03  0.12700000000E+01 0. -1.
         25    2    1    2    0    0  0.00000000000E+00  0.00000000000E+00 -0.10918631092E+03  0.16596771841E+03  0.12499453213E+03 0.  0.
    9000005    1    3    3    0    0  0.39485649498E+02 -0.48023309847E+02 -0.62943893374E+02  0.88477615915E+02  0.10000000000E+01 0.  0.
    9000005    1    3    3    0    0 -0.39485649498E+02  0.48023309847E+02 -0.46242417546E+02  0.77490102500E+02  0.10000000000E+01 0.  0.
<mgrwt>
<rscale>  0 0.12499453E+03</rscale>
<asrwt>0</asrwt>
<pdfrwt beam="1">  1        4 0.43678007E-02 0.12499453E+03</pdfrwt>
<pdfrwt beam="2">  1       -4 0.21165694E-01 0.12499453E+03</pdfrwt>
<totfact> 0.96216252E+03</totfact>
</mgrwt>
</event>
<event>
 5    1  0.3312904E-002  0.1250094E+03  0.7818608E-02  0.1235055E+00
          4   -1    0    0  501    0  0.00000000000E+00  0.00000000000E+00  0.52800993583E+02  0.52816264762E+02  0.12700000000E+01 0. -1.
         -4   -1    0    0    0  501 -0.00000000000E+00 -0.00000000000E+00 -0.73960277947E+02  0.73971180969E+02  0.12700000000E+01 0. -1.
         25    2    1    2    0    0  0.00000000000E+00  0.00000000000E+00 -0.21159284364E+02  0.12678744573E+03  0.12500936397E+03 0.  0.
    9000005    1    3    3    0    0  0.22183579687E+02  0.41630705581E+02 -0.52157965683E+02  0.70332639927E+02  0.10000000000E+01 0.  0.
    9000005    1    3    3    0    0 -0.22183579687E+02 -0.41630705581E+02  0.30998681319E+02  0.56454805804E+02  0.10000000000E+01 0.  0.
<mgrwt>
<rscale>  0 0.12500936E+03</rscale>
<asrwt>0</asrwt>
<pdfrwt beam="1">  1        4 0.81252431E-02 0.12500936E+03</pdfrwt>
<pdfrwt beam="2">  1       -4 0.11380518E-01 0.12500936E+03</pdfrwt>
<totfact> 0.10411566E+04</totfact>
</mgrwt>
</event>
<event>
 4    1  0.3312904E-002  0.1251091E+03  0.7818608E-02  0.1234899E+00
          4   -1    0    0  501    0  0.00000000000E+00  0.00000000000E+00  0.27286080898E+02  0.27315620271E+02  0.12700000000E+01 0.  1.
         -4   -1    0    0    0  501 -0.00000000000E+00 -0.00000000000E+00 -0.14329911703E+03  0.14330474466E+03  0.12700000000E+01 0.  1.
    9000005    1    1    2    0    0 -0.12890295707E+02 -0.32188489755E+02 -0.12899887949E+03  0.13358132169E+03  0.10000000000E+01 0.  0.
    9000005    1    1    2    0    0  0.12890295707E+02  0.32188489755E+02  0.12985843357E+02  0.37039043236E+02  0.10000000000E+01 0.  0.
<mgrwt>
<rscale>  0 0.12510909E+03</rscale>
<asrwt>0</asrwt>
<pdfrwt beam="1">  1        4 0.42005638E-02 0.12510909E+03</pdfrwt>
<pdfrwt beam="2">  1       -4 0.22048723E-01 0.12510909E+03</pdfrwt>
<totfact> 0.95100099E+03</totfact>
</mgrwt>
</event>
<event>
 5    1  0.3312904E-002  0.1249955E+03  0.7818608E-02  0.1235076E+00
         -4   -1    0    0    0  501 -0.00000000000E+00  0.00000000000E+00  0.75101015617E+02  0.75111753053E+02  0.12700000000E+01 0.  1.
          4   -1    0    0  501    0  0.00000000000E+00 -0.00000000000E+00 -0.51987329410E+02  0.52002839530E+02  0.12700000000E+01 0.  1.
         25    2    1    2    0    0  0.00000000000E+00  0.00000000000E+00  0.23113686207E+02  0.12711459258E+03  0.12499550855E+03 0.  0.
    9000005    1    3    3    0    0 -0.48590001705E+02  0.24685119089E+02 -0.19533098937E+02  0.57904104554E+02  0.10000000000E+01 0.  0.
    9000005    1    3    3    0    0  0.48590001705E+02 -0.24685119089E+02  0.42646785144E+02  0.69210488029E+02  0.10000000000E+01 0.  0.
<mgrwt>
<rscale>  0 0.12499551E+03</rscale>
<asrwt>0</asrwt>
<pdfrwt beam="2">  1        4 0.80000697E-02 0.12499551E+03</pdfrwt>
<pdfrwt beam="1">  1       -4 0.11556021E-01 0.12499551E+03</pdfrwt>
<totfact> 0.10407712E+04</totfact>
</mgrwt>
</event>
<event>
 5    1  0.3312904E-002  0.1249871E+03  0.7818608E-02  0.1235089E+00
          4   -1    0    0  501    0  0.00000000000E+00  0.00000000000E+00  0.13882109807E+02  0.13940081517E+02  0.12700000000E+01 0.  1.
         -4   -1    0    0    0  501 -0.00000000000E+00 -0.00000000000E+00 -0.28068369557E+03  0.28068656872E+03  0.12700000000E+01 0.  1.
         25    2    1    2    0    0  0.00000000000E+00  0.00000000000E+00 -0.26680158576E+03  0.29462665023E+03  0.12498710679E+03 0.  0.
    9000005    1    3    3    0    0 -0.39074739591E+02  0.47047543480E+02 -0.10320052156E+03  0.11996522109E+03  0.10000000000E+01 0.  0.
    9000005    1    3    3    0    0  0.39074739591E+02 -0.47047543480E+02 -0.16360106420E+03  0.17466142914E+03  0.10000000000E+01 0.  0.
<mgrwt>
<rscale>  0 0.12498711E+03</rscale>
<asrwt>0</asrwt>
<pdfrwt beam="1">  1        4 0.21403898E-02 0.12498711E+03</pdfrwt>
<pdfrwt beam="2">  1       -4 0.43186783E-01 0.12498711E+03</pdfrwt>
<totfact> 0.76299689E+03</totfact>
</mgrwt>
</event>
<event>
 5    1  0.3312904E-002  0.1249988E+03  0.7818608E-02  0.1235071E+00
         -4   -1    0    0    0  501 -0.00000000000E+00  0.00000000000E+00  0.12505534746E+04  0.12505541195E+04  0.12700000000E+01 0.  1.
          4   -1    0    0  501    0  0.00000000000E+00 -0.00000000000E+00 -0.29937917010E+01  0.32520284053E+01  0.12700000000E+01 0.  1.
         25    2    1    2    0    0  0.00000000000E+00  0.00000000000E+00  0.12475596829E+04  0.12538061479E+04  0.12499877626E+03 0.  0.
    9000005    1    3    3    0    0  0.40480188748E+02  0.32900682502E+02  0.27862508764E+03  0.28346788187E+03  0.10000000000E+01 0.  0.
    9000005    1    3    3    0    0 -0.40480188748E+02 -0.32900682502E+02  0.96893459525E+03  0.97033826600E+03  0.10000000000E+01 0.  0.
<mgrwt>
<rscale>  0 0.12499878E+03</rscale>
<asrwt>0</asrwt>
<pdfrwt beam="2">  1        4 0.48049758E-03 0.12499878E+03</pdfrwt>
<pdfrwt beam="1">  1       -4 0.19241265E+00 0.12499878E+03</pdfrwt>
<totfact> 0.23346329E+03</totfact>
</mgrwt>
</event>
<event>
 5    1  0.3312904E-002  0.1249993E+03  0.7818608E-02  0.1235070E+00
          4   -1    0    0  501    0  0.00000000000E+00  0.00000000000E+00  0.15596068867E+02  0.15647691974E+02  0.12700000000E+01 0. -1.
         -4   -1    0    0    0  501 -0.00000000000E+00 -0.00000000000E+00 -0.24999405393E+03  0.24999727979E+03  0.12700000000E+01 0. -1.
         25    2    1    2    0    0  0.00000000000E+00  0.00000000000E+00 -0.23439798506E+03  0.26564497176E+03  0.12499934248E+03 0.  0.
    9000005    1    3    3    0    0 -0.55775008654E+02  0.21134535493E+02 -0.77572176893E+02  0.97856848553E+02  0.10000000000E+01 0.  0.
    9000005    1    3    3    0    0  0.55775008654E+02 -0.21134535493E+02 -0.15682580817E+03  0.16778812321E+03  0.10000000000E+01 0.  0.
<mgrwt>
<rscale>  0 0.12499934E+03</rscale>
<asrwt>0</asrwt>
<pdfrwt beam="1">  1        4 0.24036145E-02 0.12499934E+03</pdfrwt>
<pdfrwt beam="2">  1       -4 0.38464840E-01 0.12499934E+03</pdfrwt>
<totfact> 0.80121512E+03</totfact>
</mgrwt>
</event>
<event>
 5    1  0.3312904E-002  0.1249990E+03  0.7818608E-02  0.1235071E+00
          4   -1    0    0  501    0  0.00000000000E+00  0.00000000000E+00  0.58766582209E+02  0.58780303542E+02  0.12700000000E+01 0.  1.
         -4   -1    0    0    0  501 -0.00000000000E+00 -0.00000000000E+00 -0.66441973297E+02  0.66454109848E+02  0.12700000000E+01 0.  1.
         25    2    1    2    0    0  0.00000000000E+00  0.00000000000E+00 -0.76753910884E+01  0.12523441339E+03  0.12499898667E+03 0.  0.
    9000005    1    3    3    0    0  0.95868153815E+01  0.30688516557E+02 -0.57524949973E+02  0.65907601588E+02  0.10000000000E+01 0.  0.
    9000005    1    3    3    0    0 -0.95868153815E+01 -0.30688516557E+02  0.49849558885E+02  0.59326811802E+02  0.10000000000E+01 0.  0.
<mgrwt>
<rscale>  0 0.12499899E+03</rscale>
<asrwt>0</asrwt>
<pdfrwt beam="1">  1        4 0.90430017E-02 0.12499899E+03</pdfrwt>
<pdfrwt beam="2">  1       -4 0.10223831E-01 0.12499899E+03</pdfrwt>
<totfact> 0.10448013E+04</totfact>
</mgrwt>
</event>
<event>
 5    1  0.3312904E-002  0.1250100E+03  0.7818608E-02  0.1235054E+00
         -4   -1    0    0    0  501 -0.00000000000E+00  0.00000000000E+00  0.53175197420E+02  0.53190361163E+02  0.12700000000E+01 0. -1.
          4   -1    0    0  501    0  0.00000000000E+00 -0.00000000000E+00 -0.73440604427E+02  0.73451584588E+02  0.12700000000E+01 0. -1.
         25    2    1    2    0    0  0.00000000000E+00  0.00000000000E+00 -0.20265407007E+02  0.12664194575E+03  0.12500998241E+03 0.  0.
    9000005    1    3    3    0    0 -0.17193957058E+01 -0.52251245278E+02  0.24559426627E+02  0.57769493602E+02  0.10000000000E+01 0.  0.
    9000005    1    3    3    0    0  0.17193957058E+01  0.52251245278E+02 -0.44824833634E+02  0.68872452150E+02  0.10000000000E+01 0.  0.
<mgrwt>
<rscale>  0 0.12500998E+03</rscale>
<asrwt>0</asrwt>
<pdfrwt beam="2">  1        4 0.11300566E-01 0.12500998E+03</pdfrwt>
<pdfrwt beam="1">  1       -4 0.81828106E-02 0.12500998E+03</pdfrwt>
<totfact> 0.10414588E+04</totfact>
</mgrwt>
</event>
<event>
 5    1  0.3312904E-002  0.1250018E+03  0.7818608E-02  0.1235066E+00
         -4   -1    0    0    0  501 -0.00000000000E+00  0.00000000000E+00  0.66677301876E+02  0.66689395600E+02  0.12700000000E+01 0. -1.
          4   -1    0    0  501    0  0.00000000000E+00 -0.00000000000E+00 -0.58561817410E+02  0.58575586709E+02  0.12700000000E+01 0. -1.
         25    2    1    2    0    0  0.00000000000E+00  0.00000000000E+00  0.81154844663E+01  0.12526498231E+03  0.12500181881E+03 0.  0.
    9000005    1    3    3    0    0 -0.36636679504E+02  0.49579297988E+02 -0.62112996142E+01  0.61967195491E+02  0.10000000000E+01 0.  0.
    9000005    1    3    3    0    0  0.36636679504E+02 -0.49579297988E+02  0.14326784081E+02  0.63297786819E+02  0.10000000000E+01 0.  0.
<mgrwt>
<rscale>  0 0.12500182E+03</rscale>
<asrwt>0</asrwt>
<pdfrwt beam="2">  1        4 0.90114998E-02 0.12500182E+03</pdfrwt>
<pdfrwt beam="1">  1       -4 0.10260036E-01 0.12500182E+03</pdfrwt>
<totfact> 0.10446680E+04</totfact>
</mgrwt>
</event>
<event>
 5    1  0.3312904E-002  0.1249979E+03  0.7818608E-02  0.1235073E+00
         -4   -1    0    0    0  501 -0.00000000000E+00  0.00000000000E+00  0.71936031991E+02  0.71947241772E+02  0.12700000000E+01 0. -1.
          4   -1    0    0  501    0  0.00000000000E+00 -0.00000000000E+00 -0.54276991949E+02  0.54291847961E+02  0.12700000000E+01 0. -1.
         25    2    1    2    0    0  0.00000000000E+00  0.00000000000E+00  0.17659040042E+02  0.12623908973E+03  0.12499786431E+03 0.  0.
    9000005    1    3    3    0    0  0.15662520838E+02  0.48503158781E+02 -0.27685357438E+02  0.58011636654E+02  0.10000000000E+01 0.  0.
    9000005    1    3    3    0    0 -0.15662520838E+02 -0.48503158781E+02  0.45344397481E+02  0.68227453079E+02  0.10000000000E+01 0.  0.
<mgrwt>
<rscale>  0 0.12499786E+03</rscale>
<asrwt>0</asrwt>
<pdfrwt beam="2">  1        4 0.83523116E-02 0.12499786E+03</pdfrwt>
<pdfrwt beam="1">  1       -4 0.11069087E-01 0.12499786E+03</pdfrwt>
<totfact> 0.10426227E+04</totfact>
</mgrwt>
</event>
<event>
 5    1  0.3312904E-002  0.1249999E+03  0.7818608E-02  0.1235069E+00
          4   -1    0    0  501    0  0.00000000000E+00  0.00000000000E+00  0.36035991822E+01  0.38208411464E+01  0.12700000000E+01 0. -1.
         -4   -1    0    0    0  501 -0.00000000000E+00 -0.00000000000E+00 -0.10520489094E+04  0.10520496760E+04  0.12700000000E+01 0. -1.
         25    2    1    2    0    0  0.00000000000E+00  0.00000000000E+00 -0.10484453102E+04  0.10558705171E+04  0.12499992144E+03 0.  0.
    9000005    1    3    3    0    0  0.22057876056E+02 -0.56002106281E+02 -0.66618685908E+03  0.66890112649E+03  0.10000000000E+01 0.  0.
    9000005    1    3    3    0    0 -0.22057876056E+02  0.56002106281E+02 -0.38225845114E+03  0.38696939062E+03  0.10000000000E+01 0.  0.
<mgrwt>
<rscale>  0 0.12499992E+03</rscale>
<asrwt>0</asrwt>
<pdfrwt beam="1">  1        4 0.57117060E-03 0.12499992E+03</pdfrwt>
<pdfrwt beam="2">  1       -4 0.16187021E+00 0.12499992E+03</pdfrwt>
<totfact> 0.28812270E+03</totfact>
</mgrwt>
</event>
<event>
 5    1  0.3312904E-002  0.1250003E+03  0.7818608E-02  0.1235069E+00
          4   -1    0    0  501    0  0.00000000000E+00  0.00000000000E+00  0.80089812406E+01  0.81090492976E+01  0.12700000000E+01 0. -1.
         -4   -1    0    0    0  501 -0.00000000000E+00 -0.00000000000E+00 -0.48460706778E+03  0.48460873191E+03  0.12700000000E+01 0. -1.
         25    2    1    2    0    0  0.00000000000E+00  0.00000000000E+00 -0.47659808654E+03  0.49271778120E+03  0.12500030330E+03 0.  0.
    9000005    1    3    3    0    0  0.11473422702E+02 -0.49885944813E+02 -0.37959913912E+03  0.38303622980E+03  0.10000000000E+01 0.  0.
    9000005    1    3    3    0    0 -0.11473422702E+02  0.49885944813E+02 -0.96998947413E+02  0.10968155140E+03  0.10000000000E+01 0.  0.
<mgrwt>
<rscale>  0 0.12500030E+03</rscale>
<asrwt>0</asrwt>
<pdfrwt beam="1">  1        4 0.12399769E-02 0.12500030E+03</pdfrwt>
<pdfrwt beam="2">  1       -4 0.74562736E-01 0.12500030E+03</pdfrwt>
<totfact> 0.56433470E+03</totfact>
</mgrwt>
</event>
<event>
 5    1  0.3312904E-002  0.1250001E+03  0.7818608E-02  0.1235069E+00
          4   -1    0    0  501    0  0.00000000000E+00  0.00000000000E+00  0.41996559320E+02  0.42015757695E+02  0.12700000000E+01 0. -1.
         -4   -1    0    0    0  501 -0.00000000000E+00 -0.00000000000E+00 -0.92968973747E+02  0.92977647742E+02  0.12700000000E+01 0. -1.
         25    2    1    2    0    0  0.00000000000E+00  0.00000000000E+00 -0.50972414427E+02  0.13499340544E+03  0.12500012992E+03 0.  0.
    9000005    1    3    3    0    0 -0.32679557833E+01 -0.31413084672E+02 -0.83721211033E+02  0.89485767586E+02  0.10000000000E+01 0.  0.
    9000005    1    3    3    0    0  0.32679557833E+01  0.31413084672E+02  0.32748796606E+02  0.45507637850E+02  0.10000000000E+01 0.  0.
<mgrwt>
<rscale>  0 0.12500013E+03</rscale>
<asrwt>0</asrwt>
<pdfrwt beam="1">  1        4 0.64631532E-02 0.12500013E+03</pdfrwt>
<pdfrwt beam="2">  1       -4 0.14305063E-01 0.12500013E+03</pdfrwt>
<totfact> 0.10238180E+04</totfact>
</mgrwt>
</event>
<event>
 5    1  0.3312904E-002  0.1249987E+03  0.7818608E-02  0.1235071E+00
         -4   -1    0    0    0  501 -0.00000000000E+00  0.00000000000E+00  0.92104471582E+02  0.92113226984E+02  0.12700000000E+01 0.  1.
          4   -1    0    0  501    0  0.00000000000E+00 -0.00000000000E+00 -0.42389923542E+02  0.42408943843E+02  0.12700000000E+01 0.  1.
         25    2    1    2    0    0  0.00000000000E+00  0.00000000000E+00  0.49714548040E+02  0.13452217083E+03  0.12499871262E+03 0.  0.
    9000005    1    3    3    0    0  0.52072277773E+02  0.52627813109E+01  0.61604824444E+02  0.80841656182E+02  0.10000000000E+01 0.  0.
    9000005    1    3    3    0    0 -0.52072277773E+02 -0.52627813109E+01 -0.11890276404E+02  0.53680514645E+02  0.10000000000E+01 0.  0.
<mgrwt>
<rscale>  0 0.12499871E+03</rscale>
<asrwt>0</asrwt>
<pdfrwt beam="2">  1        4 0.65236634E-02 0.12499871E+03</pdfrwt>
<pdfrwt beam="1">  1       -4 0.14172055E-01 0.12499871E+03</pdfrwt>
<totfact> 0.10248450E+04</totfact>
</mgrwt>
</event>
<event>
 5    1  0.3312904E-002  0.1249960E+03  0.7818608E-02  0.1235075E+00
          4   -1    0    0  501    0  0.00000000000E+00  0.00000000000E+00  0.62014076763E+02  0.62027079706E+02  0.12700000000E+01 0.  1.
         -4   -1    0    0    0  501 -0.00000000000E+00 -0.00000000000E+00 -0.62959739771E+02  0.62972547447E+02  0.12700000000E+01 0.  1.
         25    2    1    2    0    0  0.00000000000E+00  0.00000000000E+00 -0.94566300720E+00  0.12499962715E+03  0.12499604998E+03 0.  0.
    9000005    1    3    3    0    0 -0.25992109319E+02  0.26872250149E+02  0.49601503876E+02  0.62120984874E+02  0.10000000000E+01 0.  0.
    9000005    1    3    3    0    0  0.25992109319E+02 -0.26872250149E+02 -0.50547166883E+02  0.62878642279E+02  0.10000000000E+01 0.  0.
<mgrwt>
<rscale>  0 0.12499605E+03</rscale>
<asrwt>0</asrwt>
<pdfrwt beam="1">  1        4 0.95426126E-02 0.12499605E+03</pdfrwt>
<pdfrwt beam="2">  1       -4 0.96880993E-02 0.12499605E+03</pdfrwt>
<totfact> 0.10453804E+04</totfact>
</mgrwt>
</event>
<event>
 5    1  0.3312904E-002  0.1249960E+03  0.7818608E-02  0.1235075E+00
          4   -1    0    0  501    0  0.00000000000E+00  0.00000000000E+00  0.37711333432E+02  0.37732712190E+02  0.12700000000E+01 0. -1.
         -4   -1    0    0    0  501 -0.00000000000E+00 -0.00000000000E+00 -0.10352170311E+03  0.10352949297E+03  0.12700000000E+01 0. -1.
         25    2    1    2    0    0  0.00000000000E+00  0.00000000000E+00 -0.65810369676E+02  0.14126220516E+03  0.12499602333E+03 0.  0.
    9000005    1    3    3    0    0  0.13904850158E+01  0.57990232356E+02 -0.66383669589E+01  0.58394078579E+02  0.10000000000E+01 0.  0.
    9000005    1    3    3    0    0 -0.13904850158E+01 -0.57990232356E+02 -0.59172002717E+02  0.82868126580E+02  0.10000000000E+01 0.  0.
<mgrwt>
<rscale>  0 0.12499602E+03</rscale>
<asrwt>0</asrwt>
<pdfrwt beam="1">  1        4 0.58039874E-02 0.12499602E+03</pdfrwt>
<pdfrwt beam="2">  1       -4 0.15928659E-01 0.12499602E+03</pdfrwt>
<totfact> 0.10108398E+04</totfact>
</mgrwt>
</event>
<event>
 5    1  0.3312904E-002  0.1250012E+03  0.7818608E-02  0.1235067E+00
          4   -1    0    0  501    0  0.00000000000E+00  0.00000000000E+00  0.17770273895E+02  0.17815598061E+02  0.12700000000E+01 0.  1.
         -4   -1    0    0    0  501 -0.00000000000E+00 -0.00000000000E+00 -0.21949642216E+03  0.21950009622E+03  0.12700000000E+01 0.  1.
         25    2    1    2    0    0  0.00000000000E+00  0.00000000000E+00 -0.20172614826E+03  0.23731569428E+03  0.12500119943E+03 0.  0.
    9000005    1    3    3    0    0 -0.16577460294E+02 -0.34599218601E+02 -0.19451563185E+03  0.19826560255E+03  0.10000000000E+01 0.  0.
    9000005    1    3    3    0    0  0.16577460294E+02  0.34599218601E+02 -0.72105164103E+01  0.39050091735E+02  0.10000000000E+01 0.  0.
<mgrwt>
<rscale>  0 0.12500120E+03</rscale>
<asrwt>0</asrwt>
<pdfrwt beam="1">  1        4 0.27376575E-02 0.12500120E+03</pdfrwt>
<pdfrwt beam="2">  1       -4 0.33772447E-01 0.12500120E+03</pdfrwt>
<totfact> 0.84196527E+03</totfact>
</mgrwt>
</event>
<event>
 5    1  0.3312904E-002  0.1250000E+03  0.7818608E-02  0.1235069E+00
          4   -1    0    0  501    0  0.00000000000E+00  0.00000000000E+00  0.56486598808E+02  0.56500873842E+02  0.12700000000E+01 0. -1.
         -4   -1    0    0    0  501 -0.00000000000E+00 -0.00000000000E+00 -0.69124752275E+02  0.69136417878E+02  0.12700000000E+01 0. -1.
         25    2    1    2    0    0  0.00000000000E+00  0.00000000000E+00 -0.12638153466E+02  0.12563729172E+03  0.12500002459E+03 0.  0.
    9000005    1    3    3    0    0 -0.43621049293E+02  0.24766454079E+02 -0.43779427401E+02  0.66586871473E+02  0.10000000000E+01 0.  0.
    9000005    1    3    3    0    0  0.43621049293E+02 -0.24766454079E+02  0.31141273935E+02  0.59050420247E+02  0.10000000000E+01 0.  0.
<mgrwt>
<rscale>  0 0.12500002E+03</rscale>
<asrwt>0</asrwt>
<pdfrwt beam="1">  1        4 0.86922414E-02 0.12500002E+03</pdfrwt>
<pdfrwt beam="2">  1       -4 0.10636573E-01 0.12500002E+03</pdfrwt>
<totfact> 0.10438919E+04</totfact>
</mgrwt>
</event>
<event>
 5    1  0.3312904E-002  0.1249962E+03  0.7818608E-02  0.1235075E+00
          4   -1    0    0  501    0  0.00000000000E+00  0.00000000000E+00  0.48569979360E+03  0.48570145399E+03  0.12700000000E+01 0. -1.
         -4   -1    0    0    0  501 -0.00000000000E+00 -0.00000000000E+00 -0.79902043405E+01  0.80905046445E+01  0.12700000000E+01 0. -1.
         25    2    1    2    0    0  0.00000000000E+00  0.00000000000E+00  0.47770958926E+03  0.49379195863E+03  0.12499618689E+03 0.  0.
    9000005    1    3    3    0    0 -0.64716070037E+01  0.61596608939E+02  0.20604275313E+03  0.21515259712E+03  0.10000000000E+01 0.  0.
    9000005    1    3    3    0    0  0.64716070037E+01 -0.61596608939E+02  0.27166683613E+03  0.27863936151E+03  0.10000000000E+01 0.  0.
<mgrwt>
<rscale>  0 0.12499619E+03</rscale>
<asrwt>0</asrwt>
<pdfrwt beam="1">  1        4 0.74730904E-01 0.12499619E+03</pdfrwt>
<pdfrwt beam="2">  1       -4 0.12371051E-02 0.12499619E+03</pdfrwt>
<totfact> 0.56353988E+03</totfact>
</mgrwt>
</event>
<event>
 5    1  0.3312904E-002  0.1250032E+03  0.7818608E-02  0.1235064E+00
          4   -1    0    0  501    0  0.00000000000E+00  0.00000000000E+00  0.11765695568E+03  0.11766380973E+03  0.12700000000E+01 0.  1.
         -4   -1    0    0    0  501 -0.00000000000E+00 -0.00000000000E+00 -0.33182060732E+02  0.33206355633E+02  0.12700000000E+01 0.  1.
         25    2    1    2    0    0  0.00000000000E+00  0.00000000000E+00  0.84474894944E+02  0.15087016536E+03  0.12500319564E+03 0.  0.
    9000005    1    3    3    0    0  0.16920930766E+02 -0.58286068999E+02  0.60214878039E+02  0.85500966513E+02  0.10000000000E+01 0.  0.
    9000005    1    3    3    0    0 -0.16920930766E+02  0.58286068999E+02  0.24260016906E+02  0.65369198845E+02  0.10000000000E+01 0.  0.
<mgrwt>
<rscale>  0 0.12500320E+03</rscale>
<asrwt>0</asrwt>
<pdfrwt beam="1">  1        4 0.18103466E-01 0.12500320E+03</pdfrwt>
<pdfrwt beam="2">  1       -4 0.51073286E-02 0.12500320E+03</pdfrwt>
<totfact> 0.99123398E+03</totfact>
</mgrwt>
</event>
<event>
 5    1  0.3312904E-002  0.1250025E+03  0.7818608E-02  0.1235065E+00
         -4   -1    0    0    0  501 -0.00000000000E+00  0.00000000000E+00  0.27888144273E+02  0.27917046602E+02  0.12700000000E+01 0.  1.
          4   -1    0    0  501    0  0.00000000000E+00 -0.00000000000E+00 -0.13996976326E+03  0.13997552474E+03  0.12700000000E+01 0.  1.
         25    2    1    2    0    0  0.00000000000E+00  0.00000000000E+00 -0.11208161898E+03  0.16789257134E+03  0.12500250477E+03 0.  0.
    9000005    1    3    3    0    0  0.21170779218E+01 -0.62246927186E+02 -0.62921509631E+02  0.88539699216E+02  0.10000000000E+01 0.  0.
    9000005    1    3    3    0    0 -0.21170779218E+01  0.62246927186E+02 -0.49160109353E+02  0.79352872126E+02  0.10000000000E+01 0.  0.
<mgrwt>
<rscale>  0 0.12500250E+03</rscale>
<asrwt>0</asrwt>
<pdfrwt beam="2">  1        4 0.21536476E-01 0.12500250E+03</pdfrwt>
<pdfrwt beam="1">  1       -4 0.42931502E-02 0.12500250E+03</pdfrwt>
<totfact> 0.95836982E+03</totfact>
</mgrwt>
</event>
<event>
 5    1  0.3312904E-002  0.1250002E+03  0.7818608E-02  0.1235069E+00
          4   -1    0    0  501    0  0.00000000000E+00  0.00000000000E+00  0.74660642071E+03  0.74660750086E+03  0.12700000000E+01 0. -1.
         -4   -1    0    0    0  501 -0.00000000000E+00 -0.00000000000E+00 -0.51538511952E+01  0.53080205484E+01  0.12700000000E+01 0. -1.
         25    2    1    2    0    0  0.00000000000E+00  0.00000000000E+00  0.74145256951E+03  0.75191552141E+03  0.12500015400E+03 0.  0.
    9000005    1    3    3    0    0  0.60631538815E+01 -0.17193950644E+02  0.73028254685E+03  0.73051077474E+03  0.10000000000E+01 0.  0.
    9000005    1    3    3    0    0 -0.60631538815E+01  0.17193950644E+02  0.11170022659E+02  0.21404746669E+02  0.10000000000E+01 0.  0.
<mgrwt>
<rscale>  0 0.12500015E+03</rscale>
<asrwt>0</asrwt>
<pdfrwt beam="1">  1        4 0.11487443E+00 0.12500015E+03</pdfrwt>
<pdfrwt beam="2">  1       -4 0.80484273E-03 0.12500015E+03</pdfrwt>
<totfact> 0.40482558E+03</totfact>
</mgrwt>
</event>
<event>
 5    1  0.3312904E-002  0.1249930E+03  0.7818608E-02  0.1235080E+00
          4   -1    0    0  501    0  0.00000000000E+00  0.00000000000E+00  0.36961954681E+01  0.39082938655E+01  0.12700000000E+01 0. -1.
         -4   -1    0    0    0  501 -0.00000000000E+00 -0.00000000000E+00 -0.10270262164E+04  0.10270270016E+04  0.12700000000E+01 0. -1.
         25    2    1    2    0    0  0.00000000000E+00  0.00000000000E+00 -0.10233300209E+04  0.10309352955E+04  0.12499300682E+03 0.  0.
    9000005    1    3    3    0    0 -0.53949523126E+02  0.29032269763E+02 -0.41018204539E+03  0.41473332889E+03  0.10000000000E+01 0.  0.
    9000005    1    3    3    0    0  0.53949523126E+02 -0.29032269763E+02 -0.61314797556E+03  0.61620196662E+03  0.10000000000E+01 0.  0.
<mgrwt>
<rscale>  0 0.12499301E+03</rscale>
<asrwt>0</asrwt>
<pdfrwt beam="1">  1        4 0.58502194E-03 0.12499301E+03</pdfrwt>
<pdfrwt beam="2">  1       -4 0.15802019E+00 0.12499301E+03</pdfrwt>
<totfact> 0.29602146E+03</totfact>
</mgrwt>
</event>
<event>
 5    1  0.3312904E-002  0.1250005E+03  0.7818608E-02  0.1235069E+00
          4   -1    0    0  501    0  0.00000000000E+00  0.00000000000E+00  0.11075253479E+03  0.11075981610E+03  0.12700000000E+01 0. -1.
         -4   -1    0    0    0  501 -0.00000000000E+00 -0.00000000000E+00 -0.35250471364E+02  0.35273341654E+02  0.12700000000E+01 0. -1.
         25    2    1    2    0    0  0.00000000000E+00  0.00000000000E+00  0.75502063425E+02  0.14603315775E+03  0.12500048633E+03 0.  0.
    9000005    1    3    3    0    0  0.57295150593E+02  0.89715482293E+01  0.64950626055E+02  0.87079313181E+02  0.10000000000E+01 0.  0.
    9000005    1    3    3    0    0 -0.57295150593E+02 -0.89715482293E+01  0.10551437369E+02  0.58953844571E+02  0.10000000000E+01 0.  0.
<mgrwt>
<rscale>  0 0.12500049E+03</rscale>
<asrwt>0</asrwt>
<pdfrwt beam="1">  1        4 0.17041171E-01 0.12500049E+03</pdfrwt>
<pdfrwt beam="2">  1       -4 0.54254688E-02 0.12500049E+03</pdfrwt>
<totfact> 0.10009929E+04</totfact>
</mgrwt>
</event>
<event>
 5    1  0.3312904E-002  0.1250014E+03  0.7818608E-02  0.1235067E+00
         -4   -1    0    0    0  501 -0.00000000000E+00  0.00000000000E+00  0.17905182211E+02  0.17950165738E+02  0.12700000000E+01 0.  1.
          4   -1    0    0  501    0  0.00000000000E+00 -0.00000000000E+00 -0.21784742478E+03  0.21785112665E+03  0.12700000000E+01 0.  1.
         25    2    1    2    0    0  0.00000000000E+00  0.00000000000E+00 -0.19994224257E+03  0.23580129239E+03  0.12500139651E+03 0.  0.
    9000005    1    3    3    0    0  0.44616212034E+02 -0.13773852425E+02 -0.17831902181E+03  0.18433393319E+03  0.10000000000E+01 0.  0.
    9000005    1    3    3    0    0 -0.44616212034E+02  0.13773852425E+02 -0.21623220762E+02  0.51467359200E+02  0.10000000000E+01 0.  0.
<mgrwt>
<rscale>  0 0.12500140E+03</rscale>
<asrwt>0</asrwt>
<pdfrwt beam="2">  1        4 0.33518732E-01 0.12500140E+03</pdfrwt>
<pdfrwt beam="1">  1       -4 0.27583886E-02 0.12500140E+03</pdfrwt>
<totfact> 0.84424062E+03</totfact>
</mgrwt>
</event>
<event>
 5    1  0.3312904E-002  0.1249984E+03  0.7818608E-02  0.1235072E+00
         -4   -1    0    0    0  501 -0.00000000000E+00  0.00000000000E+00  0.63480671716E+02  0.63493374312E+02  0.12700000000E+01 0.  1.
          4   -1    0    0  501    0  0.00000000000E+00 -0.00000000000E+00 -0.61507518689E+02  0.61520628697E+02  0.12700000000E+01 0.  1.
         25    2    1    2    0    0  0.00000000000E+00  0.00000000000E+00  0.19731530268E+01  0.12501400301E+03  0.12499843045E+03 0.  0.
    9000005    1    3    3    0    0 -0.47008865873E+02 -0.13296377236E+02 -0.37986531792E+02  0.61891871161E+02  0.10000000000E+01 0.  0.
    9000005    1    3    3    0    0  0.47008865873E+02  0.13296377236E+02  0.39959684819E+02  0.63122131848E+02  0.10000000000E+01 0.  0.
<mgrwt>
<rscale>  0 0.12499843E+03</rscale>
<asrwt>0</asrwt>
<pdfrwt beam="2">  1        4 0.94646808E-02 0.12499843E+03</pdfrwt>
<pdfrwt beam="1">  1       -4 0.97682427E-02 0.12499843E+03</pdfrwt>
<totfact> 0.10452929E+04</totfact>
</mgrwt>
</event>
<event>
 5    1  0.3312904E-002  0.1250002E+03  0.7818608E-02  0.1235069E+00
         -4   -1    0    0    0  501 -0.00000000000E+00  0.00000000000E+00  0.74632812594E+01  0.75705658412E+01  0.12700000000E+01 0. -1.
          4   -1    0    0  501    0  0.00000000000E+00 -0.00000000000E+00 -0.51955449976E+03  0.51955605195E+03  0.12700000000E+01 0. -1.
         25    2    1    2    0    0  0.00000000000E+00  0.00000000000E+00 -0.51209121850E+03  0.52712661779E+03  0.12500022049E+03 0.  0.
    9000005    1    3    3    0    0  0.19570141352E+02  0.50020855963E+02 -0.12135288782E+03  0.13271247058E+03  0.10000000000E+01 0.  0.
    9000005    1    3    3    0    0 -0.19570141352E+02 -0.50020855963E+02 -0.39073833068E+03  0.39441414722E+03  0.10000000000E+01 0.  0.
<mgrwt>
<rscale>  0 0.12500022E+03</rscale>
<asrwt>0</asrwt>
<pdfrwt beam="2">  1        4 0.79939805E-01 0.12500022E+03</pdfrwt>
<pdfrwt beam="1">  1       -4 0.11565696E-02 0.12500022E+03</pdfrwt>
<totfact> 0.53819186E+03</totfact>
</mgrwt>
</event>
<event>
 5    1  0.3312904E-002  0.1250014E+03  0.7818608E-02  0.1235067E+00
          4   -1    0    0  501    0  0.00000000000E+00  0.00000000000E+00  0.12831138755E+02  0.12893836580E+02  0.12700000000E+01 0.  1.
         -4   -1    0    0    0  501 -0.00000000000E+00 -0.00000000000E+00 -0.30363597374E+03  0.30363862970E+03  0.12700000000E+01 0.  1.
         25    2    1    2    0    0  0.00000000000E+00  0.00000000000E+00 -0.29080483498E+03  0.31653246628E+03  0.12500140064E+03 0.  0.
    9000005    1    3    3    0    0 -0.48023126542E+02  0.38420198431E+02 -0.17348681659E+03  0.18406794359E+03  0.10000000000E+01 0.  0.
    9000005    1    3    3    0    0  0.48023126542E+02 -0.38420198431E+02 -0.11731801840E+03  0.13246452269E+03  0.10000000000E+01 0.  0.
<mgrwt>
<rscale>  0 0.12500140E+03</rscale>
<asrwt>0</asrwt>
<pdfrwt beam="1">  1        4 0.19790488E-02 0.12500140E+03</pdfrwt>
<pdfrwt beam="2">  1       -4 0.46718249E-01 0.12500140E+03</pdfrwt>
<totfact> 0.73568166E+03</totfact>
</mgrwt>
</event>
<event>
 5    1  0.3312904E-002  0.1249960E+03  0.7818608E-02  0.1235076E+00
         -4   -1    0    0    0  501 -0.00000000000E+00  0.00000000000E+00  0.76938294200E+02  0.76948775263E+02  0.12700000000E+01 0. -1.
          4   -1    0    0  501    0  0.00000000000E+00 -0.00000000000E+00 -0.50746065365E+02  0.50761954750E+02  0.12700000000E+01 0. -1.
         25    2    1    2    0    0  0.00000000000E+00  0.00000000000E+00  0.26192228835E+02  0.12771073001E+03  0.12499599077E+03 0.  0.
    9000005    1    3    3    0    0 -0.10995622579E+02  0.55281060672E+02 -0.14473254964E+02  0.58201155437E+02  0.10000000000E+01 0.  0.
    9000005    1    3    3    0    0  0.10995622579E+02 -0.55281060672E+02  0.40665483800E+02  0.69509574575E+02  0.10000000000E+01 0.  0.
<mgrwt>
<rscale>  0 0.12499599E+03</rscale>
<asrwt>0</asrwt>
<pdfrwt beam="2">  1        4 0.78091155E-02 0.12499599E+03</pdfrwt>
<pdfrwt beam="1">  1       -4 0.11838689E-01 0.12499599E+03</pdfrwt>
<totfact> 0.10394680E+04</totfact>
</mgrwt>
</event>
<event>
 5    1  0.3312904E-002  0.1250010E+03  0.7818608E-02  0.1235068E+00
          4   -1    0    0  501    0  0.00000000000E+00  0.00000000000E+00  0.85928349666E+03  0.85928443517E+03  0.12700000000E+01 0. -1.
         -4   -1    0    0    0  501 -0.00000000000E+00 -0.00000000000E+00 -0.44563528097E+01  0.46337868277E+01  0.12700000000E+01 0. -1.
         25    2    1    2    0    0  0.00000000000E+00  0.00000000000E+00  0.85482714385E+03  0.86391822200E+03  0.12500099377E+03 0.  0.
    9000005    1    3    3    0    0  0.15277480418E+02  0.48925088675E+02  0.18031714926E+03  0.18746290307E+03  0.10000000000E+01 0.  0.
    9000005    1    3    3    0    0 -0.15277480418E+02 -0.48925088675E+02  0.67450999459E+03  0.67645531893E+03  0.10000000000E+01 0.  0.
<mgrwt>
<rscale>  0 0.12500099E+03</rscale>
<asrwt>0</asrwt>
<pdfrwt beam="1">  1        4 0.13221131E+00 0.12500099E+03</pdfrwt>
<pdfrwt beam="2">  1       -4 0.69931300E-03 0.12500099E+03</pdfrwt>
<totfact> 0.35563644E+03</totfact>
</mgrwt>
</event>
<event>
 5    1  0.3312904E-002  0.1249997E+03  0.7818608E-02  0.1235070E+00
         -4   -1    0    0    0  501 -0.00000000000E+00  0.00000000000E+00  0.10482318720E+02  0.10558972760E+02  0.12700000000E+01 0.  1.
          4   -1    0    0  501    0  0.00000000000E+00 -0.00000000000E+00 -0.37121444458E+03  0.37121661703E+03  0.12700000000E+01 0.  1.
         25    2    1    2    0    0  0.00000000000E+00  0.00000000000E+00 -0.36073212586E+03  0.38177558979E+03  0.12499973735E+03 0.  0.
    9000005    1    3    3    0    0  0.28383497462E+02  0.36152090528E+02 -0.30967997044E+03  0.31307392205E+03  0.10000000000E+01 0.  0.
    9000005    1    3    3    0    0 -0.28383497462E+02 -0.36152090528E+02 -0.51052155417E+02  0.68701667741E+02  0.10000000000E+01 0.  0.
<mgrwt>
<rscale>  0 0.12499974E+03</rscale>
<asrwt>0</asrwt>
<pdfrwt beam="2">  1        4 0.57115968E-01 0.12499974E+03</pdfrwt>
<pdfrwt beam="1">  1       -4 0.16187283E-02 0.12499974E+03</pdfrwt>
<totfact> 0.66365111E+03</totfact>
</mgrwt>
</event>
<event>
 5    1  0.3312904E-002  0.1249853E+03  0.7818608E-02  0.1235092E+00
         -4   -1    0    0    0  501 -0.00000000000E+00  0.00000000000E+00  0.25381363459E+02  0.25413116909E+02  0.12700000000E+01 0.  1.
          4   -1    0    0  501    0  0.00000000000E+00 -0.00000000000E+00 -0.15373559815E+03  0.15374084376E+03  0.12700000000E+01 0.  1.
         25    2    1    2    0    0  0.00000000000E+00  0.00000000000E+00 -0.12835423469E+03  0.17915396067E+03  0.12498532737E+03 0.  0.
    9000005    1    3    3    0    0 -0.46542084863E+02  0.15464735072E+02 -0.86801120812E+01  0.49816343101E+02  0.10000000000E+01 0.  0.
    9000005    1    3    3    0    0  0.46542084863E+02 -0.15464735072E+02 -0.11967412261E+03  0.12933761756E+03  0.10000000000E+01 0.  0.
<mgrwt>
<rscale>  0 0.12498533E+03</rscale>
<asrwt>0</asrwt>
<pdfrwt beam="2">  1        4 0.23654476E-01 0.12498533E+03</pdfrwt>
<pdfrwt beam="1">  1       -4 0.39076713E-02 0.12498533E+03</pdfrwt>
<totfact> 0.93800374E+03</totfact>
</mgrwt>
</event>
<event>
 5    1  0.3312904E-002  0.1250014E+03  0.7818608E-02  0.1235067E+00
          4   -1    0    0  501    0  0.00000000000E+00  0.00000000000E+00  0.14831724829E+03  0.14832268552E+03  0.12700000000E+01 0.  1.
         -4   -1    0    0    0  501 -0.00000000000E+00 -0.00000000000E+00 -0.26316493184E+02  0.26347119643E+02  0.12700000000E+01 0.  1.
         25    2    1    2    0    0  0.00000000000E+00  0.00000000000E+00  0.12200075510E+03  0.17466980516E+03  0.12500142635E+03 0.  0.
    9000005    1    3    3    0    0  0.37164499712E+02 -0.44887451941E+02  0.29466974275E+02  0.65309922321E+02  0.10000000000E+01 0.  0.
    9000005    1    3    3    0    0 -0.37164499712E+02  0.44887451941E+02  0.92533780830E+02  0.10935988284E+03  0.10000000000E+01 0.  0.
<mgrwt>
<rscale>  0 0.12500143E+03</rscale>
<asrwt>0</asrwt>
<pdfrwt beam="1">  1        4 0.22820812E-01 0.12500143E+03</pdfrwt>
<pdfrwt beam="2">  1       -4 0.40514655E-02 0.12500143E+03</pdfrwt>
<totfact> 0.94582323E+03</totfact>
</mgrwt>
</event>
<event>
 5    1  0.3312904E-002  0.1249996E+03  0.7818608E-02  0.1235070E+00
          4   -1    0    0  501    0  0.00000000000E+00  0.00000000000E+00  0.76888579980E+03  0.76888684865E+03  0.12700000000E+01 0.  1.
         -4   -1    0    0    0  501 -0.00000000000E+00 -0.00000000000E+00 -0.49999315063E+01  0.51587028474E+01  0.12700000000E+01 0.  1.
         25    2    1    2    0    0  0.00000000000E+00  0.00000000000E+00  0.76388586829E+03  0.77404555150E+03  0.12499958408E+03 0.  0.
    9000005    1    3    3    0    0  0.68898566195E+01  0.29530100223E+02  0.43579827812E+02  0.53100831778E+02  0.10000000000E+01 0.  0.
    9000005    1    3    3    0    0 -0.68898566195E+01 -0.29530100223E+02  0.72030604048E+03  0.72094471972E+03  0.10000000000E+01 0.  0.
<mgrwt>
<rscale>  0 0.12499958E+03</rscale>
<asrwt>0</asrwt>
<pdfrwt beam="1">  1        4 0.11830244E+00 0.12499958E+03</pdfrwt>
<pdfrwt beam="2">  1       -4 0.78151392E-03 0.12499958E+03</pdfrwt>
<totfact> 0.39449915E+03</totfact>
</mgrwt>
</event>
<event>
 5    1  0.3312904E-002  0.1250006E+03  0.7818608E-02  0.1235068E+00
         -4   -1    0    0    0  501 -0.00000000000E+00  0.00000000000E+00  0.55061763046E+01  0.56507413228E+01  0.12700000000E+01 0. -1.
          4   -1    0    0  501    0  0.00000000000E+00 -0.00000000000E+00 -0.70009943503E+03  0.70010058694E+03  0.12700000000E+01 0. -1.
         25    2    1    2    0    0  0.00000000000E+00  0.00000000000E+00 -0.69459325872E+03  0.70575132826E+03  0.12500056909E+03 0.  0.
    9000005    1    3    3    0    0 -0.36146616022E+02  0.31784908963E+02 -0.12227545722E+03  0.13141212169E+03  0.10000000000E+01 0.  0.
    9000005    1    3    3    0    0  0.36146616022E+02 -0.31784908963E+02 -0.57231780150E+03  0.57433920657E+03  0.10000000000E+01 0.  0.
<mgrwt>
<rscale>  0 0.12500057E+03</rscale>
<asrwt>0</asrwt>
<pdfrwt beam="2">  1        4 0.10771874E+00 0.12500057E+03</pdfrwt>
<pdfrwt beam="1">  1       -4 0.85831360E-03 0.12500057E+03</pdfrwt>
<totfact> 0.42784315E+03</totfact>
</mgrwt>
</event>
<event>
 5    1  0.3312904E-002  0.1249939E+03  0.7818608E-02  0.1235079E+00
         -4   -1    0    0    0  501 -0.00000000000E+00  0.00000000000E+00  0.12138345026E+02  0.12204602409E+02  0.12700000000E+01 0.  1.
          4   -1    0    0  501    0  0.00000000000E+00 -0.00000000000E+00 -0.32083614824E+03  0.32083866181E+03  0.12700000000E+01 0.  1.
         25    2    1    2    0    0  0.00000000000E+00  0.00000000000E+00 -0.30869780321E+03  0.33304326422E+03  0.12499392840E+03 0.  0.
    9000005    1    3    3    0    0 -0.43761793950E+02 -0.31626600977E+02 -0.23816493523E+03  0.24421071408E+03  0.10000000000E+01 0.  0.
    9000005    1    3    3    0    0  0.43761793950E+02  0.31626600977E+02 -0.70532867979E+02  0.88832550141E+02  0.10000000000E+01 0.  0.
<mgrwt>
<rscale>  0 0.12499393E+03</rscale>
<asrwt>0</asrwt>
<pdfrwt beam="2">  1        4 0.49364691E-01 0.12499393E+03</pdfrwt>
<pdfrwt beam="1">  1       -4 0.18727280E-02 0.12499393E+03</pdfrwt>
<totfact> 0.71640831E+03</totfact>
</mgrwt>
</event>
<event>
 5    1  0.3312904E-002  0.1250008E+03  0.7818608E-02  0.1235068E+00
          4   -1    0    0  501    0  0.00000000000E+00  0.00000000000E+00  0.69256132902E+02  0.69267776380E+02  0.12700000000E+01 0.  1.
         -4   -1    0    0    0  501 -0.00000000000E+00 -0.00000000000E+00 -0.56380140646E+02  0.56394442628E+02  0.12700000000E+01 0.  1.
         25    2    1    2    0    0  0.00000000000E+00  0.00000000000E+00  0.12875992256E+02  0.12566221901E+03  0.12500080843E+03 0.  0.
    9000005    1    3    3    0    0 -0.89689039116E+01 -0.58839571115E+02 -0.12709151686E+02  0.60869195024E+02  0.10000000000E+01 0.  0.
    9000005    1    3    3    0    0  0.89689039116E+01  0.58839571115E+02  0.25585143942E+02  0.64793023983E+02  0.10000000000E+01 0.  0.
<mgrwt>
<rscale>  0 0.12500081E+03</rscale>
<asrwt>0</asrwt>
<pdfrwt beam="1">  1        4 0.10656786E-01 0.12500081E+03</pdfrwt>
<pdfrwt beam="2">  1       -4 0.86758635E-02 0.12500081E+03</pdfrwt>
<totfact> 0.10438186E+04</totfact>
</mgrwt>
</event>
<event>
 5    1  0.3312904E-002  0.1249966E+03  0.7818608E-02  0.1235075E+00
         -4   -1    0    0    0  501 -0.00000000000E+00  0.00000000000E+00  0.27694158878E+02  0.27723263443E+02  0.12700000000E+01 0.  1.
          4   -1    0    0  501    0  0.00000000000E+00 -0.00000000000E+00 -0.14093592665E+03  0.14094164863E+03  0.12700000000E+01 0.  1.
         25    2    1    2    0    0  0.00000000000E+00  0.00000000000E+00 -0.11324176777E+03  0.16866491208E+03  0.12499661835E+03 0.  0.
    9000005    1    3    3    0    0  0.32435742102E+02  0.52736700134E+02 -0.68054772940E+02  0.92009179034E+02  0.10000000000E+01 0.  0.
    9000005    1    3    3    0    0 -0.32435742102E+02 -0.52736700134E+02 -0.45186994829E+02  0.76655733043E+02  0.10000000000E+01 0.  0.
<mgrwt>
<rscale>  0 0.12499662E+03</rscale>
<asrwt>0</asrwt>
<pdfrwt beam="2">  1        4 0.21685129E-01 0.12499662E+03</pdfrwt>
<pdfrwt beam="1">  1       -4 0.42633189E-02 0.12499662E+03</pdfrwt>
<totfact> 0.95705050E+03</totfact>
</mgrwt>
</event>
<event>
 5    1  0.3312904E-002  0.1249832E+03  0.7818608E-02  0.1235096E+00
          4   -1    0    0  501    0  0.00000000000E+00  0.00000000000E+00  0.22916287356E+03  0.22916639264E+03  0.12700000000E+01 0. -1.
         -4   -1    0    0    0  501 -0.00000000000E+00 -0.00000000000E+00 -0.17013834908E+02  0.17061168725E+02  0.12700000000E+01 0. -1.
         25    2    1    2    0    0  0.00000000000E+00  0.00000000000E+00  0.21214903865E+03  0.24622756137E+03  0.12498318838E+03 0.  0.
    9000005    1    3    3    0    0  0.96527498941E+01  0.56194317886E+02  0.55722649914E+02  0.79730738468E+02  0.10000000000E+01 0.  0.
    9000005    1    3    3    0    0 -0.96527498941E+01 -0.56194317886E+02  0.15642638873E+03  0.16649682290E+03  0.10000000000E+01 0.  0.
<mgrwt>
<rscale>  0 0.12498319E+03</rscale>
<asrwt>0</asrwt>
<pdfrwt beam="1">  1        4 0.35259737E-01 0.12498319E+03</pdfrwt>
<pdfrwt beam="2">  1       -4 0.26214250E-02 0.12498319E+03</pdfrwt>
<totfact> 0.82909593E+03</totfact>
</mgrwt>
</event>
<event>
 5    1  0.3312904E-002  0.1250004E+03  0.7818608E-02  0.1235069E+00
         -4   -1    0    0    0  501 -0.00000000000E+00  0.00000000000E+00  0.45349545997E+02  0.45367325490E+02  0.12700000000E+01 0. -1.
          4   -1    0    0  501    0  0.00000000000E+00 -0.00000000000E+00 -0.86097701910E+02  0.86107068085E+02  0.12700000000E+01 0. -1.
         25    2    1    2    0    0  0.00000000000E+00  0.00000000000E+00 -0.40748155914E+02  0.13147439358E+03  0.12500041582E+03 0.  0.
    9000005    1    3    3    0    0  0.39983112570E+02 -0.39666838269E+02  0.81053760382E+01  0.56910495252E+02  0.10000000000E+01 0.  0.
    9000005    1    3    3    0    0 -0.39983112570E+02  0.39666838269E+02 -0.48853531952E+02  0.74563898324E+02  0.10000000000E+01 0.  0.
<mgrwt>
<rscale>  0 0.12500042E+03</rscale>
<asrwt>0</asrwt>
<pdfrwt beam="2">  1        4 0.13247888E-01 0.12500042E+03</pdfrwt>
<pdfrwt beam="1">  1       -4 0.69789414E-02 0.12500042E+03</pdfrwt>
<totfact> 0.10312833E+04</totfact>
</mgrwt>
</event>
<event>
 5    1  0.3312904E-002  0.1249993E+03  0.7818608E-02  0.1235070E+00
          4   -1    0    0  501    0  0.00000000000E+00  0.00000000000E+00  0.12265020704E+03  0.12265678207E+03  0.12700000000E+01 0.  1.
         -4   -1    0    0    0  501 -0.00000000000E+00 -0.00000000000E+00 -0.31828229148E+02  0.31853556641E+02  0.12700000000E+01 0.  1.
         25    2    1    2    0    0  0.00000000000E+00  0.00000000000E+00  0.90821977892E+02  0.15451033871E+03  0.12499925240E+03 0.  0.
    9000005    1    3    3    0    0 -0.46753062545E+00  0.55011214565E+02  0.82053315074E+02  0.98793718562E+02  0.10000000000E+01 0.  0.
    9000005    1    3    3    0    0  0.46753062545E+00 -0.55011214565E+02  0.87686628181E+01  0.55716620145E+02  0.10000000000E+01 0.  0.
<mgrwt>
<rscale>  0 0.12499925E+03</rscale>
<asrwt>0</asrwt>
<pdfrwt beam="1">  1        4 0.18871717E-01 0.12499925E+03</pdfrwt>
<pdfrwt beam="2">  1       -4 0.48991047E-02 0.12499925E+03</pdfrwt>
<totfact> 0.98413366E+03</totfact>
</mgrwt>
</event>
<event>
 5    1  0.3312904E-002  0.1250011E+03  0.7818608E-02  0.1235067E+00
         -4   -1    0    0    0  501 -0.00000000000E+00  0.00000000000E+00  0.18315023089E+03  0.18315463406E+03  0.12700000000E+01 0. -1.
          4   -1    0    0  501    0  0.00000000000E+00 -0.00000000000E+00 -0.21304940442E+02  0.21342759598E+02  0.12700000000E+01 0. -1.
         25    2    1    2    0    0  0.00000000000E+00  0.00000000000E+00  0.16184529045E+03  0.20449739366E+03  0.12500114388E+03 0.  0.
    9000005    1    3    3    0    0  0.53768114037E+01  0.59202289259E+02  0.49390508810E+02  0.77293230718E+02  0.10000000000E+01 0.  0.
    9000005    1    3    3    0    0 -0.53768114037E+01 -0.59202289259E+02  0.11245478164E+03  0.12720416294E+03  0.10000000000E+01 0.  0.
<mgrwt>
<rscale>  0 0.12500114E+03</rscale>
<asrwt>0</asrwt>
<pdfrwt beam="2">  1        4 0.32809309E-02 0.12500114E+03</pdfrwt>
<pdfrwt beam="1">  1       -4 0.28180207E-01 0.12500114E+03</pdfrwt>
<totfact> 0.89380200E+03</totfact>
</mgrwt>
</event>
<event>
 5    1  0.3312904E-002  0.1249924E+03  0.7818608E-02  0.1235081E+00
         -4   -1    0    0    0  501 -0.00000000000E+00  0.00000000000E+00  0.19977518472E+01  0.23672584234E+01  0.12700000000E+01 0. -1.
          4   -1    0    0  501    0  0.00000000000E+00 -0.00000000000E+00 -0.17892127432E+04  0.17892131939E+04  0.12700000000E+01 0. -1.
         25    2    1    2    0    0  0.00000000000E+00  0.00000000000E+00 -0.17872149914E+04  0.17915804524E+04  0.12499236751E+03 0.  0.
    9000005    1    3    3    0    0  0.39744329525E+01  0.57886308439E+02 -0.56109699439E+03  0.56408993781E+03  0.10000000000E+01 0.  0.
    9000005    1    3    3    0    0 -0.39744329525E+01 -0.57886308439E+02 -0.12261179970E+04  0.12274905146E+04  0.10000000000E+01 0.  0.
<mgrwt>
<rscale>  0 0.12499237E+03</rscale>
<asrwt>0</asrwt>
<pdfrwt beam="2">  1        4 0.27529078E+00 0.12499237E+03</pdfrwt>
<pdfrwt beam="1">  1       -4 0.33580612E-03 0.12499237E+03</pdfrwt>
<totfact> 0.12835916E+03</totfact>
</mgrwt>
</event>
<event>
 5    1  0.3312904E-002  0.1249872E+03  0.7818608E-02  0.1235089E+00
          4   -1    0    0  501    0  0.00000000000E+00  0.00000000000E+00  0.24682759883E+03  0.24683086607E+03  0.12700000000E+01 0.  1.
         -4   -1    0    0    0  501 -0.00000000000E+00 -0.00000000000E+00 -0.15793711212E+02  0.15844690400E+02  0.12700000000E+01 0.  1.
         25    2    1    2    0    0  0.00000000000E+00  0.00000000000E+00  0.23103388762E+03  0.26267555647E+03  0.12498716229E+03 0.  0.
    9000005    1    3    3    0    0 -0.58570948606E+02  0.14741524193E+02  0.81853006000E+02  0.10172896907E+03  0.10000000000E+01 0.  0.
    9000005    1    3    3    0    0  0.58570948606E+02 -0.14741524193E+02  0.14918088162E+03  0.16094658741E+03  0.10000000000E+01 0.  0.
<mgrwt>
<rscale>  0 0.12498716E+03</rscale>
<asrwt>0</asrwt>
<pdfrwt beam="1">  1        4 0.37977645E-01 0.12498716E+03</pdfrwt>
<pdfrwt beam="2">  1       -4 0.24339748E-02 0.12498716E+03</pdfrwt>
<totfact> 0.80555060E+03</totfact>
</mgrwt>
</event>
<event>
 5    1  0.3312904E-002  0.1250003E+03  0.7818608E-02  0.1235069E+00
          4   -1    0    0  501    0  0.00000000000E+00  0.00000000000E+00  0.12385536824E+02  0.12450478803E+02  0.12700000000E+01 0.  1.
         -4   -1    0    0    0  501 -0.00000000000E+00 -0.00000000000E+00 -0.31449842979E+03  0.31450099402E+03  0.12700000000E+01 0.  1.
         25    2    1    2    0    0  0.00000000000E+00  0.00000000000E+00 -0.30211289297E+03  0.32695147282E+03  0.12500026194E+03 0.  0.
    9000005    1    3    3    0    0 -0.28449160313E+02 -0.45363859646E+02 -0.23532736398E+03  0.24134457260E+03  0.10000000000E+01 0.  0.
    9000005    1    3    3    0    0  0.28449160313E+02  0.45363859646E+02 -0.66785528987E+02  0.85606900227E+02  0.10000000000E+01 0.  0.
<mgrwt>
<rscale>  0 0.12500026E+03</rscale>
<asrwt>0</asrwt>
<pdfrwt beam="1">  1        4 0.19106602E-02 0.12500026E+03</pdfrwt>
<pdfrwt beam="2">  1       -4 0.48389561E-01 0.12500026E+03</pdfrwt>
<totfact> 0.72336480E+03</totfact>
</mgrwt>
</event>
<event>
 5    1  0.3312904E-002  0.1250004E+03  0.7818608E-02  0.1235069E+00
          4   -1    0    0  501    0  0.00000000000E+00  0.00000000000E+00  0.86004006576E+03  0.86004100345E+03  0.12700000000E+01 0. -1.
         -4   -1    0    0    0  501 -0.00000000000E+00 -0.00000000000E+00 -0.44522322739E+01  0.46298242106E+01  0.12700000000E+01 0. -1.
         25    2    1    2    0    0  0.00000000000E+00  0.00000000000E+00  0.85558783348E+03  0.86467082766E+03  0.12500039758E+03 0.  0.
    9000005    1    3    3    0    0  0.28512199180E+02  0.55008228392E+02  0.37141685542E+03  0.37655056922E+03  0.10000000000E+01 0.  0.
    9000005    1    3    3    0    0 -0.28512199180E+02 -0.55008228392E+02  0.48417097807E+03  0.48812025843E+03  0.10000000000E+01 0.  0.
<mgrwt>
<rscale>  0 0.12500040E+03</rscale>
<asrwt>0</asrwt>
<pdfrwt beam="1">  1        4 0.13232742E+00 0.12500040E+03</pdfrwt>
<pdfrwt beam="2">  1       -4 0.69869277E-03 0.12500040E+03</pdfrwt>
<totfact> 0.35534124E+03</totfact>
</mgrwt>
</event>
<event>
 5    1  0.3312904E-002  0.1249984E+03  0.7818608E-02  0.1235072E+00
          4   -1    0    0  501    0  0.00000000000E+00  0.00000000000E+00  0.11396683009E+02  0.11467226501E+02  0.12700000000E+01 0.  1.
         -4   -1    0    0    0  501 -0.00000000000E+00 -0.00000000000E+00 -0.34161520353E+03  0.34161756422E+03  0.12700000000E+01 0.  1.
         25    2    1    2    0    0  0.00000000000E+00  0.00000000000E+00 -0.33021852052E+03  0.35308479072E+03  0.12499839256E+03 0.  0.
    9000005    1    3    3    0    0 -0.55646138871E+02  0.25079269461E+02 -0.12724469972E+03  0.14112999729E+03  0.10000000000E+01 0.  0.
    9000005    1    3    3    0    0  0.55646138871E+02 -0.25079269461E+02 -0.20297382080E+03  0.21195479343E+03  0.10000000000E+01 0.  0.
<mgrwt>
<rscale>  0 0.12499839E+03</rscale>
<asrwt>0</asrwt>
<pdfrwt beam="1">  1        4 0.17589441E-02 0.12499839E+03</pdfrwt>
<pdfrwt beam="2">  1       -4 0.52561785E-01 0.12499839E+03</pdfrwt>
<totfact> 0.69388991E+03</totfact>
</mgrwt>
</event>
<event>
 4    1  0.3312904E-002  0.1253666E+03  0.7818608E-02  0.1234498E+00
         -4   -1    0    0    0  501 -0.00000000000E+00  0.00000000000E+00  0.18253162334E+02  0.18297290378E+02  0.12700000000E+01 0. -1.
          4   -1    0    0  501    0  0.00000000000E+00 -0.00000000000E+00 -0.21495507849E+03  0.21495883017E+03  0.12700000000E+01 0. -1.
    9000005    1    1    2    0    0 -0.16461818215E+02  0.60398305754E+02 -0.92693197937E+02  0.11185694319E+03  0.10000000000E+01 0.  0.
    9000005    1    1    2    0    0  0.16461818215E+02 -0.60398305754E+02 -0.10400871822E+03  0.12139917735E+03  0.10000000000E+01 0.  0.
<mgrwt>
<rscale>  0 0.12536656E+03</rscale>
<asrwt>0</asrwt>
<pdfrwt beam="2">  1        4 0.33073693E-01 0.12536656E+03</pdfrwt>
<pdfrwt beam="1">  1       -4 0.28118620E-02 0.12536656E+03</pdfrwt>
<totfact> 0.84122376E+03</totfact>
</mgrwt>
</event>
<event>
 5    1  0.3312904E-002  0.1250047E+03  0.7818608E-02  0.1235062E+00
         -4   -1    0    0    0  501 -0.00000000000E+00  0.00000000000E+00  0.11773828150E+03  0.11774513081E+03  0.12700000000E+01 0. -1.
          4   -1    0    0  501    0  0.00000000000E+00 -0.00000000000E+00 -0.33159911833E+02  0.33184222950E+02  0.12700000000E+01 0. -1.
         25    2    1    2    0    0  0.00000000000E+00  0.00000000000E+00  0.84578369663E+02  0.15092935376E+03  0.12500467676E+03 0.  0.
    9000005    1    3    3    0    0  0.22875861546E+02  0.52333447790E+01  0.11222247538E+03  0.11465416224E+03  0.10000000000E+01 0.  0.
    9000005    1    3    3    0    0 -0.22875861546E+02 -0.52333447790E+01 -0.27644105715E+02  0.36275191520E+02  0.10000000000E+01 0.  0.
<mgrwt>
<rscale>  0 0.12500468E+03</rscale>
<asrwt>0</asrwt>
<pdfrwt beam="2">  1        4 0.51039220E-02 0.12500468E+03</pdfrwt>
<pdfrwt beam="1">  1       -4 0.18115978E-01 0.12500468E+03</pdfrwt>
<totfact> 0.99108337E+03</totfact>
</mgrwt>
</event>
<event>
 5    1  0.3312904E-002  0.1249613E+03  0.7818608E-02  0.1235130E+00
          4   -1    0    0  501    0  0.00000000000E+00  0.00000000000E+00  0.11846275545E+02  0.11914157305E+02  0.12700000000E+01 0. -1.
         -4   -1    0    0    0  501 -0.00000000000E+00 -0.00000000000E+00 -0.32853033754E+03  0.32853279225E+03  0.12700000000E+01 0. -1.
         25    2    1    2    0    0  0.00000000000E+00  0.00000000000E+00 -0.31668406200E+03  0.34044694956E+03  0.12496131537E+03 0.  0.
    9000005    1    3    3    0    0 -0.29059152227E+02  0.54666545017E+02 -0.13555326360E+03  0.14902534262E+03  0.10000000000E+01 0.  0.
    9000005    1    3    3    0    0  0.29059152227E+02 -0.54666545017E+02 -0.18113079840E+03  0.19142160694E+03  0.10000000000E+01 0.  0.
<mgrwt>
<rscale>  0 0.12496132E+03</rscale>
<asrwt>0</asrwt>
<pdfrwt beam="1">  1        4 0.18279147E-02 0.12496132E+03</pdfrwt>
<pdfrwt beam="2">  1       -4 0.50548532E-01 0.12496132E+03</pdfrwt>
<totfact> 0.70849124E+03</totfact>
</mgrwt>
</event>
<event>
 5    1  0.3312904E-002  0.1250040E+03  0.7818608E-02  0.1235063E+00
          4   -1    0    0  501    0  0.00000000000E+00  0.00000000000E+00  0.19397131737E+02  0.19438663011E+02  0.12700000000E+01 0.  1.
         -4   -1    0    0    0  501 -0.00000000000E+00 -0.00000000000E+00 -0.20113673790E+03  0.20114074732E+03  0.12700000000E+01 0.  1.
         25    2    1    2    0    0  0.00000000000E+00  0.00000000000E+00 -0.18173960616E+03  0.22057941033E+03  0.12500396719E+03 0.  0.
    9000005    1    3    3    0    0  0.36255839185E+02 -0.33913288535E+02 -0.15785182259E+03  0.16547747554E+03  0.10000000000E+01 0.  0.
    9000005    1    3    3    0    0 -0.36255839185E+02  0.33913288535E+02 -0.23887783568E+02  0.55101934794E+02  0.10000000000E+01 0.  0.
<mgrwt>
<rscale>  0 0.12500397E+03</rscale>
<asrwt>0</asrwt>
<pdfrwt beam="1">  1        4 0.29876774E-02 0.12500397E+03</pdfrwt>
<pdfrwt beam="2">  1       -4 0.30947615E-01 0.12500397E+03</pdfrwt>
<totfact> 0.86769060E+03</totfact>
</mgrwt>
</event>
<event>
 5    1  0.3312904E-002  0.1249991E+03  0.7818608E-02  0.1235071E+00
         -4   -1    0    0    0  501 -0.00000000000E+00  0.00000000000E+00  0.90633563318E+02  0.90642460799E+02  0.12700000000E+01 0. -1.
          4   -1    0    0  501    0  0.00000000000E+00 -0.00000000000E+00 -0.43078404270E+02  0.43097120721E+02  0.12700000000E+01 0. -1.
         25    2    1    2    0    0  0.00000000000E+00  0.00000000000E+00  0.47555159048E+02  0.13373958152E+03  0.12499913005E+03 0.  0.
    9000005    1    3    3    0    0 -0.29754543288E+01  0.16356668500E+02  0.88229310749E+02  0.89787555976E+02  0.10000000000E+01 0.  0.
    9000005    1    3    3    0    0  0.29754543288E+01 -0.16356668500E+02 -0.40674151701E+02  0.43952025545E+02  0.10000000000E+01 0.  0.
<mgrwt>
<rscale>  0 0.12499913E+03</rscale>
<asrwt>0</asrwt>
<pdfrwt beam="2">  1        4 0.66295711E-02 0.12499913E+03</pdfrwt>
<pdfrwt beam="1">  1       -4 0.13945749E-01 0.12499913E+03</pdfrwt>
<totfact> 0.10264907E+04</totfact>
</mgrwt>
</event>
<event>
 5    1  0.3312904E-002  0.1249983E+03  0.7818608E-02  0.1235072E+00
         -4   -1    0    0    0  501 -0.00000000000E+00  0.00000000000E+00  0.81139048399E+02  0.81148986901E+02  0.12700000000E+01 0.  1.
          4   -1    0    0  501    0  0.00000000000E+00 -0.00000000000E+00 -0.48120061354E+02  0.48136817559E+02  0.12700000000E+01 0.  1.
         25    2    1    2    0    0  0.00000000000E+00  0.00000000000E+00  0.33018987045E+02  0.12928580446E+03  0.12499826291E+03 0.  0.
    9000005    1    3    3    0    0  0.13382323637E+02  0.22562196096E+02 -0.42154623761E+02  0.49660362293E+02  0.10000000000E+01 0.  0.
    9000005    1    3    3    0    0 -0.13382323637E+02 -0.22562196096E+02  0.75173610807E+02  0.79625442167E+02  0.10000000000E+01 0.  0.
<mgrwt>
<rscale>  0 0.12499826E+03</rscale>
<asrwt>0</asrwt>
<pdfrwt beam="2">  1        4 0.74051398E-02 0.12499826E+03</pdfrwt>
<pdfrwt beam="1">  1       -4 0.12484984E-01 0.12499826E+03</pdfrwt>
<totfact> 0.10360216E+04</totfact>
</mgrwt>
</event>
<event>
 5    1  0.3312904E-002  0.1250001E+03  0.7818608E-02  0.1235069E+00
          4   -1    0    0  501    0  0.00000000000E+00  0.00000000000E+00  0.38102277532E+03  0.38102489186E+03  0.12700000000E+01 0. -1.
         -4   -1    0    0    0  501 -0.00000000000E+00 -0.00000000000E+00 -0.10210541897E+02  0.10289220856E+02  0.12700000000E+01 0. -1.
         25    2    1    2    0    0  0.00000000000E+00  0.00000000000E+00  0.37081223343E+03  0.39131411271E+03  0.12500008940E+03 0.  0.
    9000005    1    3    3    0    0 -0.59575588962E+02 -0.48926899139E+01  0.24245243706E+03  0.24971458398E+03  0.10000000000E+01 0.  0.
    9000005    1    3    3    0    0  0.59575588962E+02  0.48926899139E+01  0.12835979636E+03  0.14159952873E+03  0.10000000000E+01 0.  0.
<mgrwt>
<rscale>  0 0.12500009E+03</rscale>
<asrwt>0</asrwt>
<pdfrwt beam="1">  1        4 0.58625096E-01 0.12500009E+03</pdfrwt>
<pdfrwt beam="2">  1       -4 0.15770678E-02 0.12500009E+03</pdfrwt>
<totfact> 0.65406300E+03</totfact>
</mgrwt>
</event>
<event>
 5    1  0.3312904E-002  0.1250019E+03  0.7818608E-02  0.1235066E+00
          4   -1    0    0  501    0  0.00000000000E+00  0.00000000000E+00  0.31184969043E+03  0.31185227644E+03  0.12700000000E+01 0.  1.
         -4   -1    0    0    0  501 -0.00000000000E+00 -0.00000000000E+00 -0.12491613268E+02  0.12556006612E+02  0.12700000000E+01 0.  1.
         25    2    1    2    0    0  0.00000000000E+00  0.00000000000E+00  0.29935807716E+03  0.32440828305E+03  0.12500190299E+03 0.  0.
    9000005    1    3    3    0    0 -0.12434928477E+01  0.53910164693E+02  0.67712721740E+02  0.86567111637E+02  0.10000000000E+01 0.  0.
    9000005    1    3    3    0    0  0.12434928477E+01 -0.53910164693E+02  0.23164535542E+03  0.23784117141E+03  0.10000000000E+01 0.  0.
<mgrwt>
<rscale>  0 0.12500190E+03</rscale>
<asrwt>0</asrwt>
<pdfrwt beam="1">  1        4 0.47982021E-01 0.12500190E+03</pdfrwt>
<pdfrwt beam="2">  1       -4 0.19269392E-02 0.12500190E+03</pdfrwt>
<totfact> 0.72631808E+03</totfact>
</mgrwt>
</event>
<event>
 5    1  0.3312904E-002  0.1250001E+03  0.7818608E-02  0.1235069E+00
          4   -1    0    0  501    0  0.00000000000E+00  0.00000000000E+00  0.11893822644E+03  0.11894500665E+03  0.12700000000E+01 0.  1.
         -4   -1    0    0    0  501 -0.00000000000E+00 -0.00000000000E+00 -0.32822715067E+02  0.32847275752E+02  0.12700000000E+01 0.  1.
         25    2    1    2    0    0  0.00000000000E+00  0.00000000000E+00  0.86115511370E+02  0.15179228241E+03  0.12500006280E+03 0.  0.
    9000005    1    3    3    0    0 -0.38402562299E+02 -0.18841099647E+02 -0.12264755514E+02  0.44510314027E+02  0.10000000000E+01 0.  0.
    9000005    1    3    3    0    0  0.38402562299E+02  0.18841099647E+02  0.98380266884E+02  0.10728196838E+03  0.10000000000E+01 0.  0.
<mgrwt>
<rscale>  0 0.12500006E+03</rscale>
<asrwt>0</asrwt>
<pdfrwt beam="1">  1        4 0.18300600E-01 0.12500006E+03</pdfrwt>
<pdfrwt beam="2">  1       -4 0.50520592E-02 0.12500006E+03</pdfrwt>
<totfact> 0.98947486E+03</totfact>
</mgrwt>
</event>
<event>
 5    1  0.3312904E-002  0.1250005E+03  0.7818608E-02  0.1235068E+00
          4   -1    0    0  501    0  0.00000000000E+00  0.00000000000E+00  0.39147108071E+03  0.39147314076E+03  0.12700000000E+01 0. -1.
         -4   -1    0    0    0  501 -0.00000000000E+00 -0.00000000000E+00 -0.99359648273E+01  0.10016800739E+02  0.12700000000E+01 0. -1.
         25    2    1    2    0    0  0.00000000000E+00  0.00000000000E+00  0.38153511588E+03  0.40148994149E+03  0.12500051388E+03 0.  0.
    9000005    1    3    3    0    0 -0.45179245364E+02 -0.78401152300E+01  0.32713749421E+03  0.33033705777E+03  0.10000000000E+01 0.  0.
    9000005    1    3    3    0    0  0.45179245364E+02  0.78401152300E+01  0.54397621672E+02  0.71152883723E+02  0.10000000000E+01 0.  0.
<mgrwt>
<rscale>  0 0.12500051E+03</rscale>
<asrwt>0</asrwt>
<pdfrwt beam="1">  1        4 0.60232698E-01 0.12500051E+03</pdfrwt>
<pdfrwt beam="2">  1       -4 0.15349865E-02 0.12500051E+03</pdfrwt>
<totfact> 0.64407403E+03</totfact>
</mgrwt>
</event>
<event>
 5    1  0.3312904E-002  0.1249990E+03  0.7818608E-02  0.1235071E+00
         -4   -1    0    0    0  501 -0.00000000000E+00  0.00000000000E+00  0.10092056061E+02  0.10171651564E+02  0.12700000000E+01 0. -1.
          4   -1    0    0  501    0  0.00000000000E+00 -0.00000000000E+00 -0.38545441797E+03  0.38545651017E+03  0.12700000000E+01 0. -1.
         25    2    1    2    0    0  0.00000000000E+00  0.00000000000E+00 -0.37536236191E+03  0.39562816173E+03  0.12499895847E+03 0.  0.
    9000005    1    3    3    0    0 -0.30772790488E+02 -0.38549232401E+02 -0.30912091595E+03  0.31303314302E+03  0.10000000000E+01 0.  0.
    9000005    1    3    3    0    0  0.30772790488E+02  0.38549232401E+02 -0.66241445960E+02  0.82595018711E+02  0.10000000000E+01 0.  0.
<mgrwt>
<rscale>  0 0.12499896E+03</rscale>
<asrwt>0</asrwt>
<pdfrwt beam="2">  1        4 0.59306952E-01 0.12499896E+03</pdfrwt>
<pdfrwt beam="1">  1       -4 0.15589080E-02 0.12499896E+03</pdfrwt>
<totfact> 0.64981721E+03</totfact>
</mgrwt>
</event>
<event>
 5    1  0.3312904E-002  0.1250011E+03  0.7818608E-02  0.1235068E+00
         -4   -1    0    0    0  501 -0.00000000000E+00  0.00000000000E+00  0.17460563271E+02  0.17506689286E+02  0.12700000000E+01 0. -1.
          4   -1    0    0  501    0  0.00000000000E+00 -0.00000000000E+00 -0.22337946896E+03  0.22338307915E+03  0.12700000000E+01 0. -1.
         25    2    1    2    0    0  0.00000000000E+00  0.00000000000E+00 -0.20591890569E+03  0.24088976844E+03  0.12500113927E+03 0.  0.
    9000005    1    3    3    0    0 -0.50111031242E+02  0.25948216954E+02 -0.15470114496E+03  0.16467504264E+03  0.10000000000E+01 0.  0.
    9000005    1    3    3    0    0  0.50111031242E+02 -0.25948216954E+02 -0.51217760723E+02  0.76214725800E+02  0.10000000000E+01 0.  0.
<mgrwt>
<rscale>  0 0.12500114E+03</rscale>
<asrwt>0</asrwt>
<pdfrwt beam="2">  1        4 0.34369896E-01 0.12500114E+03</pdfrwt>
<pdfrwt beam="1">  1       -4 0.26900665E-02 0.12500114E+03</pdfrwt>
<totfact> 0.83662907E+03</totfact>
</mgrwt>
</event>
<event>
 5    1  0.3312904E-002  0.1249941E+03  0.7818608E-02  0.1235078E+00
         -4   -1    0    0    0  501 -0.00000000000E+00  0.00000000000E+00  0.28278109061E+02  0.28306613222E+02  0.12700000000E+01 0.  1.
          4   -1    0    0  501    0  0.00000000000E+00 -0.00000000000E+00 -0.13802292727E+03  0.13802877002E+03  0.12700000000E+01 0.  1.
         25    2    1    2    0    0  0.00000000000E+00  0.00000000000E+00 -0.10974481821E+03  0.16633538324E+03  0.12499413824E+03 0.  0.
    9000005    1    3    3    0    0 -0.57922433736E+02  0.35585080702E+01 -0.85716216752E+02  0.10351782998E+03  0.10000000000E+01 0.  0.
    9000005    1    3    3    0    0  0.57922433736E+02 -0.35585080702E+01 -0.24028601460E+02  0.62817553261E+02  0.10000000000E+01 0.  0.
<mgrwt>
<rscale>  0 0.12499414E+03</rscale>
<asrwt>0</asrwt>
<pdfrwt beam="2">  1        4 0.21236938E-01 0.12499414E+03</pdfrwt>
<pdfrwt beam="1">  1       -4 0.43531205E-02 0.12499414E+03</pdfrwt>
<totfact> 0.96147747E+03</totfact>
</mgrwt>
</event>
<event>
 5    1  0.3312904E-002  0.1250002E+03  0.7818608E-02  0.1235069E+00
          4   -1    0    0  501    0  0.00000000000E+00  0.00000000000E+00  0.23932439348E+02  0.23966112600E+02  0.12700000000E+01 0.  1.
         -4   -1    0    0    0  501 -0.00000000000E+00 -0.00000000000E+00 -0.16306958144E+03  0.16307452680E+03  0.12700000000E+01 0.  1.
         25    2    1    2    0    0  0.00000000000E+00  0.00000000000E+00 -0.13913714209E+03  0.18704063940E+03  0.12500022591E+03 0.  0.
    9000005    1    3    3    0    0 -0.22417297236E+02  0.55795945787E+02 -0.95029864876E+02  0.11246065090E+03  0.10000000000E+01 0.  0.
    9000005    1    3    3    0    0  0.22417297236E+02 -0.55795945787E+02 -0.44107277214E+02  0.74579988502E+02  0.10000000000E+01 0.  0.
<mgrwt>
<rscale>  0 0.12500023E+03</rscale>
<asrwt>0</asrwt>
<pdfrwt beam="1">  1        4 0.36848845E-02 0.12500023E+03</pdfrwt>
<pdfrwt beam="2">  1       -4 0.25090598E-01 0.12500023E+03</pdfrwt>
<totfact> 0.92364331E+03</totfact>
</mgrwt>
</event>
<event>
 5    1  0.3312904E-002  0.1249992E+03  0.7818608E-02  0.1235071E+00
         -4   -1    0    0    0  501 -0.00000000000E+00  0.00000000000E+00  0.13391681772E+02  0.13451767196E+02  0.12700000000E+01 0.  1.
          4   -1    0    0  501    0  0.00000000000E+00 -0.00000000000E+00 -0.29097393060E+03  0.29097670215E+03  0.12700000000E+01 0.  1.
         25    2    1    2    0    0  0.00000000000E+00  0.00000000000E+00 -0.27758224883E+03  0.30442846934E+03  0.12499915231E+03 0.  0.
    9000005    1    3    3    0    0 -0.16453167901E+02 -0.59603000070E+02 -0.11674091429E+03  0.13210853652E+03  0.10000000000E+01 0.  0.
    9000005    1    3    3    0    0  0.16453167901E+02  0.59603000070E+02 -0.16084133454E+03  0.17231993282E+03  0.10000000000E+01 0.  0.
<mgrwt>
<rscale>  0 0.12499915E+03</rscale>
<asrwt>0</asrwt>
<pdfrwt beam="2">  1        4 0.44770050E-01 0.12499915E+03</pdfrwt>
<pdfrwt beam="1">  1       -4 0.20650941E-02 0.12499915E+03</pdfrwt>
<totfact> 0.75048090E+03</totfact>
</mgrwt>
</event>
<event>
 5    1  0.3312904E-002  0.1250004E+03  0.7818608E-02  0.1235069E+00
          4   -1    0    0  501    0  0.00000000000E+00  0.00000000000E+00  0.56352344433E+01  0.57765705424E+01  0.12700000000E+01 0. -1.
         -4   -1    0    0    0  501 -0.00000000000E+00 -0.00000000000E+00 -0.68446039386E+03  0.68446157208E+03  0.12700000000E+01 0. -1.
         25    2    1    2    0    0  0.00000000000E+00  0.00000000000E+00 -0.67882515941E+03  0.69023814263E+03  0.12500038593E+03 0.  0.
    9000005    1    3    3    0    0 -0.21168439903E+02 -0.29079445307E+02 -0.57225343112E+02  0.67597757963E+02  0.10000000000E+01 0.  0.
    9000005    1    3    3    0    0  0.21168439903E+02  0.29079445307E+02 -0.62159981630E+03  0.62264038466E+03  0.10000000000E+01 0.  0.
<mgrwt>
<rscale>  0 0.12500039E+03</rscale>
<asrwt>0</asrwt>
<pdfrwt beam="1">  1        4 0.87792233E-03 0.12500039E+03</pdfrwt>
<pdfrwt beam="2">  1       -4 0.10531250E+00 0.12500039E+03</pdfrwt>
<totfact> 0.43606693E+03</totfact>
</mgrwt>
</event>
<event>
 5    1  0.3312904E-002  0.1250016E+03  0.7818608E-02  0.1235067E+00
         -4   -1    0    0    0  501 -0.00000000000E+00  0.00000000000E+00  0.11355008541E+04  0.11355015643E+04  0.12700000000E+01 0. -1.
          4   -1    0    0  501    0  0.00000000000E+00 -0.00000000000E+00 -0.33222554559E+01  0.35567233958E+01  0.12700000000E+01 0. -1.
         25    2    1    2    0    0  0.00000000000E+00  0.00000000000E+00  0.11321785986E+04  0.11390582877E+04  0.12500161429E+03 0.  0.
    9000005    1    3    3    0    0 -0.51935115567E+02 -0.25383298395E+02  0.78245392030E+03  0.78458696488E+03  0.10000000000E+01 0.  0.
    9000005    1    3    3    0    0  0.51935115567E+02  0.25383298395E+02  0.34972467832E+03  0.35447132281E+03  0.10000000000E+01 0.  0.
<mgrwt>
<rscale>  0 0.12500161E+03</rscale>
<asrwt>0</asrwt>
<pdfrwt beam="2">  1        4 0.52920721E-03 0.12500161E+03</pdfrwt>
<pdfrwt beam="1">  1       -4 0.17471041E+00 0.12500161E+03</pdfrwt>
<totfact> 0.26364878E+03</totfact>
</mgrwt>
</event>
<event>
 5    1  0.3312904E-002  0.1250001E+03  0.7818608E-02  0.1235069E+00
          4   -1    0    0  501    0  0.00000000000E+00  0.00000000000E+00  0.55594411678E+02  0.55608915741E+02  0.12700000000E+01 0. -1.
         -4   -1    0    0    0  501 -0.00000000000E+00 -0.00000000000E+00 -0.70234055193E+02  0.70245536576E+02  0.12700000000E+01 0. -1.
         25    2    1    2    0    0  0.00000000000E+00  0.00000000000E+00 -0.14639643514E+02  0.12585445232E+03  0.12500009602E+03 0.  0.
    9000005    1    3    3    0    0 -0.42593645970E+02  0.29307244068E+02 -0.42661342166E+02  0.67038223032E+02  0.10000000000E+01 0.  0.
    9000005    1    3    3    0    0  0.42593645970E+02 -0.29307244068E+02  0.28021698652E+02  0.58816229284E+02  0.10000000000E+01 0.  0.
<mgrwt>
<rscale>  0 0.12500010E+03</rscale>
<asrwt>0</asrwt>
<pdfrwt beam="1">  1        4 0.85549853E-02 0.12500010E+03</pdfrwt>
<pdfrwt beam="2">  1       -4 0.10807238E-01 0.12500010E+03</pdfrwt>
<totfact> 0.10434127E+04</totfact>
</mgrwt>
</event>
<event>
 5    1  0.3312904E-002  0.1249956E+03  0.7818608E-02  0.1235076E+00
         -4   -1    0    0    0  501 -0.00000000000E+00  0.00000000000E+00  0.18151874928E+03  0.18152319202E+03  0.12700000000E+01 0. -1.
          4   -1    0    0  501    0  0.00000000000E+00 -0.00000000000E+00 -0.21494848254E+02  0.21532333860E+02  0.12700000000E+01 0. -1.
         25    2    1    2    0    0  0.00000000000E+00  0.00000000000E+00  0.16002390103E+03  0.20305552588E+03  0.12499559068E+03 0.  0.
    9000005    1    3    3    0    0 -0.54167950052E+00 -0.61292409956E+02  0.60254279369E+02  0.85957146981E+02  0.10000000000E+01 0.  0.
    9000005    1    3    3    0    0  0.54167950052E+00  0.61292409956E+02  0.99769621659E+02  0.11709837890E+03  0.10000000000E+01 0.  0.
<mgrwt>
<rscale>  0 0.12499559E+03</rscale>
<asrwt>0</asrwt>
<pdfrwt beam="2">  1        4 0.33101251E-02 0.12499559E+03</pdfrwt>
<pdfrwt beam="1">  1       -4 0.27929186E-01 0.12499559E+03</pdfrwt>
<totfact> 0.89631555E+03</totfact>
</mgrwt>
</event>
<event>
 5    1  0.3312904E-002  0.1250026E+03  0.7818608E-02  0.1235065E+00
         -4   -1    0    0    0  501 -0.00000000000E+00  0.00000000000E+00  0.23242686129E+02  0.23277357206E+02  0.12700000000E+01 0. -1.
          4   -1    0    0  501    0  0.00000000000E+00 -0.00000000000E+00 -0.16790823010E+03  0.16791303295E+03  0.12700000000E+01 0. -1.
         25    2    1    2    0    0  0.00000000000E+00  0.00000000000E+00 -0.14466554397E+03  0.19119039016E+03  0.12500258268E+03 0.  0.
    9000005    1    3    3    0    0 -0.40228561225E+02 -0.32898855862E+02 -0.19245102583E+02  0.55426039266E+02  0.10000000000E+01 0.  0.
    9000005    1    3    3    0    0  0.40228561225E+02  0.32898855862E+02 -0.12542044139E+03  0.13576435089E+03  0.10000000000E+01 0.  0.
<mgrwt>
<rscale>  0 0.12500258E+03</rscale>
<asrwt>0</asrwt>
<pdfrwt beam="2">  1        4 0.25835071E-01 0.12500258E+03</pdfrwt>
<pdfrwt beam="1">  1       -4 0.35788344E-02 0.12500258E+03</pdfrwt>
<totfact> 0.91635302E+03</totfact>
</mgrwt>
</event>
<event>
 5    1  0.3312904E-002  0.1250036E+03  0.7818608E-02  0.1235064E+00
          4   -1    0    0  501    0  0.00000000000E+00  0.00000000000E+00  0.18226372737E+02  0.18270565485E+02  0.12700000000E+01 0. -1.
         -4   -1    0    0    0  501 -0.00000000000E+00 -0.00000000000E+00 -0.21402545859E+03  0.21402922656E+03  0.12700000000E+01 0. -1.
         25    2    1    2    0    0  0.00000000000E+00  0.00000000000E+00 -0.19579908585E+03  0.23229979205E+03  0.12500364541E+03 0.  0.
    9000005    1    3    3    0    0  0.47985056839E+02 -0.25451344642E+02 -0.40466750021E+02  0.67741379387E+02  0.10000000000E+01 0.  0.
    9000005    1    3    3    0    0 -0.47985056839E+02  0.25451344642E+02 -0.15533233583E+03  0.16455841266E+03  0.10000000000E+01 0.  0.
<mgrwt>
<rscale>  0 0.12500365E+03</rscale>
<asrwt>0</asrwt>
<pdfrwt beam="1">  1        4 0.28077468E-02 0.12500365E+03</pdfrwt>
<pdfrwt beam="2">  1       -4 0.32930681E-01 0.12500365E+03</pdfrwt>
<totfact> 0.84950801E+03</totfact>
</mgrwt>
</event>
<event>
 5    1  0.3312904E-002  0.1249955E+03  0.7818608E-02  0.1235076E+00
         -4   -1    0    0    0  501 -0.00000000000E+00  0.00000000000E+00  0.49036674163E+02  0.49053117261E+02  0.12700000000E+01 0.  1.
          4   -1    0    0  501    0  0.00000000000E+00 -0.00000000000E+00 -0.79619166478E+02  0.79629294676E+02  0.12700000000E+01 0.  1.
         25    2    1    2    0    0  0.00000000000E+00  0.00000000000E+00 -0.30582492314E+02  0.12868241194E+03  0.12499549714E+03 0.  0.
    9000005    1    3    3    0    0 -0.49618246326E+02  0.36206706735E+02 -0.34599811973E+01  0.61529403141E+02  0.10000000000E+01 0.  0.
    9000005    1    3    3    0    0  0.49618246326E+02 -0.36206706735E+02 -0.27122511117E+02  0.67153008796E+02  0.10000000000E+01 0.  0.
<mgrwt>
<rscale>  0 0.12499550E+03</rscale>
<asrwt>0</asrwt>
<pdfrwt beam="2">  1        4 0.12251146E-01 0.12499550E+03</pdfrwt>
<pdfrwt beam="1">  1       -4 0.75461477E-02 0.12499550E+03</pdfrwt>
<totfact> 0.10373831E+04</totfact>
</mgrwt>
</event>
<event>
 5    1  0.3312904E-002  0.1250025E+03  0.7818608E-02  0.1235065E+00
         -4   -1    0    0    0  501 -0.00000000000E+00  0.00000000000E+00  0.75455637376E+02  0.75466324356E+02  0.12700000000E+01 0.  1.
          4   -1    0    0  501    0  0.00000000000E+00 -0.00000000000E+00 -0.51748758346E+02  0.51764339949E+02  0.12700000000E+01 0.  1.
         25    2    1    2    0    0  0.00000000000E+00  0.00000000000E+00  0.23706879030E+02  0.12723066430E+03  0.12500250328E+03 0.  0.
    9000005    1    3    3    0    0  0.46455025013E+02  0.40115097404E+02  0.23815202344E+02  0.65844166419E+02  0.10000000000E+01 0.  0.
    9000005    1    3    3    0    0 -0.46455025013E+02 -0.40115097404E+02 -0.10832331417E+00  0.61386497886E+02  0.10000000000E+01 0.  0.
<mgrwt>
<rscale>  0 0.12500250E+03</rscale>
<asrwt>0</asrwt>
<pdfrwt beam="2">  1        4 0.79633681E-02 0.12500250E+03</pdfrwt>
<pdfrwt beam="1">  1       -4 0.11610580E-01 0.12500250E+03</pdfrwt>
<totfact> 0.10403550E+04</totfact>
</mgrwt>
</event>
<event>
 5    1  0.3312904E-002  0.1250001E+03  0.7818608E-02  0.1235069E+00
         -4   -1    0    0    0  501 -0.00000000000E+00  0.00000000000E+00  0.10520234148E+03  0.10521000691E+03  0.12700000000E+01 0.  1.
          4   -1    0    0  501    0  0.00000000000E+00 -0.00000000000E+00 -0.37110987177E+02  0.37132711579E+02  0.12700000000E+01 0.  1.
         25    2    1    2    0    0  0.00000000000E+00  0.00000000000E+00  0.68091354305E+02  0.14234271849E+03  0.12500006790E+03 0.  0.
    9000005    1    3    3    0    0 -0.48485636033E+02 -0.10262784635E+02 -0.93024240119E+01  0.50435272801E+02  0.10000000000E+01 0.  0.
    9000005    1    3    3    0    0  0.48485636033E+02  0.10262784635E+02  0.77393778317E+02  0.91907445684E+02  0.10000000000E+01 0.  0.
<mgrwt>
<rscale>  0 0.12500007E+03</rscale>
<asrwt>0</asrwt>
<pdfrwt beam="2">  1        4 0.57116434E-02 0.12500007E+03</pdfrwt>
<pdfrwt beam="1">  1       -4 0.16187236E-01 0.12500007E+03</pdfrwt>
<totfact> 0.10085245E+04</totfact>
</mgrwt>
</event>
<event>
 5    1  0.3312904E-002  0.1249983E+03  0.7818608E-02  0.1235072E+00
          4   -1    0    0  501    0  0.00000000000E+00  0.00000000000E+00  0.57744803130E+03  0.57744942788E+03  0.12700000000E+01 0.  1.
         -4   -1    0    0    0  501 -0.00000000000E+00 -0.00000000000E+00 -0.67034640323E+01  0.68227069432E+01  0.12700000000E+01 0.  1.
         25    2    1    2    0    0  0.00000000000E+00  0.00000000000E+00  0.57074456727E+03  0.58427213482E+03  0.12499826582E+03 0.  0.
    9000005    1    3    3    0    0  0.52594696693E+02  0.10257737832E+02  0.43565612617E+03  0.43894041005E+03  0.10000000000E+01 0.  0.
    9000005    1    3    3    0    0 -0.52594696693E+02 -0.10257737832E+02  0.13508844110E+03  0.14533172477E+03  0.10000000000E+01 0.  0.
<mgrwt>
<rscale>  0 0.12499827E+03</rscale>
<asrwt>0</asrwt>
<pdfrwt beam="1">  1        4 0.88847461E-01 0.12499827E+03</pdfrwt>
<pdfrwt beam="2">  1       -4 0.10405819E-02 0.12499827E+03</pdfrwt>
<totfact> 0.49877578E+03</totfact>
</mgrwt>
</event>
<event>
 5    1  0.3312904E-002  0.1249946E+03  0.7818608E-02  0.1235078E+00
          4   -1    0    0  501    0  0.00000000000E+00  0.00000000000E+00  0.87946601767E+02  0.87955771057E+02  0.12700000000E+01 0.  1.
         -4   -1    0    0    0  501 -0.00000000000E+00 -0.00000000000E+00 -0.44391731704E+02  0.44409894660E+02  0.12700000000E+01 0.  1.
         25    2    1    2    0    0  0.00000000000E+00  0.00000000000E+00  0.43554870062E+02  0.13236566572E+03  0.12499457090E+03 0.  0.
    9000005    1    3    3    0    0  0.73626610291E+00  0.34277633951E+02 -0.33547228238E+02  0.47978274245E+02  0.10000000000E+01 0.  0.
    9000005    1    3    3    0    0 -0.73626610291E+00 -0.34277633951E+02  0.77102098301E+02  0.84387391472E+02  0.10000000000E+01 0.  0.
<mgrwt>
<rscale>  0 0.12499457E+03</rscale>
<asrwt>0</asrwt>
<pdfrwt beam="1">  1        4 0.13532349E-01 0.12499457E+03</pdfrwt>
<pdfrwt beam="2">  1       -4 0.68315997E-02 0.12499457E+03</pdfrwt>
<totfact> 0.10295160E+04</totfact>
</mgrwt>
</event>
<event>
 5    1  0.3312904E-002  0.1249995E+03  0.7818608E-02  0.1235070E+00
          4   -1    0    0  501    0  0.00000000000E+00  0.00000000000E+00  0.83556338116E+02  0.83565989130E+02  0.12700000000E+01 0.  1.
         -4   -1    0    0    0  501 -0.00000000000E+00 -0.00000000000E+00 -0.46728519925E+02  0.46745774936E+02  0.12700000000E+01 0.  1.
         25    2    1    2    0    0  0.00000000000E+00  0.00000000000E+00  0.36827818191E+02  0.13031176407E+03  0.12499947064E+03 0.  0.
    9000005    1    3    3    0    0 -0.55902959097E+02 -0.19700482992E+01 -0.10630387801E+02  0.56947581783E+02  0.10000000000E+01 0.  0.
    9000005    1    3    3    0    0  0.55902959097E+02  0.19700482992E+01  0.47458205992E+02  0.73364182283E+02  0.10000000000E+01 0.  0.
<mgrwt>
<rscale>  0 0.12499947E+03</rscale>
<asrwt>0</asrwt>
<pdfrwt beam="1">  1        4 0.12856891E-01 0.12499947E+03</pdfrwt>
<pdfrwt beam="2">  1       -4 0.71910728E-02 0.12499947E+03</pdfrwt>
<totfact> 0.10337966E+04</totfact>
</mgrwt>
</event>
<event>
 5    1  0.3312904E-002  0.1249989E+03  0.7818608E-02  0.1235071E+00
         -4   -1    0    0    0  501 -0.00000000000E+00  0.00000000000E+00  0.11523886054E+03  0.11524585840E+03  0.12700000000E+01 0.  1.
          4   -1    0    0  501    0  0.00000000000E+00 -0.00000000000E+00 -0.33876469006E+02  0.33900266257E+02  0.12700000000E+01 0.  1.
         25    2    1    2    0    0  0.00000000000E+00  0.00000000000E+00  0.81362391535E+02  0.14914612466E+03  0.12499891097E+03 0.  0.
    9000005    1    3    3    0    0 -0.37473788332E+02  0.47610116522E+02  0.22422278734E+02  0.64612433717E+02  0.10000000000E+01 0.  0.
    9000005    1    3    3    0    0  0.37473788332E+02 -0.47610116522E+02  0.58940112801E+02  0.84533690942E+02  0.10000000000E+01 0.  0.
<mgrwt>
<rscale>  0 0.12499891E+03</rscale>
<asrwt>0</asrwt>
<pdfrwt beam="2">  1        4 0.52141333E-02 0.12499891E+03</pdfrwt>
<pdfrwt beam="1">  1       -4 0.17731424E-01 0.12499891E+03</pdfrwt>
<totfact> 0.99476616E+03</totfact>
</mgrwt>
</event>
<event>
 5    1  0.3312904E-002  0.1250047E+03  0.7818608E-02  0.1235062E+00
         -4   -1    0    0    0  501 -0.00000000000E+00  0.00000000000E+00  0.12474442492E+03  0.12475088957E+03  0.12700000000E+01 0. -1.
          4   -1    0    0  501    0  0.00000000000E+00 -0.00000000000E+00 -0.31296242381E+02  0.31322000051E+02  0.12700000000E+01 0. -1.
         25    2    1    2    0    0  0.00000000000E+00  0.00000000000E+00  0.93448182539E+02  0.15607288962E+03  0.12500473613E+03 0.  0.
    9000005    1    3    3    0    0  0.28780897780E+02  0.11255353839E+02 -0.21094771318E+02  0.37430100775E+02  0.10000000000E+01 0.  0.
    9000005    1    3    3    0    0 -0.28780897780E+02 -0.11255353839E+02  0.11454295386E+03  0.11864278885E+03  0.10000000000E+01 0.  0.
<mgrwt>
<rscale>  0 0.12500474E+03</rscale>
<asrwt>0</asrwt>
<pdfrwt beam="2">  1        4 0.48172852E-02 0.12500474E+03</pdfrwt>
<pdfrwt beam="1">  1       -4 0.19193928E-01 0.12500474E+03</pdfrwt>
<totfact> 0.98094840E+03</totfact>
</mgrwt>
</event>
<event>
 5    1  0.3312904E-002  0.1250038E+03  0.7818608E-02  0.1235063E+00
          4   -1    0    0  501    0  0.00000000000E+00  0.00000000000E+00  0.23658334326E+03  0.23658675197E+03  0.12700000000E+01 0.  1.
         -4   -1    0    0    0  501 -0.00000000000E+00 -0.00000000000E+00 -0.16484143017E+02  0.16532993407E+02  0.12700000000E+01 0.  1.
         25    2    1    2    0    0  0.00000000000E+00  0.00000000000E+00  0.22009920024E+03  0.25311974537E+03  0.12500379015E+03 0.  0.
    9000005    1    3    3    0    0 -0.44594989346E+02  0.12728004630E+02  0.25226692375E+02  0.52802473283E+02  0.10000000000E+01 0.  0.
    9000005    1    3    3    0    0  0.44594989346E+02 -0.12728004630E+02  0.19487250786E+03  0.20031727209E+03  0.10000000000E+01 0.  0.
<mgrwt>
<rscale>  0 0.12500379E+03</rscale>
<asrwt>0</asrwt>
<pdfrwt beam="1">  1        4 0.36401459E-01 0.12500379E+03</pdfrwt>
<pdfrwt beam="2">  1       -4 0.25400418E-02 0.12500379E+03</pdfrwt>
<totfact> 0.81874495E+03</totfact>
</mgrwt>
</event>
<event>
 5    1  0.3312904E-002  0.1249927E+03  0.7818608E-02  0.1235081E+00
          4   -1    0    0  501    0  0.00000000000E+00  0.00000000000E+00  0.40247221586E+02  0.40267254009E+02  0.12700000000E+01 0. -1.
         -4   -1    0    0    0  501 -0.00000000000E+00 -0.00000000000E+00 -0.96996665293E+02  0.97004979140E+02  0.12700000000E+01 0. -1.
         25    2    1    2    0    0  0.00000000000E+00  0.00000000000E+00 -0.56749443707E+02  0.13727223315E+03  0.12499266632E+03 0.  0.
    9000005    1    3    3    0    0 -0.54213111989E+02 -0.20659519590E+02 -0.53869900493E+02  0.79176028193E+02  0.10000000000E+01 0.  0.
    9000005    1    3    3    0    0  0.54213111989E+02  0.20659519590E+02 -0.28795432138E+01  0.58096204957E+02  0.10000000000E+01 0.  0.
<mgrwt>
<rscale>  0 0.12499267E+03</rscale>
<asrwt>0</asrwt>
<pdfrwt beam="1">  1        4 0.61940608E-02 0.12499267E+03</pdfrwt>
<pdfrwt beam="2">  1       -4 0.14924744E-01 0.12499267E+03</pdfrwt>
<totfact> 0.10192082E+04</totfact>
</mgrwt>
</event>
<event>
 5    1  0.3312904E-002  0.1249965E+03  0.7818608E-02  0.1235075E+00
          4   -1    0    0  501    0  0.00000000000E+00  0.00000000000E+00  0.16293073334E+03  0.16293568292E+03  0.12700000000E+01 0.  1.
         -4   -1    0    0    0  501 -0.00000000000E+00 -0.00000000000E+00 -0.23951421102E+02  0.23985067705E+02  0.12700000000E+01 0.  1.
         25    2    1    2    0    0  0.00000000000E+00  0.00000000000E+00  0.13897931224E+03  0.18692075062E+03  0.12499647108E+03 0.  0.
    9000005    1    3    3    0    0  0.59673157072E+02  0.15727100671E+02  0.84202685353E+02  0.10439980647E+03  0.10000000000E+01 0.  0.
    9000005    1    3    3    0    0 -0.59673157072E+02 -0.15727100671E+02  0.54776626889E+02  0.82520944152E+02  0.10000000000E+01 0.  0.
<mgrwt>
<rscale>  0 0.12499647E+03</rscale>
<asrwt>0</asrwt>
<pdfrwt beam="1">  1        4 0.25069235E-01 0.12499647E+03</pdfrwt>
<pdfrwt beam="2">  1       -4 0.36878030E-02 0.12499647E+03</pdfrwt>
<totfact> 0.92393177E+03</totfact>
</mgrwt>
</event>
<event>
 5    1  0.3312904E-002  0.1249956E+03  0.7818608E-02  0.1235076E+00
         -4   -1    0    0    0  501 -0.00000000000E+00  0.00000000000E+00  0.87250335777E+03  0.87250428206E+03  0.12700000000E+01 0.  1.
          4   -1    0    0  501    0  0.00000000000E+00 -0.00000000000E+00 -0.43857281675E+01  0.45659075286E+01  0.12700000000E+01 0.  1.
         25    2    1    2    0    0  0.00000000000E+00  0.00000000000E+00  0.86811762960E+03  0.87707018959E+03  0.12499559450E+03 0.  0.
    9000005    1    3    3    0    0  0.48425360551E+02  0.38685339213E+02  0.48993114219E+03  0.49383711394E+03  0.10000000000E+01 0.  0.
    9000005    1    3    3    0    0 -0.48425360551E+02 -0.38685339213E+02  0.37818648741E+03  0.38323307566E+03  0.10000000000E+01 0.  0.
<mgrwt>
<rscale>  0 0.12499559E+03</rscale>
<asrwt>0</asrwt>
<pdfrwt beam="2">  1        4 0.68865782E-03 0.12499559E+03</pdfrwt>
<pdfrwt beam="1">  1       -4 0.13424534E+00 0.12499559E+03</pdfrwt>
<totfact> 0.35047800E+03</totfact>
</mgrwt>
</event>
<event>
 5    1  0.3312904E-002  0.1250006E+03  0.7818608E-02  0.1235068E+00
         -4   -1    0    0    0  501 -0.00000000000E+00  0.00000000000E+00  0.46091824853E+01  0.47809479377E+01  0.12700000000E+01 0. -1.
          4   -1    0    0  501    0  0.00000000000E+00 -0.00000000000E+00 -0.83182657351E+03  0.83182754300E+03  0.12700000000E+01 0. -1.
         25    2    1    2    0    0  0.00000000000E+00  0.00000000000E+00 -0.82721739103E+03  0.83660849094E+03  0.12500062040E+03 0.  0.
    9000005    1    3    3    0    0 -0.40911400626E+02  0.44924219043E+02 -0.31584733680E+03  0.32164027783E+03  0.10000000000E+01 0.  0.
    9000005    1    3    3    0    0  0.40911400626E+02 -0.44924219043E+02 -0.51137005423E+03  0.51496821311E+03  0.10000000000E+01 0.  0.
<mgrwt>
<rscale>  0 0.12500062E+03</rscale>
<asrwt>0</asrwt>
<pdfrwt beam="2">  1        4 0.12798649E+00 0.12500062E+03</pdfrwt>
<pdfrwt beam="1">  1       -4 0.72239296E-03 0.12500062E+03</pdfrwt>
<totfact> 0.36681204E+03</totfact>
</mgrwt>
</event>
<event>
 5    1  0.3312904E-002  0.1249989E+03  0.7818608E-02  0.1235071E+00
          4   -1    0    0  501    0  0.00000000000E+00  0.00000000000E+00  0.22350598496E+03  0.22350959311E+03  0.12700000000E+01 0.  1.
         -4   -1    0    0    0  501 -0.00000000000E+00 -0.00000000000E+00 -0.17450017369E+02  0.17496171186E+02  0.12700000000E+01 0.  1.
         25    2    1    2    0    0  0.00000000000E+00  0.00000000000E+00  0.20605596759E+03  0.24100576430E+03  0.12499886657E+03 0.  0.
    9000005    1    3    3    0    0  0.26367921870E+01  0.40309045138E+02  0.19495856092E+03  0.19910201473E+03  0.10000000000E+01 0.  0.
    9000005    1    3    3    0    0 -0.26367921870E+01 -0.40309045138E+02  0.11097406669E+02  0.41903749567E+02  0.10000000000E+01 0.  0.
<mgrwt>
<rscale>  0 0.12499887E+03</rscale>
<asrwt>0</asrwt>
<pdfrwt beam="1">  1        4 0.34389359E-01 0.12499887E+03</pdfrwt>
<pdfrwt beam="2">  1       -4 0.26884463E-02 0.12499887E+03</pdfrwt>
<totfact> 0.83649921E+03</totfact>
</mgrwt>
</event>
<event>
 5    1  0.3312904E-002  0.1250026E+03  0.7818608E-02  0.1235065E+00
          4   -1    0    0  501    0  0.00000000000E+00  0.00000000000E+00  0.15551573271E+02  0.15603343591E+02  0.12700000000E+01 0.  1.
         -4   -1    0    0    0  501 -0.00000000000E+00 -0.00000000000E+00 -0.25072014548E+03  0.25072336200E+03  0.12700000000E+01 0.  1.
         25    2    1    2    0    0  0.00000000000E+00  0.00000000000E+00 -0.23516857221E+03  0.26632670559E+03  0.12500262698E+03 0.  0.
    9000005    1    3    3    0    0 -0.26638955677E+02  0.13115001058E+02 -0.42668922788E+00  0.29712274838E+02  0.10000000000E+01 0.  0.
    9000005    1    3    3    0    0  0.26638955677E+02 -0.13115001058E+02 -0.23474188298E+03  0.23661443075E+03  0.10000000000E+01 0.  0.
<mgrwt>
<rscale>  0 0.12500263E+03</rscale>
<asrwt>0</asrwt>
<pdfrwt beam="1">  1        4 0.23967797E-02 0.12500263E+03</pdfrwt>
<pdfrwt beam="2">  1       -4 0.38576557E-01 0.12500263E+03</pdfrwt>
<totfact> 0.80021639E+03</totfact>
</mgrwt>
</event>
<event>
 5    1  0.3312904E-002  0.1250001E+03  0.7818608E-02  0.1235069E+00
         -4   -1    0    0    0  501 -0.00000000000E+00  0.00000000000E+00  0.35490713742E+02  0.35513429318E+02  0.12700000000E+01 0. -1.
          4   -1    0    0  501    0  0.00000000000E+00 -0.00000000000E+00 -0.11000257132E+03  0.11000990227E+03  0.12700000000E+01 0. -1.
         25    2    1    2    0    0  0.00000000000E+00  0.00000000000E+00 -0.74511857579E+02  0.14552333159E+03  0.12500009247E+03 0.  0.
    9000005    1    3    3    0    0 -0.10806052849E+02  0.61506770828E+02 -0.34550068662E+02  0.71376192672E+02  0.10000000000E+01 0.  0.
    9000005    1    3    3    0    0  0.10806052849E+02 -0.61506770828E+02 -0.39961788918E+02  0.74147138915E+02  0.10000000000E+01 0.  0.
<mgrwt>
<rscale>  0 0.12500009E+03</rscale>
<asrwt>0</asrwt>
<pdfrwt beam="2">  1        4 0.16925784E-01 0.12500009E+03</pdfrwt>
<pdfrwt beam="1">  1       -4 0.54624211E-02 0.12500009E+03</pdfrwt>
<totfact> 0.10020345E+04</totfact>
</mgrwt>
</event>
<event>
 5    1  0.3312904E-002  0.1250003E+03  0.7818608E-02  0.1235069E+00
          4   -1    0    0  501    0  0.00000000000E+00  0.00000000000E+00  0.49820669620E+02  0.49836854048E+02  0.12700000000E+01 0. -1.
         -4   -1    0    0    0  501 -0.00000000000E+00 -0.00000000000E+00 -0.78372577525E+02  0.78382866801E+02  0.12700000000E+01 0. -1.
         25    2    1    2    0    0  0.00000000000E+00  0.00000000000E+00 -0.28551907905E+02  0.12821972085E+03  0.12500034148E+03 0.  0.
    9000005    1    3    3    0    0 -0.23376075596E+02  0.32885517935E+02  0.34674950990E+02  0.53209495640E+02  0.10000000000E+01 0.  0.
    9000005    1    3    3    0    0  0.23376075596E+02 -0.32885517935E+02 -0.63226858895E+02  0.75010225209E+02  0.10000000000E+01 0.  0.
<mgrwt>
<rscale>  0 0.12500034E+03</rscale>
<asrwt>0</asrwt>
<pdfrwt beam="1">  1        4 0.76667549E-02 0.12500034E+03</pdfrwt>
<pdfrwt beam="2">  1       -4 0.12059356E-01 0.12500034E+03</pdfrwt>
<totfact> 0.10382665E+04</totfact>
</mgrwt>
</event>
<event>
 5    1  0.3312904E-002  0.1249984E+03  0.7818608E-02  0.1235072E+00
          4   -1    0    0  501    0  0.00000000000E+00  0.00000000000E+00  0.58122063226E+02  0.58135936680E+02  0.12700000000E+01 0.  1.
         -4   -1    0    0    0  501 -0.00000000000E+00 -0.00000000000E+00 -0.67178065590E+02  0.67190069180E+02  0.12700000000E+01 0.  1.
         25    2    1    2    0    0  0.00000000000E+00  0.00000000000E+00 -0.90560023639E+01  0.12532600586E+03  0.12499838625E+03 0.  0.
    9000005    1    3    3    0    0 -0.54480157202E+02 -0.13046400815E+02  0.23236691069E+02  0.60656738412E+02  0.10000000000E+01 0.  0.
    9000005    1    3    3    0    0  0.54480157202E+02  0.13046400815E+02 -0.32292693433E+02  0.64669267447E+02  0.10000000000E+01 0.  0.
<mgrwt>
<rscale>  0 0.12499839E+03</rscale>
<asrwt>0</asrwt>
<pdfrwt beam="1">  1        4 0.89438465E-02 0.12499839E+03</pdfrwt>
<pdfrwt beam="2">  1       -4 0.10337078E-01 0.12499839E+03</pdfrwt>
<totfact> 0.10446167E+04</totfact>
</mgrwt>
</event>
<event>
 5    1  0.3312904E-002  0.1249908E+03  0.7818608E-02  0.1235084E+00
          4   -1    0    0  501    0  0.00000000000E+00  0.00000000000E+00  0.17391115924E+03  0.17391579632E+03  0.12700000000E+01 0. -1.
         -4   -1    0    0    0  501 -0.00000000000E+00 -0.00000000000E+00 -0.22434976009E+02  0.22470893363E+02  0.12700000000E+01 0. -1.
         25    2    1    2    0    0  0.00000000000E+00  0.00000000000E+00  0.15147618323E+03  0.19638668968E+03  0.12499079085E+03 0.  0.
    9000005    1    3    3    0    0  0.60663900402E+02 -0.12970507783E+02  0.87530701792E+02  0.10728917299E+03  0.10000000000E+01 0.  0.
    9000005    1    3    3    0    0 -0.60663900402E+02  0.12970507783E+02  0.63945481442E+02  0.89097516694E+02  0.10000000000E+01 0.  0.
<mgrwt>
<rscale>  0 0.12499079E+03</rscale>
<asrwt>0</asrwt>
<pdfrwt beam="1">  1        4 0.26758684E-01 0.12499079E+03</pdfrwt>
<pdfrwt beam="2">  1       -4 0.34546542E-02 0.12499079E+03</pdfrwt>
<totfact> 0.90766482E+03</totfact>
</mgrwt>
</event>
<event>
 5    1  0.3312904E-002  0.1250089E+03  0.7818608E-02  0.1235055E+00
          4   -1    0    0  501    0  0.00000000000E+00  0.00000000000E+00  0.45189915922E+02  0.45207758195E+02  0.12700000000E+01 0. -1.
         -4   -1    0    0    0  501 -0.00000000000E+00 -0.00000000000E+00 -0.86413471099E+02  0.86422803052E+02  0.12700000000E+01 0. -1.
         25    2    1    2    0    0  0.00000000000E+00  0.00000000000E+00 -0.41223555177E+02  0.13163056125E+03  0.12500889230E+03 0.  0.
    9000005    1    3    3    0    0  0.35822341278E+02 -0.43164652370E+02 -0.49628272983E+02  0.74902555551E+02  0.10000000000E+01 0.  0.
    9000005    1    3    3    0    0 -0.35822341278E+02  0.43164652370E+02  0.84047178059E+01  0.56728005696E+02  0.10000000000E+01 0.  0.
<mgrwt>
<rscale>  0 0.12500889E+03</rscale>
<asrwt>0</asrwt>
<pdfrwt beam="1">  1        4 0.69543851E-02 0.12500889E+03</pdfrwt>
<pdfrwt beam="2">  1       -4 0.13296470E-01 0.12500889E+03</pdfrwt>
<totfact> 0.10307522E+04</totfact>
</mgrwt>
</event>
<event>
 5    1  0.3312904E-002  0.1249997E+03  0.7818608E-02  0.1235070E+00
         -4   -1    0    0    0  501 -0.00000000000E+00  0.00000000000E+00  0.87141462884E+01  0.88062049452E+01  0.12700000000E+01 0.  1.
          4   -1    0    0  501    0  0.00000000000E+00 -0.00000000000E+00 -0.44581518143E+03  0.44581699036E+03  0.12700000000E+01 0.  1.
         25    2    1    2    0    0  0.00000000000E+00  0.00000000000E+00 -0.43710103514E+03  0.45462319531E+03  0.12499973915E+03 0.  0.
    9000005    1    3    3    0    0  0.16501524961E+02  0.23085307268E+01 -0.43760514042E+03  0.43792338207E+03  0.10000000000E+01 0.  0.
    9000005    1    3    3    0    0 -0.16501524961E+02 -0.23085307268E+01  0.50410527415E+00  0.16699813241E+02  0.10000000000E+01 0.  0.
<mgrwt>
<rscale>  0 0.12499974E+03</rscale>
<asrwt>0</asrwt>
<pdfrwt beam="2">  1        4 0.68594154E-01 0.12499974E+03</pdfrwt>
<pdfrwt beam="1">  1       -4 0.13478588E-02 0.12499974E+03</pdfrwt>
<totfact> 0.59565720E+03</totfact>
</mgrwt>
</event>
<event>
 5    1  0.3312904E-002  0.1250134E+03  0.7818608E-02  0.1235048E+00
          4   -1    0    0  501    0  0.00000000000E+00  0.00000000000E+00  0.24690242008E+03  0.24690568633E+03  0.12700000000E+01 0.  1.
         -4   -1    0    0    0  501 -0.00000000000E+00 -0.00000000000E+00 -0.15795568369E+02  0.15846541581E+02  0.12700000000E+01 0.  1.
         25    2    1    2    0    0  0.00000000000E+00  0.00000000000E+00  0.23110685171E+03  0.26275222791E+03  0.12501342473E+03 0.  0.
    9000005    1    3    3    0    0 -0.26959937777E+02  0.54042391192E+02  0.81749786653E+02  0.10164372046E+03  0.10000000000E+01 0.  0.
    9000005    1    3    3    0    0  0.26959937777E+02 -0.54042391192E+02  0.14935706506E+03  0.16110850745E+03  0.10000000000E+01 0.  0.
<mgrwt>
<rscale>  0 0.12501342E+03</rscale>
<asrwt>0</asrwt>
<pdfrwt beam="1">  1        4 0.37989158E-01 0.12501342E+03</pdfrwt>
<pdfrwt beam="2">  1       -4 0.24342598E-02 0.12501342E+03</pdfrwt>
<totfact> 0.80497317E+03</totfact>
</mgrwt>
</event>
<event>
 5    1  0.3312904E-002  0.1250036E+03  0.7818608E-02  0.1235064E+00
         -4   -1    0    0    0  501 -0.00000000000E+00  0.00000000000E+00  0.10498741182E+02  0.10575276186E+02  0.12700000000E+01 0. -1.
          4   -1    0    0  501    0  0.00000000000E+00 -0.00000000000E+00 -0.37066067968E+03  0.37066285538E+03  0.12700000000E+01 0. -1.
         25    2    1    2    0    0  0.00000000000E+00  0.00000000000E+00 -0.36016193849E+03  0.38123813157E+03  0.12500356403E+03 0.  0.
    9000005    1    3    3    0    0  0.28259250280E+02 -0.47369769540E+02 -0.90487276290E+02  0.10597842923E+03  0.10000000000E+01 0.  0.
    9000005    1    3    3    0    0 -0.28259250280E+02  0.47369769540E+02 -0.26967466220E+03  0.27525970233E+03  0.10000000000E+01 0.  0.
<mgrwt>
<rscale>  0 0.12500356E+03</rscale>
<asrwt>0</asrwt>
<pdfrwt beam="2">  1        4 0.57030764E-01 0.12500356E+03</pdfrwt>
<pdfrwt beam="1">  1       -4 0.16212459E-02 0.12500356E+03</pdfrwt>
<totfact> 0.66414153E+03</totfact>
</mgrwt>
</event>
<event>
 5    1  0.3312904E-002  0.1250001E+03  0.7818608E-02  0.1235069E+00
          4   -1    0    0  501    0  0.00000000000E+00  0.00000000000E+00  0.32716047514E+03  0.32716294013E+03  0.12700000000E+01 0.  1.
         -4   -1    0    0    0  501 -0.00000000000E+00 -0.00000000000E+00 -0.11903584715E+02  0.11971141510E+02  0.12700000000E+01 0.  1.
         25    2    1    2    0    0  0.00000000000E+00  0.00000000000E+00  0.31525689043E+03  0.33913408164E+03  0.12500007347E+03 0.  0.
    9000005    1    3    3    0    0  0.48556687207E+02  0.25522801399E+02  0.76413338142E+02  0.94069992611E+02  0.10000000000E+01 0.  0.
    9000005    1    3    3    0    0 -0.48556687207E+02 -0.25522801399E+02  0.23884355228E+03  0.24506408903E+03  0.10000000000E+01 0.  0.
<mgrwt>
<rscale>  0 0.12500007E+03</rscale>
<asrwt>0</asrwt>
<pdfrwt beam="1">  1        4 0.50337773E-01 0.12500007E+03</pdfrwt>
<pdfrwt beam="2">  1       -4 0.18367068E-02 0.12500007E+03</pdfrwt>
<totfact> 0.70936596E+03</totfact>
</mgrwt>
</event>
<event>
 5    1  0.3312904E-002  0.1250128E+03  0.7818608E-02  0.1235049E+00
         -4   -1    0    0    0  501 -0.00000000000E+00  0.00000000000E+00  0.44614017023E+02  0.44632089520E+02  0.12700000000E+01 0.  1.
          4   -1    0    0  501    0  0.00000000000E+00 -0.00000000000E+00 -0.87534043052E+02  0.87543255554E+02  0.12700000000E+01 0.  1.
         25    2    1    2    0    0  0.00000000000E+00  0.00000000000E+00 -0.42920026029E+02  0.13217534507E+03  0.12501277219E+03 0.  0.
    9000005    1    3    3    0    0 -0.30914139107E+02 -0.25045739807E+02 -0.72419811678E+02  0.82635356856E+02  0.10000000000E+01 0.  0.
    9000005    1    3    3    0    0  0.30914139107E+02  0.25045739807E+02  0.29499785649E+02  0.49539988217E+02  0.10000000000E+01 0.  0.
<mgrwt>
<rscale>  0 0.12501277E+03</rscale>
<asrwt>0</asrwt>
<pdfrwt beam="2">  1        4 0.13468875E-01 0.12501277E+03</pdfrwt>
<pdfrwt beam="1">  1       -4 0.68657938E-02 0.12501277E+03</pdfrwt>
<totfact> 0.10294991E+04</totfact>
</mgrwt>
</event>
<event>
 5    1  0.3312904E-002  0.1249968E+03  0.7818608E-02  0.1235074E+00
          4   -1    0    0  501    0  0.00000000000E+00  0.00000000000E+00  0.22401801243E+03  0.22402161233E+03  0.12700000000E+01 0.  1.
         -4   -1    0    0    0  501 -0.00000000000E+00 -0.00000000000E+00 -0.17409463208E+02  0.17455724253E+02  0.12700000000E+01 0.  1.
         25    2    1    2    0    0  0.00000000000E+00  0.00000000000E+00  0.20660854922E+03  0.24147733659E+03  0.12499684585E+03 0.  0.
    9000005    1    3    3    0    0 -0.27046296205E+02 -0.55448360907E+02  0.84079523843E+02  0.10428992854E+03  0.10000000000E+01 0.  0.
    9000005    1    3    3    0    0  0.27046296205E+02  0.55448360907E+02  0.12252902538E+03  0.13718740804E+03  0.10000000000E+01 0.  0.
<mgrwt>
<rscale>  0 0.12499685E+03</rscale>
<asrwt>0</asrwt>
<pdfrwt beam="1">  1        4 0.34468144E-01 0.12499685E+03</pdfrwt>
<pdfrwt beam="2">  1       -4 0.26822145E-02 0.12499685E+03</pdfrwt>
<totfact> 0.83583712E+03</totfact>
</mgrwt>
</event>
<event>
 5    1  0.3312904E-002  0.1250009E+03  0.7818608E-02  0.1235068E+00
         -4   -1    0    0    0  501 -0.00000000000E+00  0.00000000000E+00  0.21317161119E+02  0.21354958632E+02  0.12700000000E+01 0.  1.
          4   -1    0    0  501    0  0.00000000000E+00 -0.00000000000E+00 -0.18304477758E+03  0.18304918328E+03  0.12700000000E+01 0.  1.
         25    2    1    2    0    0  0.00000000000E+00  0.00000000000E+00 -0.16172761646E+03  0.20440414191E+03  0.12500092521E+03 0.  0.
    9000005    1    3    3    0    0 -0.17508529468E+02 -0.59517811312E+02 -0.68584467760E+02  0.92486472986E+02  0.10000000000E+01 0.  0.
    9000005    1    3    3    0    0  0.17508529468E+02  0.59517811312E+02 -0.93143148697E+02  0.11191766892E+03  0.10000000000E+01 0.  0.
<mgrwt>
<rscale>  0 0.12500093E+03</rscale>
<asrwt>0</asrwt>
<pdfrwt beam="2">  1        4 0.28163980E-01 0.12500093E+03</pdfrwt>
<pdfrwt beam="1">  1       -4 0.32828098E-02 0.12500093E+03</pdfrwt>
<totfact> 0.89396141E+03</totfact>
</mgrwt>
</event>
<event>
 5    1  0.3312904E-002  0.1249949E+03  0.7818608E-02  0.1235077E+00
          4   -1    0    0  501    0  0.00000000000E+00  0.00000000000E+00  0.14978984783E+03  0.14979523160E+03  0.12700000000E+01 0. -1.
         -4   -1    0    0    0  501 -0.00000000000E+00 -0.00000000000E+00 -0.26054758004E+02  0.26085691761E+02  0.12700000000E+01 0. -1.
         25    2    1    2    0    0  0.00000000000E+00  0.00000000000E+00  0.12373508982E+03  0.17588092337E+03  0.12499490690E+03 0.  0.
    9000005    1    3    3    0    0  0.29194573355E+02 -0.40285581187E+02  0.86633446009E+01  0.50510441541E+02  0.10000000000E+01 0.  0.
    9000005    1    3    3    0    0 -0.29194573355E+02  0.40285581187E+02  0.11507174522E+03  0.12537048182E+03  0.10000000000E+01 0.  0.
<mgrwt>
<rscale>  0 0.12499491E+03</rscale>
<asrwt>0</asrwt>
<pdfrwt beam="1">  1        4 0.23047386E-01 0.12499491E+03</pdfrwt>
<pdfrwt beam="2">  1       -4 0.40112179E-02 0.12499491E+03</pdfrwt>
<totfact> 0.94374530E+03</totfact>
</mgrwt>
</event>
<event>
 5    1  0.3312904E-002  0.1250131E+03  0.7818608E-02  0.1235049E+00
          4   -1    0    0  501    0  0.00000000000E+00  0.00000000000E+00  0.13478696779E+03  0.13479295080E+03  0.12700000000E+01 0. -1.
         -4   -1    0    0    0  501 -0.00000000000E+00 -0.00000000000E+00 -0.28966450654E+02  0.28994278117E+02  0.12700000000E+01 0. -1.
         25    2    1    2    0    0  0.00000000000E+00  0.00000000000E+00  0.10582051714E+03  0.16378722892E+03  0.12501309735E+03 0.  0.
    9000005    1    3    3    0    0 -0.26156011987E+02  0.47179188455E+01 -0.21199826483E+02  0.34012179645E+02  0.10000000000E+01 0.  0.
    9000005    1    3    3    0    0  0.26156011987E+02 -0.47179188455E+01  0.12702034362E+03  0.12977504927E+03  0.10000000000E+01 0.  0.
<mgrwt>
<rscale>  0 0.12501310E+03</rscale>
<asrwt>0</asrwt>
<pdfrwt beam="1">  1        4 0.20739058E-01 0.12501310E+03</pdfrwt>
<pdfrwt beam="2">  1       -4 0.44589777E-02 0.12501310E+03</pdfrwt>
<totfact> 0.96589139E+03</totfact>
</mgrwt>
</event>
<event>
 5    1  0.3312904E-002  0.1249985E+03  0.7818608E-02  0.1235072E+00
          4   -1    0    0  501    0  0.00000000000E+00  0.00000000000E+00  0.99301532738E+02  0.99309653630E+02  0.12700000000E+01 0.  1.
         -4   -1    0    0    0  501 -0.00000000000E+00 -0.00000000000E+00 -0.39316353229E+02  0.39336859702E+02  0.12700000000E+01 0.  1.
         25    2    1    2    0    0  0.00000000000E+00  0.00000000000E+00  0.59985179509E+02  0.13864651333E+03  0.12499853558E+03 0.  0.
    9000005    1    3    3    0    0 -0.26388239498E+02  0.11605015463E+01  0.92810791499E+02  0.96501445410E+02  0.10000000000E+01 0.  0.
    9000005    1    3    3    0    0  0.26388239498E+02 -0.11605015463E+01 -0.32825611990E+02  0.42145067922E+02  0.10000000000E+01 0.  0.
<mgrwt>
<rscale>  0 0.12499854E+03</rscale>
<asrwt>0</asrwt>
<pdfrwt beam="1">  1        4 0.15279361E-01 0.12499854E+03</pdfrwt>
<pdfrwt beam="2">  1       -4 0.60508720E-02 0.12499854E+03</pdfrwt>
<totfact> 0.10162050E+04</totfact>
</mgrwt>
</event>
<event>
 5    1  0.3312904E-002  0.1250015E+03  0.7818608E-02  0.1235067E+00
          4   -1    0    0  501    0  0.00000000000E+00  0.00000000000E+00  0.16250599071E+03  0.16251095323E+03  0.12700000000E+01 0.  1.
         -4   -1    0    0    0  501 -0.00000000000E+00 -0.00000000000E+00 -0.24016028948E+02  0.24049585161E+02  0.12700000000E+01 0.  1.
         25    2    1    2    0    0  0.00000000000E+00  0.00000000000E+00  0.13848996177E+03  0.18656053839E+03  0.12500145988E+03 0.  0.
    9000005    1    3    3    0    0  0.10504137598E+02 -0.28216148566E+02 -0.12485172054E+02  0.32609315660E+02  0.10000000000E+01 0.  0.
    9000005    1    3    3    0    0 -0.10504137598E+02  0.28216148566E+02  0.15097513382E+03  0.15395122273E+03  0.10000000000E+01 0.  0.
<mgrwt>
<rscale>  0 0.12500146E+03</rscale>
<asrwt>0</asrwt>
<pdfrwt beam="1">  1        4 0.25003885E-01 0.12500146E+03</pdfrwt>
<pdfrwt beam="2">  1       -4 0.36977367E-02 0.12500146E+03</pdfrwt>
<totfact> 0.92446213E+03</totfact>
</mgrwt>
</event>
<event>
 5    1  0.3312904E-002  0.1250006E+03  0.7818608E-02  0.1235068E+00
          4   -1    0    0  501    0  0.00000000000E+00  0.00000000000E+00  0.88574408906E+03  0.88574499954E+03  0.12700000000E+01 0.  1.
         -4   -1    0    0    0  501 -0.00000000000E+00 -0.00000000000E+00 -0.43178155195E+01  0.45007144834E+01  0.12700000000E+01 0.  1.
         25    2    1    2    0    0  0.00000000000E+00  0.00000000000E+00  0.88142627354E+03  0.89024571402E+03  0.12500062258E+03 0.  0.
    9000005    1    3    3    0    0 -0.29740554158E+02 -0.38284180371E+02  0.72156561220E+03  0.72319299758E+03  0.10000000000E+01 0.  0.
    9000005    1    3    3    0    0  0.29740554158E+02  0.38284180371E+02  0.15986066134E+03  0.16705271645E+03  0.10000000000E+01 0.  0.
<mgrwt>
<rscale>  0 0.12500062E+03</rscale>
<asrwt>0</asrwt>
<pdfrwt beam="1">  1        4 0.13628241E+00 0.12500062E+03</pdfrwt>
<pdfrwt beam="2">  1       -4 0.67841875E-03 0.12500062E+03</pdfrwt>
<totfact> 0.34534085E+03</totfact>
</mgrwt>
</event>
<event>
 5    1  0.3312904E-002  0.1250017E+03  0.7818608E-02  0.1235067E+00
         -4   -1    0    0    0  501 -0.00000000000E+00  0.00000000000E+00  0.26483978805E+03  0.26484283308E+03  0.12700000000E+01 0. -1.
          4   -1    0    0  501    0  0.00000000000E+00 -0.00000000000E+00 -0.14719409456E+02  0.14774096072E+02  0.12700000000E+01 0. -1.
         25    2    1    2    0    0  0.00000000000E+00  0.00000000000E+00  0.25012037860E+03  0.27961692916E+03  0.12500169311E+03 0.  0.
    9000005    1    3    3    0    0 -0.17841541774E+02  0.58952968145E+02  0.10143114780E+03  0.11867203045E+03  0.10000000000E+01 0.  0.
    9000005    1    3    3    0    0  0.17841541774E+02 -0.58952968145E+02  0.14868923080E+03  0.16094489871E+03  0.10000000000E+01 0.  0.
<mgrwt>
<rscale>  0 0.12500169E+03</rscale>
<asrwt>0</asrwt>
<pdfrwt beam="2">  1        4 0.22689655E-02 0.12500169E+03</pdfrwt>
<pdfrwt beam="1">  1       -4 0.40749023E-01 0.12500169E+03</pdfrwt>
<totfact> 0.78225980E+03</totfact>
</mgrwt>
</event>
<event>
 5    1  0.3312904E-002  0.1249860E+03  0.7818608E-02  0.1235091E+00
         -4   -1    0    0    0  501 -0.00000000000E+00  0.00000000000E+00  0.17893439812E+03  0.17893890503E+03  0.12700000000E+01 0.  1.
          4   -1    0    0  501    0  0.00000000000E+00 -0.00000000000E+00 -0.21802466425E+02  0.21839424036E+02  0.12700000000E+01 0.  1.
         25    2    1    2    0    0  0.00000000000E+00  0.00000000000E+00  0.15713193170E+03  0.20077832906E+03  0.12498597306E+03 0.  0.
    9000005    1    3    3    0    0  0.46118188694E+02 -0.22887285115E+02  0.21687858616E+02  0.55875561381E+02  0.10000000000E+01 0.  0.
    9000005    1    3    3    0    0 -0.46118188694E+02  0.22887285115E+02  0.13544407308E+03  0.14490276768E+03  0.10000000000E+01 0.  0.
<mgrwt>
<rscale>  0 0.12498597E+03</rscale>
<asrwt>0</asrwt>
<pdfrwt beam="2">  1        4 0.33574153E-02 0.12498597E+03</pdfrwt>
<pdfrwt beam="1">  1       -4 0.27531557E-01 0.12498597E+03</pdfrwt>
<totfact> 0.90032656E+03</totfact>
</mgrwt>
</event>
<event>
 5    1  0.3312904E-002  0.1249808E+03  0.7818608E-02  0.1235099E+00
          4   -1    0    0  501    0  0.00000000000E+00  0.00000000000E+00  0.79632198041E+03  0.79632299312E+03  0.12700000000E+01 0.  1.
         -4   -1    0    0    0  501 -0.00000000000E+00 -0.00000000000E+00 -0.48205986211E+01  0.49850848604E+01  0.12700000000E+01 0.  1.
         25    2    1    2    0    0  0.00000000000E+00  0.00000000000E+00  0.79150138179E+03  0.80130807798E+03  0.12498079243E+03 0.  0.
    9000005    1    3    3    0    0 -0.66075962302E+01  0.39565475425E+02  0.88605274565E+02  0.97267578639E+02  0.10000000000E+01 0.  0.
    9000005    1    3    3    0    0  0.66075962302E+01 -0.39565475425E+02  0.70289610722E+03  0.70404049935E+03  0.10000000000E+01 0.  0.
<mgrwt>
<rscale>  0 0.12498079E+03</rscale>
<asrwt>0</asrwt>
<pdfrwt beam="1">  1        4 0.12252367E+00 0.12498079E+03</pdfrwt>
<pdfrwt beam="2">  1       -4 0.75436205E-03 0.12498079E+03</pdfrwt>
<totfact> 0.38222468E+03</totfact>
</mgrwt>
</event>
<event>
 5    1  0.3312904E-002  0.1249946E+03  0.7818608E-02  0.1235078E+00
         -4   -1    0    0    0  501 -0.00000000000E+00  0.00000000000E+00  0.14863382069E+03  0.14863924634E+03  0.12700000000E+01 0.  1.
          4   -1    0    0  501    0  0.00000000000E+00 -0.00000000000E+00 -0.26257520398E+02  0.26288215563E+02  0.12700000000E+01 0.  1.
         25    2    1    2    0    0  0.00000000000E+00  0.00000000000E+00  0.12237630029E+03  0.17492746191E+03  0.12499463211E+03 0.  0.
    9000005    1    3    3    0    0 -0.37556344059E+02 -0.49836038389E+02  0.65788334626E+02  0.90681942383E+02  0.10000000000E+01 0.  0.
    9000005    1    3    3    0    0  0.37556344059E+02  0.49836038389E+02  0.56587965667E+02  0.84245519523E+02  0.10000000000E+01 0.  0.
<mgrwt>
<rscale>  0 0.12499463E+03</rscale>
<asrwt>0</asrwt>
<pdfrwt beam="2">  1        4 0.40423971E-02 0.12499463E+03</pdfrwt>
<pdfrwt beam="1">  1       -4 0.22869520E-01 0.12499463E+03</pdfrwt>
<totfact> 0.94549513E+03</totfact>
</mgrwt>
</event>
<event>
 5    1  0.3312904E-002  0.1249957E+03  0.7818608E-02  0.1235076E+00
          4   -1    0    0  501    0  0.00000000000E+00  0.00000000000E+00  0.72199225713E+03  0.72199337411E+03  0.12700000000E+01 0. -1.
         -4   -1    0    0    0  501 -0.00000000000E+00 -0.00000000000E+00 -0.53343323199E+01  0.54834297022E+01  0.12700000000E+01 0. -1.
         25    2    1    2    0    0  0.00000000000E+00  0.00000000000E+00  0.71665792481E+03  0.72747680381E+03  0.12499567548E+03 0.  0.
    9000005    1    3    3    0    0 -0.19249627481E+02 -0.35861822213E+02  0.63429599908E+03  0.63560131600E+03  0.10000000000E+01 0.  0.
    9000005    1    3    3    0    0  0.19249627481E+02  0.35861822213E+02  0.82361925732E+02  0.91875487813E+02  0.10000000000E+01 0.  0.
<mgrwt>
<rscale>  0 0.12499568E+03</rscale>
<asrwt>0</asrwt>
<pdfrwt beam="1">  1        4 0.11108730E+00 0.12499568E+03</pdfrwt>
<pdfrwt beam="2">  1       -4 0.83222133E-03 0.12499568E+03</pdfrwt>
<totfact> 0.41679211E+03</totfact>
</mgrwt>
</event>
<event>
 5    1  0.3312904E-002  0.1249995E+03  0.7818608E-02  0.1235070E+00
         -4   -1    0    0    0  501 -0.00000000000E+00  0.00000000000E+00  0.22844721292E+03  0.22845074303E+03  0.12700000000E+01 0.  1.
          4   -1    0    0  501    0  0.00000000000E+00 -0.00000000000E+00 -0.17071747620E+02  0.17118921309E+02  0.12700000000E+01 0.  1.
         25    2    1    2    0    0  0.00000000000E+00  0.00000000000E+00  0.21137546530E+03  0.24556966434E+03  0.12499949085E+03 0.  0.
    9000005    1    3    3    0    0 -0.52695720746E+02 -0.33543841660E+02  0.10919649250E+03  0.12580501689E+03  0.10000000000E+01 0.  0.
    9000005    1    3    3    0    0  0.52695720746E+02  0.33543841660E+02  0.10217897280E+03  0.11976464746E+03  0.10000000000E+01 0.  0.
<mgrwt>
<rscale>  0 0.12499949E+03</rscale>
<asrwt>0</asrwt>
<pdfrwt beam="2">  1        4 0.26303231E-02 0.12499949E+03</pdfrwt>
<pdfrwt beam="1">  1       -4 0.35149624E-01 0.12499949E+03</pdfrwt>
<totfact> 0.82975736E+03</totfact>
</mgrwt>
</event>
<event>
 5    1  0.3312904E-002  0.1249985E+03  0.7818608E-02  0.1235072E+00
          4   -1    0    0  501    0  0.00000000000E+00  0.00000000000E+00  0.27711019235E+03  0.27711310255E+03  0.12700000000E+01 0.  1.
         -4   -1    0    0    0  501 -0.00000000000E+00 -0.00000000000E+00 -0.14064449083E+02  0.14121672281E+02  0.12700000000E+01 0.  1.
         25    2    1    2    0    0  0.00000000000E+00  0.00000000000E+00  0.26304574327E+03  0.29123477483E+03  0.12499852407E+03 0.  0.
    9000005    1    3    3    0    0 -0.18368698845E+02 -0.29680079495E+02  0.10752786493E+02  0.36536812032E+02  0.10000000000E+01 0.  0.
    9000005    1    3    3    0    0  0.18368698845E+02  0.29680079495E+02  0.25229295677E+03  0.25469796280E+03  0.10000000000E+01 0.  0.
<mgrwt>
<rscale>  0 0.12499852E+03</rscale>
<asrwt>0</asrwt>
<pdfrwt beam="1">  1        4 0.42636966E-01 0.12499852E+03</pdfrwt>
<pdfrwt beam="2">  1       -4 0.21683869E-02 0.12499852E+03</pdfrwt>
<totfact> 0.76714164E+03</totfact>
</mgrwt>
</event>
<event>
 5    1  0.3312904E-002  0.1249978E+03  0.7818608E-02  0.1235073E+00
          4   -1    0    0  501    0  0.00000000000E+00  0.00000000000E+00  0.19181318723E+03  0.19181739153E+03  0.12700000000E+01 0. -1.
         -4   -1    0    0    0  501 -0.00000000000E+00 -0.00000000000E+00 -0.20339926860E+02  0.20379536910E+02  0.12700000000E+01 0. -1.
         25    2    1    2    0    0  0.00000000000E+00  0.00000000000E+00  0.17147326037E+03  0.21219692844E+03  0.12499782966E+03 0.  0.
    9000005    1    3    3    0    0 -0.99743754579E+01 -0.52342032593E+02  0.14116122860E+03  0.15088627838E+03  0.10000000000E+01 0.  0.
    9000005    1    3    3    0    0  0.99743754579E+01  0.52342032593E+02  0.30312031764E+02  0.61310650065E+02  0.10000000000E+01 0.  0.
<mgrwt>
<rscale>  0 0.12499783E+03</rscale>
<asrwt>0</asrwt>
<pdfrwt beam="1">  1        4 0.29513091E-01 0.12499783E+03</pdfrwt>
<pdfrwt beam="2">  1       -4 0.31325899E-02 0.12499783E+03</pdfrwt>
<totfact> 0.88122620E+03</totfact>
</mgrwt>
</event>
<event>
 5    1  0.3312904E-002  0.1250024E+03  0.7818608E-02  0.1235066E+00
         -4   -1    0    0    0  501 -0.00000000000E+00  0.00000000000E+00  0.55881932066E+03  0.55882076379E+03  0.12700000000E+01 0.  1.
          4   -1    0    0  501    0  0.00000000000E+00 -0.00000000000E+00 -0.69313036106E+01  0.70466921134E+01  0.12700000000E+01 0.  1.
         25    2    1    2    0    0  0.00000000000E+00  0.00000000000E+00  0.55188801705E+03  0.56586745590E+03  0.12500237713E+03 0.  0.
    9000005    1    3    3    0    0 -0.60038187679E+02 -0.71744381782E+01  0.20446242081E+03  0.21321805286E+03  0.10000000000E+01 0.  0.
    9000005    1    3    3    0    0  0.60038187679E+02  0.71744381782E+01  0.34742559624E+03  0.35264940304E+03  0.10000000000E+01 0.  0.
<mgrwt>
<rscale>  0 0.12500238E+03</rscale>
<asrwt>0</asrwt>
<pdfrwt beam="2">  1        4 0.10753413E-02 0.12500238E+03</pdfrwt>
<pdfrwt beam="1">  1       -4 0.85981200E-01 0.12500238E+03</pdfrwt>
<totfact> 0.51092889E+03</totfact>
</mgrwt>
</event>
<event>
 5    1  0.3312904E-002  0.1249980E+03  0.7818608E-02  0.1235072E+00
         -4   -1    0    0    0  501 -0.00000000000E+00  0.00000000000E+00  0.11274407999E+02  0.11345711777E+02  0.12700000000E+01 0.  1.
          4   -1    0    0  501    0  0.00000000000E+00 -0.00000000000E+00 -0.34529488199E+03  0.34529721752E+03  0.12700000000E+01 0.  1.
         25    2    1    2    0    0  0.00000000000E+00  0.00000000000E+00 -0.33402047399E+03  0.35664292930E+03  0.12499800788E+03 0.  0.
    9000005    1    3    3    0    0 -0.56457104377E+02  0.10964525434E+02 -0.97267418201E+02  0.11300254907E+03  0.10000000000E+01 0.  0.
    9000005    1    3    3    0    0  0.56457104377E+02 -0.10964525434E+02 -0.23675305579E+03  0.24364038023E+03  0.10000000000E+01 0.  0.
<mgrwt>
<rscale>  0 0.12499801E+03</rscale>
<asrwt>0</asrwt>
<pdfrwt beam="2">  1        4 0.53127946E-01 0.12499801E+03</pdfrwt>
<pdfrwt beam="1">  1       -4 0.17401891E-02 0.12499801E+03</pdfrwt>
<totfact> 0.69002927E+03</totfact>
</mgrwt>
</event>
<event>
 5    1  0.3312904E-002  0.1250088E+03  0.7818608E-02  0.1235056E+00
          4   -1    0    0  501    0  0.00000000000E+00  0.00000000000E+00  0.41218880162E+02  0.41238440585E+02  0.12700000000E+01 0.  1.
         -4   -1    0    0    0  501 -0.00000000000E+00 -0.00000000000E+00 -0.94735525639E+02  0.94744037903E+02  0.12700000000E+01 0.  1.
         25    2    1    2    0    0  0.00000000000E+00  0.00000000000E+00 -0.53516645477E+02  0.13598247849E+03  0.12500881214E+03 0.  0.
    9000005    1    3    3    0    0 -0.77459481284E+01  0.61865377999E+02 -0.22082617414E+02  0.66151089932E+02  0.10000000000E+01 0.  0.
    9000005    1    3    3    0    0  0.77459481284E+01 -0.61865377999E+02 -0.31434028063E+02  0.69831388556E+02  0.10000000000E+01 0.  0.
<mgrwt>
<rscale>  0 0.12500881E+03</rscale>
<asrwt>0</asrwt>
<pdfrwt beam="1">  1        4 0.63435257E-02 0.12500881E+03</pdfrwt>
<pdfrwt beam="2">  1       -4 0.14576856E-01 0.12500881E+03</pdfrwt>
<totfact> 0.10215374E+04</totfact>
</mgrwt>
</event>
<event>
 5    1  0.3312904E-002  0.1249982E+03  0.7818608E-02  0.1235072E+00
          4   -1    0    0  501    0  0.00000000000E+00  0.00000000000E+00  0.54519799147E+02  0.54534589015E+02  0.12700000000E+01 0.  1.
         -4   -1    0    0    0  501 -0.00000000000E+00 -0.00000000000E+00 -0.71616069328E+02  0.71627329184E+02  0.12700000000E+01 0.  1.
         25    2    1    2    0    0  0.00000000000E+00  0.00000000000E+00 -0.17096270181E+02  0.12616191820E+03  0.12499818858E+03 0.  0.
    9000005    1    3    3    0    0  0.41219320465E+02  0.19773723949E+02  0.34452547613E+02  0.57253913189E+02  0.10000000000E+01 0.  0.
    9000005    1    3    3    0    0 -0.41219320465E+02 -0.19773723949E+02 -0.51548817794E+02  0.68908005009E+02  0.10000000000E+01 0.  0.
<mgrwt>
<rscale>  0 0.12499819E+03</rscale>
<asrwt>0</asrwt>
<pdfrwt beam="1">  1        4 0.83896652E-02 0.12499819E+03</pdfrwt>
<pdfrwt beam="2">  1       -4 0.11019861E-01 0.12499819E+03</pdfrwt>
<totfact> 0.10427838E+04</totfact>
</mgrwt>
</event>
<event>
 5    1  0.3312904E-002  0.1249984E+03  0.7818608E-02  0.1235072E+00
         -4   -1    0    0    0  501 -0.00000000000E+00  0.00000000000E+00  0.45137942208E+02  0.45155805018E+02  0.12700000000E+01 0.  1.
          4   -1    0    0  501    0  0.00000000000E+00 -0.00000000000E+00 -0.86498480798E+02  0.86507803581E+02  0.12700000000E+01 0.  1.
         25    2    1    2    0    0  0.00000000000E+00  0.00000000000E+00 -0.41360538589E+02  0.13166360860E+03  0.12499844670E+03 0.  0.
    9000005    1    3    3    0    0  0.44422897827E+02  0.32052521518E+02 -0.52356988710E+02  0.75782664599E+02  0.10000000000E+01 0.  0.
    9000005    1    3    3    0    0 -0.44422897827E+02 -0.32052521518E+02  0.10996450121E+02  0.55880943999E+02  0.10000000000E+01 0.  0.
<mgrwt>
<rscale>  0 0.12499845E+03</rscale>
<asrwt>0</asrwt>
<pdfrwt beam="2">  1        4 0.13309550E-01 0.12499845E+03</pdfrwt>
<pdfrwt beam="1">  1       -4 0.69463900E-02 0.12499845E+03</pdfrwt>
<totfact> 0.10309245E+04</totfact>
</mgrwt>
</event>
<event>
 5    1  0.3312904E-002  0.1249966E+03  0.7818608E-02  0.1235075E+00
          4   -1    0    0  501    0  0.00000000000E+00  0.00000000000E+00  0.23882687027E+03  0.23883024696E+03  0.12700000000E+01 0.  1.
         -4   -1    0    0    0  501 -0.00000000000E+00 -0.00000000000E+00 -0.16326946394E+02  0.16376265709E+02  0.12700000000E+01 0.  1.
         25    2    1    2    0    0  0.00000000000E+00  0.00000000000E+00  0.22249992388E+03  0.25520651267E+03  0.12499659189E+03 0.  0.
    9000005    1    3    3    0    0  0.13097894347E+02 -0.61047638846E+02  0.11652213652E+03  0.13219976302E+03  0.10000000000E+01 0.  0.
    9000005    1    3    3    0    0 -0.13097894347E+02  0.61047638846E+02  0.10597778736E+03  0.12300674965E+03  0.10000000000E+01 0.  0.
<mgrwt>
<rscale>  0 0.12499659E+03</rscale>
<asrwt>0</asrwt>
<pdfrwt beam="1">  1        4 0.36746648E-01 0.12499659E+03</pdfrwt>
<pdfrwt beam="2">  1       -4 0.25158915E-02 0.12499659E+03</pdfrwt>
<totfact> 0.81589691E+03</totfact>
</mgrwt>
</event>
<event>
 5    1  0.3312904E-002  0.1250044E+03  0.7818608E-02  0.1235062E+00
          4   -1    0    0  501    0  0.00000000000E+00  0.00000000000E+00  0.79282701184E+02  0.79292872360E+02  0.12700000000E+01 0.  1.
         -4   -1    0    0    0  501 -0.00000000000E+00 -0.00000000000E+00 -0.49251810820E+02  0.49268182117E+02  0.12700000000E+01 0.  1.
         25    2    1    2    0    0  0.00000000000E+00  0.00000000000E+00  0.30030890364E+02  0.12856105448E+03  0.12500436133E+03 0.  0.
    9000005    1    3    3    0    0 -0.56770994472E+02 -0.22758979582E+02  0.28210360087E+02  0.67362759602E+02  0.10000000000E+01 0.  0.
    9000005    1    3    3    0    0  0.56770994472E+02  0.22758979582E+02  0.18205302773E+01  0.61198294874E+02  0.10000000000E+01 0.  0.
<mgrwt>
<rscale>  0 0.12500436E+03</rscale>
<asrwt>0</asrwt>
<pdfrwt beam="1">  1        4 0.12199380E-01 0.12500436E+03</pdfrwt>
<pdfrwt beam="2">  1       -4 0.75792435E-02 0.12500436E+03</pdfrwt>
<totfact> 0.10374367E+04</totfact>
</mgrwt>
</event>
<event>
 5    1  0.3312904E-002  0.1250019E+03  0.7818608E-02  0.1235066E+00
         -4   -1    0    0    0  501 -0.00000000000E+00  0.00000000000E+00  0.31728435713E+03  0.31728689884E+03  0.12700000000E+01 0. -1.
          4   -1    0    0  501    0  0.00000000000E+00 -0.00000000000E+00 -0.12276543482E+02  0.12342058980E+02  0.12700000000E+01 0. -1.
         25    2    1    2    0    0  0.00000000000E+00  0.00000000000E+00  0.30500781364E+03  0.32962895782E+03  0.12500193379E+03 0.  0.
    9000005    1    3    3    0    0 -0.11582175168E+02  0.59179200855E+02  0.19575749205E+03  0.20483730200E+03  0.10000000000E+01 0.  0.
    9000005    1    3    3    0    0  0.11582175168E+02 -0.59179200855E+02  0.10925032159E+03  0.12479165583E+03  0.10000000000E+01 0.  0.
<mgrwt>
<rscale>  0 0.12500193E+03</rscale>
<asrwt>0</asrwt>
<pdfrwt beam="2">  1        4 0.18939344E-02 0.12500193E+03</pdfrwt>
<pdfrwt beam="1">  1       -4 0.48818208E-01 0.12500193E+03</pdfrwt>
<totfact> 0.72022253E+03</totfact>
</mgrwt>
</event>
