<event>
 8    2  0.7478846E-004  0.1327232E+03  0.7818608E-02  0.1237497E+00
          1   -1    0    0  501    0  0.00000000000E+00  0.00000000000E+00  0.27050279297E+02  0.27050279766E+02  0.50400000000E-02 0. -1.
         -1   -1    0    0    0  501 -0.00000000000E+00 -0.00000000000E+00 -0.50477776649E+03  0.50477776652E+03  0.50400000000E-02 0.  1.
         25    2    1    2    0    0  0.40450856463E+02 -0.18817136551E+02 -0.24186197963E+03  0.27588524942E+03  0.12500038896E+03 0.  0.
         23    2    1    2    0    0 -0.40450856463E+02  0.18817136551E+02 -0.23586550757E+03  0.25594279687E+03  0.88790884612E+02 0.  0.
        -11    1    4    4    0    0 -0.21824985099E+02  0.39966981204E+02 -0.48724209056E+02  0.66691364580E+02  0.51100000000E-03 0.  1.
         11    1    4    4    0    0 -0.18625871364E+02 -0.21149844653E+02 -0.18714129851E+03  0.18925143229E+03  0.51100000000E-03 0. -1.
    9000005    1    3    3    0    0  0.75873397141E+02 -0.45388090425E+02 -0.15933262169E+03  0.18222166578E+03  0.10000000000E+01 0.  0.
    9000005    1    3    3    0    0 -0.35422540678E+02  0.26570953874E+02 -0.82529357943E+02  0.93663583640E+02  0.10000000000E+01 0.  0.
<mgrwt>
<rscale>  0 0.12345901E+03</rscale>
<asrwt>0</asrwt>
<pdfrwt beam="1">  1        1 0.41615818E-02 0.13272322E+03</pdfrwt>
<pdfrwt beam="2">  1       -1 0.77658111E-01 0.13272322E+03</pdfrwt>
<totfact> 0.35800850E+03</totfact>
</mgrwt>
</event>
<event>
 8    2  0.7478846E-004  0.1330233E+03  0.7818608E-02  0.1236609E+00
          1   -1    0    0  501    0  0.00000000000E+00  0.00000000000E+00  0.28776416574E+03  0.28776416578E+03  0.50400000000E-02 0. -1.
         -1   -1    0    0    0  501 -0.00000000000E+00 -0.00000000000E+00 -0.62624599094E+02  0.62624599297E+02  0.50400000000E-02 0.  1.
         25    2    1    2    0    0 -0.40023612161E+02  0.21642230404E+02  0.38622808353E+02  0.13851686648E+03  0.12499970123E+03 0.  0.
         23    2    1    2    0    0  0.40023612161E+02 -0.21642230404E+02  0.18651675829E+03  0.21187189860E+03  0.89615426267E+02 0.  0.
        -11    1    4    4    0    0 -0.21457811497E+02 -0.12572451178E+02  0.14081947476E+02  0.28579808394E+02  0.51100000000E-03 0.  1.
         11    1    4    4    0    0  0.61481423658E+02 -0.90697792260E+01  0.17243481081E+03  0.18329209020E+03  0.51100000000E-03 0. -1.
    9000005    1    3    3    0    0 -0.41907962566E+02  0.53842958111E+02  0.66935538636E+02  0.95586127639E+02  0.10000000000E+01 0.  0.
    9000005    1    3    3    0    0  0.18843504051E+01 -0.32200727707E+02 -0.28312730283E+02  0.42930738841E+02  0.10000000000E+01 0.  0.
<mgrwt>
<rscale>  0 0.12402020E+03</rscale>
<asrwt>0</asrwt>
<pdfrwt beam="1">  1        1 0.44271410E-01 0.13302331E+03</pdfrwt>
<pdfrwt beam="2">  1       -1 0.96345538E-02 0.13302331E+03</pdfrwt>
<totfact> 0.56974828E+03</totfact>
</mgrwt>
</event>
<event>
 8    2  0.7478846E-004  0.1751158E+03  0.7818608E-02  0.1178614E+00
          1   -1    0    0  501    0  0.00000000000E+00  0.00000000000E+00  0.52945435241E+02  0.52945435481E+02  0.50400000000E-02 0. -1.
         -1   -1    0    0    0  501 -0.00000000000E+00 -0.00000000000E+00 -0.55218033455E+03  0.55218033457E+03  0.50400000000E-02 0.  1.
         25    2    1    2    0    0 -0.16324719642E+02  0.12154727914E+03 -0.35064523793E+03  0.39194084658E+03  0.12500122718E+03 0.  0.
         23    2    1    2    0    0  0.16324719642E+02 -0.12154727914E+03 -0.14858966138E+03  0.21318492348E+03  0.91261638102E+02 0.  0.
        -11    1    4    4    0    0  0.35210390210E+02 -0.94704444349E+02 -0.14939524808E+03  0.18035421677E+03  0.51100000000E-03 0.  1.
         11    1    4    4    0    0 -0.18885670568E+02 -0.26842834796E+02  0.80558669528E+00  0.32830706707E+02  0.51100000000E-03 0. -1.
    9000005    1    3    3    0    0 -0.44908185840E+00  0.91438910395E+02 -0.87376299111E+02  0.12647882690E+03  0.10000000000E+01 0.  0.
    9000005    1    3    3    0    0 -0.15875637783E+02  0.30108368750E+02 -0.26326893882E+03  0.26546201967E+03  0.10000000000E+01 0.  0.
<mgrwt>
<rscale>  0 0.16926760E+03</rscale>
<asrwt>0</asrwt>
<pdfrwt beam="1">  1        1 0.81454520E-02 0.17511580E+03</pdfrwt>
<pdfrwt beam="2">  1       -1 0.84950817E-01 0.17511580E+03</pdfrwt>
<totfact> 0.12057738E+03</totfact>
</mgrwt>
</event>
<event>
 8    2  0.7478846E-004  0.1273794E+03  0.7818608E-02  0.1246227E+00
          1   -1    0    0  501    0  0.00000000000E+00  0.00000000000E+00  0.16872887504E+04  0.16872887504E+04  0.50400000000E-02 0. -1.
         -1   -1    0    0    0  501 -0.00000000000E+00 -0.00000000000E+00 -0.75106963186E+01  0.75106980096E+01  0.50400000000E-02 0.  1.
         25    2    1    2    0    0  0.21794567159E+02 -0.11201680436E+02  0.11104114324E+04  0.11176936308E+04  0.12500008966E+03 0.  0.
         23    2    1    2    0    0 -0.21794567159E+02  0.11201680436E+02  0.56936662170E+03  0.57710581760E+03  0.90952152219E+02 0.  0.
        -11    1    4    4    0    0  0.29285385942E+02 -0.28494666878E+01  0.35777566836E+03  0.35898354024E+03  0.51100000000E-03 0. -1.
         11    1    4    4    0    0 -0.51079953100E+02  0.14051147124E+02  0.21159095334E+03  0.21812227736E+03  0.51100000000E-03 0.  1.
    9000005    1    3    3    0    0  0.80038059764E+00  0.49880553068E+02  0.25432506931E+03  0.25917359253E+03  0.10000000000E+01 0.  0.
    9000005    1    3    3    0    0  0.20994186561E+02 -0.61082233504E+02  0.85608636306E+03  0.85852003828E+03  0.10000000000E+01 0.  0.
<mgrwt>
<rscale>  0 0.11812226E+03</rscale>
<asrwt>0</asrwt>
<pdfrwt beam="1">  1        1 0.25958287E+00 0.12737937E+03</pdfrwt>
<pdfrwt beam="2">  1       -1 0.11554920E-02 0.12737937E+03</pdfrwt>
<totfact> 0.80207912E+03</totfact>
</mgrwt>
</event>
<event>
 8    2  0.7478846E-004  0.1612471E+03  0.7818608E-02  0.1197290E+00
         -1   -1    0    0    0  501 -0.00000000000E+00  0.00000000000E+00  0.52036306497E+02  0.52036306741E+02  0.50400000000E-02 0.  1.
          1   -1    0    0  501    0  0.00000000000E+00 -0.00000000000E+00 -0.48992380257E+03  0.48992380260E+03  0.50400000000E-02 0. -1.
         25    2    1    2    0    0  0.22356475682E+02  0.99383176344E+02 -0.35048828095E+03  0.38580133908E+03  0.12499524155E+03 0.  0.
         23    2    1    2    0    0 -0.22356475682E+02 -0.99383176344E+02 -0.87399215127E+02  0.15615877026E+03  0.79812975004E+02 0.  0.
        -11    1    4    4    0    0 -0.33074349773E+02 -0.13981640084E+02 -0.36953970408E+01  0.36097850794E+02  0.51100000000E-03 0.  1.
         11    1    4    4    0    0  0.10717874091E+02 -0.85401536260E+02 -0.83703818087E+02  0.12006091947E+03  0.51100000000E-03 0. -1.
    9000005    1    3    3    0    0  0.13027543763E+02  0.24087474837E+02 -0.28278497955E+03  0.28410960561E+03  0.10000000000E+01 0.  0.
    9000005    1    3    3    0    0  0.93289319195E+01  0.75295701507E+02 -0.67703301400E+02  0.10169173347E+03  0.10000000000E+01 0.  0.
<mgrwt>
<rscale>  0 0.15261982E+03</rscale>
<asrwt>0</asrwt>
<pdfrwt beam="2">  1        1 0.75372890E-01 0.16124713E+03</pdfrwt>
<pdfrwt beam="1">  1       -1 0.80055860E-02 0.16124713E+03</pdfrwt>
<totfact> 0.38962865E+03</totfact>
</mgrwt>
</event>
<event>
 8    2  0.7478846E-004  0.2331671E+03  0.7818608E-02  0.1127254E+00
         -1   -1    0    0    0  501 -0.00000000000E+00  0.00000000000E+00  0.19154516883E+03  0.19154516890E+03  0.50400000000E-02 0.  1.
          1   -1    0    0  501    0  0.00000000000E+00 -0.00000000000E+00 -0.11471755320E+04  0.11471755320E+04  0.50400000000E-02 0. -1.
         25    2    1    2    0    0 -0.84246725970E+02  0.17788524303E+03 -0.10685651863E+04  0.10937085744E+04  0.12500487078E+03 0.  0.
         23    2    1    2    0    0  0.84246725970E+02 -0.17788524303E+03  0.11293482311E+03  0.24501212658E+03  0.92390461507E+02 0.  0.
        -11    1    4    4    0    0  0.82918800947E+01 -0.66183173035E+02  0.83310750834E+02  0.10672229792E+03  0.51100000000E-03 0.  1.
         11    1    4    4    0    0  0.75954845876E+02 -0.11170207000E+03  0.29624072274E+02  0.13828982866E+03  0.51100000000E-03 0. -1.
    9000005    1    3    3    0    0  0.17422367248E+02  0.49710491559E+01 -0.24162244099E+02  0.30216953025E+02  0.10000000000E+01 0.  0.
    9000005    1    3    3    0    0 -0.10166909322E+03  0.17291419387E+03 -0.10444029422E+04  0.10634916213E+04  0.10000000000E+01 0.  0.
<mgrwt>
<rscale>  0 0.22912965E+03</rscale>
<asrwt>0</asrwt>
<pdfrwt beam="2">  1        1 0.17648854E+00 0.23316708E+03</pdfrwt>
<pdfrwt beam="1">  1       -1 0.29468488E-01 0.23316708E+03</pdfrwt>
<totfact> 0.13409220E+02</totfact>
</mgrwt>
</event>
<event>
 8    2  0.7478846E-004  0.1270070E+03  0.7818608E-02  0.1247282E+00
          1   -1    0    0  501    0  0.00000000000E+00  0.00000000000E+00  0.32778239164E+03  0.32778239168E+03  0.50400000000E-02 0. -1.
         -1   -1    0    0    0  501 -0.00000000000E+00 -0.00000000000E+00 -0.37419129864E+02  0.37419130203E+02  0.50400000000E-02 0.  1.
         25    2    1    2    0    0 -0.95800537439E+01  0.20358290347E+02  0.14664660885E+03  0.19400001432E+03  0.12499816099E+03 0.  0.
         23    2    1    2    0    0  0.95800537439E+01 -0.20358290347E+02  0.14371665293E+03  0.17120150757E+03  0.90273154645E+02 0.  0.
        -11    1    4    4    0    0 -0.17163150512E+02 -0.50071582140E+02  0.77416274379E+02  0.93781749890E+02  0.51100000000E-03 0.  1.
         11    1    4    4    0    0  0.26743204256E+02  0.29713291793E+02  0.66300378547E+02  0.77419757677E+02  0.51100000000E-03 0. -1.
    9000005    1    3    3    0    0  0.41585879858E+02 -0.30455563209E+02  0.39975711698E+02  0.65237905084E+02  0.10000000000E+01 0.  0.
    9000005    1    3    3    0    0 -0.51165933602E+02  0.50813853555E+02  0.10667089715E+03  0.12876210923E+03  0.10000000000E+01 0.  0.
<mgrwt>
<rscale>  0 0.11749845E+03</rscale>
<asrwt>0</asrwt>
<pdfrwt beam="1">  1        1 0.50428062E-01 0.12700700E+03</pdfrwt>
<pdfrwt beam="2">  1       -1 0.57567891E-02 0.12700700E+03</pdfrwt>
<totfact> 0.10478258E+04</totfact>
</mgrwt>
</event>
<event>
 8    2  0.7478846E-004  0.1359115E+03  0.7818608E-02  0.1231283E+00
         -1   -1    0    0    0  501 -0.00000000000E+00  0.00000000000E+00  0.24322117924E+03  0.24322117930E+03  0.50400000000E-02 0.  1.
          1   -1    0    0  501    0  0.00000000000E+00 -0.00000000000E+00 -0.62081606590E+02  0.62081606795E+02  0.50400000000E-02 0. -1.
         25    2    1    2    0    0  0.39913906788E+02  0.35419755452E+02  0.13129563827E+03  0.18897213476E+03  0.12499697618E+03 0.  0.
         23    2    1    2    0    0 -0.39913906788E+02 -0.35419755452E+02  0.49843934381E+02  0.11633065133E+03  0.90557846780E+02 0.  0.
        -11    1    4    4    0    0 -0.32530112314E+02 -0.35886976241E+01  0.70463231880E+02  0.77692689522E+02  0.51100000000E-03 0.  1.
         11    1    4    4    0    0 -0.73837944739E+01 -0.31831057828E+02 -0.20619297499E+02  0.38637961811E+02  0.51100000000E-03 0. -1.
    9000005    1    3    3    0    0  0.16484044943E+02  0.78108323470E+02  0.10974494787E+03  0.13571141262E+03  0.10000000000E+01 0.  0.
    9000005    1    3    3    0    0  0.23429861845E+02 -0.42688568018E+02  0.21550690399E+02  0.53260722133E+02  0.10000000000E+01 0.  0.
<mgrwt>
<rscale>  0 0.12745430E+03</rscale>
<asrwt>0</asrwt>
<pdfrwt beam="2">  1        1 0.95510161E-02 0.13591145E+03</pdfrwt>
<pdfrwt beam="1">  1       -1 0.37418644E-01 0.13591145E+03</pdfrwt>
<totfact> 0.45381257E+03</totfact>
</mgrwt>
</event>
<event>
 8    2  0.7478846E-004  0.1282756E+03  0.7818608E-02  0.1245120E+00
         -1   -1    0    0    0  501 -0.00000000000E+00  0.00000000000E+00  0.15334090845E+03  0.15334090853E+03  0.50400000000E-02 0.  1.
          1   -1    0    0  501    0  0.00000000000E+00 -0.00000000000E+00 -0.80809144010E+02  0.80809144167E+02  0.50400000000E-02 0. -1.
         25    2    1    2    0    0 -0.28310432215E+02  0.45914890867E+01  0.39473834353E+02  0.13421183748E+03  0.12502828231E+03 0.  0.
         23    2    1    2    0    0  0.28310432215E+02 -0.45914890867E+01  0.33057930086E+02  0.99938215221E+02  0.89845744339E+02 0.  0.
        -11    1    4    4    0    0  0.57147522985E+02  0.52890288288E+01  0.35321688994E+01  0.57500342840E+02  0.51100000000E-03 0. -1.
         11    1    4    4    0    0 -0.28837090770E+02 -0.98805179155E+01  0.29525761186E+02  0.42437872382E+02  0.51100000000E-03 0.  1.
    9000005    1    3    3    0    0 -0.73741774718E+02  0.33495124713E+01 -0.27549805653E+00  0.73825093779E+02  0.10000000000E+01 0.  0.
    9000005    1    3    3    0    0  0.45431342503E+02  0.12419766155E+01  0.39749332410E+02  0.60386743699E+02  0.10000000000E+01 0.  0.
<mgrwt>
<rscale>  0 0.11878189E+03</rscale>
<asrwt>0</asrwt>
<pdfrwt beam="2">  1        1 0.12432176E-01 0.12827562E+03</pdfrwt>
<pdfrwt beam="1">  1       -1 0.23590909E-01 0.12827562E+03</pdfrwt>
<totfact> 0.69245962E+03</totfact>
</mgrwt>
</event>
<event>
 8    2  0.7478846E-004  0.1327346E+03  0.7818608E-02  0.1236071E+00
          1   -1    0    0  501    0  0.00000000000E+00  0.00000000000E+00  0.10865991503E+04  0.10865991503E+04  0.50400000000E-02 0. -1.
         -1   -1    0    0    0  501 -0.00000000000E+00 -0.00000000000E+00 -0.15257564867E+02  0.15257565699E+02  0.50400000000E-02 0.  1.
         25    2    1    2    0    0  0.32885348489E+02  0.30213721572E+02  0.81713608674E+03  0.82784652352E+03  0.12499666848E+03 0.  0.
         23    2    1    2    0    0 -0.32885348489E+02 -0.30213721572E+02  0.25420549869E+03  0.27401019249E+03  0.92015405818E+02 0.  0.
        -11    1    4    4    0    0 -0.58440626065E+02 -0.14511081631E+02  0.22191060230E+03  0.22993519452E+03  0.51100000000E-03 0. -1.
         11    1    4    4    0    0  0.25555277576E+02 -0.15702639941E+02  0.32294896392E+02  0.44074997973E+02  0.51100000000E-03 0.  1.
    9000005    1    3    3    0    0  0.34988823158E+02  0.45166305038E+02  0.80831118011E+03  0.81032843758E+03  0.10000000000E+01 0.  0.
    9000005    1    3    3    0    0 -0.21034746695E+01 -0.14952583466E+02  0.88249066320E+01  0.17518085942E+02  0.10000000000E+01 0.  0.
<mgrwt>
<rscale>  0 0.12436140E+03</rscale>
<asrwt>0</asrwt>
<pdfrwt beam="1">  1        1 0.16716910E+00 0.13273463E+03</pdfrwt>
<pdfrwt beam="2">  1       -1 0.23473178E-02 0.13273463E+03</pdfrwt>
<totfact> 0.72555537E+03</totfact>
</mgrwt>
</event>
<event>
 8    2  0.7478846E-004  0.1385066E+03  0.7818608E-02  0.1226855E+00
          1   -1    0    0  501    0  0.00000000000E+00  0.00000000000E+00  0.17867312995E+03  0.17867313002E+03  0.50400000000E-02 0. -1.
         -1   -1    0    0    0  501 -0.00000000000E+00 -0.00000000000E+00 -0.13108315423E+03  0.13108315433E+03  0.50400000000E-02 0.  1.
         25    2    1    2    0    0  0.99259067560E+00 -0.59650662802E+02  0.11645960059E+03  0.18096109891E+03  0.12499957576E+03 0.  0.
         23    2    1    2    0    0 -0.99259067560E+00  0.59650662802E+02 -0.68869624882E+02  0.12879518543E+03  0.91027401097E+02 0.  0.
        -11    1    4    4    0    0 -0.39636527958E+01  0.54805187364E+02  0.45680513027E+01  0.55137883514E+02  0.51100000000E-03 0. -1.
         11    1    4    4    0    0  0.29710621202E+01  0.48454754384E+01 -0.73437676185E+02  0.73657301919E+02  0.51100000000E-03 0.  1.
    9000005    1    3    3    0    0 -0.11197097241E+01  0.17308507393E+02  0.10093197579E+03  0.10241631664E+03  0.10000000000E+01 0.  0.
    9000005    1    3    3    0    0  0.21123003997E+01 -0.76959170195E+02  0.15527624808E+02  0.78544782273E+02  0.10000000000E+01 0.  0.
<mgrwt>
<rscale>  0 0.13040539E+03</rscale>
<asrwt>0</asrwt>
<pdfrwt beam="1">  1        1 0.27488174E-01 0.13850661E+03</pdfrwt>
<pdfrwt beam="2">  1       -1 0.20166639E-01 0.13850661E+03</pdfrwt>
<totfact> 0.32548680E+03</totfact>
</mgrwt>
</event>
<event>
 8    2  0.7478846E-004  0.1403485E+03  0.7818608E-02  0.1222920E+00
          1   -1    0    0  501    0  0.00000000000E+00  0.00000000000E+00  0.17022180415E+03  0.17022180422E+03  0.50400000000E-02 0. -1.
         -1   -1    0    0    0  501 -0.00000000000E+00 -0.00000000000E+00 -0.95006461024E+02  0.95006461158E+02  0.50400000000E-02 0.  1.
         25    2    1    2    0    0  0.44890609203E+02 -0.45371285445E+02  0.49404398861E+02  0.14879011030E+03  0.12499592777E+03 0.  0.
         23    2    1    2    0    0 -0.44890609203E+02  0.45371285445E+02  0.25810944263E+02  0.11643815508E+03  0.93903774031E+02 0.  0.
        -11    1    4    4    0    0  0.14984261042E+02  0.38495140144E+02  0.36625480403E+02  0.55207152694E+02  0.51100000000E-03 0. -1.
         11    1    4    4    0    0 -0.59874870245E+02  0.68761453010E+01 -0.10814536140E+02  0.61231002386E+02  0.51100000000E-03 0.  1.
    9000005    1    3    3    0    0 -0.12949611976E+02 -0.65824498820E+02  0.55576415354E+02  0.87122299321E+02  0.10000000000E+01 0.  0.
    9000005    1    3    3    0    0  0.57840221179E+02  0.20453213376E+02 -0.61720164929E+01  0.61667810979E+02  0.10000000000E+01 0.  0.
<mgrwt>
<rscale>  0 0.13310500E+03</rscale>
<asrwt>0</asrwt>
<pdfrwt beam="1">  1        1 0.26187970E-01 0.14034850E+03</pdfrwt>
<pdfrwt beam="2">  1       -1 0.14616379E-01 0.14034850E+03</pdfrwt>
<totfact> 0.57653497E+03</totfact>
</mgrwt>
</event>
<event>
 8    2  0.7478846E-004  0.1391886E+03  0.7818608E-02  0.1227168E+00
          1   -1    0    0  501    0  0.00000000000E+00  0.00000000000E+00  0.17219202346E+03  0.17219202354E+03  0.50400000000E-02 0. -1.
         -1   -1    0    0    0  501 -0.00000000000E+00 -0.00000000000E+00 -0.10826880221E+03  0.10826880233E+03  0.50400000000E-02 0.  1.
         25    2    1    2    0    0  0.25654082451E+02 -0.55587815878E+02  0.96119244985E+02  0.16915189055E+03  0.12500126239E+03 0.  0.
         23    2    1    2    0    0 -0.25654082451E+02  0.55587815878E+02 -0.32196023730E+02  0.11130893532E+03  0.87206409839E+02 0.  0.
        -11    1    4    4    0    0 -0.37887638198E+02 -0.10168306356E+02 -0.70681193378E+01  0.39860078946E+02  0.51100000000E-03 0.  1.
         11    1    4    4    0    0  0.12233555747E+02  0.65756122234E+02 -0.25127904392E+02  0.71448856372E+02  0.51100000000E-03 0. -1.
    9000005    1    3    3    0    0  0.61203642987E+02 -0.53620450331E+02  0.10461169869E+03  0.13253545228E+03  0.10000000000E+01 0.  0.
    9000005    1    3    3    0    0 -0.35549560536E+02 -0.19673655474E+01 -0.84924537021E+01  0.36616438267E+02  0.10000000000E+01 0.  0.
<mgrwt>
<rscale>  0 0.13019428E+03</rscale>
<asrwt>0</asrwt>
<pdfrwt beam="1">  1        1 0.26491081E-01 0.13918855E+03</pdfrwt>
<pdfrwt beam="2">  1       -1 0.16656739E-01 0.13918855E+03</pdfrwt>
<totfact> 0.46246569E+03</totfact>
</mgrwt>
</event>
<event>
 8    2  0.7478846E-004  0.1316351E+03  0.7818608E-02  0.1238409E+00
          1   -1    0    0  501    0  0.00000000000E+00  0.00000000000E+00  0.87455147740E+02  0.87455147885E+02  0.50400000000E-02 0. -1.
         -1   -1    0    0    0  501 -0.00000000000E+00 -0.00000000000E+00 -0.16760727275E+03  0.16760727282E+03  0.50400000000E-02 0.  1.
         25    2    1    2    0    0 -0.30075198223E+02  0.28343984355E+02 -0.81964164014E+02  0.15506751754E+03  0.12497964560E+03 0.  0.
         23    2    1    2    0    0  0.30075198223E+02 -0.28343984355E+02  0.18120390071E+01  0.99994903170E+02  0.91037344960E+02 0.  0.
        -11    1    4    4    0    0 -0.94508440345E+01  0.23322605809E+02 -0.19179078049E+02  0.31640155337E+02  0.51100000000E-03 0.  1.
         11    1    4    4    0    0  0.39526042257E+02 -0.51666590165E+02  0.20991117056E+02  0.68354747833E+02  0.51100000000E-03 0. -1.
    9000005    1    3    3    0    0 -0.76844496100E+02  0.34611539065E+02 -0.48944492277E+02  0.97465883988E+02  0.10000000000E+01 0.  0.
    9000005    1    3    3    0    0  0.46769297877E+02 -0.62675547098E+01 -0.33019671737E+02  0.57601633549E+02  0.10000000000E+01 0.  0.
<mgrwt>
<rscale>  0 0.12288688E+03</rscale>
<asrwt>0</asrwt>
<pdfrwt beam="1">  1        1 0.13454638E-01 0.13163514E+03</pdfrwt>
<pdfrwt beam="2">  1       -1 0.25785734E-01 0.13163514E+03</pdfrwt>
<totfact> 0.54091648E+03</totfact>
</mgrwt>
</event>
<event>
 8    2  0.7478846E-004  0.1296487E+03  0.7818608E-02  0.1237709E+00
         -1   -1    0    0    0  501 -0.00000000000E+00  0.00000000000E+00  0.53018687404E+03  0.53018687407E+03  0.50400000000E-02 0.  1.
          1   -1    0    0  501    0  0.00000000000E+00 -0.00000000000E+00 -0.29769225730E+02  0.29769226156E+02  0.50400000000E-02 0. -1.
         25    2    1    2    0    0  0.22476690588E+01 -0.34346544887E+02  0.17588545000E+03  0.21850507628E+03  0.12499615866E+03 0.  0.
         23    2    1    2    0    0 -0.22476690588E+01  0.34346544887E+02  0.32453219832E+03  0.34145102394E+03  0.10041372837E+03 0.  0.
        -11    1    4    4    0    0  0.33594317295E+02  0.49283032159E+02  0.12928022825E+03  0.14237546429E+03  0.51100000000E-03 0. -1.
         11    1    4    4    0    0 -0.35841986354E+02 -0.14936487272E+02  0.19525197006E+03  0.19907555965E+03  0.51100000000E-03 0.  1.
    9000005    1    3    3    0    0 -0.11033276679E+02 -0.44777930842E+02  0.45672226094E+01  0.46353595406E+02  0.10000000000E+01 0.  0.
    9000005    1    3    3    0    0  0.13280945738E+02  0.10431385955E+02  0.17131822739E+03  0.17215148088E+03  0.10000000000E+01 0.  0.
<mgrwt>
<rscale>  0 0.12332617E+03</rscale>
<asrwt>0</asrwt>
<pdfrwt beam="2">  1        1 0.45798810E-02 0.12964867E+03</pdfrwt>
<pdfrwt beam="1">  1       -1 0.81567209E-01 0.12964867E+03</pdfrwt>
<totfact> 0.28358663E+03</totfact>
</mgrwt>
</event>
<event>
 8    2  0.7478846E-004  0.1992110E+03  0.7818608E-02  0.1154672E+00
          1   -1    0    0  501    0  0.00000000000E+00  0.00000000000E+00  0.95354811356E+02  0.95354811489E+02  0.50400000000E-02 0. -1.
         -1   -1    0    0    0  501 -0.00000000000E+00 -0.00000000000E+00 -0.37732596879E+03  0.37732596882E+03  0.50400000000E-02 0.  1.
         25    2    1    2    0    0  0.66236823741E+02 -0.14025540417E+03 -0.14989662831E+03  0.24930706738E+03  0.12500447772E+03 0.  0.
         23    2    1    2    0    0 -0.66236823741E+02  0.14025540417E+03 -0.13207452912E+03  0.22337371293E+03  0.91614623099E+02 0.  0.
        -11    1    4    4    0    0  0.55599395141E+01  0.95159371014E+02 -0.72204260727E+02  0.11958124471E+03  0.51100000000E-03 0.  1.
         11    1    4    4    0    0 -0.71796763256E+02  0.45096033156E+02 -0.59870268397E+02  0.10379246822E+03  0.51100000000E-03 0. -1.
    9000005    1    3    3    0    0  0.18119310492E+02 -0.14790465896E+03 -0.99359911552E+02  0.17910189720E+03  0.10000000000E+01 0.  0.
    9000005    1    3    3    0    0  0.48117513250E+02  0.76492547938E+01 -0.50536716754E+02  0.70205170184E+02  0.10000000000E+01 0.  0.
<mgrwt>
<rscale>  0 0.19426312E+03</rscale>
<asrwt>0</asrwt>
<pdfrwt beam="1">  1        1 0.14669971E-01 0.19921098E+03</pdfrwt>
<pdfrwt beam="2">  1       -1 0.58050148E-01 0.19921098E+03</pdfrwt>
<totfact> 0.11808623E+03</totfact>
</mgrwt>
</event>
<event>
 8    2  0.7478846E-004  0.1347678E+03  0.7818608E-02  0.1232959E+00
          1   -1    0    0  501    0  0.00000000000E+00  0.00000000000E+00  0.74782718294E+03  0.74782718296E+03  0.50400000000E-02 0. -1.
         -1   -1    0    0    0  501 -0.00000000000E+00 -0.00000000000E+00 -0.23775935694E+02  0.23775936228E+02  0.50400000000E-02 0.  1.
         25    2    1    2    0    0  0.16119033011E+01 -0.50349313291E+02  0.56951654483E+03  0.58524478525E+03  0.12499884896E+03 0.  0.
         23    2    1    2    0    0 -0.16119033011E+01  0.50349313291E+02  0.15453470241E+03  0.18635833393E+03  0.91163604558E+02 0.  0.
        -11    1    4    4    0    0 -0.33255388605E+02  0.16250198369E+02  0.12703775874E+03  0.13231999836E+03  0.51100000000E-03 0. -1.
         11    1    4    4    0    0  0.31643485304E+02  0.34099114922E+02  0.27496943669E+02  0.54038335578E+02  0.51100000000E-03 0.  1.
    9000005    1    3    3    0    0  0.56768985218E+02 -0.52061346573E+02  0.38585430475E+03  0.39346873571E+03  0.10000000000E+01 0.  0.
    9000005    1    3    3    0    0 -0.55157081917E+02  0.17120332817E+01  0.18366224009E+03  0.19177604954E+03  0.10000000000E+01 0.  0.
<mgrwt>
<rscale>  0 0.12636029E+03</rscale>
<asrwt>0</asrwt>
<pdfrwt beam="1">  1        1 0.11505032E+00 0.13476781E+03</pdfrwt>
<pdfrwt beam="2">  1       -1 0.36578367E-02 0.13476781E+03</pdfrwt>
<totfact> 0.69259593E+03</totfact>
</mgrwt>
</event>
<event>
 8    2  0.7478846E-004  0.1556096E+03  0.7818608E-02  0.1202297E+00
         -1   -1    0    0    0  501 -0.00000000000E+00  0.00000000000E+00  0.34167264555E+02  0.34167264926E+02  0.50400000000E-02 0.  1.
          1   -1    0    0  501    0  0.00000000000E+00 -0.00000000000E+00 -0.68696648187E+03  0.68696648188E+03  0.50400000000E-02 0. -1.
         25    2    1    2    0    0  0.83011139192E+02 -0.41208296308E+02 -0.21996195007E+03  0.26943944848E+03  0.12500153601E+03 0.  0.
         23    2    1    2    0    0 -0.83011139192E+02  0.41208296308E+02 -0.43283726724E+03  0.45169429833E+03  0.89948131245E+02 0.  0.
        -11    1    4    4    0    0 -0.74043711876E+02 -0.68015541518E+01 -0.32365176616E+03  0.33208311933E+03  0.51100000000E-03 0. -1.
         11    1    4    4    0    0 -0.89674273159E+01  0.48009850460E+02 -0.10918550108E+03  0.11961117899E+03  0.51100000000E-03 0.  1.
    9000005    1    3    3    0    0  0.11240893580E+03 -0.47542953081E+02 -0.15071943538E+03  0.19394187129E+03  0.10000000000E+01 0.  0.
    9000005    1    3    3    0    0 -0.29397796613E+02  0.63346567723E+01 -0.69242514689E+02  0.75497577196E+02  0.10000000000E+01 0.  0.
<mgrwt>
<rscale>  0 0.14852538E+03</rscale>
<asrwt>0</asrwt>
<pdfrwt beam="2">  1        1 0.10568714E+00 0.15560963E+03</pdfrwt>
<pdfrwt beam="1">  1       -1 0.52565028E-02 0.15560963E+03</pdfrwt>
<totfact> 0.46179927E+03</totfact>
</mgrwt>
</event>
<event>
 8    2  0.7478846E-004  0.1501574E+03  0.7818608E-02  0.1202535E+00
         -1   -1    0    0    0  501 -0.00000000000E+00  0.00000000000E+00  0.12168152428E+02  0.12168153472E+02  0.50400000000E-02 0.  1.
          1   -1    0    0  501    0  0.00000000000E+00 -0.00000000000E+00 -0.17706760487E+04  0.17706760487E+04  0.50400000000E-02 0. -1.
         25    2    1    2    0    0  0.36903435394E+02 -0.74562444763E+02 -0.85317198729E+03  0.86628498720E+03  0.12500326967E+03 0.  0.
         23    2    1    2    0    0 -0.36903435394E+02  0.74562444763E+02 -0.90533590897E+03  0.91655921497E+03  0.11630247103E+03 0.  0.
        -11    1    4    4    0    0  0.10850354668E+02 -0.17121345827E+02 -0.37852474383E+02  0.42938100756E+02  0.51100000000E-03 0.  1.
         11    1    4    4    0    0 -0.47753790063E+02  0.91683790590E+02 -0.86748343458E+03  0.87362111421E+03  0.51100000000E-03 0. -1.
    9000005    1    3    3    0    0  0.22943732579E+02 -0.16034821788E+02 -0.71534784775E+03  0.71589599360E+03  0.10000000000E+01 0.  0.
    9000005    1    3    3    0    0  0.13959702815E+02 -0.58527622975E+02 -0.13782413954E+03  0.15038899360E+03  0.10000000000E+01 0.  0.
<mgrwt>
<rscale>  0 0.14833394E+03</rscale>
<asrwt>0</asrwt>
<pdfrwt beam="2">  1        1 0.27241150E+00 0.15015738E+03</pdfrwt>
<pdfrwt beam="1">  1       -1 0.18720249E-02 0.15015738E+03</pdfrwt>
<totfact> 0.35670659E+03</totfact>
</mgrwt>
</event>
<event>
 8    2  0.7478846E-004  0.1255632E+03  0.7818608E-02  0.1249477E+00
          1   -1    0    0  501    0  0.00000000000E+00  0.00000000000E+00  0.48358423282E+03  0.48358423284E+03  0.50400000000E-02 0. -1.
         -1   -1    0    0    0  501 -0.00000000000E+00 -0.00000000000E+00 -0.24501834384E+02  0.24501834903E+02  0.50400000000E-02 0.  1.
         25    2    1    2    0    0  0.15016449079E+01 -0.11790005231E+02  0.26418492788E+03  0.29250607448E+03  0.12499947330E+03 0.  0.
         23    2    1    2    0    0 -0.15016449079E+01  0.11790005231E+02  0.19489747055E+03  0.21557999326E+03  0.91369854488E+02 0.  0.
        -11    1    4    4    0    0  0.39748178853E+02 -0.10605754138E+02  0.12318117399E+03  0.12986917020E+03  0.51100000000E-03 0. -1.
         11    1    4    4    0    0 -0.41249823761E+02  0.22395759369E+02  0.71716296563E+02  0.85710823067E+02  0.51100000000E-03 0.  1.
    9000005    1    3    3    0    0  0.54730892083E+02 -0.12144973265E+02  0.20663150957E+03  0.21410406738E+03  0.10000000000E+01 0.  0.
    9000005    1    3    3    0    0 -0.53229247175E+02  0.35496803382E+00  0.57553418316E+02  0.78402007098E+02  0.10000000000E+01 0.  0.
<mgrwt>
<rscale>  0 0.11621401E+03</rscale>
<asrwt>0</asrwt>
<pdfrwt beam="1">  1        1 0.74397568E-01 0.12556324E+03</pdfrwt>
<pdfrwt beam="2">  1       -1 0.37695133E-02 0.12556324E+03</pdfrwt>
<totfact> 0.11966347E+04</totfact>
</mgrwt>
</event>
<event>
 8    2  0.7478846E-004  0.1381529E+03  0.7818608E-02  0.1229364E+00
         -1   -1    0    0    0  501 -0.00000000000E+00  0.00000000000E+00  0.55261901151E+03  0.55261901153E+03  0.50400000000E-02 0.  1.
          1   -1    0    0  501    0  0.00000000000E+00 -0.00000000000E+00 -0.33354763909E+02  0.33354764290E+02  0.50400000000E-02 0. -1.
         25    2    1    2    0    0  0.18915112205E+02 -0.55703833031E+02  0.41992461235E+03  0.44206661873E+03  0.12500206742E+03 0.  0.
         23    2    1    2    0    0 -0.18915112205E+02  0.55703833031E+02  0.99339635250E+02  0.14390715708E+03  0.85908138407E+02 0.  0.
        -11    1    4    4    0    0 -0.24929684674E+02  0.48384396545E+02  0.11407176755E+03  0.12639187933E+03  0.51100000000E-03 0.  1.
         11    1    4    4    0    0  0.60145724690E+01  0.73194364855E+01 -0.14732132303E+02  0.17515277757E+02  0.51100000000E-03 0. -1.
    9000005    1    3    3    0    0  0.70831795985E+02 -0.32882795404E+02  0.19398353899E+03  0.20911488458E+03  0.10000000000E+01 0.  0.
    9000005    1    3    3    0    0 -0.51916683780E+02 -0.22821037627E+02  0.22594107336E+03  0.23295173415E+03  0.10000000000E+01 0.  0.
<mgrwt>
<rscale>  0 0.12872211E+03</rscale>
<asrwt>0</asrwt>
<pdfrwt beam="2">  1        1 0.51315018E-02 0.13815287E+03</pdfrwt>
<pdfrwt beam="1">  1       -1 0.85018315E-01 0.13815287E+03</pdfrwt>
<totfact> 0.22352263E+03</totfact>
</mgrwt>
</event>
<event>
 8    2  0.7478846E-004  0.1261673E+03  0.7818608E-02  0.1250884E+00
          1   -1    0    0  501    0  0.00000000000E+00  0.00000000000E+00  0.12019499920E+04  0.12019499920E+04  0.50400000000E-02 0. -1.
         -1   -1    0    0    0  501 -0.00000000000E+00 -0.00000000000E+00 -0.11119898251E+02  0.11119899394E+02  0.50400000000E-02 0.  1.
         25    2    1    2    0    0 -0.77284171042E+01 -0.15296158765E+02  0.90941722659E+03  0.91812737418E+03  0.12499792917E+03 0.  0.
         23    2    1    2    0    0  0.77284171042E+01  0.15296158765E+02  0.28141286716E+03  0.29494251722E+03  0.86626703502E+02 0.  0.
        -11    1    4    4    0    0  0.20944322611E+02 -0.32464816739E+02  0.11584994302E+03  0.12212222678E+03  0.51100000000E-03 0. -1.
         11    1    4    4    0    0 -0.13215905507E+02  0.47760975504E+02  0.16556292414E+03  0.17282029045E+03  0.51100000000E-03 0.  1.
    9000005    1    3    3    0    0 -0.56878799215E+02 -0.23860177877E+02  0.70555448622E+03  0.70824617113E+03  0.10000000000E+01 0.  0.
    9000005    1    3    3    0    0  0.49150382110E+02  0.85640191112E+01  0.20386274037E+03  0.20988120305E+03  0.10000000000E+01 0.  0.
<mgrwt>
<rscale>  0 0.11540036E+03</rscale>
<asrwt>0</asrwt>
<pdfrwt beam="1">  1        1 0.18491533E+00 0.12616728E+03</pdfrwt>
<pdfrwt beam="2">  1       -1 0.17107541E-02 0.12616728E+03</pdfrwt>
<totfact> 0.94943792E+03</totfact>
</mgrwt>
</event>
<event>
 8    2  0.7478846E-004  0.1736794E+03  0.7818608E-02  0.1180097E+00
         -1   -1    0    0    0  501 -0.00000000000E+00  0.00000000000E+00  0.74367653672E+02  0.74367653843E+02  0.50400000000E-02 0.  1.
          1   -1    0    0  501    0  0.00000000000E+00 -0.00000000000E+00 -0.36338110374E+03  0.36338110377E+03  0.50400000000E-02 0. -1.
         25    2    1    2    0    0 -0.66206599928E+02 -0.10078016912E+03 -0.12212702638E+03  0.21231941114E+03  0.12499826164E+03 0.  0.
         23    2    1    2    0    0  0.66206599928E+02  0.10078016912E+03 -0.16688642368E+03  0.22542934648E+03  0.91800628979E+02 0.  0.
        -11    1    4    4    0    0  0.21514348109E+02  0.34010080611E+02 -0.13170722038E+03  0.13771835265E+03  0.51100000000E-03 0. -1.
         11    1    4    4    0    0  0.44692251819E+02  0.66770088508E+02 -0.35179203308E+02  0.87710993825E+02  0.51100000000E-03 0.  1.
    9000005    1    3    3    0    0 -0.93637975381E+02 -0.76194662418E+02 -0.48726849393E+02  0.13018833614E+03  0.10000000000E+01 0.  0.
    9000005    1    3    3    0    0  0.27431375453E+02 -0.24585506700E+02 -0.73400176989E+02  0.82131075002E+02  0.10000000000E+01 0.  0.
<mgrwt>
<rscale>  0 0.16786105E+03</rscale>
<asrwt>0</asrwt>
<pdfrwt beam="2">  1        1 0.55904784E-01 0.17367936E+03</pdfrwt>
<pdfrwt beam="1">  1       -1 0.11441178E-01 0.17367936E+03</pdfrwt>
<totfact> 0.33161601E+03</totfact>
</mgrwt>
</event>
<event>
 8    2  0.7478846E-004  0.1291815E+03  0.7818608E-02  0.1253159E+00
          1   -1    0    0  501    0  0.00000000000E+00  0.00000000000E+00  0.32709058921E+03  0.32709058925E+03  0.50400000000E-02 0. -1.
         -1   -1    0    0    0  501 -0.00000000000E+00 -0.00000000000E+00 -0.33047597905E+02  0.33047598289E+02  0.50400000000E-02 0.  1.
         25    2    1    2    0    0  0.21157012933E+02  0.24638202809E+02  0.17650575679E+03  0.21872845853E+03  0.12503278032E+03 0.  0.
         23    2    1    2    0    0 -0.21157012933E+02 -0.24638202809E+02  0.11753723451E+03  0.14140972901E+03  0.71603419803E+02 0.  0.
        -11    1    4    4    0    0 -0.24742386888E+02  0.13945950764E+02  0.15707513879E+02  0.32456143396E+02  0.51100000000E-03 0.  1.
         11    1    4    4    0    0  0.35853739546E+01 -0.38584153573E+02  0.10182972063E+03  0.10895358561E+03  0.51100000000E-03 0. -1.
    9000005    1    3    3    0    0  0.60337274733E+02  0.21565695759E+02  0.37453269710E+02  0.74225422651E+02  0.10000000000E+01 0.  0.
    9000005    1    3    3    0    0 -0.39180261799E+02  0.30725070501E+01  0.13905248708E+03  0.14450303588E+03  0.10000000000E+01 0.  0.
<mgrwt>
<rscale>  0 0.11410083E+03</rscale>
<asrwt>0</asrwt>
<pdfrwt beam="1">  1        1 0.50321629E-01 0.12918149E+03</pdfrwt>
<pdfrwt beam="2">  1       -1 0.50842459E-02 0.12918149E+03</pdfrwt>
<totfact> 0.12645828E+04</totfact>
</mgrwt>
</event>
<event>
 8    2  0.7478846E-004  0.2333225E+03  0.7818608E-02  0.1127117E+00
         -1   -1    0    0    0  501 -0.00000000000E+00  0.00000000000E+00  0.21276457893E+03  0.21276457899E+03  0.50400000000E-02 0.  1.
          1   -1    0    0  501    0  0.00000000000E+00 -0.00000000000E+00 -0.26551506300E+03  0.26551506305E+03  0.50400000000E-02 0. -1.
         25    2    1    2    0    0 -0.69877509073E+02 -0.18420502658E+03 -0.10264470202E+03  0.25490256474E+03  0.12500009827E+03 0.  0.
         23    2    1    2    0    0  0.69877509073E+02  0.18420502658E+03  0.49894217946E+02  0.22337707729E+03  0.92701281454E+02 0.  0.
        -11    1    4    4    0    0  0.47698196610E+02  0.19487107727E+02  0.11254478597E+02  0.52740199243E+02  0.51100000000E-03 0. -1.
         11    1    4    4    0    0  0.22179312463E+02  0.16471791886E+03  0.38639739349E+02  0.17063687805E+03  0.51100000000E-03 0.  1.
    9000005    1    3    3    0    0 -0.70015815879E+02 -0.32798359627E+02 -0.11495549835E+02  0.78173489966E+02  0.10000000000E+01 0.  0.
    9000005    1    3    3    0    0  0.13830680559E+00 -0.15140666696E+03 -0.91149152184E+02  0.17672907478E+03  0.10000000000E+01 0.  0.
<mgrwt>
<rscale>  0 0.22932361E+03</rscale>
<asrwt>0</asrwt>
<pdfrwt beam="2">  1        1 0.40848471E-01 0.23332249E+03</pdfrwt>
<pdfrwt beam="1">  1       -1 0.32733012E-01 0.23332249E+03</pdfrwt>
<totfact> 0.90002419E+02</totfact>
</mgrwt>
</event>
<event>
 8    2  0.7478846E-004  0.1404669E+03  0.7818608E-02  0.1223753E+00
         -1   -1    0    0    0  501 -0.00000000000E+00  0.00000000000E+00  0.23757915187E+03  0.23757915193E+03  0.50400000000E-02 0.  1.
          1   -1    0    0  501    0  0.00000000000E+00 -0.00000000000E+00 -0.71946937412E+02  0.71946937588E+02  0.50400000000E-02 0. -1.
         25    2    1    2    0    0 -0.17378780639E+02 -0.61673832467E+02  0.50180899959E+02  0.14916124676E+03  0.12500108474E+03 0.  0.
         23    2    1    2    0    0  0.17378780639E+02  0.61673832467E+02  0.11545131450E+03  0.16036484275E+03  0.91006555497E+02 0.  0.
        -11    1    4    4    0    0 -0.34352774124E+02  0.11857419582E+02  0.57773743683E+02  0.68253329213E+02  0.51100000000E-03 0.  1.
         11    1    4    4    0    0  0.51731554763E+02  0.49816412884E+02  0.57677570817E+02  0.92111513540E+02  0.51100000000E-03 0. -1.
    9000005    1    3    3    0    0 -0.18951808431E+02 -0.54372515434E+02  0.90978417347E+02  0.10767364534E+03  0.10000000000E+01 0.  0.
    9000005    1    3    3    0    0  0.15730277919E+01 -0.73013170322E+01 -0.40797517387E+02  0.41487601423E+02  0.10000000000E+01 0.  0.
<mgrwt>
<rscale>  0 0.13252724E+03</rscale>
<asrwt>0</asrwt>
<pdfrwt beam="2">  1        1 0.11068760E-01 0.14046692E+03</pdfrwt>
<pdfrwt beam="1">  1       -1 0.36550639E-01 0.14046692E+03</pdfrwt>
<totfact> 0.38953800E+03</totfact>
</mgrwt>
</event>
<event>
 8    2  0.7478846E-004  0.1339914E+03  0.7818608E-02  0.1233813E+00
          1   -1    0    0  501    0  0.00000000000E+00  0.00000000000E+00  0.79768802866E+03  0.79768802868E+03  0.50400000000E-02 0. -1.
         -1   -1    0    0    0  501 -0.00000000000E+00 -0.00000000000E+00 -0.41627634088E+02  0.41627634393E+02  0.50400000000E-02 0.  1.
         25    2    1    2    0    0  0.59888352407E+01  0.47885762334E+02  0.71488883043E+03  0.72733742741E+03  0.12499912425E+03 0.  0.
         23    2    1    2    0    0 -0.59888352407E+01 -0.47885762334E+02  0.41171564144E+02  0.11197823566E+03  0.92277381761E+02 0.  0.
        -11    1    4    4    0    0 -0.28309787275E+02 -0.23574351806E+02 -0.20405627551E+02  0.42113937771E+02  0.51100000000E-03 0.  1.
         11    1    4    4    0    0  0.22320952034E+02 -0.24311410528E+02  0.61577191695E+02  0.69864297885E+02  0.51100000000E-03 0. -1.
    9000005    1    3    3    0    0 -0.11605179696E+02  0.80627630561E+02  0.62153445183E+03  0.62685051632E+03  0.10000000000E+01 0.  0.
    9000005    1    3    3    0    0  0.17594014937E+02 -0.32741868226E+02  0.93354378600E+02  0.10048691109E+03  0.10000000000E+01 0.  0.
<mgrwt>
<rscale>  0 0.12580749E+03</rscale>
<asrwt>0</asrwt>
<pdfrwt beam="1">  1        1 0.12272122E+00 0.13399139E+03</pdfrwt>
<pdfrwt beam="2">  1       -1 0.64042520E-02 0.13399139E+03</pdfrwt>
<totfact> 0.27501593E+03</totfact>
</mgrwt>
</event>
<event>
 8    2  0.7478846E-004  0.4358740E+03  0.7818608E-02  0.1032675E+00
          1   -1    0    0  501    0  0.00000000000E+00  0.00000000000E+00  0.28015061632E+04  0.28015061632E+04  0.50400000000E-02 0. -1.
         -1   -1    0    0    0  501 -0.00000000000E+00 -0.00000000000E+00 -0.73806545716E+02  0.73806545888E+02  0.50400000000E-02 0.  1.
         25    2    1    2    0    0  0.22629475967E+03  0.35093032063E+03  0.18273409291E+04  0.18786061363E+04  0.12499894483E+03 0.  0.
         23    2    1    2    0    0 -0.22629475967E+03 -0.35093032063E+03  0.90035868842E+03  0.99670657277E+03  0.91743207909E+02 0.  0.
        -11    1    4    4    0    0 -0.82267698278E+02 -0.21198200957E+03  0.48287481718E+03  0.53373442425E+03  0.51100000000E-03 0.  1.
         11    1    4    4    0    0 -0.14402706140E+03 -0.13894831105E+03  0.41748387124E+03  0.46297214852E+03  0.51100000000E-03 0. -1.
    9000005    1    3    3    0    0  0.11498816927E+03  0.73985369625E+02  0.62310660612E+03  0.63793334807E+03  0.10000000000E+01 0.  0.
    9000005    1    3    3    0    0  0.11130659040E+03  0.27694495100E+03  0.12042343229E+04  0.12406727882E+04  0.10000000000E+01 0.  0.
<mgrwt>
<rscale>  0 0.43377177E+03</rscale>
<asrwt>0</asrwt>
<pdfrwt beam="1">  1        1 0.43100093E+00 0.43587400E+03</pdfrwt>
<pdfrwt beam="2">  1       -1 0.11354854E-01 0.43587400E+03</pdfrwt>
<totfact> 0.47494379E+01</totfact>
</mgrwt>
</event>
<event>
 8    2  0.7478846E-004  0.1458854E+03  0.7818608E-02  0.1215578E+00
         -1   -1    0    0    0  501 -0.00000000000E+00  0.00000000000E+00  0.31350756615E+03  0.31350756619E+03  0.50400000000E-02 0.  1.
          1   -1    0    0  501    0  0.00000000000E+00 -0.00000000000E+00 -0.65093398460E+02  0.65093398655E+02  0.50400000000E-02 0. -1.
         25    2    1    2    0    0 -0.59097321335E+02  0.46530553022E+02  0.63154247476E+02  0.15896859367E+03  0.12499987619E+03 0.  0.
         23    2    1    2    0    0  0.59097321335E+02 -0.46530553022E+02  0.18525992021E+03  0.21963237117E+03  0.90882092158E+02 0.  0.
        -11    1    4    4    0    0  0.42103954564E+02  0.11213287989E+02  0.13287661414E+03  0.13983803274E+03  0.51100000000E-03 0.  1.
         11    1    4    4    0    0  0.16993366771E+02 -0.57743841011E+02  0.52383306076E+02  0.79794338425E+02  0.51100000000E-03 0. -1.
    9000005    1    3    3    0    0 -0.74975001483E+02 -0.11129730593E+02  0.63909388476E+02  0.99149037746E+02  0.10000000000E+01 0.  0.
    9000005    1    3    3    0    0  0.15877680148E+02  0.57660283616E+02 -0.75514100043E+00  0.59819555929E+02  0.10000000000E+01 0.  0.
<mgrwt>
<rscale>  0 0.13834156E+03</rscale>
<asrwt>0</asrwt>
<pdfrwt beam="2">  1        1 0.10014369E-01 0.14588542E+03</pdfrwt>
<pdfrwt beam="1">  1       -1 0.48231933E-01 0.14588542E+03</pdfrwt>
<totfact> 0.27273568E+03</totfact>
</mgrwt>
</event>
<event>
 8    2  0.7478846E-004  0.1509478E+03  0.7818608E-02  0.1206483E+00
          1   -1    0    0  501    0  0.00000000000E+00  0.00000000000E+00  0.40108975054E+03  0.40108975057E+03  0.50400000000E-02 0. -1.
         -1   -1    0    0    0  501 -0.00000000000E+00 -0.00000000000E+00 -0.49335290858E+02  0.49335291115E+02  0.50400000000E-02 0.  1.
         25    2    1    2    0    0  0.12233250855E+02  0.83733373346E+02  0.20931206130E+03  0.25806351135E+03  0.12499722655E+03 0.  0.
         23    2    1    2    0    0 -0.12233250855E+02 -0.83733373346E+02  0.14244239838E+03  0.19236153033E+03  0.97735312238E+02 0.  0.
        -11    1    4    4    0    0  0.28456118200E+02 -0.62511021122E+02  0.38496535393E+02  0.78736025187E+02  0.51100000000E-03 0.  1.
         11    1    4    4    0    0 -0.40689369055E+02 -0.21222352225E+02  0.10394586298E+03  0.11362550515E+03  0.51100000000E-03 0. -1.
    9000005    1    3    3    0    0 -0.55916486987E+02  0.42469385045E+02  0.11330834228E+03  0.13330447334E+03  0.10000000000E+01 0.  0.
    9000005    1    3    3    0    0  0.68149737841E+02  0.41263988301E+02  0.96003719021E+02  0.12475903801E+03  0.10000000000E+01 0.  0.
<mgrwt>
<rscale>  0 0.14521192E+03</rscale>
<asrwt>0</asrwt>
<pdfrwt beam="1">  1        1 0.61706112E-01 0.15094780E+03</pdfrwt>
<pdfrwt beam="2">  1       -1 0.75900452E-02 0.15094780E+03</pdfrwt>
<totfact> 0.54431734E+03</totfact>
</mgrwt>
</event>
<event>
 8    2  0.7478846E-004  0.1469151E+03  0.7818608E-02  0.1214445E+00
         -1   -1    0    0    0  501 -0.00000000000E+00  0.00000000000E+00  0.15065156201E+02  0.15065157044E+02  0.50400000000E-02 0.  1.
          1   -1    0    0  501    0  0.00000000000E+00 -0.00000000000E+00 -0.11839546730E+04  0.11839546730E+04  0.50400000000E-02 0. -1.
         25    2    1    2    0    0 -0.57690952437E+02 -0.51293345060E+02 -0.71716364659E+03  0.73205719784E+03  0.12499916669E+03 0.  0.
         23    2    1    2    0    0  0.57690952437E+02  0.51293345060E+02 -0.45172587021E+03  0.46696263222E+03  0.89658155419E+02 0.  0.
        -11    1    4    4    0    0  0.10069519055E+02  0.58376601575E+02 -0.34266095140E+03  0.34774380001E+03  0.51100000000E-03 0.  1.
         11    1    4    4    0    0  0.47621433382E+02 -0.70832565152E+01 -0.10906491881E+03  0.11921883221E+03  0.51100000000E-03 0. -1.
    9000005    1    3    3    0    0 -0.75412946359E+02 -0.81984202009E+02 -0.55302939698E+03  0.56413742633E+03  0.10000000000E+01 0.  0.
    9000005    1    3    3    0    0  0.17721993922E+02  0.30690856949E+02 -0.16413424961E+03  0.16791977151E+03  0.10000000000E+01 0.  0.
<mgrwt>
<rscale>  0 0.13917378E+03</rscale>
<asrwt>0</asrwt>
<pdfrwt beam="2">  1        1 0.18214680E+00 0.14691509E+03</pdfrwt>
<pdfrwt beam="1">  1       -1 0.23177173E-02 0.14691509E+03</pdfrwt>
<totfact> 0.63485777E+03</totfact>
</mgrwt>
</event>
<event>
 8    2  0.7478846E-004  0.1357523E+03  0.7818608E-02  0.1232309E+00
          1   -1    0    0  501    0  0.00000000000E+00  0.00000000000E+00  0.46411137451E+02  0.46411137724E+02  0.50400000000E-02 0. -1.
         -1   -1    0    0    0  501 -0.00000000000E+00 -0.00000000000E+00 -0.36012341693E+03  0.36012341697E+03  0.50400000000E-02 0.  1.
         25    2    1    2    0    0  0.67421913356E+01 -0.52524031560E+02 -0.98175307620E+02  0.16753230670E+03  0.12499780689E+03 0.  0.
         23    2    1    2    0    0 -0.67421913356E+01  0.52524031560E+02 -0.21553697186E+03  0.23900224799E+03  0.88665987108E+02 0.  0.
        -11    1    4    4    0    0  0.13744054939E+02  0.29423589169E+02 -0.14426559660E+02  0.35535507168E+02  0.51100000000E-03 0. -1.
         11    1    4    4    0    0 -0.20486246274E+02  0.23100442390E+02 -0.20111041220E+03  0.20346674082E+03  0.51100000000E-03 0.  1.
    9000005    1    3    3    0    0  0.83753962404E+01  0.29272978172E+02  0.98518729166E+01  0.32017400163E+02  0.10000000000E+01 0.  0.
    9000005    1    3    3    0    0 -0.16332049048E+01 -0.81797009732E+02 -0.10802718054E+03  0.13551490654E+03  0.10000000000E+01 0.  0.
<mgrwt>
<rscale>  0 0.12678270E+03</rscale>
<asrwt>0</asrwt>
<pdfrwt beam="1">  1        1 0.71401752E-02 0.13575228E+03</pdfrwt>
<pdfrwt beam="2">  1       -1 0.55403601E-01 0.13575228E+03</pdfrwt>
<totfact> 0.33114683E+03</totfact>
</mgrwt>
</event>
<event>
 8    2  0.7478846E-004  0.1311510E+03  0.7818608E-02  0.1240103E+00
          1   -1    0    0  501    0  0.00000000000E+00  0.00000000000E+00  0.10375640039E+03  0.10375640051E+03  0.50400000000E-02 0. -1.
         -1   -1    0    0    0  501 -0.00000000000E+00 -0.00000000000E+00 -0.12941576177E+03  0.12941576187E+03  0.50400000000E-02 0.  1.
         25    2    1    2    0    0 -0.11500682356E+02 -0.37982304655E+02 -0.32969367661E+02  0.13523154125E+03  0.12500267750E+03 0.  0.
         23    2    1    2    0    0  0.11500682356E+02  0.37982304655E+02  0.73100062723E+01  0.97940621132E+02  0.89241290413E+02 0.  0.
        -11    1    4    4    0    0  0.25296281880E+02 -0.12932777510E+02  0.29279476633E+02  0.40797626931E+02  0.51100000000E-03 0.  1.
         11    1    4    4    0    0 -0.13795599524E+02  0.50915082165E+02 -0.21969470360E+02  0.57142994201E+02  0.51100000000E-03 0. -1.
    9000005    1    3    3    0    0 -0.42223195228E+02 -0.65505331732E+02  0.63990850534E+01  0.78202909090E+02  0.10000000000E+01 0.  0.
    9000005    1    3    3    0    0  0.30722512872E+02  0.27523027077E+02 -0.39368452714E+02  0.57028632158E+02  0.10000000000E+01 0.  0.
<mgrwt>
<rscale>  0 0.12183336E+03</rscale>
<asrwt>0</asrwt>
<pdfrwt beam="1">  1        1 0.15962523E-01 0.13115102E+03</pdfrwt>
<pdfrwt beam="2">  1       -1 0.19910117E-01 0.13115102E+03</pdfrwt>
<totfact> 0.65967746E+03</totfact>
</mgrwt>
</event>
<event>
 8    2  0.7478846E-004  0.3136078E+03  0.7818608E-02  0.1080030E+00
          1   -1    0    0  501    0  0.00000000000E+00  0.00000000000E+00  0.14126820615E+04  0.14126820615E+04  0.50400000000E-02 0. -1.
         -1   -1    0    0    0  501 -0.00000000000E+00 -0.00000000000E+00 -0.11853087645E+03  0.11853087656E+03  0.50400000000E-02 0.  1.
         25    2    1    2    0    0  0.43108256893E+02  0.28436965755E+03  0.11584350856E+04  0.12001340322E+04  0.12500169465E+03 0.  0.
         23    2    1    2    0    0 -0.43108256893E+02 -0.28436965755E+03  0.13571609946E+03  0.33107890591E+03  0.92032376596E+02 0.  0.
        -11    1    4    4    0    0 -0.52000121569E+01 -0.21834966426E+03  0.66823528649E+02  0.22840534142E+03  0.51100000000E-03 0.  1.
         11    1    4    4    0    0 -0.37908244736E+02 -0.66019993295E+02  0.68892570807E+02  0.10267356450E+03  0.51100000000E-03 0. -1.
    9000005    1    3    3    0    0  0.33569897950E+02  0.22401046215E+03  0.10625626684E+04  0.10864382401E+04  0.10000000000E+01 0.  0.
    9000005    1    3    3    0    0  0.95383589427E+01  0.60359195405E+02  0.95872417188E+02  0.11369579209E+03  0.10000000000E+01 0.  0.
<mgrwt>
<rscale>  0 0.31066058E+03</rscale>
<asrwt>0</asrwt>
<pdfrwt beam="1">  1        1 0.21733570E+00 0.31360779E+03</pdfrwt>
<pdfrwt beam="2">  1       -1 0.18235520E-01 0.31360779E+03</pdfrwt>
<totfact> 0.19178843E+02</totfact>
</mgrwt>
</event>
<event>
 8    2  0.7478846E-004  0.1454411E+03  0.7818608E-02  0.1217258E+00
          1   -1    0    0  501    0  0.00000000000E+00  0.00000000000E+00  0.79063226936E+02  0.79063227096E+02  0.50400000000E-02 0.  1.
         -1   -1    0    0    0  501 -0.00000000000E+00 -0.00000000000E+00 -0.21695962449E+03  0.21695962455E+03  0.50400000000E-02 0. -1.
         25    2    1    2    0    0 -0.40713699894E+02 -0.62212270196E+02 -0.60728026759E+02  0.15761033209E+03  0.12500060650E+03 0.  0.
         23    2    1    2    0    0  0.40713699894E+02  0.62212270196E+02 -0.77168370795E+02  0.13841251955E+03  0.87607626356E+02 0.  0.
        -11    1    4    4    0    0  0.22120326639E+02  0.20802363009E+02  0.16329981042E+02  0.34477752805E+02  0.51100000000E-03 0.  1.
         11    1    4    4    0    0  0.18593373255E+02  0.41409907187E+02 -0.93498351837E+02  0.10393476675E+03  0.51100000000E-03 0. -1.
    9000005    1    3    3    0    0  0.39838743558E+02  0.29222479280E+01 -0.28626651480E+02  0.49154350735E+02  0.10000000000E+01 0.  0.
    9000005    1    3    3    0    0 -0.80552443452E+02 -0.65134518124E+02 -0.32101375279E+02  0.10845598136E+03  0.10000000000E+01 0.  0.
<mgrwt>
<rscale>  0 0.13711968E+03</rscale>
<asrwt>0</asrwt>
<pdfrwt beam="1">  1        1 0.12163573E-01 0.14544113E+03</pdfrwt>
<pdfrwt beam="2">  1       -1 0.33378404E-01 0.14544113E+03</pdfrwt>
<totfact> 0.40291676E+03</totfact>
</mgrwt>
</event>
<event>
 8    2  0.7478846E-004  0.1272447E+03  0.7818608E-02  0.1247368E+00
          1   -1    0    0  501    0  0.00000000000E+00  0.00000000000E+00  0.15380657060E+04  0.15380657060E+04  0.50400000000E-02 0. -1.
         -1   -1    0    0    0  501 -0.00000000000E+00 -0.00000000000E+00 -0.78970471337E+01  0.78970487419E+01  0.50400000000E-02 0.  1.
         25    2    1    2    0    0  0.11410721905E+02 -0.20891675169E+02  0.81996664716E+03  0.82978100177E+03  0.12499816711E+03 0.  0.
         23    2    1    2    0    0 -0.11410721905E+02  0.20891675169E+02  0.71020201168E+03  0.71618175296E+03  0.89234181804E+02 0.  0.
        -11    1    4    4    0    0 -0.83220621374E+01 -0.19195137441E+02  0.43511579432E+02  0.48280094910E+02  0.51100000000E-03 0.  1.
         11    1    4    4    0    0 -0.30886597673E+01  0.40086812611E+02  0.66669043225E+03  0.66790165805E+03  0.51100000000E-03 0. -1.
    9000005    1    3    3    0    0  0.19851837461E+02 -0.28314093096E+02  0.81749771034E+03  0.81822936255E+03  0.10000000000E+01 0.  0.
    9000005    1    3    3    0    0 -0.84411155563E+01  0.74224179268E+01  0.24689368148E+01  0.11551639222E+02  0.10000000000E+01 0.  0.
<mgrwt>
<rscale>  0 0.11744771E+03</rscale>
<asrwt>0</asrwt>
<pdfrwt beam="1">  1        1 0.23662560E+00 0.12724468E+03</pdfrwt>
<pdfrwt beam="2">  1       -1 0.12149299E-02 0.12724468E+03</pdfrwt>
<totfact> 0.93037445E+03</totfact>
</mgrwt>
</event>
<event>
 8    2  0.7478846E-004  0.1331881E+03  0.7818608E-02  0.1236257E+00
          1   -1    0    0  501    0  0.00000000000E+00  0.00000000000E+00  0.16759563953E+03  0.16759563961E+03  0.50400000000E-02 0. -1.
         -1   -1    0    0    0  501 -0.00000000000E+00 -0.00000000000E+00 -0.16214885504E+03  0.16214885512E+03  0.50400000000E-02 0.  1.
         25    2    1    2    0    0 -0.45077534349E+01 -0.45760220499E+02  0.11847903851E+03  0.17825923387E+03  0.12499901709E+03 0.  0.
         23    2    1    2    0    0  0.45077534349E+01  0.45760220499E+02 -0.11303225401E+03  0.15148526085E+03  0.89761774647E+02 0.  0.
        -11    1    4    4    0    0  0.45917362265E+02  0.26114584935E+02 -0.76031427643E+02  0.92580525455E+02  0.51100000000E-03 0.  1.
         11    1    4    4    0    0 -0.41409608830E+02  0.19645635565E+02 -0.37000826366E+02  0.58904735397E+02  0.51100000000E-03 0. -1.
    9000005    1    3    3    0    0 -0.52818878713E+02 -0.59483407788E+02  0.91468467607E+02  0.12122536994E+03  0.10000000000E+01 0.  0.
    9000005    1    3    3    0    0  0.48311125278E+02  0.13723187289E+02  0.27010570899E+02  0.57033863934E+02  0.10000000000E+01 0.  0.
<mgrwt>
<rscale>  0 0.12424307E+03</rscale>
<asrwt>0</asrwt>
<pdfrwt beam="1">  1        1 0.25783944E-01 0.13318811E+03</pdfrwt>
<pdfrwt beam="2">  1       -1 0.24945978E-01 0.13318811E+03</pdfrwt>
<totfact> 0.24919051E+03</totfact>
</mgrwt>
</event>
<event>
 8    2  0.7478846E-004  0.1416114E+03  0.7818608E-02  0.1221743E+00
         -1   -1    0    0    0  501 -0.00000000000E+00  0.00000000000E+00  0.65271349805E+03  0.65271349807E+03  0.50400000000E-02 0.  1.
          1   -1    0    0  501    0  0.00000000000E+00 -0.00000000000E+00 -0.28306497623E+02  0.28306498072E+02  0.50400000000E-02 0. -1.
         25    2    1    2    0    0  0.32754635372E+02  0.57942058899E+02  0.22497200540E+03  0.26583112009E+03  0.12499453136E+03 0.  0.
         23    2    1    2    0    0 -0.32754635372E+02 -0.57942058899E+02  0.39943499503E+03  0.41518887605E+03  0.91669728983E+02 0.  0.
        -11    1    4    4    0    0  0.17641854973E+02 -0.39840088142E+01  0.14343615863E+02  0.23083472213E+02  0.51100000000E-03 0. -1.
         11    1    4    4    0    0 -0.50396490344E+02 -0.53958050085E+02  0.38509137917E+03  0.39210540384E+03  0.51100000000E-03 0.  1.
    9000005    1    3    3    0    0 -0.61751032916E+01  0.85108830490E+02  0.96266588786E+02  0.12864641870E+03  0.10000000000E+01 0.  0.
    9000005    1    3    3    0    0  0.38929738663E+02 -0.27166771591E+02  0.12870541661E+03  0.13718470139E+03  0.10000000000E+01 0.  0.
<mgrwt>
<rscale>  0 0.13392655E+03</rscale>
<asrwt>0</asrwt>
<pdfrwt beam="2">  1        1 0.43548454E-02 0.14161137E+03</pdfrwt>
<pdfrwt beam="1">  1       -1 0.10041747E+00 0.14161137E+03</pdfrwt>
<totfact> 0.19617064E+03</totfact>
</mgrwt>
</event>
<event>
 8    2  0.7478846E-004  0.1306740E+03  0.7818608E-02  0.1239645E+00
         -1   -1    0    0    0  501 -0.00000000000E+00  0.00000000000E+00  0.17015323793E+02  0.17015324540E+02  0.50400000000E-02 0.  1.
          1   -1    0    0  501    0  0.00000000000E+00 -0.00000000000E+00 -0.79998978184E+03  0.79998978186E+03  0.50400000000E-02 0. -1.
         25    2    1    2    0    0 -0.37864528977E+02 -0.41564512608E+01 -0.50759411678E+03  0.52414452649E+03  0.12499879446E+03 0.  0.
         23    2    1    2    0    0  0.37864528977E+02  0.41564512608E+01 -0.27538034127E+03  0.29286057991E+03  0.92097710428E+02 0.  0.
        -11    1    4    4    0    0  0.24433161829E+02 -0.33077759896E+02 -0.53507614144E+02  0.67484682472E+02  0.51100000000E-03 0.  1.
         11    1    4    4    0    0  0.13431367147E+02  0.37234211157E+02 -0.22187272712E+03  0.22537589744E+03  0.51100000000E-03 0. -1.
    9000005    1    3    3    0    0  0.45159159671E+02  0.66098548608E+01 -0.14533791161E+03  0.15233892620E+03  0.10000000000E+01 0.  0.
    9000005    1    3    3    0    0 -0.83023688647E+02 -0.10766306122E+02 -0.36225620517E+03  0.37180560029E+03  0.10000000000E+01 0.  0.
<mgrwt>
<rscale>  0 0.12211722E+03</rscale>
<asrwt>0</asrwt>
<pdfrwt beam="2">  1        1 0.12307532E+00 0.13067401E+03</pdfrwt>
<pdfrwt beam="1">  1       -1 0.26177428E-02 0.13067401E+03</pdfrwt>
<totfact> 0.10182933E+04</totfact>
</mgrwt>
</event>
<event>
 8    2  0.7478846E-004  0.1282897E+03  0.7818608E-02  0.1244975E+00
          1   -1    0    0  501    0  0.00000000000E+00  0.00000000000E+00  0.64933405969E+03  0.64933405971E+03  0.50400000000E-02 0. -1.
         -1   -1    0    0    0  501 -0.00000000000E+00 -0.00000000000E+00 -0.19773181171E+02  0.19773181813E+02  0.50400000000E-02 0.  1.
         25    2    1    2    0    0 -0.28700679027E+02  0.30951124086E+01  0.30071926035E+03  0.32694085045E+03  0.12499974981E+03 0.  0.
         23    2    1    2    0    0  0.28700679027E+02 -0.30951124086E+01  0.32884161817E+03  0.34216639107E+03  0.90042882231E+02 0.  0.
        -11    1    4    4    0    0  0.58582603651E+02 -0.11665760742E+01  0.15382898524E+03  0.16461056786E+03  0.51100000000E-03 0.  1.
         11    1    4    4    0    0 -0.29881924624E+02 -0.19285363344E+01  0.17501263293E+03  0.17755582321E+03  0.51100000000E-03 0. -1.
    9000005    1    3    3    0    0 -0.76864192548E+02  0.15096298001E+02  0.17293932178E+03  0.18985523782E+03  0.10000000000E+01 0.  0.
    9000005    1    3    3    0    0  0.48163513521E+02 -0.12001185593E+02  0.12777993857E+03  0.13708561263E+03  0.10000000000E+01 0.  0.
<mgrwt>
<rscale>  0 0.11886863E+03</rscale>
<asrwt>0</asrwt>
<pdfrwt beam="1">  1        1 0.99897528E-01 0.12828970E+03</pdfrwt>
<pdfrwt beam="2">  1       -1 0.30420285E-02 0.12828970E+03</pdfrwt>
<totfact> 0.11051763E+04</totfact>
</mgrwt>
</event>
<event>
 8    2  0.7478846E-004  0.1271649E+03  0.7818608E-02  0.1247053E+00
          1   -1    0    0  501    0  0.00000000000E+00  0.00000000000E+00  0.30295003589E+02  0.30295004008E+02  0.50400000000E-02 0. -1.
         -1   -1    0    0    0  501 -0.00000000000E+00 -0.00000000000E+00 -0.76020518464E+03  0.76020518466E+03  0.50400000000E-02 0.  1.
         25    2    1    2    0    0 -0.18187516670E+02  0.14717579447E+02 -0.12447489169E+03  0.17794633905E+03  0.12499403191E+03 0.  0.
         23    2    1    2    0    0  0.18187516670E+02 -0.14717579447E+02 -0.60543528936E+03  0.61255384962E+03  0.90127333062E+02 0.  0.
        -11    1    4    4    0    0  0.23996207763E+02 -0.11694867654E+02 -0.60541749669E+03  0.60600572045E+03  0.51100000000E-03 0.  1.
         11    1    4    4    0    0 -0.58086910926E+01 -0.30227117931E+01 -0.17792675986E-01  0.65481291705E+01  0.51100000000E-03 0. -1.
    9000005    1    3    3    0    0  0.13067328935E+01 -0.23458973707E+02 -0.13228874253E+03  0.13436272697E+03  0.10000000000E+01 0.  0.
    9000005    1    3    3    0    0 -0.19494249564E+02  0.38176553154E+02  0.78138508446E+01  0.43583612078E+02  0.10000000000E+01 0.  0.
<mgrwt>
<rscale>  0 0.11763316E+03</rscale>
<asrwt>0</asrwt>
<pdfrwt beam="1">  1        1 0.46607704E-02 0.12716486E+03</pdfrwt>
<pdfrwt beam="2">  1       -1 0.11695463E+00 0.12716486E+03</pdfrwt>
<totfact> 0.12604159E+03</totfact>
</mgrwt>
</event>
<event>
 8    2  0.7478846E-004  0.2636325E+03  0.7818608E-02  0.1107300E+00
          1   -1    0    0  501    0  0.00000000000E+00  0.00000000000E+00  0.11176292936E+03  0.11176292947E+03  0.50400000000E-02 0. -1.
         -1   -1    0    0    0  501 -0.00000000000E+00 -0.00000000000E+00 -0.58650269835E+03  0.58650269837E+03  0.50400000000E-02 0.  1.
         25    2    1    2    0    0  0.14922453903E+03 -0.17779719501E+03 -0.24163753733E+03  0.35761820795E+03  0.12498910994E+03 0.  0.
         23    2    1    2    0    0 -0.14922453903E+03  0.17779719501E+03 -0.23310223166E+03  0.34064741989E+03  0.88454557115E+02 0.  0.
        -11    1    4    4    0    0 -0.84934747599E+02  0.15556973887E+03 -0.14292827214E+03  0.22769353522E+03  0.51100000000E-03 0.  1.
         11    1    4    4    0    0 -0.64289791428E+02  0.22227456141E+02 -0.90173959516E+02  0.11295388468E+03  0.51100000000E-03 0. -1.
    9000005    1    3    3    0    0  0.78886519361E+02 -0.13551668734E+03 -0.79315063665E+02  0.17572630654E+03  0.10000000000E+01 0.  0.
    9000005    1    3    3    0    0  0.70338019667E+02 -0.42280507670E+02 -0.16232247367E+03  0.18189190141E+03  0.10000000000E+01 0.  0.
<mgrwt>
<rscale>  0 0.25973972E+03</rscale>
<asrwt>0</asrwt>
<pdfrwt beam="1">  1        1 0.17194297E-01 0.26363248E+03</pdfrwt>
<pdfrwt beam="2">  1       -1 0.90231182E-01 0.26363248E+03</pdfrwt>
<totfact> 0.39435753E+02</totfact>
</mgrwt>
</event>
<event>
 8    2  0.7478846E-004  0.1505356E+03  0.7818608E-02  0.1208758E+00
          1   -1    0    0  501    0  0.00000000000E+00  0.00000000000E+00  0.20207181481E+04  0.20207181481E+04  0.50400000000E-02 0. -1.
         -1   -1    0    0    0  501 -0.00000000000E+00 -0.00000000000E+00 -0.11802510858E+02  0.11802511934E+02  0.50400000000E-02 0.  1.
         25    2    1    2    0    0  0.83289201508E+02 -0.99346011416E+01  0.15438650285E+04  0.15511867057E+04  0.12500073017E+03 0.  0.
         23    2    1    2    0    0 -0.83289201508E+02  0.99346011416E+01  0.46505060876E+03  0.48133395429E+03  0.91512400556E+02 0.  0.
        -11    1    4    4    0    0  0.14593319903E+02 -0.11177132736E+02  0.32440641236E+02  0.37286572463E+02  0.51100000000E-03 0.  1.
         11    1    4    4    0    0 -0.97882521411E+02  0.21111733877E+02  0.43260996752E+03  0.44404738182E+03  0.51100000000E-03 0. -1.
    9000005    1    3    3    0    0  0.13389790945E+02 -0.58072474881E+02  0.43290303516E+03  0.43698711273E+03  0.10000000000E+01 0.  0.
    9000005    1    3    3    0    0  0.69899410564E+02  0.48137873740E+02  0.11109619933E+04  0.11141995930E+04  0.10000000000E+01 0.  0.
<mgrwt>
<rscale>  0 0.14345175E+03</rscale>
<asrwt>0</asrwt>
<pdfrwt beam="1">  1        1 0.31087971E+00 0.15053561E+03</pdfrwt>
<pdfrwt beam="2">  1       -1 0.18157710E-02 0.15053561E+03</pdfrwt>
<totfact> 0.25821266E+03</totfact>
</mgrwt>
</event>
<event>
 8    2  0.7478846E-004  0.1412568E+03  0.7818608E-02  0.1225529E+00
          1   -1    0    0  501    0  0.00000000000E+00  0.00000000000E+00  0.19159242741E+03  0.19159242748E+03  0.50400000000E-02 0. -1.
         -1   -1    0    0    0  501 -0.00000000000E+00 -0.00000000000E+00 -0.14186692483E+03  0.14186692492E+03  0.50400000000E-02 0.  1.
         25    2    1    2    0    0  0.15492682956E+01 -0.65769039814E+02  0.13683771483E+03  0.19666733094E+03  0.12500204810E+03 0.  0.
         23    2    1    2    0    0 -0.15492682956E+01  0.65769039814E+02 -0.87112212256E+02  0.13679202146E+03  0.82435142874E+02 0.  0.
        -11    1    4    4    0    0  0.25979656672E+02  0.53668642091E+01 -0.59029167903E+02  0.64716214783E+02  0.51100000000E-03 0.  1.
         11    1    4    4    0    0 -0.27528924968E+02  0.60402175605E+02 -0.28083044353E+02  0.72075806677E+02  0.51100000000E-03 0. -1.
    9000005    1    3    3    0    0 -0.66479452844E+01  0.37093743918E+02  0.43036865075E+02  0.57212872413E+02  0.10000000000E+01 0.  0.
    9000005    1    3    3    0    0  0.81972135800E+01 -0.10286278373E+03  0.93800849759E+02  0.13945445853E+03  0.10000000000E+01 0.  0.
<mgrwt>
<rscale>  0 0.13130681E+03</rscale>
<asrwt>0</asrwt>
<pdfrwt beam="1">  1        1 0.29475758E-01 0.14125678E+03</pdfrwt>
<pdfrwt beam="2">  1       -1 0.21825681E-01 0.14125678E+03</pdfrwt>
<totfact> 0.26283001E+03</totfact>
</mgrwt>
</event>
<event>
 8    2  0.7478846E-004  0.1651761E+03  0.7818608E-02  0.1190215E+00
          1   -1    0    0  501    0  0.00000000000E+00  0.00000000000E+00  0.97557172527E+03  0.97557172528E+03  0.50400000000E-02 0. -1.
         -1   -1    0    0    0  501 -0.00000000000E+00 -0.00000000000E+00 -0.31399714129E+02  0.31399714534E+02  0.50400000000E-02 0.  1.
         25    2    1    2    0    0 -0.70848253485E+02 -0.81480804259E+02  0.25660070440E+03  0.30516727716E+03  0.12499819625E+03 0.  0.
         23    2    1    2    0    0  0.70848253485E+02  0.81480804259E+02  0.68757130674E+03  0.70180416266E+03  0.90089868380E+02 0.  0.
        -11    1    4    4    0    0 -0.65194086756E+01  0.26128746507E+02  0.35145277587E+03  0.35248300349E+03  0.51100000000E-03 0. -1.
         11    1    4    4    0    0  0.77367662160E+02  0.55352057751E+02  0.33611853087E+03  0.34932115916E+03  0.51100000000E-03 0.  1.
    9000005    1    3    3    0    0  0.22401346448E+02 -0.16829473608E+02  0.13879870390E+03  0.14160201873E+03  0.10000000000E+01 0.  0.
    9000005    1    3    3    0    0 -0.93249599933E+02 -0.64651330651E+02  0.11780200050E+03  0.16356525843E+03  0.10000000000E+01 0.  0.
<mgrwt>
<rscale>  0 0.15866253E+03</rscale>
<asrwt>0</asrwt>
<pdfrwt beam="1">  1        1 0.15008796E+00 0.16517610E+03</pdfrwt>
<pdfrwt beam="2">  1       -1 0.48307253E-02 0.16517610E+03</pdfrwt>
<totfact> 0.30588104E+03</totfact>
</mgrwt>
</event>
<event>
 8    2  0.7478846E-004  0.1610018E+03  0.7818608E-02  0.1191291E+00
          1   -1    0    0  501    0  0.00000000000E+00  0.00000000000E+00  0.61071416664E+02  0.61071416872E+02  0.50400000000E-02 0. -1.
         -1   -1    0    0    0  501 -0.00000000000E+00 -0.00000000000E+00 -0.40256650438E+03  0.40256650441E+03  0.50400000000E-02 0.  1.
         25    2    1    2    0    0  0.69305875257E+02  0.74112053398E+02 -0.21583566907E+03  0.26927053505E+03  0.12500273676E+03 0.  0.
         23    2    1    2    0    0 -0.69305875257E+02 -0.74112053398E+02 -0.12565941865E+03  0.19436738624E+03  0.10813182017E+03 0.  0.
        -11    1    4    4    0    0 -0.77282409747E+02 -0.58794432385E+02 -0.14104379982E+03  0.17123875030E+03  0.51100000000E-03 0.  1.
         11    1    4    4    0    0  0.79765344900E+01 -0.15317621013E+02  0.15384381174E+02  0.23128635937E+02  0.51100000000E-03 0. -1.
    9000005    1    3    3    0    0  0.93394798179E+02  0.13440412343E+02 -0.11011122147E+03  0.14501280669E+03  0.10000000000E+01 0.  0.
    9000005    1    3    3    0    0 -0.24088922923E+02  0.60671641054E+02 -0.10572444760E+03  0.12425772836E+03  0.10000000000E+01 0.  0.
<mgrwt>
<rscale>  0 0.15772381E+03</rscale>
<asrwt>0</asrwt>
<pdfrwt beam="1">  1        1 0.93956028E-02 0.16100182E+03</pdfrwt>
<pdfrwt beam="2">  1       -1 0.61933307E-01 0.16100182E+03</pdfrwt>
<totfact> 0.18701566E+03</totfact>
</mgrwt>
</event>
<event>
 8    2  0.7478846E-004  0.1340923E+03  0.7818608E-02  0.1249319E+00
          1   -1    0    0  501    0  0.00000000000E+00  0.00000000000E+00  0.40787478072E+03  0.40787478076E+03  0.50400000000E-02 0. -1.
         -1   -1    0    0    0  501 -0.00000000000E+00 -0.00000000000E+00 -0.31920917597E+02  0.31920917994E+02  0.50400000000E-02 0.  1.
         25    2    1    2    0    0  0.17483882059E+02  0.45276833950E+02  0.31535085636E+03  0.34267611574E+03  0.12500031949E+03 0.  0.
         23    2    1    2    0    0 -0.17483882059E+02 -0.45276833950E+02  0.60603006773E+02  0.97119583008E+02  0.58342190133E+02 0.  0.
        -11    1    4    4    0    0 -0.33382953920E+01 -0.39160335167E+02  0.69119122301E+02  0.79511817577E+02  0.51100000000E-03 0. -1.
         11    1    4    4    0    0 -0.14145586667E+02 -0.61164987826E+01 -0.85161155285E+01  0.17607765431E+02  0.51100000000E-03 0.  1.
    9000005    1    3    3    0    0  0.35975632084E+02 -0.13283500801E+02  0.24745361381E+02  0.45651181882E+02  0.10000000000E+01 0.  0.
    9000005    1    3    3    0    0 -0.18491750025E+02  0.58560334751E+02  0.29060549497E+03  0.29702493386E+03  0.10000000000E+01 0.  0.
<mgrwt>
<rscale>  0 0.11630570E+03</rscale>
<asrwt>0</asrwt>
<pdfrwt beam="1">  1        1 0.62749959E-01 0.13409235E+03</pdfrwt>
<pdfrwt beam="2">  1       -1 0.49109110E-02 0.13409235E+03</pdfrwt>
<totfact> 0.10130614E+04</totfact>
</mgrwt>
</event>
<event>
 8    2  0.7478846E-004  0.1441067E+03  0.7818608E-02  0.1218611E+00
         -1   -1    0    0    0  501 -0.00000000000E+00  0.00000000000E+00  0.79755583053E+01  0.79755598978E+01  0.50400000000E-02 0.  1.
          1   -1    0    0  501    0  0.00000000000E+00 -0.00000000000E+00 -0.21936871355E+04  0.21936871355E+04  0.50400000000E-02 0. -1.
         25    2    1    2    0    0  0.40704292041E+02 -0.59033853643E+02 -0.98678883667E+03  0.99725570756E+03  0.12499961126E+03 0.  0.
         23    2    1    2    0    0 -0.40704292041E+02  0.59033853643E+02 -0.11989227405E+04  0.12044069879E+04  0.89658347944E+02 0.  0.
        -11    1    4    4    0    0 -0.30356126488E+02 -0.87557831989E+01 -0.15242303863E+03  0.15566290778E+03  0.51100000000E-03 0.  1.
         11    1    4    4    0    0 -0.10348165553E+02  0.67789636842E+02 -0.10464997019E+04  0.10487440801E+04  0.51100000000E-03 0. -1.
    9000005    1    3    3    0    0  0.73812352678E+02 -0.45347616064E+02 -0.88709700361E+03  0.89131743140E+03  0.10000000000E+01 0.  0.
    9000005    1    3    3    0    0 -0.33108060636E+02 -0.13686237580E+02 -0.99691833061E+02  0.10593827617E+03  0.10000000000E+01 0.  0.
<mgrwt>
<rscale>  0 0.13614585E+03</rscale>
<asrwt>0</asrwt>
<pdfrwt beam="2">  1        1 0.33748985E+00 0.14410669E+03</pdfrwt>
<pdfrwt beam="1">  1       -1 0.12270108E-02 0.14410669E+03</pdfrwt>
<totfact> 0.35155673E+03</totfact>
</mgrwt>
</event>
<event>
 8    2  0.7478846E-004  0.1334996E+03  0.7818608E-02  0.1235090E+00
         -1   -1    0    0    0  501 -0.00000000000E+00  0.00000000000E+00  0.18145620796E+03  0.18145620803E+03  0.50400000000E-02 0.  1.
          1   -1    0    0  501    0  0.00000000000E+00 -0.00000000000E+00 -0.78456081101E+02  0.78456081263E+02  0.50400000000E-02 0. -1.
         25    2    1    2    0    0  0.13305683137E+02  0.45062069481E+02  0.39265135412E+02  0.13915416281E+03  0.12495798838E+03 0.  0.
         23    2    1    2    0    0 -0.13305683137E+02 -0.45062069481E+02  0.63734991447E+02  0.12075812648E+03  0.91174254406E+02 0.  0.
        -11    1    4    4    0    0 -0.52435644028E+02 -0.20265006918E+02  0.33533728977E+02  0.65457453734E+02  0.51100000000E-03 0. -1.
         11    1    4    4    0    0  0.39129960891E+02 -0.24797062562E+02  0.30201262470E+02  0.55300672746E+02  0.51100000000E-03 0.  1.
    9000005    1    3    3    0    0 -0.28477617978E+02  0.22512655797E+02  0.72570215156E+02  0.81149433297E+02  0.10000000000E+01 0.  0.
    9000005    1    3    3    0    0  0.41783301115E+02  0.22549413684E+02 -0.33305079743E+02  0.58004729516E+02  0.10000000000E+01 0.  0.
<mgrwt>
<rscale>  0 0.12498669E+03</rscale>
<asrwt>0</asrwt>
<pdfrwt beam="2">  1        1 0.12070167E-01 0.13349955E+03</pdfrwt>
<pdfrwt beam="1">  1       -1 0.27916339E-01 0.13349955E+03</pdfrwt>
<totfact> 0.54711863E+03</totfact>
</mgrwt>
</event>
<event>
 8    2  0.7478846E-004  0.1365570E+03  0.7818608E-02  0.1241841E+00
          1   -1    0    0  501    0  0.00000000000E+00  0.00000000000E+00  0.22255381537E+03  0.22255381543E+03  0.50400000000E-02 0. -1.
         -1   -1    0    0    0  501 -0.00000000000E+00 -0.00000000000E+00 -0.73187654886E+02  0.73187655059E+02  0.50400000000E-02 0.  1.
         25    2    1    2    0    0 -0.23443607969E+02 -0.49718398958E+02  0.16132815574E+03  0.21136362013E+03  0.12500513642E+03 0.  0.
         23    2    1    2    0    0  0.23443607969E+02  0.49718398958E+02 -0.11961995253E+02  0.84377850358E+02  0.62888873031E+02 0.  0.
        -11    1    4    4    0    0  0.44477133651E+02  0.29669855474E+02 -0.13941068044E+02  0.55252774773E+02  0.51100000000E-03 0. -1.
         11    1    4    4    0    0 -0.21033525682E+02  0.20048543484E+02  0.19790727909E+01  0.29125075585E+02  0.51100000000E-03 0.  1.
    9000005    1    3    3    0    0 -0.56131204405E+02 -0.53916414742E+02  0.16050381751E+03  0.17838208240E+03  0.10000000000E+01 0.  0.
    9000005    1    3    3    0    0  0.32687596436E+02  0.41980157844E+01  0.82433822693E+00  0.32981537727E+02  0.10000000000E+01 0.  0.
<mgrwt>
<rscale>  0 0.12076480E+03</rscale>
<asrwt>0</asrwt>
<pdfrwt beam="1">  1        1 0.34239048E-01 0.13655697E+03</pdfrwt>
<pdfrwt beam="2">  1       -1 0.11259639E-01 0.13655697E+03</pdfrwt>
<totfact> 0.61777285E+03</totfact>
</mgrwt>
</event>
<event>
 8    2  0.7478846E-004  0.1421501E+03  0.7818608E-02  0.1219953E+00
         -1   -1    0    0    0  501 -0.00000000000E+00  0.00000000000E+00  0.83279603385E+03  0.83279603387E+03  0.50400000000E-02 0.  1.
          1   -1    0    0  501    0  0.00000000000E+00 -0.00000000000E+00 -0.20056940822E+02  0.20056941455E+02  0.50400000000E-02 0. -1.
         25    2    1    2    0    0  0.31114287085E+02 -0.60093567223E+02  0.45509170626E+03  0.47677574828E+03  0.12500926908E+03 0.  0.
         23    2    1    2    0    0 -0.31114287085E+02  0.60093567223E+02  0.35764738677E+03  0.37607722705E+03  0.94567921387E+02 0.  0.
        -11    1    4    4    0    0 -0.46362193273E+01  0.39556175826E+02  0.39236179936E+02  0.55907632680E+02  0.51100000000E-03 0. -1.
         11    1    4    4    0    0 -0.26478067758E+02  0.20537391397E+02  0.31841120684E+03  0.32016959437E+03  0.51100000000E-03 0.  1.
    9000005    1    3    3    0    0 -0.45302092629E+02 -0.45510030059E+02  0.19582436808E+03  0.20608645168E+03  0.10000000000E+01 0.  0.
    9000005    1    3    3    0    0  0.76416379714E+02 -0.14583537164E+02  0.25926733818E+03  0.27068929659E+03  0.10000000000E+01 0.  0.
<mgrwt>
<rscale>  0 0.13518927E+03</rscale>
<asrwt>0</asrwt>
<pdfrwt beam="2">  1        1 0.30856840E-02 0.14215011E+03</pdfrwt>
<pdfrwt beam="1">  1       -1 0.12812244E+00 0.14215011E+03</pdfrwt>
<totfact> 0.18002455E+03</totfact>
</mgrwt>
</event>
<event>
 8    2  0.7478846E-004  0.3047812E+03  0.7818608E-02  0.1084411E+00
          1   -1    0    0  501    0  0.00000000000E+00  0.00000000000E+00  0.19545424383E+04  0.19545424383E+04  0.50400000000E-02 0. -1.
         -1   -1    0    0    0  501 -0.00000000000E+00 -0.00000000000E+00 -0.45932328236E+02  0.45932328513E+02  0.50400000000E-02 0.  1.
         25    2    1    2    0    0 -0.23616949432E+03  0.14659668757E+03  0.10546641128E+04  0.10978196395E+04  0.12499980445E+03 0.  0.
         23    2    1    2    0    0  0.23616949432E+03 -0.14659668757E+03  0.85394599722E+03  0.90265512731E+03  0.91081797510E+02 0.  0.
        -11    1    4    4    0    0  0.18414875186E+03 -0.77526125809E+02  0.67435203716E+03  0.70332903609E+03  0.51100000000E-03 0. -1.
         11    1    4    4    0    0  0.52020742464E+02 -0.69070561763E+02  0.17959396006E+03  0.19932609122E+03  0.51100000000E-03 0.  1.
    9000005    1    3    3    0    0 -0.54781849562E+02  0.17780545356E+02  0.83127831430E+02  0.10113572659E+03  0.10000000000E+01 0.  0.
    9000005    1    3    3    0    0 -0.18138764476E+03  0.12881614222E+03  0.97153628140E+03  0.99668391290E+03  0.10000000000E+01 0.  0.
<mgrwt>
<rscale>  0 0.30166613E+03</rscale>
<asrwt>0</asrwt>
<pdfrwt beam="1">  1        1 0.30069886E+00 0.30478118E+03</pdfrwt>
<pdfrwt beam="2">  1       -1 0.70665115E-02 0.30478118E+03</pdfrwt>
<totfact> 0.37422597E+02</totfact>
</mgrwt>
</event>
<event>
 8    2  0.7478846E-004  0.1320115E+03  0.7818608E-02  0.1240600E+00
          1   -1    0    0  501    0  0.00000000000E+00  0.00000000000E+00  0.40465466620E+03  0.40465466623E+03  0.50400000000E-02 0. -1.
         -1   -1    0    0    0  501 -0.00000000000E+00 -0.00000000000E+00 -0.32717363703E+02  0.32717364091E+02  0.50400000000E-02 0.  1.
         25    2    1    2    0    0 -0.41530068496E+02 -0.87940967242E+01  0.17916870426E+03  0.22254989407E+03  0.12499979215E+03 0.  0.
         23    2    1    2    0    0  0.41530068496E+02  0.87940967242E+01  0.19276859823E+03  0.21482213625E+03  0.84774613132E+02 0.  0.
        -11    1    4    4    0    0  0.32718461765E+02 -0.33649825766E+02  0.67086600304E+02  0.81874418807E+02  0.51100000000E-03 0.  1.
         11    1    4    4    0    0  0.88116067310E+01  0.42443922491E+02  0.12568199793E+03  0.13294771744E+03  0.51100000000E-03 0. -1.
    9000005    1    3    3    0    0 -0.74291293755E+02  0.21654583298E+02  0.15101850651E+03  0.16969297750E+03  0.10000000000E+01 0.  0.
    9000005    1    3    3    0    0  0.32761225259E+02 -0.30448680022E+02  0.28150197755E+02  0.52856916570E+02  0.10000000000E+01 0.  0.
<mgrwt>
<rscale>  0 0.12152667E+03</rscale>
<asrwt>0</asrwt>
<pdfrwt beam="1">  1        1 0.62254562E-01 0.13201148E+03</pdfrwt>
<pdfrwt beam="2">  1       -1 0.50334407E-02 0.13201148E+03</pdfrwt>
<totfact> 0.98552407E+03</totfact>
</mgrwt>
</event>
<event>
 8    2  0.7478846E-004  0.1449881E+03  0.7818608E-02  0.1216903E+00
         -1   -1    0    0    0  501 -0.00000000000E+00  0.00000000000E+00  0.22958883781E+03  0.22958883786E+03  0.50400000000E-02 0.  1.
          1   -1    0    0  501    0  0.00000000000E+00 -0.00000000000E+00 -0.12774604233E+03  0.12774604243E+03  0.50400000000E-02 0. -1.
         25    2    1    2    0    0  0.66636414806E+02 -0.30907819023E+02 -0.60669833550E+02  0.15716989240E+03  0.12500336523E+03 0.  0.
         23    2    1    2    0    0 -0.66636414806E+02  0.30907819023E+02  0.16251262902E+03  0.20016498789E+03  0.90884337103E+02 0.  0.
        -11    1    4    4    0    0 -0.18840768553E+02 -0.32346159726E+02  0.47569674639E+02  0.60531996119E+02  0.51100000000E-03 0.  1.
         11    1    4    4    0    0 -0.47795646254E+02  0.63253978750E+02  0.11494295438E+03  0.13963299177E+03  0.51100000000E-03 0. -1.
    9000005    1    3    3    0    0  0.27107427734E+02  0.29085502603E+02 -0.74076174137E+02  0.84077694276E+02  0.10000000000E+01 0.  0.
    9000005    1    3    3    0    0  0.39528987072E+02 -0.59993321626E+02  0.13406340587E+02  0.73092198124E+02  0.10000000000E+01 0.  0.
<mgrwt>
<rscale>  0 0.13737679E+03</rscale>
<asrwt>0</asrwt>
<pdfrwt beam="2">  1        1 0.19653237E-01 0.14498809E+03</pdfrwt>
<pdfrwt beam="1">  1       -1 0.35321359E-01 0.14498809E+03</pdfrwt>
<totfact> 0.19647858E+03</totfact>
</mgrwt>
</event>
<event>
 8    2  0.7478846E-004  0.1444020E+03  0.7818608E-02  0.1218270E+00
         -1   -1    0    0    0  501 -0.00000000000E+00  0.00000000000E+00  0.19141968014E+02  0.19141968677E+02  0.50400000000E-02 0.  1.
          1   -1    0    0  501    0  0.00000000000E+00 -0.00000000000E+00 -0.88045981681E+03  0.88045981682E+03  0.50400000000E-02 0. -1.
         25    2    1    2    0    0 -0.17042400480E+01 -0.72266896938E+02 -0.50152642221E+03  0.52190102887E+03  0.12500609160E+03 0.  0.
         23    2    1    2    0    0  0.17042400480E+01  0.72266896938E+02 -0.35979142659E+03  0.37770075663E+03  0.89345296942E+02 0.  0.
        -11    1    4    4    0    0 -0.42462280235E+02  0.49508566118E+02 -0.20743210166E+03  0.21744475198E+03  0.51100000000E-03 0. -1.
         11    1    4    4    0    0  0.44166520283E+02  0.22758330821E+02 -0.15235932493E+03  0.16025600465E+03  0.51100000000E-03 0.  1.
    9000005    1    3    3    0    0 -0.30655704248E+02 -0.68899870217E+02 -0.13848208271E+03  0.15768719526E+03  0.10000000000E+01 0.  0.
    9000005    1    3    3    0    0  0.28951464200E+02 -0.33670267210E+01 -0.36304433950E+03  0.36421383361E+03  0.10000000000E+01 0.  0.
<mgrwt>
<rscale>  0 0.13639061E+03</rscale>
<asrwt>0</asrwt>
<pdfrwt beam="2">  1        1 0.13545532E+00 0.14440198E+03</pdfrwt>
<pdfrwt beam="1">  1       -1 0.29449189E-02 0.14440198E+03</pdfrwt>
<totfact> 0.74453366E+03</totfact>
</mgrwt>
</event>
<event>
 8    2  0.7478846E-004  0.2163234E+03  0.7818608E-02  0.1140518E+00
          1   -1    0    0  501    0  0.00000000000E+00  0.00000000000E+00  0.58917984805E+03  0.58917984807E+03  0.50400000000E-02 0.  1.
         -1   -1    0    0    0  501 -0.00000000000E+00 -0.00000000000E+00 -0.72570200915E+02  0.72570201090E+02  0.50400000000E-02 0. -1.
         25    2    1    2    0    0 -0.18784870411E+02  0.17554501776E+03  0.28069951087E+03  0.35438400214E+03  0.12500752359E+03 0.  0.
         23    2    1    2    0    0  0.18784870411E+02 -0.17554501776E+03  0.23591013627E+03  0.30736604702E+03  0.87472109004E+02 0.  0.
        -11    1    4    4    0    0 -0.18401382682E+02 -0.13011856572E+03  0.19745112857E+03  0.23718431694E+03  0.51100000000E-03 0.  1.
         11    1    4    4    0    0  0.37186253093E+02 -0.45426452037E+02  0.38459007695E+02  0.70181730079E+02  0.51100000000E-03 0. -1.
    9000005    1    3    3    0    0 -0.14635083241E+02  0.14873344017E+03  0.12072825376E+03  0.19212530584E+03  0.10000000000E+01 0.  0.
    9000005    1    3    3    0    0 -0.41497871699E+01  0.26811577587E+02  0.15997125710E+03  0.16225869630E+03  0.10000000000E+01 0.  0.
<mgrwt>
<rscale>  0 0.21132942E+03</rscale>
<asrwt>0</asrwt>
<pdfrwt beam="1">  1        1 0.90643049E-01 0.21632338E+03</pdfrwt>
<pdfrwt beam="2">  1       -1 0.11164647E-01 0.21632338E+03</pdfrwt>
<totfact> 0.18426934E+03</totfact>
</mgrwt>
</event>
<event>
 8    2  0.7478846E-004  0.1348279E+03  0.7818608E-02  0.1233116E+00
         -1   -1    0    0    0  501 -0.00000000000E+00  0.00000000000E+00  0.20516746614E+03  0.20516746620E+03  0.50400000000E-02 0.  1.
          1   -1    0    0  501    0  0.00000000000E+00 -0.00000000000E+00 -0.76067364651E+02  0.76067364818E+02  0.50400000000E-02 0. -1.
         25    2    1    2    0    0 -0.13605446891E+02  0.48771613401E+02  0.11379335408E+03  0.17642984340E+03  0.12495912831E+03 0.  0.
         23    2    1    2    0    0  0.13605446891E+02 -0.48771613401E+02  0.15306747404E+02  0.10480498762E+03  0.90476574067E+02 0.  0.
        -11    1    4    4    0    0  0.39327998307E+02 -0.15217620945E+02 -0.22755033859E+02  0.47917209896E+02  0.51100000000E-03 0. -1.
         11    1    4    4    0    0 -0.25722551417E+02 -0.33553992457E+02  0.38061781262E+02  0.56887777723E+02  0.51100000000E-03 0.  1.
    9000005    1    3    3    0    0  0.54047830996E+02  0.25154652409E+02  0.31945536168E+02  0.67642012494E+02  0.10000000000E+01 0.  0.
    9000005    1    3    3    0    0 -0.67653277887E+02  0.23616960992E+02  0.81847817914E+02  0.10878783090E+03  0.10000000000E+01 0.  0.
<mgrwt>
<rscale>  0 0.12625826E+03</rscale>
<asrwt>0</asrwt>
<pdfrwt beam="2">  1        1 0.11702672E-01 0.13482790E+03</pdfrwt>
<pdfrwt beam="1">  1       -1 0.31564225E-01 0.13482790E+03</pdfrwt>
<totfact> 0.46400824E+03</totfact>
</mgrwt>
</event>
<event>
 8    2  0.7478846E-004  0.1835511E+03  0.7818608E-02  0.1169400E+00
          1   -1    0    0  501    0  0.00000000000E+00  0.00000000000E+00  0.56658879315E+02  0.56658879540E+02  0.50400000000E-02 0. -1.
         -1   -1    0    0    0  501 -0.00000000000E+00 -0.00000000000E+00 -0.57391232357E+03  0.57391232359E+03  0.50400000000E-02 0.  1.
         25    2    1    2    0    0 -0.10833065106E+03 -0.79569151880E+02 -0.35754041472E+03  0.40190315938E+03  0.12499688584E+03 0.  0.
         23    2    1    2    0    0  0.10833065106E+03  0.79569151880E+02 -0.15971302954E+03  0.22866804376E+03  0.93349036097E+02 0.  0.
        -11    1    4    4    0    0  0.56888642325E+02 -0.11821392880E+02 -0.47217391635E+02  0.74870187847E+02  0.51100000000E-03 0. -1.
         11    1    4    4    0    0  0.51442008738E+02  0.91390544760E+02 -0.11249563790E+03  0.15379785591E+03  0.51100000000E-03 0.  1.
    9000005    1    3    3    0    0 -0.88828079828E+02 -0.49026100681E+02 -0.35060739414E+03  0.36499387822E+03  0.10000000000E+01 0.  0.
    9000005    1    3    3    0    0 -0.19502571235E+02 -0.30543051198E+02 -0.69330205811E+01  0.36909281159E+02  0.10000000000E+01 0.  0.
<mgrwt>
<rscale>  0 0.17835928E+03</rscale>
<asrwt>0</asrwt>
<pdfrwt beam="1">  1        1 0.87167511E-02 0.18355109E+03</pdfrwt>
<pdfrwt beam="2">  1       -1 0.88294200E-01 0.18355109E+03</pdfrwt>
<totfact> 0.10155585E+03</totfact>
</mgrwt>
</event>
<event>
 8    2  0.7478846E-004  0.1531447E+03  0.7818608E-02  0.1205377E+00
          1   -1    0    0  501    0  0.00000000000E+00  0.00000000000E+00  0.15147208852E+03  0.15147208860E+03  0.50400000000E-02 0. -1.
         -1   -1    0    0    0  501 -0.00000000000E+00 -0.00000000000E+00 -0.17522725548E+03  0.17522725556E+03  0.50400000000E-02 0.  1.
         25    2    1    2    0    0  0.88504881149E+02  0.28780863292E+01  0.70630229463E+02  0.16864733875E+03  0.12494758175E+03 0.  0.
         23    2    1    2    0    0 -0.88504881149E+02 -0.28780863292E+01 -0.94385396427E+02  0.15805200541E+03  0.90721750346E+02 0.  0.
        -11    1    4    4    0    0 -0.18821853635E+02  0.26658661550E+02  0.51214853453E+01  0.33032953581E+02  0.51100000000E-03 0.  1.
         11    1    4    4    0    0 -0.69683027514E+02 -0.29536747879E+02 -0.99506881772E+02  0.12501905182E+03  0.51100000000E-03 0. -1.
    9000005    1    3    3    0    0  0.42877862188E+02  0.49984044932E+02 -0.78946609838E+01  0.66334316048E+02  0.10000000000E+01 0.  0.
    9000005    1    3    3    0    0  0.45627018961E+02 -0.47105958603E+02  0.78524890446E+02  0.10231302270E+03  0.10000000000E+01 0.  0.
<mgrwt>
<rscale>  0 0.14607794E+03</rscale>
<asrwt>0</asrwt>
<pdfrwt beam="1">  1        1 0.23303398E-01 0.15314469E+03</pdfrwt>
<pdfrwt beam="2">  1       -1 0.26958039E-01 0.15314469E+03</pdfrwt>
<totfact> 0.25046048E+03</totfact>
</mgrwt>
</event>
<event>
 8    2  0.7478846E-004  0.1349782E+03  0.7818608E-02  0.1232767E+00
          1   -1    0    0  501    0  0.00000000000E+00  0.00000000000E+00  0.88258218203E+02  0.88258218347E+02  0.50400000000E-02 0. -1.
         -1   -1    0    0    0  501 -0.00000000000E+00 -0.00000000000E+00 -0.16373335033E+03  0.16373335041E+03  0.50400000000E-02 0.  1.
         25    2    1    2    0    0  0.49675418430E+02 -0.11276695239E+02 -0.29259137860E+02  0.13811304846E+03  0.12499722379E+03 0.  0.
         23    2    1    2    0    0 -0.49675418430E+02  0.11276695239E+02 -0.46215994264E+02  0.11387852029E+03  0.90761160227E+02 0.  0.
        -11    1    4    4    0    0 -0.24719215405E+02  0.17506044859E+02  0.24290331080E+02  0.38826812914E+02  0.51100000000E-03 0. -1.
         11    1    4    4    0    0 -0.24956203025E+02 -0.62293496198E+01 -0.70506325344E+02  0.75051707375E+02  0.51100000000E-03 0.  1.
    9000005    1    3    3    0    0 -0.43103724183E+01  0.47677488335E+02 -0.32883947482E+02  0.58086798899E+02  0.10000000000E+01 0.  0.
    9000005    1    3    3    0    0  0.53985790848E+02 -0.58954183574E+02  0.36248096223E+01  0.80026249563E+02  0.10000000000E+01 0.  0.
<mgrwt>
<rscale>  0 0.12648480E+03</rscale>
<asrwt>0</asrwt>
<pdfrwt beam="1">  1        1 0.13578187E-01 0.13497821E+03</pdfrwt>
<pdfrwt beam="2">  1       -1 0.25189746E-01 0.13497821E+03</pdfrwt>
<totfact> 0.55641193E+03</totfact>
</mgrwt>
</event>
<event>
 8    2  0.7478846E-004  0.1272001E+03  0.7818608E-02  0.1246191E+00
          1   -1    0    0  501    0  0.00000000000E+00  0.00000000000E+00  0.54295738270E+03  0.54295738273E+03  0.50400000000E-02 0. -1.
         -1   -1    0    0    0  501 -0.00000000000E+00 -0.00000000000E+00 -0.22727236252E+02  0.22727236811E+02  0.50400000000E-02 0.  1.
         25    2    1    2    0    0  0.88980854881E+01 -0.21814413319E+02  0.31284142883E+03  0.33771232427E+03  0.12499923927E+03 0.  0.
         23    2    1    2    0    0 -0.88980854881E+01  0.21814413319E+02  0.20738871762E+03  0.22797229526E+03  0.91685564071E+02 0.  0.
        -11    1    4    4    0    0 -0.92124729293E+01 -0.28414623748E+01  0.20263025683E+03  0.20285946995E+03  0.51100000000E-03 0. -1.
         11    1    4    4    0    0  0.31438744123E+00  0.24655875694E+02  0.47584607847E+01  0.25112825309E+02  0.51100000000E-03 0.  1.
    9000005    1    3    3    0    0 -0.48615672782E+01  0.48094512223E+02  0.73405940173E+02  0.87898515318E+02  0.10000000000E+01 0.  0.
    9000005    1    3    3    0    0  0.13759652766E+02 -0.69908925543E+02  0.23943548866E+03  0.24981380896E+03  0.10000000000E+01 0.  0.
<mgrwt>
<rscale>  0 0.11814403E+03</rscale>
<asrwt>0</asrwt>
<pdfrwt beam="1">  1        1 0.83531901E-01 0.12720006E+03</pdfrwt>
<pdfrwt beam="2">  1       -1 0.34964981E-02 0.12720006E+03</pdfrwt>
<totfact> 0.11490725E+04</totfact>
</mgrwt>
</event>
<event>
 8    2  0.7478846E-004  0.1317023E+03  0.7818608E-02  0.1239059E+00
          1   -1    0    0  501    0  0.00000000000E+00  0.00000000000E+00  0.62480842658E+03  0.62480842660E+03  0.50400000000E-02 0. -1.
         -1   -1    0    0    0  501 -0.00000000000E+00 -0.00000000000E+00 -0.23674643660E+02  0.23674644197E+02  0.50400000000E-02 0.  1.
         25    2    1    2    0    0  0.36083083565E+02  0.20467573962E+02  0.44309932499E+03  0.46225806588E+03  0.12499838866E+03 0.  0.
         23    2    1    2    0    0 -0.36083083565E+02 -0.20467573962E+02  0.15803445794E+03  0.18622500492E+03  0.89352963338E+02 0.  0.
        -11    1    4    4    0    0  0.26056327539E+02  0.82056700557E+01  0.27073472631E+02  0.38460865128E+02  0.51100000000E-03 0.  1.
         11    1    4    4    0    0 -0.62139411103E+02 -0.28673244017E+02  0.13096098531E+03  0.14776413979E+03  0.51100000000E-03 0. -1.
    9000005    1    3    3    0    0 -0.24276908815E+02 -0.38932141746E+02  0.12810767708E+03  0.13607959763E+03  0.10000000000E+01 0.  0.
    9000005    1    3    3    0    0  0.60359992380E+02  0.59399715707E+02  0.31499164790E+03  0.32617846826E+03  0.10000000000E+01 0.  0.
<mgrwt>
<rscale>  0 0.12248102E+03</rscale>
<asrwt>0</asrwt>
<pdfrwt beam="1">  1        1 0.96124380E-01 0.13170234E+03</pdfrwt>
<pdfrwt beam="2">  1       -1 0.36422527E-02 0.13170234E+03</pdfrwt>
<totfact> 0.89795525E+03</totfact>
</mgrwt>
</event>
<event>
 8    2  0.7478846E-004  0.1293945E+03  0.7818608E-02  0.1242528E+00
         -1   -1    0    0    0  501 -0.00000000000E+00  0.00000000000E+00  0.95922219836E+01  0.95922233077E+01  0.50400000000E-02 0.  1.
          1   -1    0    0  501    0  0.00000000000E+00 -0.00000000000E+00 -0.13465756076E+04  0.13465756076E+04  0.50400000000E-02 0. -1.
         25    2    1    2    0    0 -0.33146984875E+02  0.44292136057E+01 -0.82933711936E+03  0.83937059845E+03  0.12499841380E+03 0.  0.
         23    2    1    2    0    0  0.33146984875E+02 -0.44292136057E+01 -0.50764626624E+03  0.51679723245E+03  0.90864224552E+02 0.  0.
        -11    1    4    4    0    0  0.46217338438E+02 -0.37352636345E+02 -0.36576871371E+03  0.37056445289E+03  0.51100000000E-03 0.  1.
         11    1    4    4    0    0 -0.13070353563E+02  0.32923422739E+02 -0.14187755253E+03  0.14623277956E+03  0.51100000000E-03 0. -1.
    9000005    1    3    3    0    0  0.66234439920E+01  0.58356244120E+02 -0.48756290703E+03  0.49108849462E+03  0.10000000000E+01 0.  0.
    9000005    1    3    3    0    0 -0.39770428867E+02 -0.53927030514E+02 -0.34177421233E+03  0.34828210383E+03  0.10000000000E+01 0.  0.
<mgrwt>
<rscale>  0 0.12034590E+03</rscale>
<asrwt>0</asrwt>
<pdfrwt beam="2">  1        1 0.20716533E+00 0.12939453E+03</pdfrwt>
<pdfrwt beam="1">  1       -1 0.14757276E-02 0.12939453E+03</pdfrwt>
<totfact> 0.93985688E+03</totfact>
</mgrwt>
</event>
<event>
 8    2  0.7478846E-004  0.1320226E+03  0.7818608E-02  0.1234923E+00
          1   -1    0    0  501    0  0.00000000000E+00  0.00000000000E+00  0.83267984393E+03  0.83267984395E+03  0.50400000000E-02 0. -1.
         -1   -1    0    0    0  501 -0.00000000000E+00 -0.00000000000E+00 -0.18113199842E+02  0.18113200543E+02  0.50400000000E-02 0.  1.
         25    2    1    2    0    0  0.38947514817E+02  0.16994046790E+02  0.34691796082E+03  0.37119001360E+03  0.12499699246E+03 0.  0.
         23    2    1    2    0    0 -0.38947514817E+02 -0.16994046790E+02  0.46764868327E+03  0.47960303089E+03  0.97560595192E+02 0.  0.
        -11    1    4    4    0    0 -0.86316042921E+01 -0.13864762029E+02  0.43359673721E+03  0.43390421378E+03  0.51100000000E-03 0.  1.
         11    1    4    4    0    0 -0.30315910525E+02 -0.31292847613E+01  0.34051946066E+02  0.45698817110E+02  0.51100000000E-03 0. -1.
    9000005    1    3    3    0    0  0.54684199886E+02 -0.43186510226E+02  0.19124755005E+03  0.20354867177E+03  0.10000000000E+01 0.  0.
    9000005    1    3    3    0    0 -0.15736685069E+02  0.60180557016E+02  0.15567041077E+03  0.16764134183E+03  0.10000000000E+01 0.  0.
<mgrwt>
<rscale>  0 0.12509358E+03</rscale>
<asrwt>0</asrwt>
<pdfrwt beam="1">  1        1 0.12810460E+00 0.13202255E+03</pdfrwt>
<pdfrwt beam="2">  1       -1 0.27866461E-02 0.13202255E+03</pdfrwt>
<totfact> 0.87567145E+03</totfact>
</mgrwt>
</event>
<event>
 8    2  0.7478846E-004  0.2061635E+03  0.7818608E-02  0.1148578E+00
         -1   -1    0    0    0  501 -0.00000000000E+00  0.00000000000E+00  0.12173005831E+03  0.12173005841E+03  0.50400000000E-02 0.  1.
          1   -1    0    0  501    0  0.00000000000E+00 -0.00000000000E+00 -0.31875949721E+03  0.31875949725E+03  0.50400000000E-02 0. -1.
         25    2    1    2    0    0  0.54042289716E+02  0.15479007185E+03 -0.10837052744E+03  0.23291106778E+03  0.12499143512E+03 0.  0.
         23    2    1    2    0    0 -0.54042289716E+02 -0.15479007185E+03 -0.88658911462E+02  0.20757848789E+03  0.91366791730E+02 0.  0.
        -11    1    4    4    0    0 -0.20364382742E+02 -0.14017614955E+03 -0.94678502293E+02  0.17037628880E+03  0.51100000000E-03 0.  1.
         11    1    4    4    0    0 -0.33677906974E+02 -0.14613922297E+02  0.60195908306E+01  0.37202199089E+02  0.51100000000E-03 0. -1.
    9000005    1    3    3    0    0 -0.33800052207E+02  0.12648664756E+02 -0.35443404444E+02  0.50593153370E+02  0.10000000000E+01 0.  0.
    9000005    1    3    3    0    0  0.87842341923E+02  0.14214140709E+03 -0.72927123000E+02  0.18231791441E+03  0.10000000000E+01 0.  0.
<mgrwt>
<rscale>  0 0.20138194E+03</rscale>
<asrwt>0</asrwt>
<pdfrwt beam="2">  1        1 0.49039922E-01 0.20616351E+03</pdfrwt>
<pdfrwt beam="1">  1       -1 0.18727701E-01 0.20616351E+03</pdfrwt>
<totfact> 0.18068534E+03</totfact>
</mgrwt>
</event>
<event>
 8    2  0.7478846E-004  0.1329176E+03  0.7818608E-02  0.1235842E+00
          1   -1    0    0  501    0  0.00000000000E+00  0.00000000000E+00  0.11953232769E+03  0.11953232780E+03  0.50400000000E-02 0. -1.
         -1   -1    0    0    0  501 -0.00000000000E+00 -0.00000000000E+00 -0.13115609037E+03  0.13115609047E+03  0.50400000000E-02 0.  1.
         25    2    1    2    0    0 -0.42047549412E+02  0.16570603011E+02 -0.49116172415E+02  0.14170214456E+03  0.12499807232E+03 0.  0.
         23    2    1    2    0    0  0.42047549412E+02 -0.16570603011E+02  0.37492409735E+02  0.10898627371E+03  0.91813646991E+02 0.  0.
        -11    1    4    4    0    0  0.66868751148E+02  0.80174782859E+01  0.23086229266E+02  0.71194689550E+02  0.51100000000E-03 0. -1.
         11    1    4    4    0    0 -0.24821201735E+02 -0.24588081296E+02  0.14406180469E+02  0.37791584161E+02  0.51100000000E-03 0.  1.
    9000005    1    3    3    0    0 -0.72692139101E+02 -0.28715466643E+02 -0.26736028474E+02  0.82610776114E+02  0.10000000000E+01 0.  0.
    9000005    1    3    3    0    0  0.30644589688E+02  0.45286069654E+02 -0.22380143941E+02  0.59091368445E+02  0.10000000000E+01 0.  0.
<mgrwt>
<rscale>  0 0.12450660E+03</rscale>
<asrwt>0</asrwt>
<pdfrwt beam="1">  1        1 0.18389589E-01 0.13291764E+03</pdfrwt>
<pdfrwt beam="2">  1       -1 0.20177860E-01 0.13291764E+03</pdfrwt>
<totfact> 0.53898820E+03</totfact>
</mgrwt>
</event>
<event>
 8    2  0.7478846E-004  0.3135030E+03  0.7818608E-02  0.1080034E+00
         -1   -1    0    0    0  501 -0.00000000000E+00  0.00000000000E+00  0.61571313812E+03  0.61571313814E+03  0.50400000000E-02 0.  1.
          1   -1    0    0  501    0  0.00000000000E+00 -0.00000000000E+00 -0.25310077488E+03  0.25310077493E+03  0.50400000000E-02 0. -1.
         25    2    1    2    0    0 -0.19452227406E+02 -0.28683842034E+03  0.45518965352E+03  0.55270404816E+03  0.12501790129E+03 0.  0.
         23    2    1    2    0    0  0.19452227406E+02  0.28683842034E+03 -0.92577290281E+02  0.31610986490E+03  0.93274988495E+02 0.  0.
        -11    1    4    4    0    0 -0.41295584752E+01  0.10785606264E+02  0.14972519972E+02  0.18909228177E+02  0.51100000000E-03 0.  1.
         11    1    4    4    0    0  0.23581785881E+02  0.27605281408E+03 -0.10754981025E+03  0.29720063673E+03  0.51100000000E-03 0. -1.
    9000005    1    3    3    0    0 -0.49495805238E+02 -0.44926758367E+02  0.13117952663E+03  0.14723218588E+03  0.10000000000E+01 0.  0.
    9000005    1    3    3    0    0  0.30043577833E+02 -0.24191166197E+03  0.32401012690E+03  0.40547186228E+03  0.10000000000E+01 0.  0.
<mgrwt>
<rscale>  0 0.31065101E+03</rscale>
<asrwt>0</asrwt>
<pdfrwt beam="2">  1        1 0.38938581E-01 0.31350302E+03</pdfrwt>
<pdfrwt beam="1">  1       -1 0.94725098E-01 0.31350302E+03</pdfrwt>
<totfact> 0.12396799E+02</totfact>
</mgrwt>
</event>
<event>
 8    2  0.7478846E-004  0.1507887E+03  0.7818608E-02  0.1208550E+00
         -1   -1    0    0    0  501 -0.00000000000E+00  0.00000000000E+00  0.73536134182E+02  0.73536134355E+02  0.50400000000E-02 0.  1.
          1   -1    0    0  501    0  0.00000000000E+00 -0.00000000000E+00 -0.25902141023E+03  0.25902141028E+03  0.50400000000E-02 0. -1.
         25    2    1    2    0    0 -0.68372808395E+02 -0.49350135439E+02 -0.86469948112E+02  0.17382253321E+03  0.12500777707E+03 0.  0.
         23    2    1    2    0    0  0.68372808395E+02  0.49350135439E+02 -0.99015327937E+02  0.15873501143E+03  0.91008196833E+02 0.  0.
        -11    1    4    4    0    0  0.39446092355E+02  0.10283137310E+02 -0.10219030713E+03  0.11002088887E+03  0.51100000000E-03 0. -1.
         11    1    4    4    0    0  0.28926716040E+02  0.39066998129E+02  0.31749791956E+01  0.48714122560E+02  0.51100000000E-03 0.  1.
    9000005    1    3    3    0    0 -0.87260468038E+02 -0.11501499317E+01 -0.19947919065E+02  0.89524474878E+02  0.10000000000E+01 0.  0.
    9000005    1    3    3    0    0  0.18887659643E+02 -0.48199985507E+02 -0.66522029047E+02  0.84298058330E+02  0.10000000000E+01 0.  0.
<mgrwt>
<rscale>  0 0.14361213E+03</rscale>
<asrwt>0</asrwt>
<pdfrwt beam="2">  1        1 0.39849447E-01 0.15078866E+03</pdfrwt>
<pdfrwt beam="1">  1       -1 0.11313252E-01 0.15078866E+03</pdfrwt>
<totfact> 0.51117926E+03</totfact>
</mgrwt>
</event>
<event>
 8    2  0.7478846E-004  0.1279718E+03  0.7818608E-02  0.1245326E+00
          1   -1    0    0  501    0  0.00000000000E+00  0.00000000000E+00  0.40213711792E+02  0.40213712108E+02  0.50400000000E-02 0. -1.
         -1   -1    0    0    0  501 -0.00000000000E+00 -0.00000000000E+00 -0.31394369675E+03  0.31394369679E+03  0.50400000000E-02 0.  1.
         25    2    1    2    0    0 -0.23179770384E+02  0.14607696496E+02 -0.13279565951E+03  0.18442197195E+03  0.12500435993E+03 0.  0.
         23    2    1    2    0    0  0.23179770384E+02 -0.14607696496E+02 -0.14093432545E+03  0.16973543695E+03  0.90536997494E+02 0.  0.
        -11    1    4    4    0    0  0.10993710805E+02 -0.36411625206E+02 -0.14257539114E+02  0.40619521775E+02  0.51100000000E-03 0. -1.
         11    1    4    4    0    0  0.12186059578E+02  0.21803928710E+02 -0.12667678633E+03  0.12911591517E+03  0.51100000000E-03 0.  1.
    9000005    1    3    3    0    0  0.99219911347E+01  0.52180605010E+02 -0.12217288485E+03  0.13322340350E+03  0.10000000000E+01 0.  0.
    9000005    1    3    3    0    0 -0.33101761518E+02 -0.37572908514E+02 -0.10622774662E+02  0.51198568450E+02  0.10000000000E+01 0.  0.
<mgrwt>
<rscale>  0 0.11865859E+03</rscale>
<asrwt>0</asrwt>
<pdfrwt beam="1">  1        1 0.61867251E-02 0.12797178E+03</pdfrwt>
<pdfrwt beam="2">  1       -1 0.48299029E-01 0.12797178E+03</pdfrwt>
<totfact> 0.51517402E+03</totfact>
</mgrwt>
</event>
<event>
 8    2  0.7478846E-004  0.1311581E+03  0.7818608E-02  0.1239721E+00
          1   -1    0    0  501    0  0.00000000000E+00  0.00000000000E+00  0.16457189740E+03  0.16457189748E+03  0.50400000000E-02 0. -1.
         -1   -1    0    0    0  501 -0.00000000000E+00 -0.00000000000E+00 -0.11430798163E+03  0.11430798174E+03  0.50400000000E-02 0.  1.
         25    2    1    2    0    0 -0.27709820175E+02 -0.28452294647E+02  0.10342217708E+03  0.16702873016E+03  0.12500033113E+03 0.  0.
         23    2    1    2    0    0  0.27709820175E+02  0.28452294647E+02 -0.53158261307E+02  0.11185114905E+03  0.90041721409E+02 0.  0.
        -11    1    4    4    0    0 -0.82828331874E+01  0.81489221947E+01  0.22680934825E+02  0.25484015840E+02  0.51100000000E-03 0. -1.
         11    1    4    4    0    0  0.35992653363E+02  0.20303372453E+02 -0.75839196132E+02  0.86367133212E+02  0.51100000000E-03 0.  1.
    9000005    1    3    3    0    0 -0.74537672579E+02 -0.37431556096E+02  0.63524868372E+02  0.10484939164E+03  0.10000000000E+01 0.  0.
    9000005    1    3    3    0    0  0.46827852404E+02  0.89792614489E+01  0.39897308710E+02  0.62179338524E+02  0.10000000000E+01 0.  0.
<mgrwt>
<rscale>  0 0.12206977E+03</rscale>
<asrwt>0</asrwt>
<pdfrwt beam="1">  1        1 0.25318753E-01 0.13115811E+03</pdfrwt>
<pdfrwt beam="2">  1       -1 0.17585844E-01 0.13115811E+03</pdfrwt>
<totfact> 0.44759571E+03</totfact>
</mgrwt>
</event>
<event>
 8    2  0.7478846E-004  0.1669619E+03  0.7818608E-02  0.1187774E+00
          1   -1    0    0  501    0  0.00000000000E+00  0.00000000000E+00  0.53015055603E+03  0.53015055606E+03  0.50400000000E-02 0. -1.
         -1   -1    0    0    0  501 -0.00000000000E+00 -0.00000000000E+00 -0.51303948142E+02  0.51303948390E+02  0.50400000000E-02 0.  1.
         25    2    1    2    0    0  0.32087295878E+02  0.10593449178E+03  0.35271892653E+03  0.39023955505E+03  0.12499823235E+03 0.  0.
         23    2    1    2    0    0 -0.32087295878E+02 -0.10593449178E+03  0.12612768136E+03  0.19121494940E+03  0.91669262897E+02 0.  0.
        -11    1    4    4    0    0  0.34690042042E+01 -0.12101529877E+02 -0.14023723346E+02  0.18845313271E+02  0.51100000000E-03 0.  1.
         11    1    4    4    0    0 -0.35556300082E+02 -0.93832961907E+02  0.14015140471E+03  0.17236963613E+03  0.51100000000E-03 0. -1.
    9000005    1    3    3    0    0  0.10482838953E+02 -0.28314922271E+02  0.79651782204E+02  0.85188210123E+02  0.10000000000E+01 0.  0.
    9000005    1    3    3    0    0  0.21604456925E+02  0.13424941406E+03  0.27306714433E+03  0.30505134493E+03  0.10000000000E+01 0.  0.
<mgrwt>
<rscale>  0 0.16082037E+03</rscale>
<asrwt>0</asrwt>
<pdfrwt beam="1">  1        1 0.81561616E-01 0.16696188E+03</pdfrwt>
<pdfrwt beam="2">  1       -1 0.78929159E-02 0.16696188E+03</pdfrwt>
<totfact> 0.35925976E+03</totfact>
</mgrwt>
</event>
<event>
 8    2  0.7478846E-004  0.1333092E+03  0.7818608E-02  0.1236043E+00
         -1   -1    0    0    0  501 -0.00000000000E+00  0.00000000000E+00  0.15616426973E+02  0.15616427787E+02  0.50400000000E-02 0. -1.
          1   -1    0    0  501    0  0.00000000000E+00 -0.00000000000E+00 -0.94487428126E+03  0.94487428128E+03  0.50400000000E-02 0.  1.
         25    2    1    2    0    0  0.45582780108E+02 -0.82461556624E+01 -0.39855804014E+03  0.42026164118E+03  0.12500218702E+03 0.  0.
         23    2    1    2    0    0 -0.45582780108E+02  0.82461556624E+01 -0.53069981415E+03  0.54022906789E+03  0.89773961278E+02 0.  0.
        -11    1    4    4    0    0 -0.29950599516E+02  0.76847242716E+01 -0.46895148644E+02  0.56171597495E+02  0.51100000000E-03 0. -1.
         11    1    4    4    0    0 -0.15632180592E+02  0.56143139079E+00 -0.48380466551E+03  0.48405747039E+03  0.51100000000E-03 0.  1.
    9000005    1    3    3    0    0  0.10133410011E+02  0.57554538387E+02 -0.16638641975E+03  0.17635376821E+03  0.10000000000E+01 0.  0.
    9000005    1    3    3    0    0  0.35449370097E+02 -0.65800694049E+02 -0.23217162039E+03  0.24390787296E+03  0.10000000000E+01 0.  0.
<mgrwt>
<rscale>  0 0.12437912E+03</rscale>
<asrwt>0</asrwt>
<pdfrwt beam="2">  1        1 0.14536523E+00 0.13330917E+03</pdfrwt>
<pdfrwt beam="1">  1       -1 0.24025280E-02 0.13330917E+03</pdfrwt>
<totfact> 0.88965465E+03</totfact>
</mgrwt>
</event>
<event>
 8    2  0.7478846E-004  0.1534721E+03  0.7818608E-02  0.1205055E+00
         -1   -1    0    0    0  501 -0.00000000000E+00  0.00000000000E+00  0.20506234146E+02  0.20506234765E+02  0.50400000000E-02 0.  1.
          1   -1    0    0  501    0  0.00000000000E+00 -0.00000000000E+00 -0.12338992711E+04  0.12338992712E+04  0.50400000000E-02 0. -1.
         25    2    1    2    0    0 -0.50899990654E+02 -0.73060355420E+02 -0.94701062235E+03  0.95936583309E+03  0.12500023309E+03 0.  0.
         23    2    1    2    0    0  0.50899990654E+02  0.73060355420E+02 -0.26638241465E+03  0.29503967284E+03  0.90333787300E+02 0.  0.
        -11    1    4    4    0    0 -0.12551388060E+02  0.55401926471E+02 -0.16142660475E+03  0.17112994922E+03  0.51100000000E-03 0. -1.
         11    1    4    4    0    0  0.63451378713E+02  0.17658428949E+02 -0.10495580990E+03  0.12390972361E+03  0.51100000000E-03 0.  1.
    9000005    1    3    3    0    0 -0.46414703883E+02 -0.55753602793E+01 -0.74226342995E+03  0.74373477048E+03  0.10000000000E+01 0.  0.
    9000005    1    3    3    0    0 -0.44852867704E+01 -0.67484995141E+02 -0.20474719239E+03  0.21563106260E+03  0.10000000000E+01 0.  0.
<mgrwt>
<rscale>  0 0.14633142E+03</rscale>
<asrwt>0</asrwt>
<pdfrwt beam="2">  1        1 0.18983060E+00 0.15347209E+03</pdfrwt>
<pdfrwt beam="1">  1       -1 0.31548063E-02 0.15347209E+03</pdfrwt>
<totfact> 0.37504725E+03</totfact>
</mgrwt>
</event>
<event>
 8    2  0.7478846E-004  0.1368284E+03  0.7818608E-02  0.1228713E+00
          1   -1    0    0  501    0  0.00000000000E+00  0.00000000000E+00  0.15069262425E+03  0.15069262433E+03  0.50400000000E-02 0. -1.
         -1   -1    0    0    0  501 -0.00000000000E+00 -0.00000000000E+00 -0.13956029162E+03  0.13956029171E+03  0.50400000000E-02 0.  1.
         25    2    1    2    0    0 -0.37030388371E+02 -0.41554521052E+02 -0.70923658137E+02  0.15411741156E+03  0.12499593345E+03 0.  0.
         23    2    1    2    0    0  0.37030388371E+02  0.41554521052E+02  0.82055990764E+02  0.13613550448E+03  0.93282699776E+02 0.  0.
        -11    1    4    4    0    0  0.55967483132E+02  0.84709899370E+00  0.70040076123E+02  0.89658736376E+02  0.51100000000E-03 0.  1.
         11    1    4    4    0    0 -0.18937094762E+02  0.40707422058E+02  0.12015914641E+02  0.46476768106E+02  0.51100000000E-03 0. -1.
    9000005    1    3    3    0    0 -0.20086044097E+02 -0.85155397447E+02 -0.59931962393E+02  0.10605532046E+03  0.10000000000E+01 0.  0.
    9000005    1    3    3    0    0 -0.16944344274E+02  0.43600876395E+02 -0.10991695744E+02  0.48062091097E+02  0.10000000000E+01 0.  0.
<mgrwt>
<rscale>  0 0.12915642E+03</rscale>
<asrwt>0</asrwt>
<pdfrwt beam="1">  1        1 0.23183481E-01 0.13682840E+03</pdfrwt>
<pdfrwt beam="2">  1       -1 0.21470814E-01 0.13682840E+03</pdfrwt>
<totfact> 0.36410183E+03</totfact>
</mgrwt>
</event>
<event>
 8    2  0.7478846E-004  0.1499342E+03  0.7818608E-02  0.1210372E+00
          1   -1    0    0  501    0  0.00000000000E+00  0.00000000000E+00  0.71957451724E+02  0.71957451901E+02  0.50400000000E-02 0. -1.
         -1   -1    0    0    0  501 -0.00000000000E+00 -0.00000000000E+00 -0.27658493048E+03  0.27658493053E+03  0.50400000000E-02 0.  1.
         25    2    1    2    0    0  0.21917549871E+02  0.79843639984E+02 -0.15985934783E+03  0.21916949462E+03  0.12499948178E+03 0.  0.
         23    2    1    2    0    0 -0.21917549871E+02 -0.79843639984E+02 -0.44768130930E+02  0.12937288781E+03  0.88756817852E+02 0.  0.
        -11    1    4    4    0    0  0.58816382171E+01 -0.45513857367E+02  0.20741017855E+02  0.50361639196E+02  0.51100000000E-03 0. -1.
         11    1    4    4    0    0 -0.27799188088E+02 -0.34329782617E+02 -0.65509148785E+02  0.79011248615E+02  0.51100000000E-03 0.  1.
    9000005    1    3    3    0    0  0.55840862786E+02 -0.19292515985E+01 -0.34421122388E+02  0.65633357638E+02  0.10000000000E+01 0.  0.
    9000005    1    3    3    0    0 -0.33923312916E+02  0.81772891583E+02 -0.12543822544E+03  0.15353613698E+03  0.10000000000E+01 0.  0.
<mgrwt>
<rscale>  0 0.14222058E+03</rscale>
<asrwt>0</asrwt>
<pdfrwt beam="1">  1        1 0.11070377E-01 0.14993417E+03</pdfrwt>
<pdfrwt beam="2">  1       -1 0.42551527E-01 0.14993417E+03</pdfrwt>
<totfact> 0.29946487E+03</totfact>
</mgrwt>
</event>
<event>
 8    2  0.7478846E-004  0.1610799E+03  0.7818608E-02  0.1194959E+00
          1   -1    0    0  501    0  0.00000000000E+00  0.00000000000E+00  0.11258237508E+04  0.11258237508E+04  0.50400000000E-02 0. -1.
         -1   -1    0    0    0  501 -0.00000000000E+00 -0.00000000000E+00 -0.21750068815E+02  0.21750069399E+02  0.50400000000E-02 0.  1.
         25    2    1    2    0    0 -0.83620956998E+02  0.57696071953E+02  0.41652747659E+03  0.44658917115E+03  0.12500179147E+03 0.  0.
         23    2    1    2    0    0  0.83620956998E+02 -0.57696071953E+02  0.68754620536E+03  0.70098464902E+03  0.91314798845E+02 0.  0.
        -11    1    4    4    0    0  0.44700312353E+02 -0.45597067590E+02  0.61042659031E+03  0.61375714469E+03  0.51100000000E-03 0. -1.
         11    1    4    4    0    0  0.38920644645E+02 -0.12099004363E+02  0.77119615045E+02  0.87227504327E+02  0.51100000000E-03 0.  1.
    9000005    1    3    3    0    0 -0.22892147230E+02 -0.38785109904E+02  0.15212141335E+03  0.15865137741E+03  0.10000000000E+01 0.  0.
    9000005    1    3    3    0    0 -0.60728809768E+02  0.96481181857E+02  0.26440606323E+03  0.28793779374E+03  0.10000000000E+01 0.  0.
<mgrwt>
<rscale>  0 0.15457675E+03</rscale>
<asrwt>0</asrwt>
<pdfrwt beam="1">  1        1 0.17320363E+00 0.16107995E+03</pdfrwt>
<pdfrwt beam="2">  1       -1 0.33461649E-02 0.16107995E+03</pdfrwt>
<totfact> 0.40921656E+03</totfact>
</mgrwt>
</event>
<event>
 8    2  0.7478846E-004  0.1289910E+03  0.7818608E-02  0.1243177E+00
          1   -1    0    0  501    0  0.00000000000E+00  0.00000000000E+00  0.97662818043E+03  0.97662818044E+03  0.50400000000E-02 0.  1.
         -1   -1    0    0    0  501 -0.00000000000E+00 -0.00000000000E+00 -0.18107265680E+02  0.18107266382E+02  0.50400000000E-02 0. -1.
         25    2    1    2    0    0 -0.60662800676E+01  0.31326771805E+02  0.26707217054E+03  0.29659100931E+03  0.12498206328E+03 0.  0.
         23    2    1    2    0    0  0.60662800676E+01 -0.31326771805E+02  0.69144874421E+03  0.69814443751E+03  0.91028146072E+02 0.  0.
        -11    1    4    4    0    0 -0.38765393946E+02 -0.17907495735E+02  0.46218102503E+03  0.46414947384E+03  0.51100000000E-03 0.  1.
         11    1    4    4    0    0  0.44831674014E+02 -0.13419276070E+02  0.22926771918E+03  0.23399496367E+03  0.51100000000E-03 0. -1.
    9000005    1    3    3    0    0 -0.37404675731E+02 -0.32196011209E+02  0.59766660724E+02  0.77516105671E+02  0.10000000000E+01 0.  0.
    9000005    1    3    3    0    0  0.31338395663E+02  0.63522783014E+02  0.20730550982E+03  0.21907490364E+03  0.10000000000E+01 0.  0.
<mgrwt>
<rscale>  0 0.11995131E+03</rscale>
<asrwt>0</asrwt>
<pdfrwt beam="1">  1        1 0.15025050E+00 0.12899102E+03</pdfrwt>
<pdfrwt beam="2">  1       -1 0.27857331E-02 0.12899102E+03</pdfrwt>
<totfact> 0.67870935E+03</totfact>
</mgrwt>
</event>
<event>
 8    2  0.7478846E-004  0.1328634E+03  0.7818608E-02  0.1236438E+00
          1   -1    0    0  501    0  0.00000000000E+00  0.00000000000E+00  0.14085185301E+03  0.14085185310E+03  0.50400000000E-02 0. -1.
         -1   -1    0    0    0  501 -0.00000000000E+00 -0.00000000000E+00 -0.12970057930E+03  0.12970057940E+03  0.50400000000E-02 0.  1.
         25    2    1    2    0    0  0.42493159877E+02  0.14924186944E+02 -0.61051922850E+02  0.14621904176E+03  0.12499708355E+03 0.  0.
         23    2    1    2    0    0 -0.42493159877E+02 -0.14924186944E+02  0.72203196556E+02  0.12433339074E+03  0.90648168586E+02 0.  0.
        -11    1    4    4    0    0  0.26244849655E+01 -0.24416051318E+02 -0.12754594914E+02  0.27671486678E+02  0.51100000000E-03 0.  1.
         11    1    4    4    0    0 -0.45117644843E+02  0.94918643732E+01  0.84957791470E+02  0.96661904063E+02  0.51100000000E-03 0. -1.
    9000005    1    3    3    0    0  0.56398465630E+02 -0.25764363722E+02 -0.78297006173E+02  0.99879980672E+02  0.10000000000E+01 0.  0.
    9000005    1    3    3    0    0 -0.13905305753E+02  0.40688550667E+02  0.17245083323E+02  0.46339061085E+02  0.10000000000E+01 0.  0.
<mgrwt>
<rscale>  0 0.12412821E+03</rscale>
<asrwt>0</asrwt>
<pdfrwt beam="1">  1        1 0.21669516E-01 0.13286335E+03</pdfrwt>
<pdfrwt beam="2">  1       -1 0.19953935E-01 0.13286335E+03</pdfrwt>
<totfact> 0.44544449E+03</totfact>
</mgrwt>
</event>
<event>
 8    2  0.7478846E-004  0.1838736E+03  0.7818608E-02  0.1169329E+00
          1   -1    0    0  501    0  0.00000000000E+00  0.00000000000E+00  0.62705919999E+02  0.62705920202E+02  0.50400000000E-02 0. -1.
         -1   -1    0    0    0  501 -0.00000000000E+00 -0.00000000000E+00 -0.48411680619E+03  0.48411680621E+03  0.50400000000E-02 0.  1.
         25    2    1    2    0    0  0.20495451163E+02  0.13328344099E+03 -0.19764777969E+03  0.26995212369E+03  0.12499986042E+03 0.  0.
         23    2    1    2    0    0 -0.20495451163E+02 -0.13328344099E+03 -0.22376310649E+03  0.27687060273E+03  0.91667135149E+02 0.  0.
        -11    1    4    4    0    0 -0.61699135153E+01 -0.13727135695E+02 -0.11063145683E+03  0.11165044257E+03  0.51100000000E-03 0.  1.
         11    1    4    4    0    0 -0.14325537648E+02 -0.11955630529E+03 -0.11313164967E+03  0.16522016015E+03  0.51100000000E-03 0. -1.
    9000005    1    3    3    0    0  0.70984377196E+02  0.98516074231E+02 -0.11679212050E+03  0.16848026026E+03  0.10000000000E+01 0.  0.
    9000005    1    3    3    0    0 -0.50488926032E+02  0.34767366757E+02 -0.80855659194E+02  0.10147186342E+03  0.10000000000E+01 0.  0.
<mgrwt>
<rscale>  0 0.17843253E+03</rscale>
<asrwt>0</asrwt>
<pdfrwt beam="1">  1        1 0.96470650E-02 0.18387361E+03</pdfrwt>
<pdfrwt beam="2">  1       -1 0.74479506E-01 0.18387361E+03</pdfrwt>
<totfact> 0.12605628E+03</totfact>
</mgrwt>
</event>
<event>
 8    2  0.7478846E-004  0.1253380E+03  0.7818608E-02  0.1249986E+00
         -1   -1    0    0    0  501 -0.00000000000E+00  0.00000000000E+00  0.38832905725E+02  0.38832906052E+02  0.50400000000E-02 0.  1.
          1   -1    0    0  501    0  0.00000000000E+00 -0.00000000000E+00 -0.35725195804E+03  0.35725195807E+03  0.50400000000E-02 0. -1.
         25    2    1    2    0    0  0.70095954338E+01 -0.59010713768E+01 -0.10395215253E+03  0.16283630357E+03  0.12500261866E+03 0.  0.
         23    2    1    2    0    0 -0.70095954338E+01  0.59010713768E+01 -0.21446689978E+03  0.23324856056E+03  0.91240795858E+02 0.  0.
        -11    1    4    4    0    0  0.73620797893E+01 -0.36097339670E+02 -0.45481100144E+02  0.58529895102E+02  0.51100000000E-03 0.  1.
         11    1    4    4    0    0 -0.14371675223E+02  0.41998411047E+02 -0.16898579964E+03  0.17471866545E+03  0.51100000000E-03 0. -1.
    9000005    1    3    3    0    0  0.48446133792E+01 -0.34364130219E+02 -0.12345916341E+03  0.12824791911E+03  0.10000000000E+01 0.  0.
    9000005    1    3    3    0    0  0.21649820545E+01  0.28463058842E+02  0.19507010882E+02  0.34588384460E+02  0.10000000000E+01 0.  0.
<mgrwt>
<rscale>  0 0.11591885E+03</rscale>
<asrwt>0</asrwt>
<pdfrwt beam="2">  1        1 0.54961837E-01 0.12533799E+03</pdfrwt>
<pdfrwt beam="1">  1       -1 0.59742935E-02 0.12533799E+03</pdfrwt>
<totfact> 0.89016462E+03</totfact>
</mgrwt>
</event>
<event>
 8    2  0.7478846E-004  0.1258128E+03  0.7818608E-02  0.1250663E+00
         -1   -1    0    0    0  501 -0.00000000000E+00  0.00000000000E+00  0.61783995383E+03  0.61783995385E+03  0.50400000000E-02 0.  1.
          1   -1    0    0  501    0  0.00000000000E+00 -0.00000000000E+00 -0.19036868414E+02  0.19036869081E+02  0.50400000000E-02 0. -1.
         25    2    1    2    0    0  0.11958628441E+02 -0.77070596060E+01  0.38777308147E+03  0.40767244944E+03  0.12500582288E+03 0.  0.
         23    2    1    2    0    0 -0.11958628441E+02  0.77070596060E+01  0.21103000394E+03  0.22920437349E+03  0.88309539133E+02 0.  0.
        -11    1    4    4    0    0  0.15955321615E+02 -0.97053860785E+01  0.33978533574E+01  0.18981891751E+02  0.51100000000E-03 0. -1.
         11    1    4    4    0    0 -0.27913950056E+02  0.17412445684E+02  0.20763215058E+03  0.21022248174E+03  0.51100000000E-03 0.  1.
    9000005    1    3    3    0    0 -0.50287172042E+02  0.19894254243E+02  0.12463734436E+03  0.13586776157E+03  0.10000000000E+01 0.  0.
    9000005    1    3    3    0    0  0.62245800483E+02 -0.27601313849E+02  0.26313573711E+03  0.27180468787E+03  0.10000000000E+01 0.  0.
<mgrwt>
<rscale>  0 0.11552782E+03</rscale>
<asrwt>0</asrwt>
<pdfrwt beam="2">  1        1 0.29287490E-02 0.12581281E+03</pdfrwt>
<pdfrwt beam="1">  1       -1 0.95052303E-01 0.12581281E+03</pdfrwt>
<totfact> 0.37959163E+03</totfact>
</mgrwt>
</event>
<event>
 8    2  0.7478846E-004  0.1990373E+03  0.7818608E-02  0.1154959E+00
          1   -1    0    0  501    0  0.00000000000E+00  0.00000000000E+00  0.66369837778E+03  0.66369837780E+03  0.50400000000E-02 0. -1.
         -1   -1    0    0    0  501 -0.00000000000E+00 -0.00000000000E+00 -0.56347993949E+02  0.56347994174E+02  0.50400000000E-02 0.  1.
         25    2    1    2    0    0  0.12998060874E+03  0.84228732824E+02  0.24452414566E+03  0.31529019395E+03  0.12500564189E+03 0.  0.
         23    2    1    2    0    0 -0.12998060874E+03 -0.84228732824E+02  0.36282623817E+03  0.40475617803E+03  0.90527600572E+02 0.  0.
        -11    1    4    4    0    0 -0.87683770282E+02 -0.86516499879E+02  0.18718823953E+03  0.22408254136E+03  0.51100000000E-03 0.  1.
         11    1    4    4    0    0 -0.42296838459E+02  0.22877670548E+01  0.17563799864E+03  0.18067363667E+03  0.51100000000E-03 0. -1.
    9000005    1    3    3    0    0  0.16054963720E+02  0.60151841862E+02  0.15915965364E+03  0.17090582578E+03  0.10000000000E+01 0.  0.
    9000005    1    3    3    0    0  0.11392564502E+03  0.24076890962E+02  0.85364492022E+02  0.14438436816E+03  0.10000000000E+01 0.  0.
<mgrwt>
<rscale>  0 0.19393537E+03</rscale>
<asrwt>0</asrwt>
<pdfrwt beam="1">  1        1 0.10210745E+00 0.19903730E+03</pdfrwt>
<pdfrwt beam="2">  1       -1 0.86689219E-02 0.19903730E+03</pdfrwt>
<totfact> 0.22999576E+03</totfact>
</mgrwt>
</event>
<event>
 8    2  0.7478846E-004  0.1380722E+03  0.7818608E-02  0.1227035E+00
         -1   -1    0    0    0  501 -0.00000000000E+00  0.00000000000E+00  0.30761651883E+02  0.30761652295E+02  0.50400000000E-02 0.  1.
          1   -1    0    0  501    0  0.00000000000E+00 -0.00000000000E+00 -0.51881015364E+03  0.51881015366E+03  0.50400000000E-02 0. -1.
         25    2    1    2    0    0 -0.31116541438E+02 -0.49692822125E+02 -0.21635393246E+03  0.25665725633E+03  0.12500522954E+03 0.  0.
         23    2    1    2    0    0  0.31116541438E+02  0.49692822125E+02 -0.27169456929E+03  0.29291454963E+03  0.92430399115E+02 0.  0.
        -11    1    4    4    0    0  0.14054886284E+02  0.32717505265E+01 -0.22314228346E+03  0.22360841408E+03  0.51100000000E-03 0. -1.
         11    1    4    4    0    0  0.17061655153E+02  0.46421071598E+02 -0.48552285831E+02  0.69306135548E+02  0.51100000000E-03 0.  1.
    9000005    1    3    3    0    0 -0.21356187866E+02 -0.80861162669E+02 -0.77552397962E+02  0.11406133796E+03  0.10000000000E+01 0.  0.
    9000005    1    3    3    0    0 -0.97603535718E+01  0.31168340544E+02 -0.13880153450E+03  0.14259591837E+03  0.10000000000E+01 0.  0.
<mgrwt>
<rscale>  0 0.13028404E+03</rscale>
<asrwt>0</asrwt>
<pdfrwt beam="2">  1        1 0.79816940E-01 0.13807217E+03</pdfrwt>
<pdfrwt beam="1">  1       -1 0.47325622E-02 0.13807217E+03</pdfrwt>
<totfact> 0.78675137E+03</totfact>
</mgrwt>
</event>
<event>
 8    2  0.7478846E-004  0.1356527E+03  0.7818608E-02  0.1232161E+00
          1   -1    0    0  501    0  0.00000000000E+00  0.00000000000E+00  0.74412451874E+02  0.74412452044E+02  0.50400000000E-02 0. -1.
         -1   -1    0    0    0  501 -0.00000000000E+00 -0.00000000000E+00 -0.23519149452E+03  0.23519149458E+03  0.50400000000E-02 0.  1.
         25    2    1    2    0    0  0.45256449533E+02  0.26985955573E+02 -0.23796745704E+02  0.13772419127E+03  0.12500111892E+03 0.  0.
         23    2    1    2    0    0 -0.45256449533E+02 -0.26985955573E+02 -0.13698229694E+03  0.17187975535E+03  0.89454528125E+02 0.  0.
        -11    1    4    4    0    0 -0.29985001950E+02 -0.52959369991E+02 -0.12578833999E+03  0.13973725949E+03  0.51100000000E-03 0.  1.
         11    1    4    4    0    0 -0.15271447584E+02  0.25973414418E+02 -0.11193956952E+02  0.32142495864E+02  0.51100000000E-03 0. -1.
    9000005    1    3    3    0    0 -0.18716787194E+02  0.59333784435E+02 -0.22031031119E+02  0.66008957199E+02  0.10000000000E+01 0.  0.
    9000005    1    3    3    0    0  0.63973236727E+02 -0.32347828862E+02 -0.17657145858E+01  0.71715234068E+02  0.10000000000E+01 0.  0.
<mgrwt>
<rscale>  0 0.12687944E+03</rscale>
<asrwt>0</asrwt>
<pdfrwt beam="1">  1        1 0.11448070E-01 0.13565275E+03</pdfrwt>
<pdfrwt beam="2">  1       -1 0.36183306E-01 0.13565275E+03</pdfrwt>
<totfact> 0.37842310E+03</totfact>
</mgrwt>
</event>
<event>
 8    2  0.7478846E-004  0.1396125E+03  0.7818608E-02  0.1223800E+00
         -1   -1    0    0    0  501 -0.00000000000E+00  0.00000000000E+00  0.53774791998E+02  0.53774792234E+02  0.50400000000E-02 0.  1.
          1   -1    0    0  501    0  0.00000000000E+00 -0.00000000000E+00 -0.41739658743E+03  0.41739658746E+03  0.50400000000E-02 0. -1.
         25    2    1    2    0    0 -0.57291683361E+02 -0.24189381822E+02 -0.32121972551E+03  0.35024814836E+03  0.12499676073E+03 0.  0.
         23    2    1    2    0    0  0.57291683361E+02  0.24189381822E+02 -0.42402069923E+02  0.12092323134E+03  0.94641582664E+02 0.  0.
        -11    1    4    4    0    0  0.48908765621E+02  0.51729711766E+02 -0.18782788165E+01  0.71214874609E+02  0.51100000000E-03 0.  1.
         11    1    4    4    0    0  0.83829177402E+01 -0.27540329944E+02 -0.40523791106E+02  0.49708356733E+02  0.51100000000E-03 0. -1.
    9000005    1    3    3    0    0  0.73494052417E+01 -0.24634995341E+02 -0.25981018721E+03  0.26108088810E+03  0.10000000000E+01 0.  0.
    9000005    1    3    3    0    0 -0.64641088603E+02  0.44561351907E+00 -0.61409538304E+02  0.89167260258E+02  0.10000000000E+01 0.  0.
<mgrwt>
<rscale>  0 0.13249463E+03</rscale>
<asrwt>0</asrwt>
<pdfrwt beam="2">  1        1 0.64214858E-01 0.13961251E+03</pdfrwt>
<pdfrwt beam="1">  1       -1 0.82730452E-02 0.13961251E+03</pdfrwt>
<totfact> 0.45249892E+03</totfact>
</mgrwt>
</event>
<event>
 8    2  0.7478846E-004  0.1605461E+03  0.7818608E-02  0.1196649E+00
         -1   -1    0    0    0  501 -0.00000000000E+00  0.00000000000E+00  0.97017327247E+02  0.97017327378E+02  0.50400000000E-02 0.  1.
          1   -1    0    0  501    0  0.00000000000E+00 -0.00000000000E+00 -0.22364814904E+03  0.22364814910E+03  0.50400000000E-02 0. -1.
         25    2    1    2    0    0  0.35880079408E+02 -0.94137365584E+02 -0.55470040406E+02  0.16985869777E+03  0.12500331247E+03 0.  0.
         23    2    1    2    0    0 -0.35880079408E+02  0.94137365584E+02 -0.71160781391E+02  0.15080677871E+03  0.86773290821E+02 0.  0.
        -11    1    4    4    0    0 -0.41128642678E+02  0.76139262016E+02 -0.10329297667E+02  0.87151860906E+02  0.51100000000E-03 0. -1.
         11    1    4    4    0    0  0.52485632700E+01  0.17998103567E+02 -0.60831483724E+02  0.63654917805E+02  0.51100000000E-03 0.  1.
    9000005    1    3    3    0    0 -0.44265010575E+02 -0.43407949123E+02 -0.39898482959E+02  0.73732829531E+02  0.10000000000E+01 0.  0.
    9000005    1    3    3    0    0  0.80145089983E+02 -0.50729416460E+02 -0.15571557447E+02  0.96125868236E+02  0.10000000000E+01 0.  0.
<mgrwt>
<rscale>  0 0.15315512E+03</rscale>
<asrwt>0</asrwt>
<pdfrwt beam="2">  1        1 0.34407408E-01 0.16054610E+03</pdfrwt>
<pdfrwt beam="1">  1       -1 0.14925743E-01 0.16054610E+03</pdfrwt>
<totfact> 0.39989845E+03</totfact>
</mgrwt>
</event>
<event>
 8    2  0.7478846E-004  0.1362908E+03  0.7818608E-02  0.1230229E+00
         -1   -1    0    0    0  501 -0.00000000000E+00  0.00000000000E+00  0.15792894185E+02  0.15792894989E+02  0.50400000000E-02 0.  1.
          1   -1    0    0  501    0  0.00000000000E+00 -0.00000000000E+00 -0.13081641272E+04  0.13081641273E+04  0.50400000000E-02 0. -1.
         25    2    1    2    0    0 -0.11513087007E+01  0.54291838090E+02 -0.35025513444E+03  0.37583751312E+03  0.12500499141E+03 0.  0.
         23    2    1    2    0    0  0.11513087007E+01 -0.54291838090E+02 -0.94211609862E+03  0.94811950912E+03  0.91645682365E+02 0.  0.
        -11    1    4    4    0    0 -0.30822658610E+02 -0.33565294585E+02 -0.78965796938E+03  0.79097179083E+03  0.51100000000E-03 0. -1.
         11    1    4    4    0    0  0.31973967310E+02 -0.20726543505E+02 -0.15245812924E+03  0.15714771828E+03  0.51100000000E-03 0.  1.
    9000005    1    3    3    0    0  0.42186632879E+02  0.76243798340E+02 -0.20817742666E+03  0.22568045939E+03  0.10000000000E+01 0.  0.
    9000005    1    3    3    0    0 -0.43337941580E+02 -0.21951960250E+02 -0.14207770777E+03  0.15015705373E+03  0.10000000000E+01 0.  0.
<mgrwt>
<rscale>  0 0.12814867E+03</rscale>
<asrwt>0</asrwt>
<pdfrwt beam="2">  1        1 0.20125593E+00 0.13629078E+03</pdfrwt>
<pdfrwt beam="1">  1       -1 0.24296771E-02 0.13629078E+03</pdfrwt>
<totfact> 0.48711490E+03</totfact>
</mgrwt>
</event>
<event>
 8    2  0.7478846E-004  0.2033719E+03  0.7818608E-02  0.1150956E+00
         -1   -1    0    0    0  501 -0.00000000000E+00  0.00000000000E+00  0.87704505720E+02  0.87704505864E+02  0.50400000000E-02 0.  1.
          1   -1    0    0  501    0  0.00000000000E+00 -0.00000000000E+00 -0.43265386937E+03  0.43265386939E+03  0.50400000000E-02 0. -1.
         25    2    1    2    0    0  0.15423175158E+03  0.44137543110E+02 -0.15856762887E+03  0.25788338944E+03  0.12499837486E+03 0.  0.
         23    2    1    2    0    0 -0.15423175158E+03 -0.44137543110E+02 -0.18638173478E+03  0.26247498582E+03  0.91757349644E+02 0.  0.
        -11    1    4    4    0    0 -0.11200582872E+02  0.23504538575E+02 -0.33837012665E+02  0.42694962426E+02  0.51100000000E-03 0. -1.
         11    1    4    4    0    0 -0.14303116871E+03 -0.67642081684E+02 -0.15254472211E+03  0.21978002339E+03  0.51100000000E-03 0.  1.
    9000005    1    3    3    0    0  0.50700802193E+02  0.11074800054E+02  0.14162871841E+02  0.53803433701E+02  0.10000000000E+01 0.  0.
    9000005    1    3    3    0    0  0.10353094939E+03  0.33062743055E+02 -0.17273050071E+03  0.20407995574E+03  0.10000000000E+01 0.  0.
<mgrwt>
<rscale>  0 0.19856378E+03</rscale>
<asrwt>0</asrwt>
<pdfrwt beam="2">  1        1 0.66562132E-01 0.20337195E+03</pdfrwt>
<pdfrwt beam="1">  1       -1 0.13493001E-01 0.20337195E+03</pdfrwt>
<totfact> 0.20636214E+03</totfact>
</mgrwt>
</event>
<event>
 8    2  0.7478846E-004  0.1336905E+03  0.7818608E-02  0.1234932E+00
          1   -1    0    0  501    0  0.00000000000E+00  0.00000000000E+00  0.11754039829E+03  0.11754039840E+03  0.50400000000E-02 0. -1.
         -1   -1    0    0    0  501 -0.00000000000E+00 -0.00000000000E+00 -0.13105639995E+03  0.13105640005E+03  0.50400000000E-02 0.  1.
         25    2    1    2    0    0  0.37405653014E+02  0.29136938152E+02 -0.45561714421E+02  0.14124098226E+03  0.12500000483E+03 0.  0.
         23    2    1    2    0    0 -0.37405653014E+02 -0.29136938152E+02  0.32045712757E+02  0.10735581619E+03  0.90830608941E+02 0.  0.
        -11    1    4    4    0    0 -0.30418568069E+02 -0.78456109264E+01 -0.28736207015E+02  0.42574786999E+02  0.51100000000E-03 0.  1.
         11    1    4    4    0    0 -0.69870849451E+01 -0.21291327225E+02  0.60781919772E+02  0.64781029187E+02  0.51100000000E-03 0. -1.
    9000005    1    3    3    0    0 -0.29348861405E+02 -0.28777913707E+02  0.14351662973E+01  0.41141021930E+02  0.10000000000E+01 0.  0.
    9000005    1    3    3    0    0  0.66754514419E+02  0.57914851859E+02 -0.46996880719E+02  0.10009996033E+03  0.10000000000E+01 0.  0.
<mgrwt>
<rscale>  0 0.12508795E+03</rscale>
<asrwt>0</asrwt>
<pdfrwt beam="1">  1        1 0.18083138E-01 0.13369048E+03</pdfrwt>
<pdfrwt beam="2">  1       -1 0.20162523E-01 0.13369048E+03</pdfrwt>
<totfact> 0.55156658E+03</totfact>
</mgrwt>
</event>
<event>
 8    2  0.7478846E-004  0.1317495E+03  0.7818608E-02  0.1238627E+00
          1   -1    0    0  501    0  0.00000000000E+00  0.00000000000E+00  0.95279173465E+03  0.95279173466E+03  0.50400000000E-02 0. -1.
         -1   -1    0    0    0  501 -0.00000000000E+00 -0.00000000000E+00 -0.14800873600E+02  0.14800874458E+02  0.50400000000E-02 0.  1.
         25    2    1    2    0    0  0.19506054763E+02  0.36761381969E+02  0.42019881179E+03  0.44036912034E+03  0.12500414130E+03 0.  0.
         23    2    1    2    0    0 -0.19506054763E+02 -0.36761381969E+02  0.51779204926E+03  0.52722348878E+03  0.90133875270E+02 0.  0.
        -11    1    4    4    0    0  0.11891094005E+02  0.25409473889E+02  0.10969010472E+03  0.11322083975E+03  0.51100000000E-03 0.  1.
         11    1    4    4    0    0 -0.31397148769E+02 -0.62170855858E+02  0.40810194454E+03  0.41400264903E+03  0.51100000000E-03 0. -1.
    9000005    1    3    3    0    0  0.58192228381E+02  0.53661165627E+02  0.34651350763E+03  0.35544122877E+03  0.10000000000E+01 0.  0.
    9000005    1    3    3    0    0 -0.38686173618E+02 -0.16899783658E+02  0.73685304159E+02  0.84927891567E+02  0.10000000000E+01 0.  0.
<mgrwt>
<rscale>  0 0.12275077E+03</rscale>
<asrwt>0</asrwt>
<pdfrwt beam="1">  1        1 0.14658330E+00 0.13174946E+03</pdfrwt>
<pdfrwt beam="2">  1       -1 0.22770582E-02 0.13174946E+03</pdfrwt>
<totfact> 0.94775624E+03</totfact>
</mgrwt>
</event>
<event>
 8    2  0.7478846E-004  0.1524745E+03  0.7818608E-02  0.1205958E+00
          1   -1    0    0  501    0  0.00000000000E+00  0.00000000000E+00  0.26966807091E+03  0.26966807095E+03  0.50400000000E-02 0. -1.
         -1   -1    0    0    0  501 -0.00000000000E+00 -0.00000000000E+00 -0.77166744508E+02  0.77166744673E+02  0.50400000000E-02 0.  1.
         25    2    1    2    0    0  0.63148039261E+02 -0.60299929355E+02  0.61305402236E+02  0.16433751149E+03  0.12499883599E+03 0.  0.
         23    2    1    2    0    0 -0.63148039261E+02  0.60299929355E+02  0.13119592416E+03  0.18249730413E+03  0.92027925957E+02 0.  0.
        -11    1    4    4    0    0  0.23208210827E+02  0.21032209183E+02  0.41033509138E+02  0.51620962267E+02  0.51100000000E-03 0. -1.
         11    1    4    4    0    0 -0.86356250088E+02  0.39267720171E+02  0.90162415023E+02  0.13087634186E+03  0.51100000000E-03 0.  1.
    9000005    1    3    3    0    0  0.74295189772E+01 -0.87278047404E+02  0.19832019842E+02  0.89816280941E+02  0.10000000000E+01 0.  0.
    9000005    1    3    3    0    0  0.55718520283E+02  0.26978118050E+02  0.41473382394E+02  0.74521230554E+02  0.10000000000E+01 0.  0.
<mgrwt>
<rscale>  0 0.14562205E+03</rscale>
<asrwt>0</asrwt>
<pdfrwt beam="1">  1        1 0.41487395E-01 0.15247447E+03</pdfrwt>
<pdfrwt beam="2">  1       -1 0.11871807E-01 0.15247447E+03</pdfrwt>
<totfact> 0.45169735E+03</totfact>
</mgrwt>
</event>
<event>
 8    2  0.7478846E-004  0.1611322E+03  0.7818608E-02  0.1195051E+00
         -1   -1    0    0    0  501 -0.00000000000E+00  0.00000000000E+00  0.26789855931E+03  0.26789855936E+03  0.50400000000E-02 0.  1.
          1   -1    0    0  501    0  0.00000000000E+00 -0.00000000000E+00 -0.14069200824E+03  0.14069200833E+03  0.50400000000E-02 0. -1.
         25    2    1    2    0    0 -0.98728206104E+02  0.24325631927E+02  0.19785313186E+03  0.25516556104E+03  0.12499842681E+03 0.  0.
         23    2    1    2    0    0  0.98728206104E+02 -0.24325631927E+02 -0.70646580799E+02  0.15342500665E+03  0.90605177760E+02 0.  0.
        -11    1    4    4    0    0  0.18191655411E+02  0.31501142878E+02 -0.84034757995E+01  0.37334658630E+02  0.51100000000E-03 0.  1.
         11    1    4    4    0    0  0.80536550693E+02 -0.55826774805E+02 -0.62243104999E+02  0.11609034802E+03  0.51100000000E-03 0. -1.
    9000005    1    3    3    0    0 -0.12600992674E+03  0.18591763272E+02  0.18459971680E+03  0.22428154347E+03  0.10000000000E+01 0.  0.
    9000005    1    3    3    0    0  0.27281720634E+02  0.57338686547E+01  0.13253415060E+02  0.30884017570E+02  0.10000000000E+01 0.  0.
<mgrwt>
<rscale>  0 0.15449871E+03</rscale>
<asrwt>0</asrwt>
<pdfrwt beam="2">  1        1 0.21644925E-01 0.16113225E+03</pdfrwt>
<pdfrwt beam="1">  1       -1 0.41215162E-01 0.16113225E+03</pdfrwt>
<totfact> 0.13319933E+03</totfact>
</mgrwt>
</event>
<event>
 8    2  0.7478846E-004  0.1290416E+03  0.7818608E-02  0.1242853E+00
         -1   -1    0    0    0  501 -0.00000000000E+00  0.00000000000E+00  0.18581973795E+04  0.18581973795E+04  0.50400000000E-02 0.  1.
          1   -1    0    0  501    0  0.00000000000E+00 -0.00000000000E+00 -0.69282782129E+01  0.69282800461E+01  0.50400000000E-02 0. -1.
         25    2    1    2    0    0  0.31529156145E+02 -0.57071028825E+01  0.11383760883E+04  0.11456665586E+04  0.12500034611E+03 0.  0.
         23    2    1    2    0    0 -0.31529156145E+02  0.57071028825E+01  0.71289301304E+03  0.71945910094E+03  0.91533005899E+02 0.  0.
        -11    1    4    4    0    0 -0.45090934309E+02 -0.21624886123E+02  0.61234443146E+03  0.61438304891E+03  0.51100000000E-03 0.  1.
         11    1    4    4    0    0  0.13561778164E+02  0.27331989006E+02  0.10054858158E+03  0.10507605202E+03  0.51100000000E-03 0. -1.
    9000005    1    3    3    0    0 -0.12849996610E+02 -0.45794982476E+02  0.20806325140E+03  0.21343293892E+03  0.10000000000E+01 0.  0.
    9000005    1    3    3    0    0  0.44379152755E+02  0.40087879594E+02  0.93031283686E+03  0.93223361971E+03  0.10000000000E+01 0.  0.
<mgrwt>
<rscale>  0 0.12014812E+03</rscale>
<asrwt>0</asrwt>
<pdfrwt beam="2">  1        1 0.10658887E-02 0.12904164E+03</pdfrwt>
<pdfrwt beam="1">  1       -1 0.28587662E+00 0.12904164E+03</pdfrwt>
<totfact> 0.69080315E+02</totfact>
</mgrwt>
</event>
<event>
 8    2  0.7478846E-004  0.1369564E+03  0.7818608E-02  0.1229266E+00
          1   -1    0    0  501    0  0.00000000000E+00  0.00000000000E+00  0.18410600837E+03  0.18410600843E+03  0.50400000000E-02 0. -1.
         -1   -1    0    0    0  501 -0.00000000000E+00 -0.00000000000E+00 -0.89546017137E+02  0.89546017279E+02  0.50400000000E-02 0.  1.
         25    2    1    2    0    0  0.61242769418E+01 -0.55631782257E+02  0.94794100132E+02  0.16656223368E+03  0.12499861721E+03 0.  0.
         23    2    1    2    0    0 -0.61242769418E+01  0.55631782257E+02 -0.23410890328E+00  0.10708979203E+03  0.91300420510E+02 0.  0.
        -11    1    4    4    0    0 -0.37761107135E+02  0.25577021381E+02 -0.29709210983E+02  0.54430896118E+02  0.51100000000E-03 0.  1.
         11    1    4    4    0    0  0.31636830193E+02  0.30054760875E+02  0.29475102079E+02  0.52658895913E+02  0.51100000000E-03 0. -1.
    9000005    1    3    3    0    0 -0.44330877073E+02 -0.38030657519E+02  0.96819161944E+02  0.11307744113E+03  0.10000000000E+01 0.  0.
    9000005    1    3    3    0    0  0.50455154015E+02 -0.17601124738E+02 -0.20250618128E+01  0.53484792550E+02  0.10000000000E+01 0.  0.
<mgrwt>
<rscale>  0 0.12878744E+03</rscale>
<asrwt>0</asrwt>
<pdfrwt beam="1">  1        1 0.28324001E-01 0.13695640E+03</pdfrwt>
<pdfrwt beam="2">  1       -1 0.13776310E-01 0.13695640E+03</pdfrwt>
<totfact> 0.57243626E+03</totfact>
</mgrwt>
</event>
<event>
 8    2  0.7478846E-004  0.1407182E+03  0.7818608E-02  0.1236378E+00
          1   -1    0    0  501    0  0.00000000000E+00  0.00000000000E+00  0.59557906176E+02  0.59557906390E+02  0.50400000000E-02 0. -1.
         -1   -1    0    0    0  501 -0.00000000000E+00 -0.00000000000E+00 -0.24117336904E+03  0.24117336909E+03  0.50400000000E-02 0.  1.
         25    2    1    2    0    0  0.40905113127E+01 -0.64585250942E+02 -0.61894870067E+02  0.15372893644E+03  0.12495448786E+03 0.  0.
         23    2    1    2    0    0 -0.40905113127E+01  0.64585250942E+02 -0.11972059279E+03  0.14700233903E+03  0.55575897843E+02 0.  0.
        -11    1    4    4    0    0 -0.21126356256E+02  0.63539255814E+02 -0.84073546569E+02  0.10747986412E+03  0.51100000000E-03 0. -1.
         11    1    4    4    0    0  0.17035844944E+02  0.10459951281E+01 -0.35647046223E+02  0.39522474915E+02  0.51100000000E-03 0.  1.
    9000005    1    3    3    0    0 -0.42666321781E+02  0.17203239673E+02 -0.26391721992E+02  0.53046106919E+02  0.10000000000E+01 0.  0.
    9000005    1    3    3    0    0  0.46756833093E+02 -0.81788490615E+02 -0.35503148075E+02  0.10068282953E+03  0.10000000000E+01 0.  0.
<mgrwt>
<rscale>  0 0.12416645E+03</rscale>
<asrwt>0</asrwt>
<pdfrwt beam="1">  1        1 0.91627550E-02 0.14071820E+03</pdfrwt>
<pdfrwt beam="2">  1       -1 0.37103595E-01 0.14071820E+03</pdfrwt>
<totfact> 0.48773592E+03</totfact>
</mgrwt>
</event>
<event>
 8    2  0.7478846E-004  0.1276557E+03  0.7818608E-02  0.1246053E+00
         -1   -1    0    0    0  501 -0.00000000000E+00  0.00000000000E+00  0.44640962804E+02  0.44640963088E+02  0.50400000000E-02 0.  1.
          1   -1    0    0  501    0  0.00000000000E+00 -0.00000000000E+00 -0.34676313258E+03  0.34676313262E+03  0.50400000000E-02 0. -1.
         25    2    1    2    0    0 -0.16501432909E+02  0.19978739768E+02 -0.81052314267E+02  0.15121325507E+03  0.12499809410E+03 0.  0.
         23    2    1    2    0    0  0.16501432909E+02 -0.19978739768E+02 -0.22106985551E+03  0.24019084064E+03  0.90267998653E+02 0.  0.
        -11    1    4    4    0    0 -0.36654781165E+02 -0.51699561286E+01 -0.67129515727E+02  0.76659463282E+02  0.51100000000E-03 0.  1.
         11    1    4    4    0    0  0.53156214074E+02 -0.14808783639E+02 -0.15394033978E+03  0.16353137736E+03  0.51100000000E-03 0. -1.
    9000005    1    3    3    0    0 -0.44058834240E+02 -0.36575098315E+02 -0.64291252233E+02  0.86100428600E+02  0.10000000000E+01 0.  0.
    9000005    1    3    3    0    0  0.27557401331E+02  0.56553838083E+02 -0.16761062034E+02  0.65112826468E+02  0.10000000000E+01 0.  0.
<mgrwt>
<rscale>  0 0.11822578E+03</rscale>
<asrwt>0</asrwt>
<pdfrwt beam="2">  1        1 0.53348172E-01 0.12765567E+03</pdfrwt>
<pdfrwt beam="1">  1       -1 0.68678407E-02 0.12765567E+03</pdfrwt>
<totfact> 0.75145186E+03</totfact>
</mgrwt>
</event>
<event>
 8    2  0.7478846E-004  0.1555914E+03  0.7818608E-02  0.1201837E+00
          1   -1    0    0  501    0  0.00000000000E+00  0.00000000000E+00  0.25049809038E+04  0.25049809038E+04  0.50400000000E-02 0. -1.
         -1   -1    0    0    0  501 -0.00000000000E+00 -0.00000000000E+00 -0.81928466017E+01  0.81928481519E+01  0.50400000000E-02 0.  1.
         25    2    1    2    0    0 -0.90364955431E+02  0.20448540729E+02  0.12883514849E+04  0.12977126904E+04  0.12499884088E+03 0.  0.
         23    2    1    2    0    0  0.90364955431E+02 -0.20448540729E+02  0.12084365723E+04  0.12154610615E+04  0.91884029511E+02 0.  0.
        -11    1    4    4    0    0  0.78241003825E+02  0.11668368836E+02  0.50234340238E+03  0.50853387245E+03  0.51100000000E-03 0.  1.
         11    1    4    4    0    0  0.12123951606E+02 -0.32116909565E+02  0.70609316990E+03  0.70692718908E+03  0.51100000000E-03 0. -1.
    9000005    1    3    3    0    0 -0.29723305042E+02  0.70774147507E+02  0.62761303747E+03  0.63229073979E+03  0.10000000000E+01 0.  0.
    9000005    1    3    3    0    0 -0.60641650389E+02 -0.50325606778E+02  0.66073844740E+03  0.66542195060E+03  0.10000000000E+01 0.  0.
<mgrwt>
<rscale>  0 0.14889506E+03</rscale>
<asrwt>0</asrwt>
<pdfrwt beam="1">  1        1 0.38538207E+00 0.15559138E+03</pdfrwt>
<pdfrwt beam="2">  1       -1 0.12604368E-02 0.15559138E+03</pdfrwt>
<totfact> 0.21271273E+03</totfact>
</mgrwt>
</event>
<event>
 8    2  0.7478846E-004  0.1443520E+03  0.7818608E-02  0.1217007E+00
          1   -1    0    0  501    0  0.00000000000E+00  0.00000000000E+00  0.15438569660E+03  0.15438569668E+03  0.50400000000E-02 0. -1.
         -1   -1    0    0    0  501 -0.00000000000E+00 -0.00000000000E+00 -0.16158178202E+03  0.16158178209E+03  0.50400000000E-02 0.  1.
         25    2    1    2    0    0 -0.13792600400E+02 -0.70866529053E+02  0.83731897016E+02  0.16687877270E+03  0.12500077373E+03 0.  0.
         23    2    1    2    0    0  0.13792600400E+02  0.70866529053E+02 -0.90927982435E+02  0.14908870608E+03  0.93526699525E+02 0.  0.
        -11    1    4    4    0    0  0.97191477130E+01  0.26321336650E+00  0.17275635897E+02  0.19823690611E+02  0.51100000000E-03 0. -1.
         11    1    4    4    0    0  0.40734526867E+01  0.70603315687E+02 -0.10820361833E+03  0.12926501547E+03  0.51100000000E-03 0.  1.
    9000005    1    3    3    0    0  0.59942420314E+01  0.35480030196E+02  0.17360729788E+02  0.39964464453E+02  0.10000000000E+01 0.  0.
    9000005    1    3    3    0    0 -0.19786842431E+02 -0.10634655925E+03  0.66371167227E+02  0.12691430824E+03  0.10000000000E+01 0.  0.
<mgrwt>
<rscale>  0 0.13730172E+03</rscale>
<asrwt>0</asrwt>
<pdfrwt beam="1">  1        1 0.23751645E-01 0.14435198E+03</pdfrwt>
<pdfrwt beam="2">  1       -1 0.24858736E-01 0.14435198E+03</pdfrwt>
<totfact> 0.27884647E+03</totfact>
</mgrwt>
</event>
<event>
 8    2  0.7478846E-004  0.1290599E+03  0.7818608E-02  0.1242874E+00
          1   -1    0    0  501    0  0.00000000000E+00  0.00000000000E+00  0.70441268698E+03  0.70441268699E+03  0.50400000000E-02 0. -1.
         -1   -1    0    0    0  501 -0.00000000000E+00 -0.00000000000E+00 -0.18457732265E+02  0.18457732953E+02  0.50400000000E-02 0.  1.
         25    2    1    2    0    0  0.24745817719E+02 -0.20474483896E+02  0.34251535268E+03  0.36602351559E+03  0.12499954864E+03 0.  0.
         23    2    1    2    0    0 -0.24745817719E+02  0.20474483896E+02  0.34343960203E+03  0.35684690436E+03  0.91418777714E+02 0.  0.
        -11    1    4    4    0    0 -0.55627865288E+01  0.49369731764E+02  0.28156499782E+03  0.28591460789E+03  0.51100000000E-03 0. -1.
         11    1    4    4    0    0 -0.19183031190E+02 -0.28895247868E+02  0.61874604218E+02  0.70932296470E+02  0.51100000000E-03 0.  1.
    9000005    1    3    3    0    0 -0.85625261439E+01 -0.69208966529E+02  0.17346948597E+03  0.18696486425E+03  0.10000000000E+01 0.  0.
    9000005    1    3    3    0    0  0.33308343863E+02  0.48734482633E+02  0.16904586671E+03  0.17905865134E+03  0.10000000000E+01 0.  0.
<mgrwt>
<rscale>  0 0.12013527E+03</rscale>
<asrwt>0</asrwt>
<pdfrwt beam="1">  1        1 0.10837117E+00 0.12905986E+03</pdfrwt>
<pdfrwt beam="2">  1       -1 0.28396514E-02 0.12905986E+03</pdfrwt>
<totfact> 0.10894680E+04</totfact>
</mgrwt>
</event>
<event>
 8    2  0.7478846E-004  0.1551238E+03  0.7818608E-02  0.1203457E+00
          1   -1    0    0  501    0  0.00000000000E+00  0.00000000000E+00  0.26666457606E+03  0.26666457611E+03  0.50400000000E-02 0. -1.
         -1   -1    0    0    0  501 -0.00000000000E+00 -0.00000000000E+00 -0.76107078902E+02  0.76107079069E+02  0.50400000000E-02 0.  1.
         25    2    1    2    0    0  0.91464958603E+02  0.85337226582E+01  0.81305877375E+02  0.17514003318E+03  0.12499888981E+03 0.  0.
         23    2    1    2    0    0 -0.91464958603E+02 -0.85337226582E+01  0.10925161978E+03  0.16763162199E+03  0.87896423088E+02 0.  0.
        -11    1    4    4    0    0  0.84572273992E+01 -0.92169825622E+01  0.49825324437E+02  0.51371591549E+02  0.51100000000E-03 0. -1.
         11    1    4    4    0    0 -0.99922186003E+02  0.68325990402E+00  0.59426295345E+02  0.11626003044E+03  0.51100000000E-03 0.  1.
    9000005    1    3    3    0    0  0.21137867597E+02  0.62394475945E+02  0.42651047618E+02  0.78485616121E+02  0.10000000000E+01 0.  0.
    9000005    1    3    3    0    0  0.70327091007E+02 -0.53860753287E+02  0.38654829757E+02  0.96654417062E+02  0.10000000000E+01 0.  0.
<mgrwt>
<rscale>  0 0.14759746E+03</rscale>
<asrwt>0</asrwt>
<pdfrwt beam="1">  1        1 0.41025319E-01 0.15512377E+03</pdfrwt>
<pdfrwt beam="2">  1       -1 0.11708781E-01 0.15512377E+03</pdfrwt>
<totfact> 0.46834948E+03</totfact>
</mgrwt>
</event>
<event>
 8    2  0.7478846E-004  0.2372119E+03  0.7818608E-02  0.1125613E+00
         -1   -1    0    0    0  501 -0.00000000000E+00  0.00000000000E+00  0.35597951582E+03  0.35597951586E+03  0.50400000000E-02 0.  1.
          1   -1    0    0  501    0  0.00000000000E+00 -0.00000000000E+00 -0.15721787917E+03  0.15721787926E+03  0.50400000000E-02 0. -1.
         25    2    1    2    0    0 -0.19675433131E+03 -0.43930979998E+02  0.17914722873E+03  0.29725951960E+03  0.12500917783E+03 0.  0.
         23    2    1    2    0    0  0.19675433131E+03  0.43930979998E+02  0.19614407923E+02  0.21593787551E+03  0.74848134188E+02 0.  0.
        -11    1    4    4    0    0  0.23493624578E+02  0.32508300534E+02 -0.55349082425E+01  0.40489198670E+02  0.51100000000E-03 0.  1.
         11    1    4    4    0    0  0.17326070673E+03  0.11422679465E+02  0.25149316165E+02  0.17544867684E+03  0.51100000000E-03 0. -1.
    9000005    1    3    3    0    0 -0.70305075990E+02  0.16177105130E+02  0.13035415969E+03  0.14898895727E+03  0.10000000000E+01 0.  0.
    9000005    1    3    3    0    0 -0.12644925532E+03 -0.60108085129E+02  0.48793069035E+02  0.14827056233E+03  0.10000000000E+01 0.  0.
<mgrwt>
<rscale>  0 0.23146473E+03</rscale>
<asrwt>0</asrwt>
<pdfrwt beam="2">  1        1 0.24187366E-01 0.23721191E+03</pdfrwt>
<pdfrwt beam="1">  1       -1 0.54766079E-01 0.23721191E+03</pdfrwt>
<totfact> 0.69221964E+02</totfact>
</mgrwt>
</event>
<event>
 8    2  0.7478846E-004  0.1960564E+03  0.7818608E-02  0.1157686E+00
          1   -1    0    0  501    0  0.00000000000E+00  0.00000000000E+00  0.44132173885E+03  0.44132173888E+03  0.50400000000E-02 0. -1.
         -1   -1    0    0    0  501 -0.00000000000E+00 -0.00000000000E+00 -0.10775821797E+03  0.10775821809E+03  0.50400000000E-02 0.  1.
         25    2    1    2    0    0  0.10693585624E+03  0.10666696966E+03  0.31631316046E+03  0.37214528626E+03  0.12499991536E+03 0.  0.
         23    2    1    2    0    0 -0.10693585624E+03 -0.10666696966E+03  0.17250360426E+02  0.17693467070E+03  0.90527250017E+02 0.  0.
        -11    1    4    4    0    0 -0.21600334880E+02  0.12408176699E+02 -0.11835529200E+02  0.27579286931E+02  0.51100000000E-03 0.  1.
         11    1    4    4    0    0 -0.85335521364E+02 -0.11907514636E+03  0.29085889626E+02  0.14935538377E+03  0.51100000000E-03 0. -1.
    9000005    1    3    3    0    0  0.97948691484E+02  0.83930883374E+02  0.12618599349E+03  0.18045011582E+03  0.10000000000E+01 0.  0.
    9000005    1    3    3    0    0  0.89871647604E+01  0.22736086283E+02  0.19012716697E+03  0.19169517044E+03  0.10000000000E+01 0.  0.
<mgrwt>
<rscale>  0 0.19086244E+03</rscale>
<asrwt>0</asrwt>
<pdfrwt beam="1">  1        1 0.67895652E-01 0.19605637E+03</pdfrwt>
<pdfrwt beam="2">  1       -1 0.16578187E-01 0.19605637E+03</pdfrwt>
<totfact> 0.14512043E+03</totfact>
</mgrwt>
</event>
<event>
 8    2  0.7478846E-004  0.1313503E+03  0.7818608E-02  0.1238578E+00
          1   -1    0    0  501    0  0.00000000000E+00  0.00000000000E+00  0.36845720940E+03  0.36845720943E+03  0.50400000000E-02 0. -1.
         -1   -1    0    0    0  501 -0.00000000000E+00 -0.00000000000E+00 -0.39003976149E+02  0.39003976475E+02  0.50400000000E-02 0.  1.
         25    2    1    2    0    0 -0.14475302120E+02  0.37671989974E+02  0.13320126913E+03  0.18707080195E+03  0.12499677453E+03 0.  0.
         23    2    1    2    0    0  0.14475302120E+02 -0.37671989974E+02  0.19625196412E+03  0.22039038396E+03  0.91806180192E+02 0.  0.
        -11    1    4    4    0    0 -0.10198479073E+02  0.20362412280E+02  0.12201834474E+02  0.25836438881E+02  0.51100000000E-03 0.  1.
         11    1    4    4    0    0  0.24673781193E+02 -0.58034402253E+02  0.18405012965E+03  0.19455394508E+03  0.51100000000E-03 0. -1.
    9000005    1    3    3    0    0 -0.22046104175E+02  0.80474363587E+02  0.63246799763E+02  0.10470583357E+03  0.10000000000E+01 0.  0.
    9000005    1    3    3    0    0  0.75708020550E+01 -0.42802373614E+02  0.69954469366E+02  0.82364968372E+02  0.10000000000E+01 0.  0.
<mgrwt>
<rscale>  0 0.12278134E+03</rscale>
<asrwt>0</asrwt>
<pdfrwt beam="1">  1        1 0.56685723E-01 0.13135032E+03</pdfrwt>
<pdfrwt beam="2">  1       -1 0.60006119E-02 0.13135032E+03</pdfrwt>
<totfact> 0.85381947E+03</totfact>
</mgrwt>
</event>
<event>
 8    2  0.7478846E-004  0.1319845E+03  0.7818608E-02  0.1237952E+00
         -1   -1    0    0    0  501 -0.00000000000E+00  0.00000000000E+00  0.13883461306E+02  0.13883462220E+02  0.50400000000E-02 0.  1.
          1   -1    0    0  501    0  0.00000000000E+00 -0.00000000000E+00 -0.97003557481E+03  0.97003557482E+03  0.50400000000E-02 0. -1.
         25    2    1    2    0    0  0.25806335523E+01 -0.42266452992E+02 -0.54343185124E+03  0.55922991391E+03  0.12500722762E+03 0.  0.
         23    2    1    2    0    0 -0.25806335523E+01  0.42266452992E+02 -0.41272026226E+03  0.42468912313E+03  0.90717824613E+02 0.  0.
        -11    1    4    4    0    0  0.20977652180E+02  0.49938414953E+02 -0.12928675541E+03  0.14017479197E+03  0.51100000000E-03 0.  1.
         11    1    4    4    0    0 -0.23558285732E+02 -0.76719619609E+01 -0.28343350686E+03  0.28451433116E+03  0.51100000000E-03 0. -1.
    9000005    1    3    3    0    0  0.27688818113E+02 -0.80905026569E+02 -0.37277989631E+03  0.38246325976E+03  0.10000000000E+01 0.  0.
    9000005    1    3    3    0    0 -0.25108184560E+02  0.38638573576E+02 -0.17065195493E+03  0.17676665415E+03  0.10000000000E+01 0.  0.
<mgrwt>
<rscale>  0 0.12317317E+03</rscale>
<asrwt>0</asrwt>
<pdfrwt beam="2">  1        1 0.14923619E+00 0.13198454E+03</pdfrwt>
<pdfrwt beam="1">  1       -1 0.21359180E-02 0.13198454E+03</pdfrwt>
<totfact> 0.10093814E+04</totfact>
</mgrwt>
</event>
<event>
 8    2  0.7478846E-004  0.1729962E+03  0.7818608E-02  0.1181228E+00
          1   -1    0    0  501    0  0.00000000000E+00  0.00000000000E+00  0.74098868383E+02  0.74098868555E+02  0.50400000000E-02 0. -1.
         -1   -1    0    0    0  501 -0.00000000000E+00 -0.00000000000E+00 -0.36498355757E+03  0.36498355760E+03  0.50400000000E-02 0.  1.
         25    2    1    2    0    0 -0.94612652454E+02 -0.73152496527E+02 -0.11262802851E+03  0.20642858095E+03  0.12499937789E+03 0.  0.
         23    2    1    2    0    0  0.94612652454E+02  0.73152496527E+02 -0.17825666067E+03  0.23265384521E+03  0.89719188949E+02 0.  0.
        -11    1    4    4    0    0  0.95449662074E+02  0.41218311993E+02 -0.85692283993E+02  0.13473215937E+03  0.51100000000E-03 0.  1.
         11    1    4    4    0    0 -0.83700962007E+00  0.31934184534E+02 -0.92564376680E+02  0.97921685839E+02  0.51100000000E-03 0. -1.
    9000005    1    3    3    0    0 -0.85601778568E+02 -0.46565402082E+02 -0.13775444859E+03  0.16874030127E+03  0.10000000000E+01 0.  0.
    9000005    1    3    3    0    0 -0.90108738857E+01 -0.26587094445E+02  0.25126420078E+02  0.37688279679E+02  0.10000000000E+01 0.  0.
<mgrwt>
<rscale>  0 0.16679879E+03</rscale>
<asrwt>0</asrwt>
<pdfrwt beam="1">  1        1 0.11399826E-01 0.17299620E+03</pdfrwt>
<pdfrwt beam="2">  1       -1 0.56151316E-01 0.17299620E+03</pdfrwt>
<totfact> 0.17464296E+03</totfact>
</mgrwt>
</event>
<event>
 8    2  0.7478846E-004  0.1261413E+03  0.7818608E-02  0.1248411E+00
         -1   -1    0    0    0  501 -0.00000000000E+00  0.00000000000E+00  0.66535812069E+01  0.66535831157E+01  0.50400000000E-02 0.  1.
          1   -1    0    0  501    0  0.00000000000E+00 -0.00000000000E+00 -0.20177189138E+04  0.20177189138E+04  0.50400000000E-02 0. -1.
         25    2    1    2    0    0 -0.16746530534E+02 -0.22369959187E+01 -0.14698310330E+04  0.14752338424E+04  0.12500469506E+03 0.  0.
         23    2    1    2    0    0  0.16746530534E+02  0.22369959187E+01 -0.54123429955E+03  0.54913865447E+03  0.91286605734E+02 0.  0.
        -11    1    4    4    0    0 -0.23617450977E+02 -0.11233579001E+02 -0.53485465195E+02  0.59537150378E+02  0.51100000000E-03 0.  1.
         11    1    4    4    0    0  0.40363981511E+02  0.13470574919E+02 -0.48774883436E+03  0.48960150409E+03  0.51100000000E-03 0. -1.
    9000005    1    3    3    0    0 -0.27974667470E+02  0.33357436967E+02 -0.19277961731E+03  0.19763674119E+03  0.10000000000E+01 0.  0.
    9000005    1    3    3    0    0  0.11228136937E+02 -0.35594432885E+02 -0.12770514157E+04  0.12775971012E+04  0.10000000000E+01 0.  0.
<mgrwt>
<rscale>  0 0.11683505E+03</rscale>
<asrwt>0</asrwt>
<pdfrwt beam="2">  1        1 0.31041781E+00 0.12614129E+03</pdfrwt>
<pdfrwt beam="1">  1       -1 0.10236296E-02 0.12614129E+03</pdfrwt>
<totfact> 0.58802691E+03</totfact>
</mgrwt>
</event>
<event>
 8    2  0.7478846E-004  0.1340975E+03  0.7818608E-02  0.1233036E+00
          1   -1    0    0  501    0  0.00000000000E+00  0.00000000000E+00  0.11386973650E+03  0.11386973661E+03  0.50400000000E-02 0. -1.
         -1   -1    0    0    0  501 -0.00000000000E+00 -0.00000000000E+00 -0.13720460406E+03  0.13720460416E+03  0.50400000000E-02 0.  1.
         25    2    1    2    0    0  0.29574922480E+02 -0.38502450822E+02 -0.48429095192E+02  0.14257460531E+03  0.12500010424E+03 0.  0.
         23    2    1    2    0    0 -0.29574922480E+02  0.38502450822E+02  0.25094227628E+02  0.10849973546E+03  0.93730238318E+02 0.  0.
        -11    1    4    4    0    0 -0.10850104951E+02 -0.26894476362E+02  0.28136808122E+02  0.40406900497E+02  0.51100000000E-03 0. -1.
         11    1    4    4    0    0 -0.18724817529E+02  0.65396927184E+02 -0.30425804936E+01  0.68092834961E+02  0.51100000000E-03 0.  1.
    9000005    1    3    3    0    0  0.69667348124E+02 -0.42532539442E+02 -0.27809107946E+01  0.81677963802E+02  0.10000000000E+01 0.  0.
    9000005    1    3    3    0    0 -0.40092425644E+02  0.40300886204E+01 -0.45648184397E+02  0.60896641509E+02  0.10000000000E+01 0.  0.
<mgrwt>
<rscale>  0 0.12631014E+03</rscale>
<asrwt>0</asrwt>
<pdfrwt beam="1">  1        1 0.17518421E-01 0.13409750E+03</pdfrwt>
<pdfrwt beam="2">  1       -1 0.21108401E-01 0.13409750E+03</pdfrwt>
<totfact> 0.53366579E+03</totfact>
</mgrwt>
</event>
<event>
 8    2  0.7478846E-004  0.1782465E+03  0.7818608E-02  0.1175052E+00
         -1   -1    0    0    0  501 -0.00000000000E+00  0.00000000000E+00  0.46177803675E+02  0.46177803950E+02  0.50400000000E-02 0.  1.
          1   -1    0    0  501    0  0.00000000000E+00 -0.00000000000E+00 -0.62664921477E+03  0.62664921479E+03  0.50400000000E-02 0. -1.
         25    2    1    2    0    0 -0.11594431169E+03  0.51997712024E+02 -0.36460074300E+03  0.40583929090E+03  0.12499993109E+03 0.  0.
         23    2    1    2    0    0  0.11594431169E+03 -0.51997712024E+02 -0.21587066809E+03  0.26698772784E+03  0.92387531645E+02 0.  0.
        -11    1    4    4    0    0  0.75338232231E+01 -0.15341291603E+02 -0.10924218617E+03  0.11057110364E+03  0.51100000000E-03 0. -1.
         11    1    4    4    0    0  0.10841048847E+03 -0.36656420421E+02 -0.10662848192E+03  0.15641662420E+03  0.51100000000E-03 0.  1.
    9000005    1    3    3    0    0 -0.85820498332E+02  0.31612123846E+02 -0.88227446730E+02  0.12708094532E+03  0.10000000000E+01 0.  0.
    9000005    1    3    3    0    0 -0.30123813361E+02  0.20385588177E+02 -0.27637329627E+03  0.27875834558E+03  0.10000000000E+01 0.  0.
<mgrwt>
<rscale>  0 0.17270863E+03</rscale>
<asrwt>0</asrwt>
<pdfrwt beam="2">  1        1 0.96407565E-01 0.17824654E+03</pdfrwt>
<pdfrwt beam="1">  1       -1 0.71042780E-02 0.17824654E+03</pdfrwt>
<totfact> 0.33641367E+03</totfact>
</mgrwt>
</event>
<event>
 8    2  0.7478846E-004  0.1511782E+03  0.7818608E-02  0.1208110E+00
         -1   -1    0    0    0  501 -0.00000000000E+00  0.00000000000E+00  0.31943151989E+03  0.31943151993E+03  0.50400000000E-02 0.  1.
          1   -1    0    0  501    0  0.00000000000E+00 -0.00000000000E+00 -0.61840283347E+02  0.61840283553E+02  0.50400000000E-02 0. -1.
         25    2    1    2    0    0  0.29475241833E+02  0.79752486841E+02  0.17870569674E+03  0.23407388453E+03  0.12500243330E+03 0.  0.
         23    2    1    2    0    0 -0.29475241833E+02 -0.79752486841E+02  0.78885539794E+02  0.14719791895E+03  0.90636912546E+02 0.  0.
        -11    1    4    4    0    0 -0.40923643643E+02 -0.84061059853E+01  0.58924866953E+02  0.72232590792E+02  0.51100000000E-03 0.  1.
         11    1    4    4    0    0  0.11448401810E+02 -0.71346380855E+02  0.19960672842E+02  0.74965328157E+02  0.51100000000E-03 0. -1.
    9000005    1    3    3    0    0  0.42803679044E+02 -0.21040470110E+02  0.74639955913E+02  0.88583177527E+02  0.10000000000E+01 0.  0.
    9000005    1    3    3    0    0 -0.13328437211E+02  0.10079295695E+03  0.10406574083E+03  0.14549070700E+03  0.10000000000E+01 0.  0.
<mgrwt>
<rscale>  0 0.14395043E+03</rscale>
<asrwt>0</asrwt>
<pdfrwt beam="2">  1        1 0.95138896E-02 0.15117823E+03</pdfrwt>
<pdfrwt beam="1">  1       -1 0.49143312E-01 0.15117823E+03</pdfrwt>
<totfact> 0.28271148E+03</totfact>
</mgrwt>
</event>
<event>
 8    2  0.7478846E-004  0.1937232E+03  0.7818608E-02  0.1159619E+00
         -1   -1    0    0    0  501 -0.00000000000E+00  0.00000000000E+00  0.46440370512E+02  0.46440370785E+02  0.50400000000E-02 0.  1.
          1   -1    0    0  501    0  0.00000000000E+00 -0.00000000000E+00 -0.93906284340E+03  0.93906284341E+03  0.50400000000E-02 0. -1.
         25    2    1    2    0    0  0.97298914147E+02 -0.11151847038E+03 -0.23208999327E+03  0.30231511885E+03  0.12500087273E+03 0.  0.
         23    2    1    2    0    0 -0.97298914147E+02  0.11151847038E+03 -0.66053247962E+03  0.68318809534E+03  0.92408706601E+02 0.  0.
        -11    1    4    4    0    0 -0.55439888642E+02  0.74801129425E+02 -0.21640970502E+03  0.23558851976E+03  0.51100000000E-03 0.  1.
         11    1    4    4    0    0 -0.41859025505E+02  0.36717340951E+02 -0.44412277459E+03  0.44759957558E+03  0.51100000000E-03 0. -1.
    9000005    1    3    3    0    0  0.10097136013E+03 -0.10715565054E+03 -0.24630981591E+03  0.28696179959E+03  0.10000000000E+01 0.  0.
    9000005    1    3    3    0    0 -0.36724459811E+01 -0.43628198369E+01  0.14219822645E+02  0.15353319265E+02  0.10000000000E+01 0.  0.
<mgrwt>
<rscale>  0 0.18872167E+03</rscale>
<asrwt>0</asrwt>
<pdfrwt beam="2">  1        1 0.14447119E+00 0.19372317E+03</pdfrwt>
<pdfrwt beam="1">  1       -1 0.71446732E-02 0.19372317E+03</pdfrwt>
<totfact> 0.18175266E+03</totfact>
</mgrwt>
</event>
<event>
 8    2  0.7478846E-004  0.1584153E+03  0.7818608E-02  0.1198138E+00
         -1   -1    0    0    0  501 -0.00000000000E+00  0.00000000000E+00  0.43573535908E+02  0.43573536200E+02  0.50400000000E-02 0.  1.
          1   -1    0    0  501    0  0.00000000000E+00 -0.00000000000E+00 -0.50048941054E+03  0.50048941056E+03  0.50400000000E-02 0. -1.
         25    2    1    2    0    0  0.78470066392E+02 -0.57555603647E+02 -0.20888705051E+03  0.26216258189E+03  0.12500088255E+03 0.  0.
         23    2    1    2    0    0 -0.78470066392E+02  0.57555603647E+02 -0.24802882412E+03  0.28190036488E+03  0.92083219392E+02 0.  0.
        -11    1    4    4    0    0 -0.74422825197E+02  0.38729066973E+02 -0.91302031054E+02  0.12399499350E+03  0.51100000000E-03 0.  1.
         11    1    4    4    0    0 -0.40472411958E+01  0.18826536673E+02 -0.15672679306E+03  0.15790537137E+03  0.51100000000E-03 0. -1.
    9000005    1    3    3    0    0  0.57867771115E+02 -0.39911233708E+02 -0.22509932931E+02  0.73819256231E+02  0.10000000000E+01 0.  0.
    9000005    1    3    3    0    0  0.20602295277E+02 -0.17644369939E+02 -0.18637711758E+03  0.18834332566E+03  0.10000000000E+01 0.  0.
<mgrwt>
<rscale>  0 0.15191635E+03</rscale>
<asrwt>0</asrwt>
<pdfrwt beam="2">  1        1 0.76998367E-01 0.15841534E+03</pdfrwt>
<pdfrwt beam="1">  1       -1 0.67036213E-02 0.15841534E+03</pdfrwt>
<totfact> 0.49483700E+03</totfact>
</mgrwt>
</event>
<event>
 8    2  0.7478846E-004  0.1419846E+03  0.7818608E-02  0.1221206E+00
          1   -1    0    0  501    0  0.00000000000E+00  0.00000000000E+00  0.47503381454E+03  0.47503381456E+03  0.50400000000E-02 0. -1.
         -1   -1    0    0    0  501 -0.00000000000E+00 -0.00000000000E+00 -0.35386301405E+02  0.35386301764E+02  0.50400000000E-02 0.  1.
         25    2    1    2    0    0 -0.52888086433E+02 -0.41687307774E+02  0.28593659022E+03  0.31924810226E+03  0.12499854340E+03 0.  0.
         23    2    1    2    0    0  0.52888086433E+02  0.41687307774E+02  0.15371092291E+03  0.19117201407E+03  0.91568061166E+02 0.  0.
        -11    1    4    4    0    0 -0.12755738152E+02 -0.36297764013E+01 -0.44878628091E+01  0.14000894449E+02  0.51100000000E-03 0.  1.
         11    1    4    4    0    0  0.65643824585E+02  0.45317084175E+02  0.15819878572E+03  0.17717111962E+03  0.51100000000E-03 0. -1.
    9000005    1    3    3    0    0 -0.23244673687E+02 -0.29505021263E+02  0.28469033169E+03  0.28715926956E+03  0.10000000000E+01 0.  0.
    9000005    1    3    3    0    0 -0.29643412746E+02 -0.12182286511E+02  0.12462585325E+01  0.32088832702E+02  0.10000000000E+01 0.  0.
<mgrwt>
<rscale>  0 0.13430351E+03</rscale>
<asrwt>0</asrwt>
<pdfrwt beam="1">  1        1 0.73082123E-01 0.14198457E+03</pdfrwt>
<pdfrwt beam="2">  1       -1 0.54440466E-02 0.14198457E+03</pdfrwt>
<totfact> 0.71845005E+03</totfact>
</mgrwt>
</event>
<event>
 8    2  0.7478846E-004  0.1266214E+03  0.7818608E-02  0.1248745E+00
         -1   -1    0    0    0  501 -0.00000000000E+00  0.00000000000E+00  0.21350467208E+03  0.21350467214E+03  0.50400000000E-02 0.  1.
          1   -1    0    0  501    0  0.00000000000E+00 -0.00000000000E+00 -0.60997869089E+02  0.60997869297E+02  0.50400000000E-02 0. -1.
         25    2    1    2    0    0  0.12352198689E+02 -0.15963343805E+02  0.12809997879E+03  0.18011824684E+03  0.12500229246E+03 0.  0.
         23    2    1    2    0    0 -0.12352198689E+02  0.15963343805E+02  0.24406824195E+02  0.94384294595E+02  0.88911736238E+02 0.  0.
        -11    1    4    4    0    0  0.36958393133E+01  0.42330434986E+02  0.41250303373E+02  0.59220878775E+02  0.51100000000E-03 0.  1.
         11    1    4    4    0    0 -0.16048038002E+02 -0.26367091180E+02 -0.16843479178E+02  0.35163415819E+02  0.51100000000E-03 0. -1.
    9000005    1    3    3    0    0 -0.30922832640E+02 -0.78735414904E+01 -0.11348323093E+02  0.33882129081E+02  0.10000000000E+01 0.  0.
    9000005    1    3    3    0    0  0.43275031328E+02 -0.80898023151E+01  0.13944830189E+03  0.14623611776E+03  0.10000000000E+01 0.  0.
<mgrwt>
<rscale>  0 0.11664016E+03</rscale>
<asrwt>0</asrwt>
<pdfrwt beam="2">  1        1 0.93842878E-02 0.12662140E+03</pdfrwt>
<pdfrwt beam="1">  1       -1 0.32846872E-01 0.12662140E+03</pdfrwt>
<totfact> 0.57810845E+03</totfact>
</mgrwt>
</event>
<event>
 8    2  0.7478846E-004  0.1463319E+03  0.7818608E-02  0.1214602E+00
          1   -1    0    0  501    0  0.00000000000E+00  0.00000000000E+00  0.83715524639E+02  0.83715524791E+02  0.50400000000E-02 0. -1.
         -1   -1    0    0    0  501 -0.00000000000E+00 -0.00000000000E+00 -0.25886503323E+03  0.25886503327E+03  0.50400000000E-02 0.  1.
         25    2    1    2    0    0  0.72732532088E+01  0.75737880624E+02 -0.21298957523E+02  0.14787381472E+03  0.12499557078E+03 0.  0.
         23    2    1    2    0    0 -0.72732532088E+01 -0.75737880624E+02 -0.15385055106E+03  0.19470674335E+03  0.91932568057E+02 0.  0.
        -11    1    4    4    0    0  0.43019996457E+00  0.12470681093E+02  0.45141253715E+01  0.13269524749E+02  0.51100000000E-03 0. -1.
         11    1    4    4    0    0 -0.77034531733E+01 -0.88208561717E+02 -0.15836467643E+03  0.18143721860E+03  0.51100000000E-03 0.  1.
    9000005    1    3    3    0    0  0.37314941789E+02  0.76329211224E+02  0.28570782376E+02  0.89642863477E+02  0.10000000000E+01 0.  0.
    9000005    1    3    3    0    0 -0.30041688580E+02 -0.59133060060E+00 -0.49869739900E+02  0.58230951240E+02  0.10000000000E+01 0.  0.
<mgrwt>
<rscale>  0 0.13905792E+03</rscale>
<asrwt>0</asrwt>
<pdfrwt beam="1">  1        1 0.12879312E-01 0.14633188E+03</pdfrwt>
<pdfrwt beam="2">  1       -1 0.39825389E-01 0.14633188E+03</pdfrwt>
<totfact> 0.27548957E+03</totfact>
</mgrwt>
</event>
<event>
 8    2  0.7478846E-004  0.1271350E+03  0.7818608E-02  0.1245652E+00
          1   -1    0    0  501    0  0.00000000000E+00  0.00000000000E+00  0.25281421838E+03  0.25281421843E+03  0.50400000000E-02 0. -1.
         -1   -1    0    0    0  501 -0.00000000000E+00 -0.00000000000E+00 -0.57978331910E+02  0.57978332129E+02  0.50400000000E-02 0.  1.
         25    2    1    2    0    0  0.36679955251E+01 -0.22907969514E+02  0.16908791342E+03  0.21155145494E+03  0.12500026546E+03 0.  0.
         23    2    1    2    0    0 -0.36679955251E+01  0.22907969514E+02  0.25747973055E+02  0.99241095624E+02  0.92992514138E+02 0.  0.
        -11    1    4    4    0    0 -0.32666114750E+02  0.19205401370E+02 -0.21583698956E+02  0.43609386094E+02  0.51100000000E-03 0.  1.
         11    1    4    4    0    0  0.28998119225E+02  0.37025681446E+01  0.47331672012E+02  0.55631709529E+02  0.51100000000E-03 0. -1.
    9000005    1    3    3    0    0  0.11045157091E+02  0.29253105383E+02  0.15342627195E+03  0.15658339821E+03  0.10000000000E+01 0.  0.
    9000005    1    3    3    0    0 -0.73771615662E+01 -0.52161074897E+02  0.15661641465E+02  0.54968056729E+02  0.10000000000E+01 0.  0.
<mgrwt>
<rscale>  0 0.11846459E+03</rscale>
<asrwt>0</asrwt>
<pdfrwt beam="1">  1        1 0.38894497E-01 0.12713495E+03</pdfrwt>
<pdfrwt beam="2">  1       -1 0.89197430E-02 0.12713495E+03</pdfrwt>
<totfact> 0.74917051E+03</totfact>
</mgrwt>
</event>
<event>
 8    2  0.7478846E-004  0.1305445E+03  0.7818608E-02  0.1240005E+00
         -1   -1    0    0    0  501 -0.00000000000E+00  0.00000000000E+00  0.12991394257E+02  0.12991395234E+02  0.50400000000E-02 0.  1.
          1   -1    0    0  501    0  0.00000000000E+00 -0.00000000000E+00 -0.10562287852E+04  0.10562287852E+04  0.50400000000E-02 0. -1.
         25    2    1    2    0    0 -0.58685931989E+01  0.37186841161E+02 -0.48660901372E+03  0.50381563664E+03  0.12499824778E+03 0.  0.
         23    2    1    2    0    0  0.58685931989E+01 -0.37186841161E+02 -0.55662837725E+03  0.56540454383E+03  0.91814194345E+02 0.  0.
        -11    1    4    4    0    0  0.21455197817E+02 -0.39531750873E+02 -0.54211718459E+03  0.54397989546E+03  0.51100000000E-03 0. -1.
         11    1    4    4    0    0 -0.15586604618E+02  0.23449097118E+01 -0.14511192666E+02  0.21424648373E+02  0.51100000000E-03 0.  1.
    9000005    1    3    3    0    0 -0.16721814204E+02  0.68197986246E+02 -0.15021626826E+03  0.16582072140E+03  0.10000000000E+01 0.  0.
    9000005    1    3    3    0    0  0.10853221005E+02 -0.31011145085E+02 -0.33639274546E+03  0.33799491523E+03  0.10000000000E+01 0.  0.
<mgrwt>
<rscale>  0 0.12189411E+03</rscale>
<asrwt>0</asrwt>
<pdfrwt beam="2">  1        1 0.16249667E+00 0.13054449E+03</pdfrwt>
<pdfrwt beam="1">  1       -1 0.19986770E-02 0.13054449E+03</pdfrwt>
<totfact> 0.96094814E+03</totfact>
</mgrwt>
</event>
<event>
 8    2  0.7478846E-004  0.1262899E+03  0.7818608E-02  0.1248791E+00
         -1   -1    0    0    0  501 -0.00000000000E+00  0.00000000000E+00  0.55045463891E+01  0.55045486964E+01  0.50400000000E-02 0.  1.
          1   -1    0    0  501    0  0.00000000000E+00 -0.00000000000E+00 -0.23802897563E+04  0.23802897563E+04  0.50400000000E-02 0. -1.
         25    2    1    2    0    0 -0.17695391177E+02  0.32639043800E+01 -0.17162527414E+04  0.17208929669E+04  0.12500140557E+03 0.  0.
         23    2    1    2    0    0  0.17695391177E+02 -0.32639043800E+01 -0.65853246852E+03  0.66490133806E+03  0.90027758603E+02 0.  0.
        -11    1    4    4    0    0 -0.17424188024E+02 -0.27979358578E+02 -0.11376345202E+03  0.11844226379E+03  0.51100000000E-03 0.  1.
         11    1    4    4    0    0  0.35119579202E+02  0.24715454198E+02 -0.54476901650E+03  0.54645907427E+03  0.51100000000E-03 0. -1.
    9000005    1    3    3    0    0 -0.30993709918E+02 -0.56157957894E+02 -0.75980038096E+03  0.76250373455E+03  0.10000000000E+01 0.  0.
    9000005    1    3    3    0    0  0.13298318740E+02  0.59421862274E+02 -0.95645236040E+03  0.95838923237E+03  0.10000000000E+01 0.  0.
<mgrwt>
<rscale>  0 0.11661300E+03</rscale>
<asrwt>0</asrwt>
<pdfrwt beam="2">  1        1 0.36619760E+00 0.12628987E+03</pdfrwt>
<pdfrwt beam="1">  1       -1 0.84685537E-03 0.12628987E+03</pdfrwt>
<totfact> 0.45176126E+03</totfact>
</mgrwt>
</event>
<event>
 8    2  0.7478846E-004  0.1379096E+03  0.7818608E-02  0.1227702E+00
          1   -1    0    0  501    0  0.00000000000E+00  0.00000000000E+00  0.80553118179E+02  0.80553118337E+02  0.50400000000E-02 0. -1.
         -1   -1    0    0    0  501 -0.00000000000E+00 -0.00000000000E+00 -0.19175529532E+03  0.19175529539E+03  0.50400000000E-02 0.  1.
         25    2    1    2    0    0 -0.43628582329E+02  0.38610748525E+02 -0.80591292328E+02  0.15973104307E+03  0.12499922649E+03 0.  0.
         23    2    1    2    0    0  0.43628582329E+02 -0.38610748525E+02 -0.30610884812E+02  0.11257737065E+03  0.91336712314E+02 0.  0.
        -11    1    4    4    0    0  0.39183294008E+02 -0.17737327335E+02 -0.61490756371E+02  0.75040365335E+02  0.51100000000E-03 0.  1.
         11    1    4    4    0    0  0.44452883213E+01 -0.20873421190E+02  0.30879871559E+02  0.37537005317E+02  0.51100000000E-03 0. -1.
    9000005    1    3    3    0    0 -0.41554016416E+02  0.52861444642E+02 -0.10887979461E+03  0.12797217777E+03  0.10000000000E+01 0.  0.
    9000005    1    3    3    0    0 -0.20745659130E+01 -0.14250696117E+02  0.28288502282E+02  0.31758865296E+02  0.10000000000E+01 0.  0.
<mgrwt>
<rscale>  0 0.12983410E+03</rscale>
<asrwt>0</asrwt>
<pdfrwt beam="1">  1        1 0.12392787E-01 0.13790957E+03</pdfrwt>
<pdfrwt beam="2">  1       -1 0.29500815E-01 0.13790957E+03</pdfrwt>
<totfact> 0.48297378E+03</totfact>
</mgrwt>
</event>
<event>
 8    2  0.7478846E-004  0.1667218E+03  0.7818608E-02  0.1189651E+00
          1   -1    0    0  501    0  0.00000000000E+00  0.00000000000E+00  0.10976025707E+04  0.10976025707E+04  0.50400000000E-02 0. -1.
         -1   -1    0    0    0  501 -0.00000000000E+00 -0.00000000000E+00 -0.23972258730E+02  0.23972259259E+02  0.50400000000E-02 0.  1.
         25    2    1    2    0    0  0.14477510872E+02 -0.10936541398E+03  0.39129778884E+03  0.42533530204E+03  0.12500307001E+03 0.  0.
         23    2    1    2    0    0 -0.14477510872E+02  0.10936541398E+03  0.68233252313E+03  0.69623952793E+03  0.83674464660E+02 0.  0.
        -11    1    4    4    0    0  0.10410412492E+02  0.48032779556E+02  0.11504298904E+03  0.12510161441E+03  0.51100000000E-03 0.  1.
         11    1    4    4    0    0 -0.24887923364E+02  0.61332634429E+02  0.56728953408E+03  0.57113791352E+03  0.51100000000E-03 0. -1.
    9000005    1    3    3    0    0  0.19255003278E+02 -0.13546994494E+03  0.35419385954E+03  0.37970666477E+03  0.10000000000E+01 0.  0.
    9000005    1    3    3    0    0 -0.47774924056E+01  0.26104530951E+02  0.37103929296E+02  0.45628637269E+02  0.10000000000E+01 0.  0.
<mgrwt>
<rscale>  0 0.15915753E+03</rscale>
<asrwt>0</asrwt>
<pdfrwt beam="1">  1        1 0.16886198E+00 0.16672180E+03</pdfrwt>
<pdfrwt beam="2">  1       -1 0.36880389E-02 0.16672180E+03</pdfrwt>
<totfact> 0.37172618E+03</totfact>
</mgrwt>
</event>
<event>
 8    2  0.7478846E-004  0.1695419E+03  0.7818608E-02  0.1184913E+00
          1   -1    0    0  501    0  0.00000000000E+00  0.00000000000E+00  0.18069323024E+03  0.18069323031E+03  0.50400000000E-02 0. -1.
         -1   -1    0    0    0  501 -0.00000000000E+00 -0.00000000000E+00 -0.14340874926E+03  0.14340874935E+03  0.50400000000E-02 0.  1.
         25    2    1    2    0    0 -0.72632157393E+02 -0.88518367272E+02  0.51376149767E+02  0.17715522619E+03  0.12503413042E+03 0.  0.
         23    2    1    2    0    0  0.72632157393E+02  0.88518367272E+02 -0.14091668787E+02  0.14694675348E+03  0.91015611826E+02 0.  0.
        -11    1    4    4    0    0  0.74898700913E+02  0.94253068096E+02 -0.34818000114E+02  0.12532258127E+03  0.51100000000E-03 0.  1.
         11    1    4    4    0    0 -0.22665435199E+01 -0.57347008241E+01  0.20726331327E+02  0.21624172206E+02  0.51100000000E-03 0. -1.
    9000005    1    3    3    0    0 -0.16489152688E+02 -0.11218747695E+02  0.75927279938E+02  0.78509262479E+02  0.10000000000E+01 0.  0.
    9000005    1    3    3    0    0 -0.56143004705E+02 -0.77299619576E+02 -0.24551130171E+02  0.98645963712E+02  0.10000000000E+01 0.  0.
<mgrwt>
<rscale>  0 0.16339784E+03</rscale>
<asrwt>0</asrwt>
<pdfrwt beam="1">  1        1 0.27798958E-01 0.16954193E+03</pdfrwt>
<pdfrwt beam="2">  1       -1 0.22062885E-01 0.16954193E+03</pdfrwt>
<totfact> 0.28004330E+03</totfact>
</mgrwt>
</event>
<event>
 8    2  0.7478846E-004  0.1260681E+03  0.7818608E-02  0.1250878E+00
          1   -1    0    0  501    0  0.00000000000E+00  0.00000000000E+00  0.15653083752E+02  0.15653084563E+02  0.50400000000E-02 0. -1.
         -1   -1    0    0    0  501 -0.00000000000E+00 -0.00000000000E+00 -0.74345065685E+03  0.74345065686E+03  0.50400000000E-02 0.  1.
         25    2    1    2    0    0  0.14636346828E+02  0.72247734676E+01 -0.38818785723E+03  0.40814578331E+03  0.12500699155E+03 0.  0.
         23    2    1    2    0    0 -0.14636346828E+02 -0.72247734676E+01 -0.33960971587E+03  0.35095795812E+03  0.87007524119E+02 0.  0.
        -11    1    4    4    0    0  0.25278588647E+02 -0.44711498164E+01 -0.26549687158E+03  0.26673505027E+03  0.51100000000E-03 0.  1.
         11    1    4    4    0    0 -0.39914935475E+02 -0.27536236512E+01 -0.74112844293E+02  0.84222907849E+02  0.51100000000E-03 0. -1.
    9000005    1    3    3    0    0  0.31503662874E+02 -0.25023254243E+02 -0.35963028004E+03  0.36187509219E+03  0.10000000000E+01 0.  0.
    9000005    1    3    3    0    0 -0.16867316045E+02  0.32248027710E+02 -0.28557577185E+02  0.46270691117E+02  0.10000000000E+01 0.  0.
<mgrwt>
<rscale>  0 0.11540398E+03</rscale>
<asrwt>0</asrwt>
<pdfrwt beam="1">  1        1 0.24081674E-02 0.12606811E+03</pdfrwt>
<pdfrwt beam="2">  1       -1 0.11437700E+00 0.12606811E+03</pdfrwt>
<totfact> 0.32965420E+03</totfact>
</mgrwt>
</event>
<event>
 8    2  0.7478846E-004  0.1417937E+03  0.7818608E-02  0.1223602E+00
          1   -1    0    0  501    0  0.00000000000E+00  0.00000000000E+00  0.14780071757E+03  0.14780071765E+03  0.50400000000E-02 0. -1.
         -1   -1    0    0    0  501 -0.00000000000E+00 -0.00000000000E+00 -0.11684904640E+03  0.11684904651E+03  0.50400000000E-02 0.  1.
         25    2    1    2    0    0 -0.41334994197E+02  0.52589672345E+02 -0.22646964349E+02  0.14359087134E+03  0.12502478936E+03 0.  0.
         23    2    1    2    0    0  0.41334994197E+02 -0.52589672345E+02  0.53598635516E+02  0.12105889282E+03  0.85487931428E+02 0.  0.
        -11    1    4    4    0    0  0.22869187852E+02 -0.64868296877E+02  0.66074876213E+01  0.69098151825E+02  0.51100000000E-03 0.  1.
         11    1    4    4    0    0  0.18465806346E+02  0.12278624532E+02  0.46991147895E+02  0.51960740998E+02  0.51100000000E-03 0. -1.
    9000005    1    3    3    0    0  0.37136344452E+01 -0.16892443007E+02  0.37453832420E+02  0.41266636336E+02  0.10000000000E+01 0.  0.
    9000005    1    3    3    0    0 -0.45048628642E+02  0.69482115352E+02 -0.60100796769E+02  0.10232423500E+03  0.10000000000E+01 0.  0.
<mgrwt>
<rscale>  0 0.13263163E+03</rscale>
<asrwt>0</asrwt>
<pdfrwt beam="1">  1        1 0.22738572E-01 0.14179370E+03</pdfrwt>
<pdfrwt beam="2">  1       -1 0.17976776E-01 0.14179370E+03</pdfrwt>
<totfact> 0.49710304E+03</totfact>
</mgrwt>
</event>
<event>
 8    2  0.7478846E-004  0.1419094E+03  0.7818608E-02  0.1222708E+00
          1   -1    0    0  501    0  0.00000000000E+00  0.00000000000E+00  0.23906553232E+03  0.23906553237E+03  0.50400000000E-02 0. -1.
         -1   -1    0    0    0  501 -0.00000000000E+00 -0.00000000000E+00 -0.66563468185E+02  0.66563468376E+02  0.50400000000E-02 0.  1.
         25    2    1    2    0    0 -0.23435247961E+02  0.62976304371E+02  0.93738337975E+02  0.17007398728E+03  0.12499223729E+03 0.  0.
         23    2    1    2    0    0  0.23435247961E+02 -0.62976304371E+02  0.78763726159E+02  0.13555501347E+03  0.87499779193E+02 0.  0.
        -11    1    4    4    0    0 -0.17024309011E+02 -0.39532795312E+02 -0.10461315002E+01  0.43055352674E+02  0.51100000000E-03 0.  1.
         11    1    4    4    0    0  0.40459556972E+02 -0.23443509059E+02  0.79809857659E+02  0.92499660795E+02  0.51100000000E-03 0. -1.
    9000005    1    3    3    0    0 -0.59467184765E+02 -0.51270275188E+01  0.63894371049E+02  0.87442113005E+02  0.10000000000E+01 0.  0.
    9000005    1    3    3    0    0  0.36031936803E+02  0.68103331890E+02  0.29843966926E+02  0.82631874275E+02  0.10000000000E+01 0.  0.
<mgrwt>
<rscale>  0 0.13325275E+03</rscale>
<asrwt>0</asrwt>
<pdfrwt beam="1">  1        1 0.36779312E-01 0.14190943E+03</pdfrwt>
<pdfrwt beam="2">  1       -1 0.10240534E-01 0.14190943E+03</pdfrwt>
<totfact> 0.65549158E+03</totfact>
</mgrwt>
</event>
<event>
 8    2  0.7478846E-004  0.1363157E+03  0.7818608E-02  0.1229478E+00
         -1   -1    0    0    0  501 -0.00000000000E+00  0.00000000000E+00  0.12570980073E+03  0.12570980083E+03  0.50400000000E-02 0.  1.
          1   -1    0    0  501    0  0.00000000000E+00 -0.00000000000E+00 -0.12729182771E+03  0.12729182781E+03  0.50400000000E-02 0. -1.
         25    2    1    2    0    0 -0.49421586663E+02  0.22380758579E+02  0.31529450332E+02  0.13991449744E+03  0.12505426332E+03 0.  0.
         23    2    1    2    0    0  0.49421586663E+02 -0.22380758579E+02 -0.33111477314E+02  0.11308713120E+03  0.93535756429E+02 0.  0.
        -11    1    4    4    0    0  0.28828274610E+02  0.39782981333E+01  0.29914636125E+02  0.41734658592E+02  0.51100000000E-03 0.  1.
         11    1    4    4    0    0  0.20593312053E+02 -0.26359056712E+02 -0.63026113439E+02  0.71352472610E+02  0.51100000000E-03 0. -1.
    9000005    1    3    3    0    0 -0.90298767897E+02  0.13099794145E+01  0.20472406893E+02  0.92605091511E+02  0.10000000000E+01 0.  0.
    9000005    1    3    3    0    0  0.40877181234E+02  0.21070779165E+02  0.11057043439E+02  0.47309405934E+02  0.10000000000E+01 0.  0.
<mgrwt>
<rscale>  0 0.12864620E+03</rscale>
<asrwt>0</asrwt>
<pdfrwt beam="2">  1        1 0.19583358E-01 0.13631566E+03</pdfrwt>
<pdfrwt beam="1">  1       -1 0.19339969E-01 0.13631566E+03</pdfrwt>
<totfact> 0.53331149E+03</totfact>
</mgrwt>
</event>
<event>
 8    2  0.7478846E-004  0.1312403E+03  0.7818608E-02  0.1239165E+00
          1   -1    0    0  501    0  0.00000000000E+00  0.00000000000E+00  0.30462929813E+02  0.30462930230E+02  0.50400000000E-02 0. -1.
         -1   -1    0    0    0  501 -0.00000000000E+00 -0.00000000000E+00 -0.44075513002E+03  0.44075513004E+03  0.50400000000E-02 0.  1.
         25    2    1    2    0    0 -0.32856386781E+02 -0.22787278108E+02 -0.20989584695E+03  0.24754854298E+03  0.12500084948E+03 0.  0.
         23    2    1    2    0    0  0.32856386781E+02  0.22787278108E+02 -0.20039635326E+03  0.22366951729E+03  0.90942577336E+02 0.  0.
        -11    1    4    4    0    0 -0.23243587570E+02  0.16255845506E+02 -0.13178235840E+03  0.13480024800E+03  0.51100000000E-03 0.  1.
         11    1    4    4    0    0  0.56099974350E+02  0.65314326026E+01 -0.68613994861E+02  0.88869269295E+02  0.51100000000E-03 0. -1.
    9000005    1    3    3    0    0  0.29417731378E+02 -0.53539069317E+02 -0.85709024673E+02  0.10525621964E+03  0.10000000000E+01 0.  0.
    9000005    1    3    3    0    0 -0.62274118159E+02  0.30751791209E+02 -0.12418682227E+03  0.14229232334E+03  0.10000000000E+01 0.  0.
<mgrwt>
<rscale>  0 0.12241552E+03</rscale>
<asrwt>0</asrwt>
<pdfrwt beam="1">  1        1 0.46866049E-02 0.13124029E+03</pdfrwt>
<pdfrwt beam="2">  1       -1 0.67808477E-01 0.13124029E+03</pdfrwt>
<totfact> 0.39819251E+03</totfact>
</mgrwt>
</event>
<event>
 8    2  0.7478846E-004  0.1271465E+03  0.7818608E-02  0.1247459E+00
         -1   -1    0    0    0  501 -0.00000000000E+00  0.00000000000E+00  0.25531163716E+02  0.25531164213E+02  0.50400000000E-02 0.  1.
          1   -1    0    0  501    0  0.00000000000E+00 -0.00000000000E+00 -0.49722419074E+03  0.49722419076E+03  0.50400000000E-02 0. -1.
         25    2    1    2    0    0  0.12044301843E+02 -0.19891762788E+02 -0.21308656589E+03  0.24813729154E+03  0.12500193381E+03 0.  0.
         23    2    1    2    0    0 -0.12044301843E+02  0.19891762788E+02 -0.25860646113E+03  0.27461806343E+03  0.89426123657E+02 0.  0.
        -11    1    4    4    0    0 -0.38907495956E+02 -0.14523778795E+02 -0.73390476527E+02  0.84326125473E+02  0.51100000000E-03 0.  1.
         11    1    4    4    0    0  0.26863194114E+02  0.34415541582E+02 -0.18521598460E+03  0.19029193796E+03  0.51100000000E-03 0. -1.
    9000005    1    3    3    0    0  0.75977935888E+01  0.36218955781E+02 -0.17798628587E+03  0.18179564677E+03  0.10000000000E+01 0.  0.
    9000005    1    3    3    0    0  0.44465082539E+01 -0.56110718569E+02 -0.35100280021E+02  0.66341644775E+02  0.10000000000E+01 0.  0.
<mgrwt>
<rscale>  0 0.11739414E+03</rscale>
<asrwt>0</asrwt>
<pdfrwt beam="2">  1        1 0.76496022E-01 0.12714649E+03</pdfrwt>
<pdfrwt beam="1">  1       -1 0.39278717E-02 0.12714649E+03</pdfrwt>
<totfact> 0.10878385E+04</totfact>
</mgrwt>
</event>
<event>
 8    2  0.7478846E-004  0.1294169E+03  0.7818608E-02  0.1243032E+00
         -1   -1    0    0    0  501 -0.00000000000E+00  0.00000000000E+00  0.14494752788E+03  0.14494752797E+03  0.50400000000E-02 0.  1.
          1   -1    0    0  501    0  0.00000000000E+00 -0.00000000000E+00 -0.94250628331E+02  0.94250628466E+02  0.50400000000E-02 0. -1.
         25    2    1    2    0    0  0.13572798150E+02  0.30641021851E+02  0.60590420796E+02  0.14289837204E+03  0.12500261025E+03 0.  0.
         23    2    1    2    0    0 -0.13572798150E+02 -0.30641021851E+02 -0.98935212483E+01  0.96299784390E+02  0.89736690607E+02 0.  0.
        -11    1    4    4    0    0 -0.43999612289E+02  0.98390889756E+01 -0.64132443031E+01  0.45540127978E+02  0.51100000000E-03 0. -1.
         11    1    4    4    0    0  0.30426814139E+02 -0.40480110827E+02 -0.34802769453E+01  0.50759656412E+02  0.51100000000E-03 0.  1.
    9000005    1    3    3    0    0  0.56338419329E+02 -0.67037310083E+01 -0.40125025940E+01  0.56886357582E+02  0.10000000000E+01 0.  0.
    9000005    1    3    3    0    0 -0.42765621178E+02  0.37344752860E+02  0.64602923390E+02  0.86012014460E+02  0.10000000000E+01 0.  0.
<mgrwt>
<rscale>  0 0.12003935E+03</rscale>
<asrwt>0</asrwt>
<pdfrwt beam="2">  1        1 0.14500097E-01 0.12941694E+03</pdfrwt>
<pdfrwt beam="1">  1       -1 0.22299620E-01 0.12941694E+03</pdfrwt>
<totfact> 0.62153002E+03</totfact>
</mgrwt>
</event>
<event>
 8    2  0.7478846E-004  0.1413286E+03  0.7818608E-02  0.1220707E+00
         -1   -1    0    0    0  501 -0.00000000000E+00  0.00000000000E+00  0.43063551613E+02  0.43063551908E+02  0.50400000000E-02 0.  1.
          1   -1    0    0  501    0  0.00000000000E+00 -0.00000000000E+00 -0.38843924336E+03  0.38843924339E+03  0.50400000000E-02 0. -1.
         25    2    1    2    0    0 -0.42558111382E+02  0.50385808722E+02 -0.20687486527E+03  0.25054135359E+03  0.12499534957E+03 0.  0.
         23    2    1    2    0    0  0.42558111382E+02 -0.50385808722E+02 -0.13850082648E+03  0.18096144171E+03  0.95992926228E+02 0.  0.
        -11    1    4    4    0    0  0.56562961200E+02 -0.45035193890E+02 -0.42647003508E+02  0.83942266928E+02  0.51100000000E-03 0.  1.
         11    1    4    4    0    0 -0.14004849817E+02 -0.53506148315E+01 -0.95853822968E+02  0.97019174782E+02  0.51100000000E-03 0. -1.
    9000005    1    3    3    0    0  0.11211168908E+02 -0.21843768286E+01 -0.16314368192E+03  0.16354608758E+03  0.10000000000E+01 0.  0.
    9000005    1    3    3    0    0 -0.53769280291E+02  0.52570185550E+02 -0.43731183346E+02  0.86995266013E+02  0.10000000000E+01 0.  0.
<mgrwt>
<rscale>  0 0.13465521E+03</rscale>
<asrwt>0</asrwt>
<pdfrwt beam="2">  1        1 0.59759881E-01 0.14132855E+03</pdfrwt>
<pdfrwt beam="1">  1       -1 0.66251621E-02 0.14132855E+03</pdfrwt>
<totfact> 0.69262137E+03</totfact>
</mgrwt>
</event>
<event>
 8    2  0.7478846E-004  0.1275968E+03  0.7818608E-02  0.1245566E+00
         -1   -1    0    0    0  501 -0.00000000000E+00  0.00000000000E+00  0.54883374857E+03  0.54883374860E+03  0.50400000000E-02 0.  1.
          1   -1    0    0  501    0  0.00000000000E+00 -0.00000000000E+00 -0.30938345266E+02  0.30938345677E+02  0.50400000000E-02 0. -1.
         25    2    1    2    0    0  0.33557130152E+01  0.25384282186E+02  0.43626490286E+03  0.45454153763E+03  0.12500128550E+03 0.  0.
         23    2    1    2    0    0 -0.33557130152E+01 -0.25384282186E+02  0.81630500450E+02  0.12523055664E+03  0.91452343440E+02 0.  0.
        -11    1    4    4    0    0 -0.46444240464E+02 -0.21242995907E+02  0.37076000897E+02  0.63110713751E+02  0.51100000000E-03 0. -1.
         11    1    4    4    0    0  0.43088527449E+02 -0.41412862788E+01  0.44554499553E+02  0.62119842888E+02  0.51100000000E-03 0.  1.
    9000005    1    3    3    0    0 -0.54939335276E+02  0.65757194489E+01  0.11669077145E+03  0.12914839058E+03  0.10000000000E+01 0.  0.
    9000005    1    3    3    0    0  0.58295048291E+02  0.18808562737E+02  0.31957413141E+03  0.32539314706E+03  0.10000000000E+01 0.  0.
<mgrwt>
<rscale>  0 0.11851561E+03</rscale>
<asrwt>0</asrwt>
<pdfrwt beam="2">  1        1 0.47597456E-02 0.12759680E+03</pdfrwt>
<pdfrwt beam="1">  1       -1 0.84435958E-01 0.12759680E+03</pdfrwt>
<totfact> 0.25026289E+03</totfact>
</mgrwt>
</event>
<event>
 8    2  0.7478846E-004  0.2323680E+03  0.7818608E-02  0.1127840E+00
          1   -1    0    0  501    0  0.00000000000E+00  0.00000000000E+00  0.14625106199E+03  0.14625106208E+03  0.50400000000E-02 0. -1.
         -1   -1    0    0    0  501 -0.00000000000E+00 -0.00000000000E+00 -0.45294942482E+03  0.45294942485E+03  0.50400000000E-02 0.  1.
         25    2    1    2    0    0  0.16269031183E+03 -0.10909485640E+03 -0.30402283581E+03  0.38265490849E+03  0.12500027616E+03 0.  0.
         23    2    1    2    0    0 -0.16269031183E+03  0.10909485640E+03 -0.26755270169E+01  0.21654557843E+03  0.92276778430E+02 0.  0.
        -11    1    4    4    0    0 -0.29689929864E+02  0.38181152979E+02 -0.38269523912E+02  0.61675350334E+02  0.51100000000E-03 0.  1.
         11    1    4    4    0    0 -0.13300038196E+03  0.70913703426E+02  0.35593996895E+02  0.15487022810E+03  0.51100000000E-03 0. -1.
    9000005    1    3    3    0    0  0.71520363497E+02 -0.76286795255E+02 -0.61091665884E+02  0.12111163927E+03  0.10000000000E+01 0.  0.
    9000005    1    3    3    0    0  0.91169948329E+02 -0.32808061150E+02 -0.24293116993E+03  0.26154326923E+03  0.10000000000E+01 0.  0.
<mgrwt>
<rscale>  0 0.22830283E+03</rscale>
<asrwt>0</asrwt>
<pdfrwt beam="1">  1        1 0.22500164E-01 0.23236801E+03</pdfrwt>
<pdfrwt beam="2">  1       -1 0.69684526E-01 0.23236801E+03</pdfrwt>
<totfact> 0.47600057E+02</totfact>
</mgrwt>
</event>
<event>
 8    2  0.7478846E-004  0.1463126E+03  0.7818608E-02  0.1214955E+00
         -1   -1    0    0    0  501 -0.00000000000E+00  0.00000000000E+00  0.29895216227E+02  0.29895216652E+02  0.50400000000E-02 0.  1.
          1   -1    0    0  501    0  0.00000000000E+00 -0.00000000000E+00 -0.86621633089E+03  0.86621633090E+03  0.50400000000E-02 0. -1.
         25    2    1    2    0    0  0.67088099111E+02  0.35820869107E+02 -0.70160204501E+03  0.71669575836E+03  0.12499373094E+03 0.  0.
         23    2    1    2    0    0 -0.67088099111E+02 -0.35820869107E+02 -0.13471906965E+03  0.17941578920E+03  0.90867210701E+02 0.  0.
        -11    1    4    4    0    0 -0.21884170324E+02  0.25586778047E+02 -0.76168387959E+02  0.83277988966E+02  0.51100000000E-03 0. -1.
         11    1    4    4    0    0 -0.45203928787E+02 -0.61407647154E+02 -0.58550681686E+02  0.96137800230E+02  0.51100000000E-03 0.  1.
    9000005    1    3    3    0    0  0.61278912910E+02  0.73225247545E+02 -0.61224591938E+03  0.61964756745E+03  0.10000000000E+01 0.  0.
    9000005    1    3    3    0    0  0.58091862012E+01 -0.37404378438E+02 -0.89356125629E+02  0.97048190906E+02  0.10000000000E+01 0.  0.
<mgrwt>
<rscale>  0 0.13879867E+03</rscale>
<asrwt>0</asrwt>
<pdfrwt beam="2">  1        1 0.13326403E+00 0.14631261E+03</pdfrwt>
<pdfrwt beam="1">  1       -1 0.45992647E-02 0.14631261E+03</pdfrwt>
<totfact> 0.39734616E+03</totfact>
</mgrwt>
</event>
<event>
 8    2  0.7478846E-004  0.1398760E+03  0.7818608E-02  0.1223569E+00
          1   -1    0    0  501    0  0.00000000000E+00  0.00000000000E+00  0.29378376554E+02  0.29378376987E+02  0.50400000000E-02 0. -1.
         -1   -1    0    0    0  501 -0.00000000000E+00 -0.00000000000E+00 -0.55670809547E+03  0.55670809550E+03  0.50400000000E-02 0.  1.
         25    2    1    2    0    0 -0.11673106458E+02  0.61671019438E+02 -0.33351463681E+03  0.36165909870E+03  0.12500285858E+03 0.  0.
         23    2    1    2    0    0  0.11673106458E+02 -0.61671019438E+02 -0.19381508211E+03  0.22442737378E+03  0.94147671227E+02 0.  0.
        -11    1    4    4    0    0  0.97305456081E+00 -0.74752204205E+02 -0.19359282994E+03  0.20752595663E+03  0.51100000000E-03 0.  1.
         11    1    4    4    0    0  0.10700051897E+02  0.13081184767E+02 -0.22225216279E+00  0.16901417153E+02  0.51100000000E-03 0. -1.
    9000005    1    3    3    0    0 -0.13261813999E+02 -0.11506179604E+02 -0.24994597097E+03  0.25056387665E+03  0.10000000000E+01 0.  0.
    9000005    1    3    3    0    0  0.15887075409E+01  0.73177199042E+02 -0.83568665844E+02  0.11109522205E+03  0.10000000000E+01 0.  0.
<mgrwt>
<rscale>  0 0.13265477E+03</rscale>
<asrwt>0</asrwt>
<pdfrwt beam="1">  1        1 0.45197507E-02 0.13987598E+03</pdfrwt>
<pdfrwt beam="2">  1       -1 0.85647392E-01 0.13987598E+03</pdfrwt>
<totfact> 0.26206130E+03</totfact>
</mgrwt>
</event>
<event>
 8    2  0.7478846E-004  0.1728726E+03  0.7818608E-02  0.1180781E+00
         -1   -1    0    0    0  501 -0.00000000000E+00  0.00000000000E+00  0.13753080732E+03  0.13753080742E+03  0.50400000000E-02 0.  1.
          1   -1    0    0  501    0  0.00000000000E+00 -0.00000000000E+00 -0.19139322965E+03  0.19139322972E+03  0.50400000000E-02 0. -1.
         25    2    1    2    0    0  0.11843954183E+03  0.15219597699E+02 -0.35442689460E+02  0.17646843697E+03  0.12500145514E+03 0.  0.
         23    2    1    2    0    0 -0.11843954183E+03 -0.15219597699E+02 -0.18419732867E+02  0.15245560016E+03  0.92972373515E+02 0.  0.
        -11    1    4    4    0    0 -0.19769254548E+02  0.15402571389E+02  0.29383516144E+02  0.38619342978E+02  0.51100000000E-03 0.  1.
         11    1    4    4    0    0 -0.98670287284E+02 -0.30622169088E+02 -0.47803249011E+02  0.11383625718E+03  0.51100000000E-03 0. -1.
    9000005    1    3    3    0    0  0.10009981873E+03 -0.44815726178E+02 -0.16659021791E+02  0.11093667576E+03  0.10000000000E+01 0.  0.
    9000005    1    3    3    0    0  0.18339723107E+02  0.60035323877E+02 -0.18783667669E+02  0.65531761213E+02  0.10000000000E+01 0.  0.
<mgrwt>
<rscale>  0 0.16721765E+03</rscale>
<asrwt>0</asrwt>
<pdfrwt beam="2">  1        1 0.29445112E-01 0.17287257E+03</pdfrwt>
<pdfrwt beam="1">  1       -1 0.21158586E-01 0.17287257E+03</pdfrwt>
<totfact> 0.27912185E+03</totfact>
</mgrwt>
</event>
<event>
 8    2  0.7478846E-004  0.1747142E+03  0.7818608E-02  0.1179035E+00
          1   -1    0    0  501    0  0.00000000000E+00  0.00000000000E+00  0.78517948382E+03  0.78517948384E+03  0.50400000000E-02 0. -1.
         -1   -1    0    0    0  501 -0.00000000000E+00 -0.00000000000E+00 -0.37206441892E+02  0.37206442233E+02  0.50400000000E-02 0.  1.
         25    2    1    2    0    0  0.39187542055E+02 -0.11560639203E+03  0.27842135035E+03  0.32869969275E+03  0.12499815340E+03 0.  0.
         23    2    1    2    0    0 -0.39187542055E+02  0.11560639203E+03  0.46955169158E+03  0.49368623332E+03  0.91360848164E+02 0.  0.
        -11    1    4    4    0    0 -0.34085332376E+02  0.23183752692E+01  0.63632924442E+02  0.72224191379E+02  0.51100000000E-03 0.  1.
         11    1    4    4    0    0 -0.51022096792E+01  0.11328801676E+03  0.40591876714E+03  0.42146204194E+03  0.51100000000E-03 0. -1.
    9000005    1    3    3    0    0 -0.26328043856E+02 -0.20308316045E+02  0.74629288729E+01  0.34092358399E+02  0.10000000000E+01 0.  0.
    9000005    1    3    3    0    0  0.65515585910E+02 -0.95298075983E+02  0.27095842148E+03  0.29460733435E+03  0.10000000000E+01 0.  0.
<mgrwt>
<rscale>  0 0.16886618E+03</rscale>
<asrwt>0</asrwt>
<pdfrwt beam="1">  1        1 0.12079685E+00 0.17471417E+03</pdfrwt>
<pdfrwt beam="2">  1       -1 0.57240678E-02 0.17471417E+03</pdfrwt>
<totfact> 0.33571109E+03</totfact>
</mgrwt>
</event>
<event>
 8    2  0.7478846E-004  0.2500308E+03  0.7818608E-02  0.1115838E+00
         -1   -1    0    0    0  501 -0.00000000000E+00  0.00000000000E+00  0.13718770851E+04  0.13718770851E+04  0.50400000000E-02 0.  1.
          1   -1    0    0  501    0  0.00000000000E+00 -0.00000000000E+00 -0.53480496779E+02  0.53480497016E+02  0.50400000000E-02 0. -1.
         25    2    1    2    0    0  0.21651877334E+03 -0.31306334775E+01  0.99501636659E+03  0.10259497876E+04  0.12500086730E+03 0.  0.
         23    2    1    2    0    0 -0.21651877334E+03  0.31306334775E+01  0.32338022174E+03  0.39940779453E+03  0.89786627331E+02 0.  0.
        -11    1    4    4    0    0 -0.14697385327E+03  0.44149105663E+02  0.20365394521E+03  0.25500075780E+03  0.51100000000E-03 0.  1.
         11    1    4    4    0    0 -0.69544920069E+02 -0.41018472186E+02  0.11972627653E+03  0.14440703674E+03  0.51100000000E-03 0. -1.
    9000005    1    3    3    0    0  0.22026496490E+03  0.14019404484E+02  0.97328063352E+03  0.99799268036E+03  0.10000000000E+01 0.  0.
    9000005    1    3    3    0    0 -0.37461915608E+01 -0.17150037962E+02  0.21735733064E+02  0.27957107238E+02  0.10000000000E+01 0.  0.
<mgrwt>
<rscale>  0 0.24603273E+03</rscale>
<asrwt>0</asrwt>
<pdfrwt beam="2">  1        1 0.82277700E-02 0.25003079E+03</pdfrwt>
<pdfrwt beam="1">  1       -1 0.21105798E+00 0.25003079E+03</pdfrwt>
<totfact> 0.11845309E+02</totfact>
</mgrwt>
</event>
<event>
 8    2  0.7478846E-004  0.1533321E+03  0.7818608E-02  0.1205147E+00
          1   -1    0    0  501    0  0.00000000000E+00  0.00000000000E+00  0.21792182873E+03  0.21792182878E+03  0.50400000000E-02 0. -1.
         -1   -1    0    0    0  501 -0.00000000000E+00 -0.00000000000E+00 -0.11078884795E+03  0.11078884806E+03  0.50400000000E-02 0.  1.
         25    2    1    2    0    0  0.49270537584E+02 -0.73874053401E+02  0.12841414264E+03  0.20000228551E+03  0.12500304211E+03 0.  0.
         23    2    1    2    0    0 -0.49270537584E+02  0.73874053401E+02 -0.21281161862E+02  0.12870839134E+03  0.90708326586E+02 0.  0.
        -11    1    4    4    0    0 -0.40427913146E+01  0.33156944510E+02 -0.51014643904E+02  0.60977217252E+02  0.51100000000E-03 0.  1.
         11    1    4    4    0    0 -0.45227746269E+02  0.40717108891E+02  0.29733482042E+02  0.67731174090E+02  0.51100000000E-03 0. -1.
    9000005    1    3    3    0    0  0.72291542476E+02 -0.36001100518E+02  0.20485342978E+02  0.83323439853E+02  0.10000000000E+01 0.  0.
    9000005    1    3    3    0    0 -0.23021004892E+02 -0.37872952883E+02  0.10792879966E+03  0.11667884565E+03  0.10000000000E+01 0.  0.
<mgrwt>
<rscale>  0 0.14625868E+03</rscale>
<asrwt>0</asrwt>
<pdfrwt beam="1">  1        1 0.33526435E-01 0.15333207E+03</pdfrwt>
<pdfrwt beam="2">  1       -1 0.17044438E-01 0.15333207E+03</pdfrwt>
<totfact> 0.33410485E+03</totfact>
</mgrwt>
</event>
<event>
 8    2  0.7478846E-004  0.1258369E+03  0.7818608E-02  0.1259966E+00
         -1   -1    0    0    0  501 -0.00000000000E+00  0.00000000000E+00  0.10168777139E+03  0.10168777152E+03  0.50400000000E-02 0.  1.
          1   -1    0    0  501    0  0.00000000000E+00 -0.00000000000E+00 -0.11606237363E+03  0.11606237374E+03  0.50400000000E-02 0. -1.
         25    2    1    2    0    0 -0.13030973120E+02 -0.62360790203E+01  0.32356994025E+02  0.12993040739E+03  0.12500496294E+03 0.  0.
         23    2    1    2    0    0  0.13030973120E+02  0.62360790203E+01 -0.46731596266E+02  0.87819737876E+02  0.72936748825E+02 0.  0.
        -11    1    4    4    0    0  0.27673571529E+02 -0.15380830737E+02  0.28449662035E+01  0.31788210838E+02  0.51100000000E-03 0.  1.
         11    1    4    4    0    0 -0.14642598409E+02  0.21616909757E+02 -0.49576562469E+02  0.56031527038E+02  0.51100000000E-03 0. -1.
    9000005    1    3    3    0    0  0.46439352988E+02  0.20267490890E+02 -0.10791455093E+02  0.51815443605E+02  0.10000000000E+01 0.  0.
    9000005    1    3    3    0    0 -0.59470326108E+02 -0.26503569910E+02  0.43148449119E+02  0.78114963782E+02  0.10000000000E+01 0.  0.
<mgrwt>
<rscale>  0 0.11032697E+03</rscale>
<asrwt>0</asrwt>
<pdfrwt beam="2">  1        1 0.17855750E-01 0.12583694E+03</pdfrwt>
<pdfrwt beam="1">  1       -1 0.15644272E-01 0.12583694E+03</pdfrwt>
<totfact> 0.83474960E+03</totfact>
</mgrwt>
</event>
<event>
 8    2  0.7478846E-004  0.2914319E+03  0.7818608E-02  0.1091299E+00
          1   -1    0    0  501    0  0.00000000000E+00  0.00000000000E+00  0.18422513949E+03  0.18422513956E+03  0.50400000000E-02 0. -1.
         -1   -1    0    0    0  501 -0.00000000000E+00 -0.00000000000E+00 -0.46915189704E+03  0.46915189706E+03  0.50400000000E-02 0.  1.
         25    2    1    2    0    0 -0.55544687469E+02  0.25733105451E+03 -0.22537653304E+03  0.36841163276E+03  0.12501226176E+03 0.  0.
         23    2    1    2    0    0  0.55544687469E+02 -0.25733105451E+03 -0.59550224515E+02  0.28496540386E+03  0.91403327260E+02 0.  0.
        -11    1    4    4    0    0 -0.24559303521E+02 -0.61861161740E+02 -0.23974109809E+02  0.70744050369E+02  0.51100000000E-03 0.  1.
         11    1    4    4    0    0  0.80103990990E+02 -0.19546989277E+03 -0.35576114706E+02  0.21422135349E+03  0.51100000000E-03 0. -1.
    9000005    1    3    3    0    0  0.32361980460E+02  0.19387166913E+02 -0.30947955786E+02  0.48805081575E+02  0.10000000000E+01 0.  0.
    9000005    1    3    3    0    0 -0.87906667929E+02  0.23794388760E+03 -0.19442857725E+03  0.31960655119E+03  0.10000000000E+01 0.  0.
<mgrwt>
<rscale>  0 0.28818862E+03</rscale>
<asrwt>0</asrwt>
<pdfrwt beam="1">  1        1 0.28342329E-01 0.29143190E+03</pdfrwt>
<pdfrwt beam="2">  1       -1 0.72177215E-01 0.29143190E+03</pdfrwt>
<totfact> 0.32956010E+02</totfact>
</mgrwt>
</event>
<event>
 8    2  0.7478846E-004  0.1359786E+03  0.7818608E-02  0.1231814E+00
          1   -1    0    0  501    0  0.00000000000E+00  0.00000000000E+00  0.10742385553E+04  0.10742385553E+04  0.50400000000E-02 0. -1.
         -1   -1    0    0    0  501 -0.00000000000E+00 -0.00000000000E+00 -0.14194503336E+02  0.14194504231E+02  0.50400000000E-02 0.  1.
         25    2    1    2    0    0 -0.23555788223E+02 -0.48064275890E+02  0.46792875952E+03  0.48728586085E+03  0.12500054571E+03 0.  0.
         23    2    1    2    0    0  0.23555788223E+02  0.48064275890E+02  0.59211529242E+03  0.60114719866E+03  0.88951588900E+02 0.  0.
        -11    1    4    4    0    0  0.41976720771E+02  0.60661431594E+02  0.33302050660E+03  0.34109311366E+03  0.51100000000E-03 0.  1.
         11    1    4    4    0    0 -0.18420932549E+02 -0.12597155704E+02  0.25909478582E+03  0.26005408501E+03  0.51100000000E-03 0. -1.
    9000005    1    3    3    0    0  0.81201670303E+01  0.24311456201E+02  0.30636948761E+03  0.30744145289E+03  0.10000000000E+01 0.  0.
    9000005    1    3    3    0    0 -0.31675955253E+02 -0.72375732091E+02  0.16155927190E+03  0.17984440796E+03  0.10000000000E+01 0.  0.
<mgrwt>
<rscale>  0 0.12710640E+03</rscale>
<asrwt>0</asrwt>
<pdfrwt beam="1">  1        1 0.16526745E+00 0.13597862E+03</pdfrwt>
<pdfrwt beam="2">  1       -1 0.21837701E-02 0.13597862E+03</pdfrwt>
<totfact> 0.82281660E+03</totfact>
</mgrwt>
</event>
<event>
 8    2  0.7478846E-004  0.1550595E+03  0.7818608E-02  0.1202839E+00
          1   -1    0    0  501    0  0.00000000000E+00  0.00000000000E+00  0.10050311022E+04  0.10050311022E+04  0.50400000000E-02 0. -1.
         -1   -1    0    0    0  501 -0.00000000000E+00 -0.00000000000E+00 -0.20831852310E+02  0.20831852920E+02  0.50400000000E-02 0.  1.
         25    2    1    2    0    0 -0.68043197191E+01 -0.91501185424E+02  0.63311307216E+03  0.65182483657E+03  0.12499875894E+03 0.  0.
         23    2    1    2    0    0  0.68043197191E+01  0.91501185424E+02  0.35108617774E+03  0.37403811857E+03  0.90687619002E+02 0.  0.
        -11    1    4    4    0    0 -0.15787279002E+02  0.31920774786E+02  0.26256181301E+03  0.26496580854E+03  0.51100000000E-03 0. -1.
         11    1    4    4    0    0  0.22591598721E+02  0.59580410638E+02  0.88524364730E+02  0.10907231003E+03  0.51100000000E-03 0.  1.
    9000005    1    3    3    0    0 -0.62919448682E+01 -0.11582434303E+03  0.37414590982E+03  0.39171549477E+03  0.10000000000E+01 0.  0.
    9000005    1    3    3    0    0 -0.51237485093E+00  0.24323157604E+02  0.25896716234E+03  0.26010934180E+03  0.10000000000E+01 0.  0.
<mgrwt>
<rscale>  0 0.14809071E+03</rscale>
<asrwt>0</asrwt>
<pdfrwt beam="1">  1        1 0.15462018E+00 0.15505952E+03</pdfrwt>
<pdfrwt beam="2">  1       -1 0.32049001E-02 0.15505952E+03</pdfrwt>
<totfact> 0.53155906E+03</totfact>
</mgrwt>
</event>
<event>
 8    2  0.7478846E-004  0.2437545E+03  0.7818608E-02  0.1120046E+00
         -1   -1    0    0    0  501 -0.00000000000E+00  0.00000000000E+00  0.23413323115E+03  0.23413323121E+03  0.50400000000E-02 0.  1.
          1   -1    0    0  501    0  0.00000000000E+00 -0.00000000000E+00 -0.26111420607E+03  0.26111420611E+03  0.50400000000E-02 0. -1.
         25    2    1    2    0    0  0.16799415447E+03 -0.12475717375E+03 -0.88705100317E+02  0.25939325407E+03  0.12501950686E+03 0.  0.
         23    2    1    2    0    0 -0.16799415447E+03  0.12475717375E+03  0.61724125405E+02  0.23585418326E+03  0.89615510737E+02 0.  0.
        -11    1    4    4    0    0 -0.10907553012E+03  0.26164265139E+02  0.21884493596E+02  0.11428460570E+03  0.51100000000E-03 0. -1.
         11    1    4    4    0    0 -0.58918624355E+02  0.98592908607E+02  0.39839631810E+02  0.12156957755E+03  0.51100000000E-03 0.  1.
    9000005    1    3    3    0    0  0.12122269827E+02  0.17315472948E+02  0.13424595900E+02  0.25059824506E+02  0.10000000000E+01 0.  0.
    9000005    1    3    3    0    0  0.15587188464E+03 -0.14207264669E+03 -0.10212969622E+03  0.23433342956E+03  0.10000000000E+01 0.  0.
<mgrwt>
<rscale>  0 0.23962045E+03</rscale>
<asrwt>0</asrwt>
<pdfrwt beam="2">  1        1 0.40171416E-01 0.24375452E+03</pdfrwt>
<pdfrwt beam="1">  1       -1 0.36020497E-01 0.24375452E+03</pdfrwt>
<totfact> 0.77869176E+02</totfact>
</mgrwt>
</event>
<event>
 8    2  0.7478846E-004  0.1280448E+03  0.7818608E-02  0.1244063E+00
          1   -1    0    0  501    0  0.00000000000E+00  0.00000000000E+00  0.61265384165E+03  0.61265384167E+03  0.50400000000E-02 0. -1.
         -1   -1    0    0    0  501 -0.00000000000E+00 -0.00000000000E+00 -0.21491625935E+02  0.21491626526E+02  0.50400000000E-02 0.  1.
         25    2    1    2    0    0  0.27710841170E+02  0.17767330789E+01  0.39741093898E+03  0.41752955088E+03  0.12499769574E+03 0.  0.
         23    2    1    2    0    0 -0.27710841170E+02 -0.17767330789E+01  0.19375127673E+03  0.21661591731E+03  0.92800058721E+02 0.  0.
        -11    1    4    4    0    0 -0.25682794848E+01 -0.44814329871E+02  0.11460759935E+03  0.12308461338E+03  0.51100000000E-03 0.  1.
         11    1    4    4    0    0 -0.25142561685E+02  0.43037596792E+02  0.79143677382E+02  0.93531303933E+02  0.51100000000E-03 0. -1.
    9000005    1    3    3    0    0  0.19932112195E+01  0.60662807888E+02  0.14784397372E+03  0.15982111787E+03  0.10000000000E+01 0.  0.
    9000005    1    3    3    0    0  0.25717629950E+02 -0.58886074809E+02  0.24956696526E+03  0.25770843301E+03  0.10000000000E+01 0.  0.
<mgrwt>
<rscale>  0 0.11941629E+03</rscale>
<asrwt>0</asrwt>
<pdfrwt beam="1">  1        1 0.94254440E-01 0.12804480E+03</pdfrwt>
<pdfrwt beam="2">  1       -1 0.33064040E-02 0.12804480E+03</pdfrwt>
<totfact> 0.10603976E+04</totfact>
</mgrwt>
</event>
<event>
 8    2  0.7478846E-004  0.1473709E+03  0.7818608E-02  0.1213474E+00
         -1   -1    0    0    0  501 -0.00000000000E+00  0.00000000000E+00  0.83944130732E+02  0.83944130884E+02  0.50400000000E-02 0.  1.
          1   -1    0    0  501    0  0.00000000000E+00 -0.00000000000E+00 -0.23283103255E+03  0.23283103260E+03  0.50400000000E-02 0. -1.
         25    2    1    2    0    0 -0.67414077849E+02 -0.39343195518E+02 -0.12822610370E+03  0.19534612627E+03  0.12500252179E+03 0.  0.
         23    2    1    2    0    0  0.67414077849E+02  0.39343195518E+02 -0.20660798114E+02  0.12142903721E+03  0.90695080209E+02 0.  0.
        -11    1    4    4    0    0 -0.87706366651E+00 -0.15930077764E+02  0.19190796604E+02  0.24956427885E+02  0.51100000000E-03 0.  1.
         11    1    4    4    0    0  0.68291141516E+02  0.55273273282E+02 -0.39851594717E+02  0.96472609328E+02  0.51100000000E-03 0. -1.
    9000005    1    3    3    0    0  0.16452985312E+02 -0.28786377207E+02 -0.10135215086E+03  0.10664246210E+03  0.10000000000E+01 0.  0.
    9000005    1    3    3    0    0 -0.83867063162E+02 -0.10556818311E+02 -0.26873952838E+02  0.88703664171E+02  0.10000000000E+01 0.  0.
<mgrwt>
<rscale>  0 0.13989255E+03</rscale>
<asrwt>0</asrwt>
<pdfrwt beam="2">  1        1 0.35820159E-01 0.14737088E+03</pdfrwt>
<pdfrwt beam="1">  1       -1 0.12914482E-01 0.14737088E+03</pdfrwt>
<totfact> 0.47477355E+03</totfact>
</mgrwt>
</event>
<event>
 8    2  0.7478846E-004  0.1748008E+03  0.7818608E-02  0.1178946E+00
         -1   -1    0    0    0  501 -0.00000000000E+00  0.00000000000E+00  0.20946484944E+03  0.20946484950E+03  0.50400000000E-02 0.  1.
          1   -1    0    0  501    0  0.00000000000E+00 -0.00000000000E+00 -0.14993401034E+03  0.14993401043E+03  0.50400000000E-02 0. -1.
         25    2    1    2    0    0 -0.10915173706E+03  0.55046074501E+02 -0.37266092871E+02  0.17872904559E+03  0.12494453985E+03 0.  0.
         23    2    1    2    0    0  0.10915173706E+03 -0.55046074501E+02  0.96796931969E+02  0.18066981434E+03  0.91256581980E+02 0.  0.
        -11    1    4    4    0    0  0.84275155382E+02 -0.40723093493E+02  0.16040001838E+02  0.94962907588E+02  0.51100000000E-03 0. -1.
         11    1    4    4    0    0  0.24876581676E+02 -0.14322981009E+02  0.80756930131E+02  0.85706906754E+02  0.51100000000E-03 0.  1.
    9000005    1    3    3    0    0  0.12005265617E+02  0.98292265215E+01 -0.46544857819E+02  0.49073046430E+02  0.10000000000E+01 0.  0.
    9000005    1    3    3    0    0 -0.12115700267E+03  0.45216847980E+02  0.92787649488E+01  0.12965599916E+03  0.10000000000E+01 0.  0.
<mgrwt>
<rscale>  0 0.16895131E+03</rscale>
<asrwt>0</asrwt>
<pdfrwt beam="2">  1        1 0.23066771E-01 0.17480077E+03</pdfrwt>
<pdfrwt beam="1">  1       -1 0.32225361E-01 0.17480077E+03</pdfrwt>
<totfact> 0.18877355E+03</totfact>
</mgrwt>
</event>
<event>
 8    2  0.7478846E-004  0.1431981E+03  0.7818608E-02  0.1218293E+00
         -1   -1    0    0    0  501 -0.00000000000E+00  0.00000000000E+00  0.34792443720E+02  0.34792444085E+02  0.50400000000E-02 0.  1.
          1   -1    0    0  501    0  0.00000000000E+00 -0.00000000000E+00 -0.52843813112E+03  0.52843813115E+03  0.50400000000E-02 0. -1.
         25    2    1    2    0    0  0.68315830951E+02 -0.14601415611E+02 -0.19291262816E+03  0.24025190454E+03  0.12500176573E+03 0.  0.
         23    2    1    2    0    0 -0.68315830951E+02  0.14601415611E+02 -0.30073305924E+03  0.32297867069E+03  0.94839837112E+02 0.  0.
        -11    1    4    4    0    0  0.62239006462E+01  0.38061785171E+02 -0.12085490813E+03  0.12685954930E+03  0.51100000000E-03 0. -1.
         11    1    4    4    0    0 -0.74539731597E+02 -0.23460369560E+02 -0.17987815111E+03  0.19611912139E+03  0.51100000000E-03 0.  1.
    9000005    1    3    3    0    0  0.98425215191E+02  0.15080788422E+02 -0.14964128487E+03  0.17974556267E+03  0.10000000000E+01 0.  0.
    9000005    1    3    3    0    0 -0.30109384240E+02 -0.29682204033E+02 -0.43271343292E+02  0.60506341864E+02  0.10000000000E+01 0.  0.
<mgrwt>
<rscale>  0 0.13637397E+03</rscale>
<asrwt>0</asrwt>
<pdfrwt beam="2">  1        1 0.81298168E-01 0.14319810E+03</pdfrwt>
<pdfrwt beam="1">  1       -1 0.53526841E-02 0.14319810E+03</pdfrwt>
<totfact> 0.64128205E+03</totfact>
</mgrwt>
</event>
<event>
 8    2  0.7478846E-004  0.1700652E+03  0.7818608E-02  0.1184405E+00
          1   -1    0    0  501    0  0.00000000000E+00  0.00000000000E+00  0.14681573386E+04  0.14681573386E+04  0.50400000000E-02 0. -1.
         -1   -1    0    0    0  501 -0.00000000000E+00 -0.00000000000E+00 -0.18433981565E+02  0.18433982254E+02  0.50400000000E-02 0.  1.
         25    2    1    2    0    0  0.10733858538E+03 -0.42144918698E+02  0.97614175284E+03  0.99084554786E+03  0.12499764796E+03 0.  0.
         23    2    1    2    0    0 -0.10733858538E+03  0.42144918698E+02  0.47358160416E+03  0.49574577297E+03  0.90479663628E+02 0.  0.
        -11    1    4    4    0    0 -0.83647106948E+02  0.24229153314E+02  0.44847982211E+03  0.45685669658E+03  0.51100000000E-03 0. -1.
         11    1    4    4    0    0 -0.23691478435E+02  0.17915765385E+02  0.25101782054E+02  0.38889076388E+02  0.51100000000E-03 0.  1.
    9000005    1    3    3    0    0 -0.22392609966E+02 -0.31219239896E+02  0.28108419117E+03  0.28369947558E+03  0.10000000000E+01 0.  0.
    9000005    1    3    3    0    0  0.12973119535E+03 -0.10925678802E+02  0.69505756168E+03  0.70714607228E+03  0.10000000000E+01 0.  0.
<mgrwt>
<rscale>  0 0.16386148E+03</rscale>
<asrwt>0</asrwt>
<pdfrwt beam="1">  1        1 0.22587038E+00 0.17006522E+03</pdfrwt>
<pdfrwt beam="2">  1       -1 0.28359969E-02 0.17006522E+03</pdfrwt>
<totfact> 0.30644961E+03</totfact>
</mgrwt>
</event>
<event>
 8    2  0.7478846E-004  0.1685373E+03  0.7818608E-02  0.1186286E+00
          1   -1    0    0  501    0  0.00000000000E+00  0.00000000000E+00  0.83658357486E+02  0.83658357638E+02  0.50400000000E-02 0. -1.
         -1   -1    0    0    0  501 -0.00000000000E+00 -0.00000000000E+00 -0.29771181992E+03  0.29771181997E+03  0.50400000000E-02 0.  1.
         25    2    1    2    0    0  0.52695897130E+02  0.10001556509E+03 -0.90422788818E+02  0.19126184282E+03  0.12499936379E+03 0.  0.
         23    2    1    2    0    0 -0.52695897130E+02 -0.10001556509E+03 -0.12363067362E+03  0.19010833478E+03  0.89870265720E+02 0.  0.
        -11    1    4    4    0    0 -0.55756028213E+02 -0.13858863279E+02 -0.40060078000E+02  0.70040078691E+02  0.51100000000E-03 0. -1.
         11    1    4    4    0    0  0.30601310830E+01 -0.86156701807E+02 -0.83570595620E+02  0.12006825609E+03  0.51100000000E-03 0.  1.
    9000005    1    3    3    0    0  0.70798157845E+02  0.15797721659E+02 -0.73875148754E+02  0.10353977384E+03  0.10000000000E+01 0.  0.
    9000005    1    3    3    0    0 -0.18102260715E+02  0.84217843427E+02 -0.16547640064E+02  0.87722068980E+02  0.10000000000E+01 0.  0.
<mgrwt>
<rscale>  0 0.16215394E+03</rscale>
<asrwt>0</asrwt>
<pdfrwt beam="1">  1        1 0.12870517E-01 0.16853727E+03</pdfrwt>
<pdfrwt beam="2">  1       -1 0.45801818E-01 0.16853727E+03</pdfrwt>
<totfact> 0.21632755E+03</totfact>
</mgrwt>
</event>
<event>
 8    2  0.7478846E-004  0.1257114E+03  0.7818608E-02  0.1246993E+00
          1   -1    0    0  501    0  0.00000000000E+00  0.00000000000E+00  0.22600123925E+03  0.22600123930E+03  0.50400000000E-02 0. -1.
         -1   -1    0    0    0  501 -0.00000000000E+00 -0.00000000000E+00 -0.59000864426E+02  0.59000864642E+02  0.50400000000E-02 0.  1.
         25    2    1    2    0    0  0.20813873095E+01  0.13183187826E+02  0.13217531660E+03  0.18241072241E+03  0.12500091486E+03 0.  0.
         23    2    1    2    0    0 -0.20813873095E+01 -0.13183187826E+02  0.34825058221E+02  0.10259138154E+03  0.95572371903E+02 0.  0.
        -11    1    4    4    0    0 -0.10035396950E+02 -0.30931901909E+02 -0.24141078631E+02  0.40500412657E+02  0.51100000000E-03 0.  1.
         11    1    4    4    0    0  0.79540096410E+01  0.17748714083E+02  0.58966136852E+02  0.62090968880E+02  0.51100000000E-03 0. -1.
    9000005    1    3    3    0    0  0.52558417841E+02  0.36613287387E+02  0.98052212031E+02  0.11712453365E+03  0.10000000000E+01 0.  0.
    9000005    1    3    3    0    0 -0.50477030531E+02 -0.23430099561E+02  0.34123104567E+02  0.65286188754E+02  0.10000000000E+01 0.  0.
<mgrwt>
<rscale>  0 0.11766914E+03</rscale>
<asrwt>0</asrwt>
<pdfrwt beam="1">  1        1 0.34769422E-01 0.12571140E+03</pdfrwt>
<pdfrwt beam="2">  1       -1 0.90770560E-02 0.12571140E+03</pdfrwt>
<totfact> 0.83721673E+03</totfact>
</mgrwt>
</event>
<event>
 8    2  0.7478846E-004  0.1255321E+03  0.7818608E-02  0.1249295E+00
          1   -1    0    0  501    0  0.00000000000E+00  0.00000000000E+00  0.24910503714E+02  0.24910504224E+02  0.50400000000E-02 0. -1.
         -1   -1    0    0    0  501 -0.00000000000E+00 -0.00000000000E+00 -0.65289495101E+03  0.65289495103E+03  0.50400000000E-02 0.  1.
         25    2    1    2    0    0 -0.37278385747E+01 -0.10930462667E+02 -0.52300386697E+03  0.53785812499E+03  0.12499978386E+03 0.  0.
         23    2    1    2    0    0  0.37278385747E+01  0.10930462667E+02 -0.10498058033E+03  0.13994733026E+03  0.91820265771E+02 0.  0.
        -11    1    4    4    0    0 -0.19530915700E+02  0.29411931410E+02 -0.50144188230E+01  0.35660381010E+02  0.51100000000E-03 0. -1.
         11    1    4    4    0    0  0.23258754275E+02 -0.18481468744E+02 -0.99966161510E+02  0.10428694925E+03  0.51100000000E-03 0.  1.
    9000005    1    3    3    0    0 -0.21698075726E+02  0.36237120966E+02 -0.67956826335E+02  0.80019158154E+02  0.10000000000E+01 0.  0.
    9000005    1    3    3    0    0  0.17970237151E+02 -0.47167583633E+02 -0.45504704063E+03  0.45783896684E+03  0.10000000000E+01 0.  0.
<mgrwt>
<rscale>  0 0.11631960E+03</rscale>
<asrwt>0</asrwt>
<pdfrwt beam="1">  1        1 0.38323857E-02 0.12553214E+03</pdfrwt>
<pdfrwt beam="2">  1       -1 0.10044536E+00 0.12553214E+03</pdfrwt>
<totfact> 0.23230254E+03</totfact>
</mgrwt>
</event>
<event>
 8    2  0.7478846E-004  0.1492714E+03  0.7818608E-02  0.1211757E+00
          1   -1    0    0  501    0  0.00000000000E+00  0.00000000000E+00  0.28553926804E+02  0.28553927248E+02  0.50400000000E-02 0. -1.
         -1   -1    0    0    0  501 -0.00000000000E+00 -0.00000000000E+00 -0.63862581784E+03  0.63862581786E+03  0.50400000000E-02 0.  1.
         25    2    1    2    0    0  0.75200478942E+02 -0.31652227662E+02 -0.30510147271E+03  0.33965991874E+03  0.12499990480E+03 0.  0.
         23    2    1    2    0    0 -0.75200478942E+02  0.31652227662E+02 -0.30497041833E+03  0.32751982637E+03  0.87208400173E+02 0.  0.
        -11    1    4    4    0    0 -0.48667635734E+02  0.44109449190E+02 -0.94893092482E+02  0.11540745763E+03  0.51100000000E-03 0. -1.
         11    1    4    4    0    0 -0.26532843208E+02 -0.12457221528E+02 -0.21007732585E+03  0.21211236874E+03  0.51100000000E-03 0.  1.
    9000005    1    3    3    0    0 -0.42569164546E+01 -0.55702655818E+02 -0.65564688335E+02  0.86143110922E+02  0.10000000000E+01 0.  0.
    9000005    1    3    3    0    0  0.79457395397E+02  0.24050428156E+02 -0.23953678438E+03  0.25351680782E+03  0.10000000000E+01 0.  0.
<mgrwt>
<rscale>  0 0.14117444E+03</rscale>
<asrwt>0</asrwt>
<pdfrwt beam="1">  1        1 0.43929123E-02 0.14927140E+03</pdfrwt>
<pdfrwt beam="2">  1       -1 0.98250115E-01 0.14927140E+03</pdfrwt>
<totfact> 0.20384363E+03</totfact>
</mgrwt>
</event>
<event>
 8    2  0.7478846E-004  0.1448395E+03  0.7818608E-02  0.1216673E+00
          1   -1    0    0  501    0  0.00000000000E+00  0.00000000000E+00  0.19744464975E+03  0.19744464981E+03  0.50400000000E-02 0. -1.
         -1   -1    0    0    0  501 -0.00000000000E+00 -0.00000000000E+00 -0.88483583591E+02  0.88483583735E+02  0.50400000000E-02 0.  1.
         25    2    1    2    0    0  0.73078656570E+02 -0.37684959257E+01  0.76239577869E+02  0.16367941310E+03  0.12499514163E+03 0.  0.
         23    2    1    2    0    0 -0.73078656570E+02  0.37684959257E+01  0.32721488285E+02  0.12224882044E+03  0.92300523814E+02 0.  0.
        -11    1    4    4    0    0 -0.54167823866E+02  0.30480610606E+02  0.54723411476E+02  0.82812272817E+02  0.51100000000E-03 0. -1.
         11    1    4    4    0    0 -0.18910832704E+02 -0.26712114680E+02 -0.22001923191E+02  0.39436547625E+02  0.51100000000E-03 0.  1.
    9000005    1    3    3    0    0  0.39065596168E+02 -0.25572766015E+02  0.10443495564E+03  0.11440169197E+03  0.10000000000E+01 0.  0.
    9000005    1    3    3    0    0  0.34013060402E+02  0.21804270089E+02 -0.28195377774E+02  0.49277721131E+02  0.10000000000E+01 0.  0.
<mgrwt>
<rscale>  0 0.13754372E+03</rscale>
<asrwt>0</asrwt>
<pdfrwt beam="1">  1        1 0.30376100E-01 0.14483949E+03</pdfrwt>
<pdfrwt beam="2">  1       -1 0.13612859E-01 0.14483949E+03</pdfrwt>
<totfact> 0.53634346E+03</totfact>
</mgrwt>
</event>
<event>
 8    2  0.7478846E-004  0.1366056E+03  0.7818608E-02  0.1231260E+00
         -1   -1    0    0    0  501 -0.00000000000E+00  0.00000000000E+00  0.13498877264E+03  0.13498877273E+03  0.50400000000E-02 0.  1.
          1   -1    0    0  501    0  0.00000000000E+00 -0.00000000000E+00 -0.10683951724E+03  0.10683951736E+03  0.50400000000E-02 0. -1.
         25    2    1    2    0    0 -0.54311147176E+02  0.93283083049E+01  0.17243729029E+02  0.13768966429E+03  0.12499751765E+03 0.  0.
         23    2    1    2    0    0  0.54311147176E+02 -0.93283083049E+01  0.10905526366E+02  0.10413862581E+03  0.87688111149E+02 0.  0.
        -11    1    4    4    0    0  0.35460471521E+02  0.21945268527E+02 -0.28426866323E+02  0.50469065579E+02  0.51100000000E-03 0. -1.
         11    1    4    4    0    0  0.18850675655E+02 -0.31273576832E+02  0.39332392688E+02  0.53669560231E+02  0.51100000000E-03 0.  1.
    9000005    1    3    3    0    0  0.40825121730E+02  0.53565142285E+01  0.18469806018E+01  0.41228559838E+02  0.10000000000E+01 0.  0.
    9000005    1    3    3    0    0 -0.95136268906E+02  0.39717940764E+01  0.15396748427E+02  0.96461104450E+02  0.10000000000E+01 0.  0.
<mgrwt>
<rscale>  0 0.12746935E+03</rscale>
<asrwt>0</asrwt>
<pdfrwt beam="2">  1        1 0.16436849E-01 0.13660563E+03</pdfrwt>
<pdfrwt beam="1">  1       -1 0.20767503E-01 0.13660563E+03</pdfrwt>
<totfact> 0.59530647E+03</totfact>
</mgrwt>
</event>
<event>
 8    2  0.7478846E-004  0.1253351E+03  0.7818608E-02  0.1250251E+00
         -1   -1    0    0    0  501 -0.00000000000E+00  0.00000000000E+00  0.12662685893E+03  0.12662685903E+03  0.50400000000E-02 0.  1.
          1   -1    0    0  501    0  0.00000000000E+00 -0.00000000000E+00 -0.92593644288E+02  0.92593644425E+02  0.50400000000E-02 0. -1.
         25    2    1    2    0    0 -0.64899367514E+01 -0.64472492913E+01  0.18876183394E+02  0.12674852298E+03  0.12500076590E+03 0.  0.
         23    2    1    2    0    0  0.64899367514E+01  0.64472492913E+01  0.15157031252E+02  0.92471980477E+02  0.90761474616E+02 0.  0.
        -11    1    4    4    0    0  0.35355178101E+02  0.12976140143E+02  0.39186710941E+02  0.54350410727E+02  0.51100000000E-03 0.  1.
         11    1    4    4    0    0 -0.28865241350E+02 -0.65288908520E+01 -0.24029679690E+02  0.38121569750E+02  0.51100000000E-03 0. -1.
    9000005    1    3    3    0    0 -0.48004267084E+02  0.15810994292E+02 -0.30063463015E+02  0.58815040655E+02  0.10000000000E+01 0.  0.
    9000005    1    3    3    0    0  0.41514330333E+02 -0.22258243584E+02  0.48939646410E+02  0.67933482327E+02  0.10000000000E+01 0.  0.
<mgrwt>
<rscale>  0 0.11576534E+03</rscale>
<asrwt>0</asrwt>
<pdfrwt beam="2">  1        1 0.14245176E-01 0.12533506E+03</pdfrwt>
<pdfrwt beam="1">  1       -1 0.19481055E-01 0.12533506E+03</pdfrwt>
<totfact> 0.78856056E+03</totfact>
</mgrwt>
</event>
<event>
 8    2  0.7478846E-004  0.1566768E+03  0.7818608E-02  0.1200813E+00
         -1   -1    0    0    0  501 -0.00000000000E+00  0.00000000000E+00  0.21052407628E+02  0.21052408231E+02  0.50400000000E-02 0.  1.
          1   -1    0    0  501    0  0.00000000000E+00 -0.00000000000E+00 -0.98276839306E+03  0.98276839307E+03  0.50400000000E-02 0. -1.
         25    2    1    2    0    0 -0.76011147675E+02  0.56083239331E+02 -0.54858987147E+03  0.57052472385E+03  0.12499835653E+03 0.  0.
         23    2    1    2    0    0  0.76011147675E+02 -0.56083239331E+02 -0.41312611396E+03  0.43329607745E+03  0.90273364836E+02 0.  0.
        -11    1    4    4    0    0  0.87537781087E+02 -0.48561651984E+02 -0.24577342472E+03  0.26537835907E+03  0.51100000000E-03 0.  1.
         11    1    4    4    0    0 -0.11526633411E+02 -0.75215873469E+01 -0.16735268923E+03  0.16791771839E+03  0.51100000000E-03 0. -1.
    9000005    1    3    3    0    0 -0.88439468366E+02 -0.10370841554E+02 -0.31532549281E+03  0.32765875592E+03  0.10000000000E+01 0.  0.
    9000005    1    3    3    0    0  0.12428320691E+02  0.66454080885E+02 -0.23326437867E+03  0.24286596793E+03  0.10000000000E+01 0.  0.
<mgrwt>
<rscale>  0 0.14972351E+03</rscale>
<asrwt>0</asrwt>
<pdfrwt beam="2">  1        1 0.15119510E+00 0.15667678E+03</pdfrwt>
<pdfrwt beam="1">  1       -1 0.32388327E-02 0.15667678E+03</pdfrwt>
<totfact> 0.54381912E+03</totfact>
</mgrwt>
</event>
<event>
 8    2  0.7478846E-004  0.1319152E+03  0.7818608E-02  0.1237764E+00
          1   -1    0    0  501    0  0.00000000000E+00  0.00000000000E+00  0.12100304020E+03  0.12100304030E+03  0.50400000000E-02 0. -1.
         -1   -1    0    0    0  501 -0.00000000000E+00 -0.00000000000E+00 -0.12606453318E+03  0.12606453328E+03  0.50400000000E-02 0.  1.
         25    2    1    2    0    0 -0.23185826036E+02  0.35192203526E+02 -0.44119723495E+02  0.13909767232E+03  0.12500215489E+03 0.  0.
         23    2    1    2    0    0  0.23185826036E+02 -0.35192203526E+02  0.39058230517E+02  0.10796990125E+03  0.91410505347E+02 0.  0.
        -11    1    4    4    0    0 -0.30592888966E+02 -0.30323189027E+02  0.31678821248E+02  0.53469321708E+02  0.51100000000E-03 0. -1.
         11    1    4    4    0    0  0.53778715002E+02 -0.48690144992E+01  0.73794092693E+01  0.54500579546E+02  0.51100000000E-03 0.  1.
    9000005    1    3    3    0    0 -0.13514323734E+01 -0.31499006864E+02 -0.59414454987E+02  0.67268798594E+02  0.10000000000E+01 0.  0.
    9000005    1    3    3    0    0 -0.21834393663E+02  0.66691210390E+02  0.15294731492E+02  0.71828873730E+02  0.10000000000E+01 0.  0.
<mgrwt>
<rscale>  0 0.12329138E+03</rscale>
<asrwt>0</asrwt>
<pdfrwt beam="1">  1        1 0.18615852E-01 0.13191517E+03</pdfrwt>
<pdfrwt beam="2">  1       -1 0.19394544E-01 0.13191517E+03</pdfrwt>
<totfact> 0.56512438E+03</totfact>
</mgrwt>
</event>
<event>
 8    2  0.7478846E-004  0.1347222E+03  0.7818608E-02  0.1232145E+00
          1   -1    0    0  501    0  0.00000000000E+00  0.00000000000E+00  0.24163831617E+04  0.24163831617E+04  0.50400000000E-02 0. -1.
         -1   -1    0    0    0  501 -0.00000000000E+00 -0.00000000000E+00 -0.71105084363E+01  0.71105102225E+01  0.50400000000E-02 0.  1.
         25    2    1    2    0    0 -0.49566482464E+02  0.82407888960E+01  0.18025475057E+04  0.18075750561E+04  0.12500130404E+03 0.  0.
         23    2    1    2    0    0  0.49566482464E+02 -0.82407888960E+01  0.60672514754E+03  0.61591861590E+03  0.93357324107E+02 0.  0.
        -11    1    4    4    0    0  0.40407559917E+02  0.61958954743E+01  0.59183921173E+03  0.59324936794E+03  0.51100000000E-03 0. -1.
         11    1    4    4    0    0  0.91589225467E+01 -0.14436684370E+02  0.14885935817E+02  0.22669247964E+02  0.51100000000E-03 0.  1.
    9000005    1    3    3    0    0 -0.61539587713E+02 -0.25363370960E+02  0.16308437264E+04  0.16322017894E+04  0.10000000000E+01 0.  0.
    9000005    1    3    3    0    0  0.11973105249E+02  0.33604159856E+02  0.17170377937E+03  0.17537326666E+03  0.10000000000E+01 0.  0.
<mgrwt>
<rscale>  0 0.12688983E+03</rscale>
<asrwt>0</asrwt>
<pdfrwt beam="1">  1        1 0.37175182E+00 0.13472221E+03</pdfrwt>
<pdfrwt beam="2">  1       -1 0.10939229E-02 0.13472221E+03</pdfrwt>
<totfact> 0.29757920E+03</totfact>
</mgrwt>
</event>
<event>
 8    2  0.7478846E-004  0.1309808E+03  0.7818608E-02  0.1239647E+00
         -1   -1    0    0    0  501 -0.00000000000E+00  0.00000000000E+00  0.16605911171E+03  0.16605911179E+03  0.50400000000E-02 0.  1.
          1   -1    0    0  501    0  0.00000000000E+00 -0.00000000000E+00 -0.79860380421E+02  0.79860380580E+02  0.50400000000E-02 0. -1.
         25    2    1    2    0    0 -0.38919792885E+02  0.41082282961E+01  0.56044007610E+02  0.14246722686E+03  0.12499740846E+03 0.  0.
         23    2    1    2    0    0  0.38919792885E+02 -0.41082282961E+01  0.30154723680E+02  0.10345226551E+03  0.90892442269E+02 0.  0.
        -11    1    4    4    0    0 -0.27123688041E+02 -0.16283109996E+02  0.68656851095E+01  0.32372391885E+02  0.51100000000E-03 0. -1.
         11    1    4    4    0    0  0.66043480926E+02  0.12174881700E+02  0.23289038570E+02  0.71079873628E+02  0.51100000000E-03 0.  1.
    9000005    1    3    3    0    0  0.39378676925E+02 -0.16329910511E+02 -0.22945035858E+01  0.42703757684E+02  0.10000000000E+01 0.  0.
    9000005    1    3    3    0    0 -0.78298469810E+02  0.20438138807E+02  0.58338511196E+02  0.99763469171E+02  0.10000000000E+01 0.  0.
<mgrwt>
<rscale>  0 0.12211546E+03</rscale>
<asrwt>0</asrwt>
<pdfrwt beam="2">  1        1 0.12286213E-01 0.13098084E+03</pdfrwt>
<pdfrwt beam="1">  1       -1 0.25547555E-01 0.13098084E+03</pdfrwt>
<totfact> 0.61818043E+03</totfact>
</mgrwt>
</event>
<event>
 8    2  0.7478846E-004  0.1507693E+03  0.7818608E-02  0.1207414E+00
         -1   -1    0    0    0  501 -0.00000000000E+00  0.00000000000E+00  0.52356543914E+02  0.52356544156E+02  0.50400000000E-02 0.  1.
          1   -1    0    0  501    0  0.00000000000E+00 -0.00000000000E+00 -0.47093692627E+03  0.47093692629E+03  0.50400000000E-02 0. -1.
         25    2    1    2    0    0  0.65281265914E+01 -0.84049800823E+02 -0.34467088287E+03  0.37620394108E+03  0.12499760928E+03 0.  0.
         23    2    1    2    0    0 -0.65281265914E+01  0.84049800823E+02 -0.73909499480E+02  0.14708952937E+03  0.95214127540E+02 0.  0.
        -11    1    4    4    0    0 -0.31396831325E+02  0.12929421923E+02 -0.62169095181E+02  0.70837330302E+02  0.51100000000E-03 0. -1.
         11    1    4    4    0    0  0.24868704733E+02  0.71120378900E+02 -0.11740404299E+02  0.76252199072E+02  0.51100000000E-03 0.  1.
    9000005    1    3    3    0    0  0.50878353248E+02 -0.44028999188E+02 -0.78428263463E+02  0.10333998311E+03  0.10000000000E+01 0.  0.
    9000005    1    3    3    0    0 -0.44350226657E+02 -0.40020801635E+02 -0.26624261941E+03  0.27286395797E+03  0.10000000000E+01 0.  0.
<mgrwt>
<rscale>  0 0.14448827E+03</rscale>
<asrwt>0</asrwt>
<pdfrwt beam="2">  1        1 0.72451832E-01 0.15076932E+03</pdfrwt>
<pdfrwt beam="1">  1       -1 0.80548533E-02 0.15076932E+03</pdfrwt>
<totfact> 0.40517964E+03</totfact>
</mgrwt>
</event>
<event>
 8    2  0.7478846E-004  0.1431788E+03  0.7818608E-02  0.1219222E+00
         -1   -1    0    0    0  501 -0.00000000000E+00  0.00000000000E+00  0.62937843638E+02  0.62937843840E+02  0.50400000000E-02 0.  1.
          1   -1    0    0  501    0  0.00000000000E+00 -0.00000000000E+00 -0.43554413512E+03  0.43554413515E+03  0.50400000000E-02 0. -1.
         25    2    1    2    0    0 -0.65483767304E+01 -0.69516823515E+02 -0.43444450262E+02  0.14962484848E+03  0.12499882013E+03 0.  0.
         23    2    1    2    0    0  0.65483767304E+01  0.69516823515E+02 -0.32916184122E+03  0.34885713051E+03  0.92077737830E+02 0.  0.
        -11    1    4    4    0    0  0.15180840811E+02  0.24887262075E+02 -0.17719050225E+02  0.34114490799E+02  0.51100000000E-03 0.  1.
         11    1    4    4    0    0 -0.86324640804E+01  0.44629561440E+02 -0.31144279099E+03  0.31474263971E+03  0.51100000000E-03 0. -1.
    9000005    1    3    3    0    0  0.97757228615E+01  0.35504140422E+02 -0.12971321092E+02  0.39055907562E+02  0.10000000000E+01 0.  0.
    9000005    1    3    3    0    0 -0.16324099592E+02 -0.10502096394E+03 -0.30473129169E+02  0.11056894092E+03  0.10000000000E+01 0.  0.
<mgrwt>
<rscale>  0 0.13570930E+03</rscale>
<asrwt>0</asrwt>
<pdfrwt beam="2">  1        1 0.67006788E-01 0.14317882E+03</pdfrwt>
<pdfrwt beam="1">  1       -1 0.96827455E-02 0.14317882E+03</pdfrwt>
<totfact> 0.33793312E+03</totfact>
</mgrwt>
</event>
<event>
 8    2  0.7478846E-004  0.1907389E+03  0.7818608E-02  0.1163071E+00
         -1   -1    0    0    0  501 -0.00000000000E+00  0.00000000000E+00  0.19782723821E+02  0.19782724463E+02  0.50400000000E-02 0. -1.
          1   -1    0    0  501    0  0.00000000000E+00 -0.00000000000E+00 -0.16436473628E+04  0.16436473628E+04  0.50400000000E-02 0.  1.
         25    2    1    2    0    0  0.54223593443E+02  0.13346430227E+03 -0.79406986100E+03  0.81665675747E+03  0.12501358850E+03 0.  0.
         23    2    1    2    0    0 -0.54223593443E+02 -0.13346430227E+03 -0.82979477795E+03  0.84677332977E+03  0.87822436937E+02 0.  0.
        -11    1    4    4    0    0 -0.60127608207E+02 -0.13085439058E+03 -0.60563572302E+03  0.62252134888E+03  0.51100000000E-03 0. -1.
         11    1    4    4    0    0  0.59040147637E+01 -0.26099116914E+01 -0.22415905493E+03  0.22425198090E+03  0.51100000000E-03 0.  1.
    9000005    1    3    3    0    0 -0.86302516990E+01  0.10898396441E+03 -0.32827369711E+03  0.34600087566E+03  0.10000000000E+01 0.  0.
    9000005    1    3    3    0    0  0.62853845142E+02  0.24480337863E+02 -0.46579616389E+03  0.47065588181E+03  0.10000000000E+01 0.  0.
<mgrwt>
<rscale>  0 0.18497781E+03</rscale>
<asrwt>0</asrwt>
<pdfrwt beam="2">  1        1 0.25286872E+00 0.19073887E+03</pdfrwt>
<pdfrwt beam="1">  1       -1 0.30434973E-02 0.19073887E+03</pdfrwt>
<totfact> 0.21254819E+03</totfact>
</mgrwt>
</event>
<event>
 8    2  0.7478846E-004  0.2208844E+03  0.7818608E-02  0.1137221E+00
          1   -1    0    0  501    0  0.00000000000E+00  0.00000000000E+00  0.10204333594E+04  0.10204333595E+04  0.50400000000E-02 0. -1.
         -1   -1    0    0    0  501 -0.00000000000E+00 -0.00000000000E+00 -0.51925435809E+02  0.51925436054E+02  0.50400000000E-02 0.  1.
         25    2    1    2    0    0 -0.12545680770E+03  0.13200514606E+03  0.71988833569E+03  0.75301337109E+03  0.12500060797E+03 0.  0.
         23    2    1    2    0    0  0.12545680770E+03 -0.13200514606E+03  0.24861958795E+03  0.31934542443E+03  0.83696065650E+02 0.  0.
        -11    1    4    4    0    0 -0.11927103079E+01 -0.47201086018E+02  0.47275717305E+02  0.66815855350E+02  0.51100000000E-03 0.  1.
         11    1    4    4    0    0  0.12664951801E+03 -0.84804060037E+02  0.20134387065E+03  0.25252956908E+03  0.51100000000E-03 0. -1.
    9000005    1    3    3    0    0 -0.19656260087E+02  0.10471220303E+03  0.27541111453E+03  0.29530204204E+03  0.10000000000E+01 0.  0.
    9000005    1    3    3    0    0 -0.10580054762E+03  0.27292943029E+02  0.44447722115E+03  0.45771132905E+03  0.10000000000E+01 0.  0.
<mgrwt>
<rscale>  0 0.21558138E+03</rscale>
<asrwt>0</asrwt>
<pdfrwt beam="1">  1        1 0.15698974E+00 0.22088441E+03</pdfrwt>
<pdfrwt beam="2">  1       -1 0.79885291E-02 0.22088441E+03</pdfrwt>
<totfact> 0.13333490E+03</totfact>
</mgrwt>
</event>
<event>
 8    2  0.7478846E-004  0.1917380E+03  0.7818608E-02  0.1161357E+00
         -1   -1    0    0    0  501 -0.00000000000E+00  0.00000000000E+00  0.38123856207E+02  0.38123856540E+02  0.50400000000E-02 0.  1.
          1   -1    0    0  501    0  0.00000000000E+00 -0.00000000000E+00 -0.88039536163E+03  0.88039536164E+03  0.50400000000E-02 0. -1.
         25    2    1    2    0    0 -0.14335498052E+03  0.24227328852E+02 -0.48870992515E+03  0.52497700939E+03  0.12500342214E+03 0.  0.
         23    2    1    2    0    0  0.14335498052E+03 -0.24227328852E+02 -0.35356158027E+03  0.39354220879E+03  0.93445519711E+02 0.  0.
        -11    1    4    4    0    0  0.32581415157E+01  0.72494058258E+01  0.35045159278E+01  0.86862536868E+01  0.51100000000E-03 0.  1.
         11    1    4    4    0    0  0.14009683900E+03 -0.31476734678E+02 -0.35706609620E+03  0.38485595511E+03  0.51100000000E-03 0. -1.
    9000005    1    3    3    0    0 -0.91979455148E+02 -0.35541568394E+02 -0.16874361163E+03  0.19544520900E+03  0.10000000000E+01 0.  0.
    9000005    1    3    3    0    0 -0.51375525369E+02  0.59768897247E+02 -0.31996631351E+03  0.32953180039E+03  0.10000000000E+01 0.  0.
<mgrwt>
<rscale>  0 0.18682501E+03</rscale>
<asrwt>0</asrwt>
<pdfrwt beam="2">  1        1 0.13544543E+00 0.19173802E+03</pdfrwt>
<pdfrwt beam="1">  1       -1 0.58652093E-02 0.19173802E+03</pdfrwt>
<totfact> 0.27167742E+03</totfact>
</mgrwt>
</event>
<event>
 8    2  0.7478846E-004  0.1682276E+03  0.7818608E-02  0.1186329E+00
          1   -1    0    0  501    0  0.00000000000E+00  0.00000000000E+00  0.15661873583E+04  0.15661873583E+04  0.50400000000E-02 0. -1.
         -1   -1    0    0    0  501 -0.00000000000E+00 -0.00000000000E+00 -0.16908191428E+02  0.16908192179E+02  0.50400000000E-02 0.  1.
         25    2    1    2    0    0 -0.10867371122E+03  0.29418225146E+02  0.10414550563E+04  0.10549545813E+04  0.12500050679E+03 0.  0.
         23    2    1    2    0    0  0.10867371122E+03 -0.29418225146E+02  0.50782411051E+03  0.52814096919E+03  0.91499446116E+02 0.  0.
        -11    1    4    4    0    0  0.84267214152E+02 -0.38989118468E+02  0.48364545345E+03  0.49247745064E+03  0.51100000000E-03 0. -1.
         11    1    4    4    0    0  0.24406497068E+02  0.95708933220E+01  0.24178657055E+02  0.35663518550E+02  0.51100000000E-03 0.  1.
    9000005    1    3    3    0    0  0.10381719888E+02  0.13592164984E+02  0.50193053580E+03  0.50222284877E+03  0.10000000000E+01 0.  0.
    9000005    1    3    3    0    0 -0.11905543111E+03  0.15826060163E+02  0.53952452054E+03  0.55273173251E+03  0.10000000000E+01 0.  0.
<mgrwt>
<rscale>  0 0.16211500E+03</rscale>
<asrwt>0</asrwt>
<pdfrwt beam="1">  1        1 0.24095191E+00 0.16822763E+03</pdfrwt>
<pdfrwt beam="2">  1       -1 0.26012602E-02 0.16822763E+03</pdfrwt>
<totfact> 0.30002284E+03</totfact>
</mgrwt>
</event>
<event>
 8    2  0.7478846E-004  0.1254364E+03  0.7818608E-02  0.1250049E+00
          1   -1    0    0  501    0  0.00000000000E+00  0.00000000000E+00  0.30039024688E+02  0.30039025111E+02  0.50400000000E-02 0. -1.
         -1   -1    0    0    0  501 -0.00000000000E+00 -0.00000000000E+00 -0.39197993938E+03  0.39197993941E+03  0.50400000000E-02 0.  1.
         25    2    1    2    0    0  0.26436972191E+01  0.10070738824E+02 -0.21867773692E+03  0.25209965239E+03  0.12500349274E+03 0.  0.
         23    2    1    2    0    0 -0.26436972191E+01 -0.10070738824E+02 -0.14326317777E+03  0.16991931213E+03  0.90773485194E+02 0.  0.
        -11    1    4    4    0    0 -0.11908508107E+02 -0.44249208592E+02 -0.11752336683E+03  0.12614097977E+03  0.51100000000E-03 0.  1.
         11    1    4    4    0    0  0.92648108881E+01  0.34178469768E+02 -0.25739810937E+02  0.43778332355E+02  0.51100000000E-03 0. -1.
    9000005    1    3    3    0    0  0.63484277910E+01  0.57477086861E+02 -0.18497996312E+03  0.19381048683E+03  0.10000000000E+01 0.  0.
    9000005    1    3    3    0    0 -0.37047305719E+01 -0.47406348037E+02 -0.33697773800E+02  0.58289165562E+02  0.10000000000E+01 0.  0.
<mgrwt>
<rscale>  0 0.11588225E+03</rscale>
<asrwt>0</asrwt>
<pdfrwt beam="1">  1        1 0.46213887E-02 0.12543637E+03</pdfrwt>
<pdfrwt beam="2">  1       -1 0.60304602E-01 0.12543637E+03</pdfrwt>
<totfact> 0.50718024E+03</totfact>
</mgrwt>
</event>
<event>
 8    2  0.7478846E-004  0.1417870E+03  0.7818608E-02  0.1221870E+00
          1   -1    0    0  501    0  0.00000000000E+00  0.00000000000E+00  0.22291660232E+03  0.22291660237E+03  0.50400000000E-02 0. -1.
         -1   -1    0    0    0  501 -0.00000000000E+00 -0.00000000000E+00 -0.96025551534E+02  0.96025551666E+02  0.50400000000E-02 0.  1.
         25    2    1    2    0    0 -0.26640278732E+02  0.61392921846E+02 -0.94925192377E+01  0.14210437089E+03  0.12499899601E+03 0.  0.
         23    2    1    2    0    0  0.26640278732E+02 -0.61392921846E+02  0.13638357002E+03  0.17683778315E+03  0.90511480335E+02 0.  0.
        -11    1    4    4    0    0  0.35894016586E+02 -0.35310782152E+02  0.15289189852E+02  0.52621203801E+02  0.51100000000E-03 0.  1.
         11    1    4    4    0    0 -0.92537378543E+01 -0.26082139694E+02  0.12109438017E+03  0.12421657934E+03  0.51100000000E-03 0. -1.
    9000005    1    3    3    0    0 -0.16471679871E+02 -0.10765604531E+02  0.46302400101E+02  0.50320241790E+02  0.10000000000E+01 0.  0.
    9000005    1    3    3    0    0 -0.10168598861E+02  0.72158526377E+02 -0.55794919338E+02  0.91784129105E+02  0.10000000000E+01 0.  0.
<mgrwt>
<rscale>  0 0.13383790E+03</rscale>
<asrwt>0</asrwt>
<pdfrwt beam="1">  1        1 0.34294861E-01 0.14178697E+03</pdfrwt>
<pdfrwt beam="2">  1       -1 0.14773162E-01 0.14178697E+03</pdfrwt>
<totfact> 0.40542134E+03</totfact>
</mgrwt>
</event>
<event>
 8    2  0.7478846E-004  0.1478105E+03  0.7818608E-02  0.1213168E+00
         -1   -1    0    0    0  501 -0.00000000000E+00  0.00000000000E+00  0.15023499512E+03  0.15023499520E+03  0.50400000000E-02 0.  1.
          1   -1    0    0  501    0  0.00000000000E+00 -0.00000000000E+00 -0.20142997987E+03  0.20142997994E+03  0.50400000000E-02 0. -1.
         25    2    1    2    0    0  0.78887395087E+02  0.23087201133E-01  0.85044834072E+02  0.17053028036E+03  0.12499892432E+03 0.  0.
         23    2    1    2    0    0 -0.78887395087E+02 -0.23087201133E-01 -0.13623981883E+03  0.18113469478E+03  0.89583858934E+02 0.  0.
        -11    1    4    4    0    0 -0.73095094494E+02  0.14530773347E+02 -0.41886276416E+02  0.85489744212E+02  0.51100000000E-03 0.  1.
         11    1    4    4    0    0 -0.57923005935E+01 -0.14553860548E+02 -0.94353542410E+02  0.95644950565E+02  0.51100000000E-03 0. -1.
    9000005    1    3    3    0    0  0.96873673796E+01 -0.49668790559E+02  0.66591171580E+00  0.50618941916E+02  0.10000000000E+01 0.  0.
    9000005    1    3    3    0    0  0.69200027708E+02  0.49691877760E+02  0.84378922356E+02  0.11991133845E+03  0.10000000000E+01 0.  0.
<mgrwt>
<rscale>  0 0.14012000E+03</rscale>
<asrwt>0</asrwt>
<pdfrwt beam="2">  1        1 0.30989228E-01 0.14781053E+03</pdfrwt>
<pdfrwt beam="1">  1       -1 0.23113076E-01 0.14781053E+03</pdfrwt>
<totfact> 0.22537081E+03</totfact>
</mgrwt>
</event>
<event>
 8    2  0.7478846E-004  0.1268727E+03  0.7818608E-02  0.1245795E+00
          1   -1    0    0  501    0  0.00000000000E+00  0.00000000000E+00  0.35084530845E+03  0.35084530849E+03  0.50400000000E-02 0. -1.
         -1   -1    0    0    0  501 -0.00000000000E+00 -0.00000000000E+00 -0.47592048905E+02  0.47592049172E+02  0.50400000000E-02 0.  1.
         25    2    1    2    0    0 -0.10583402347E+02 -0.18952756315E+02  0.67247430159E+02  0.14359283245E+03  0.12500187715E+03 0.  0.
         23    2    1    2    0    0  0.10583402347E+02  0.18952756315E+02  0.23600582939E+03  0.25484452521E+03  0.93679053931E+02 0.  0.
        -11    1    4    4    0    0  0.49109688834E+02  0.85873773894E+01  0.83911056635E+02  0.97604149572E+02  0.51100000000E-03 0.  1.
         11    1    4    4    0    0 -0.38526286486E+02  0.10365378926E+02  0.15209477275E+03  0.15724037563E+03  0.51100000000E-03 0. -1.
    9000005    1    3    3    0    0 -0.31380299827E+02  0.45930065557E+02  0.46076563235E+02  0.72238105034E+02  0.10000000000E+01 0.  0.
    9000005    1    3    3    0    0  0.20796897480E+02 -0.64882821872E+02  0.21170866924E+02  0.71354727420E+02  0.10000000000E+01 0.  0.
<mgrwt>
<rscale>  0 0.11837941E+03</rscale>
<asrwt>0</asrwt>
<pdfrwt beam="1">  1        1 0.53976200E-01 0.12687271E+03</pdfrwt>
<pdfrwt beam="2">  1       -1 0.73218539E-02 0.12687271E+03</pdfrwt>
<totfact> 0.67260304E+03</totfact>
</mgrwt>
</event>
<event>
 8    2  0.7478846E-004  0.1539097E+03  0.7818608E-02  0.1204111E+00
          1   -1    0    0  501    0  0.00000000000E+00  0.00000000000E+00  0.61216871127E+03  0.61216871129E+03  0.50400000000E-02 0. -1.
         -1   -1    0    0    0  501 -0.00000000000E+00 -0.00000000000E+00 -0.34451429067E+02  0.34451429435E+02  0.50400000000E-02 0.  1.
         25    2    1    2    0    0 -0.24443794972E+02 -0.86398522251E+02  0.38952056963E+03  0.41882511766E+03  0.12500400499E+03 0.  0.
         23    2    1    2    0    0  0.24443794972E+02  0.86398522251E+02  0.18819671258E+03  0.22779502307E+03  0.91708048436E+02 0.  0.
        -11    1    4    4    0    0  0.28167016169E+02 -0.10478795591E+02  0.31537974384E+02  0.43564088254E+02  0.51100000000E-03 0.  1.
         11    1    4    4    0    0 -0.37232211969E+01  0.96877317842E+02  0.15665873820E+03  0.18423093481E+03  0.51100000000E-03 0. -1.
    9000005    1    3    3    0    0  0.43301088100E+02 -0.40913241875E+02  0.86678028222E+02  0.10518059787E+03  0.10000000000E+01 0.  0.
    9000005    1    3    3    0    0 -0.67744883072E+02 -0.45485280376E+02  0.30284254140E+03  0.31364451980E+03  0.10000000000E+01 0.  0.
<mgrwt>
<rscale>  0 0.14707699E+03</rscale>
<asrwt>0</asrwt>
<pdfrwt beam="1">  1        1 0.94179801E-01 0.15390973E+03</pdfrwt>
<pdfrwt beam="2">  1       -1 0.53002199E-02 0.15390973E+03</pdfrwt>
<totfact> 0.53579299E+03</totfact>
</mgrwt>
</event>
<event>
 8    2  0.7478846E-004  0.1322670E+03  0.7818608E-02  0.1237400E+00
         -1   -1    0    0    0  501 -0.00000000000E+00  0.00000000000E+00  0.12315685347E+02  0.12315686379E+02  0.50400000000E-02 0.  1.
          1   -1    0    0  501    0  0.00000000000E+00 -0.00000000000E+00 -0.11793793867E+04  0.11793793867E+04  0.50400000000E-02 0. -1.
         25    2    1    2    0    0  0.41523872778E+02 -0.12030675809E+02 -0.81009338054E+03  0.82082022742E+03  0.12500236551E+03 0.  0.
         23    2    1    2    0    0 -0.41523872778E+02  0.12030675809E+02 -0.35697032079E+03  0.37087484564E+03  0.90837063112E+02 0.  0.
        -11    1    4    4    0    0 -0.29980311198E+01 -0.34549808489E+02 -0.76940162200E+02  0.84394703725E+02  0.51100000000E-03 0. -1.
         11    1    4    4    0    0 -0.38525841659E+02  0.46580484299E+02 -0.28003015859E+03  0.28648014191E+03  0.51100000000E-03 0.  1.
    9000005    1    3    3    0    0  0.59199192034E+02  0.13398214206E+02 -0.75637003889E+03  0.75880214299E+03  0.10000000000E+01 0.  0.
    9000005    1    3    3    0    0 -0.17675319256E+02 -0.25428890016E+02 -0.53723341645E+02  0.62018084425E+02  0.10000000000E+01 0.  0.
<mgrwt>
<rscale>  0 0.12352021E+03</rscale>
<asrwt>0</asrwt>
<pdfrwt beam="2">  1        1 0.18144289E+00 0.13226700E+03</pdfrwt>
<pdfrwt beam="1">  1       -1 0.18947218E-02 0.13226700E+03</pdfrwt>
<totfact> 0.85155686E+03</totfact>
</mgrwt>
</event>
<event>
 8    2  0.7478846E-004  0.1362137E+03  0.7818608E-02  0.1230563E+00
         -1   -1    0    0    0  501 -0.00000000000E+00  0.00000000000E+00  0.17672804849E+03  0.17672804856E+03  0.50400000000E-02 0.  1.
          1   -1    0    0  501    0  0.00000000000E+00 -0.00000000000E+00 -0.85610875260E+02  0.85610875408E+02  0.50400000000E-02 0. -1.
         25    2    1    2    0    0  0.44652731315E+02 -0.30589328029E+02  0.28222895089E+02  0.13910678963E+03  0.12499837483E+03 0.  0.
         23    2    1    2    0    0 -0.44652731315E+02  0.30589328029E+02  0.62894278140E+02  0.12323213434E+03  0.91109249300E+02 0.  0.
        -11    1    4    4    0    0 -0.39380098156E+02  0.17274425997E+02  0.85940558892E+02  0.96098790769E+02  0.51100000000E-03 0.  1.
         11    1    4    4    0    0 -0.52726331587E+01  0.13314902032E+02 -0.23046280752E+02  0.27133343571E+02  0.51100000000E-03 0. -1.
    9000005    1    3    3    0    0  0.25342028537E+02 -0.78731342011E+02  0.27679153864E+02  0.87223724891E+02  0.10000000000E+01 0.  0.
    9000005    1    3    3    0    0  0.19310702778E+02  0.48142013982E+02  0.54374122433E+00  0.51883064737E+02  0.10000000000E+01 0.  0.
<mgrwt>
<rscale>  0 0.12792790E+03</rscale>
<asrwt>0</asrwt>
<pdfrwt beam="2">  1        1 0.13170904E-01 0.13621368E+03</pdfrwt>
<pdfrwt beam="1">  1       -1 0.27188930E-01 0.13621368E+03</pdfrwt>
<totfact> 0.51064974E+03</totfact>
</mgrwt>
</event>
<event>
 8    2  0.7478846E-004  0.1587195E+03  0.7818608E-02  0.1197631E+00
          1   -1    0    0  501    0  0.00000000000E+00  0.00000000000E+00  0.53639673623E+02  0.53639673860E+02  0.50400000000E-02 0. -1.
         -1   -1    0    0    0  501 -0.00000000000E+00 -0.00000000000E+00 -0.58167529685E+03  0.58167529688E+03  0.50400000000E-02 0.  1.
         25    2    1    2    0    0 -0.62013077059E+02  0.75639081218E+02 -0.45545239244E+03  0.48231605170E+03  0.12499999845E+03 0.  0.
         23    2    1    2    0    0  0.62013077059E+02 -0.75639081218E+02 -0.72583230792E+02  0.15299891904E+03  0.92592934401E+02 0.  0.
        -11    1    4    4    0    0  0.60050657633E+02 -0.50827043723E+02 -0.92275725174E+02  0.12126120283E+03  0.51100000000E-03 0.  1.
         11    1    4    4    0    0  0.19624194256E+01 -0.24812037496E+02  0.19692494383E+02  0.31737716206E+02  0.51100000000E-03 0. -1.
    9000005    1    3    3    0    0 -0.45643646041E+02  0.10970462899E+03 -0.30892464527E+03  0.33098925134E+03  0.10000000000E+01 0.  0.
    9000005    1    3    3    0    0 -0.16369431018E+02 -0.34065547770E+02 -0.14652774717E+03  0.15132680036E+03  0.10000000000E+01 0.  0.
<mgrwt>
<rscale>  0 0.15233633E+03</rscale>
<asrwt>0</asrwt>
<pdfrwt beam="1">  1        1 0.82522579E-02 0.15871954E+03</pdfrwt>
<pdfrwt beam="2">  1       -1 0.89488503E-01 0.15871954E+03</pdfrwt>
<totfact> 0.10588718E+03</totfact>
</mgrwt>
</event>
<event>
 8    2  0.7478846E-004  0.3088413E+03  0.7818608E-02  0.1082433E+00
         -1   -1    0    0    0  501 -0.00000000000E+00  0.00000000000E+00  0.11462788914E+03  0.11462788926E+03  0.50400000000E-02 0.  1.
          1   -1    0    0  501    0  0.00000000000E+00 -0.00000000000E+00 -0.82665578140E+03  0.82665578142E+03  0.50400000000E-02 0. -1.
         25    2    1    2    0    0  0.17051278019E+03  0.22512853173E+03 -0.44922432725E+03  0.54514716600E+03  0.12500188957E+03 0.  0.
         23    2    1    2    0    0 -0.17051278019E+03 -0.22512853173E+03 -0.26280356501E+03  0.39613650468E+03  0.90005291803E+02 0.  0.
        -11    1    4    4    0    0 -0.36641476502E+01 -0.61529745811E+02 -0.41551922940E+02  0.74336383405E+02  0.51100000000E-03 0. -1.
         11    1    4    4    0    0 -0.16684863254E+03 -0.16359878592E+03 -0.22125164207E+03  0.32180012127E+03  0.51100000000E-03 0.  1.
    9000005    1    3    3    0    0  0.14138432595E+03  0.23811028814E+03 -0.40420391275E+03  0.48996718261E+03  0.10000000000E+01 0.  0.
    9000005    1    3    3    0    0  0.29128454233E+02 -0.12981756416E+02 -0.45020414499E+02  0.55179983393E+02  0.10000000000E+01 0.  0.
<mgrwt>
<rscale>  0 0.30568521E+03</rscale>
<asrwt>0</asrwt>
<pdfrwt beam="2">  1        1 0.12717781E+00 0.30884128E+03</pdfrwt>
<pdfrwt beam="1">  1       -1 0.17635060E-01 0.30884128E+03</pdfrwt>
<totfact> 0.54321088E+02</totfact>
</mgrwt>
</event>
<event>
 8    2  0.7478846E-004  0.1406233E+03  0.7818608E-02  0.1223708E+00
         -1   -1    0    0    0  501 -0.00000000000E+00  0.00000000000E+00  0.77008608652E+02  0.77008608817E+02  0.50400000000E-02 0.  1.
          1   -1    0    0  501    0  0.00000000000E+00 -0.00000000000E+00 -0.20593492320E+03  0.20593492326E+03  0.50400000000E-02 0. -1.
         25    2    1    2    0    0  0.59730902787E+02  0.24129035036E+02 -0.66375096800E+02  0.15550100816E+03  0.12499967594E+03 0.  0.
         23    2    1    2    0    0 -0.59730902787E+02 -0.24129035036E+02 -0.62551217749E+02  0.12744252392E+03  0.90437552935E+02 0.  0.
        -11    1    4    4    0    0 -0.75554044175E+02 -0.41732936806E+02 -0.41527986854E+02  0.95784264355E+02  0.51100000000E-03 0.  1.
         11    1    4    4    0    0  0.15823141388E+02  0.17603901770E+02 -0.21023230895E+02  0.31658259562E+02  0.51100000000E-03 0. -1.
    9000005    1    3    3    0    0 -0.33548738159E+02  0.27042014615E+02 -0.39283732816E+02  0.58318093680E+02  0.10000000000E+01 0.  0.
    9000005    1    3    3    0    0  0.93279640946E+02 -0.29129795792E+01 -0.27091363984E+02  0.97182914484E+02  0.10000000000E+01 0.  0.
<mgrwt>
<rscale>  0 0.13255883E+03</rscale>
<asrwt>0</asrwt>
<pdfrwt beam="2">  1        1 0.31682296E-01 0.14062329E+03</pdfrwt>
<pdfrwt beam="1">  1       -1 0.11847478E-01 0.14062329E+03</pdfrwt>
<totfact> 0.63013387E+03</totfact>
</mgrwt>
</event>
<event>
 8    2  0.7478846E-004  0.1275908E+03  0.7818608E-02  0.1245887E+00
          1   -1    0    0  501    0  0.00000000000E+00  0.00000000000E+00  0.23025324300E+02  0.23025324851E+02  0.50400000000E-02 0. -1.
         -1   -1    0    0    0  501 -0.00000000000E+00 -0.00000000000E+00 -0.56823834800E+03  0.56823834802E+03  0.50400000000E-02 0.  1.
         25    2    1    2    0    0 -0.41947964510E+01 -0.25294266528E+02 -0.24018888652E+03  0.27197448719E+03  0.12498809639E+03 0.  0.
         23    2    1    2    0    0  0.41947964510E+01  0.25294266528E+02 -0.30502413718E+03  0.31928918568E+03  0.90821052597E+02 0.  0.
        -11    1    4    4    0    0 -0.34761316627E+02 -0.11055339133E+02 -0.17519614824E+03  0.17895323416E+03  0.51100000000E-03 0.  1.
         11    1    4    4    0    0  0.38956113078E+02  0.36349605662E+02 -0.12982798894E+03  0.14033595152E+03  0.51100000000E-03 0. -1.
    9000005    1    3    3    0    0  0.53306842391E+02  0.79982458512E+01 -0.15385758217E+03  0.16302989595E+03  0.10000000000E+01 0.  0.
    9000005    1    3    3    0    0 -0.57501638842E+02 -0.33292512380E+02 -0.86331304357E+02  0.10894459125E+03  0.10000000000E+01 0.  0.
<mgrwt>
<rscale>  0 0.11832434E+03</rscale>
<asrwt>0</asrwt>
<pdfrwt beam="1">  1        1 0.35423581E-02 0.12759083E+03</pdfrwt>
<pdfrwt beam="2">  1       -1 0.87421274E-01 0.12759083E+03</pdfrwt>
<totfact> 0.34911420E+03</totfact>
</mgrwt>
</event>
<event>
 8    2  0.7478846E-004  0.1267385E+03  0.7818608E-02  0.1246932E+00
          1   -1    0    0  501    0  0.00000000000E+00  0.00000000000E+00  0.13870424495E+03  0.13870424504E+03  0.50400000000E-02 0. -1.
         -1   -1    0    0    0  501 -0.00000000000E+00 -0.00000000000E+00 -0.88609916084E+02  0.88609916227E+02  0.50400000000E-02 0.  1.
         25    2    1    2    0    0 -0.13315937751E+02  0.16133534195E+02  0.37631697210E+02  0.13220742494E+03  0.12500021381E+03 0.  0.
         23    2    1    2    0    0  0.13315937751E+02 -0.16133534195E+02  0.12462631658E+02  0.95106736327E+02  0.91936766221E+02 0.  0.
        -11    1    4    4    0    0 -0.23493224483E+02 -0.32673325739E+02 -0.18452393345E+02  0.44271532974E+02  0.51100000000E-03 0.  1.
         11    1    4    4    0    0  0.36809162234E+02  0.16539791544E+02  0.30915025003E+02  0.50835203353E+02  0.51100000000E-03 0. -1.
    9000005    1    3    3    0    0  0.46581215813E+02  0.15516746737E+01  0.51025659394E+02  0.69114653131E+02  0.10000000000E+01 0.  0.
    9000005    1    3    3    0    0 -0.59897153564E+02  0.14581859522E+02 -0.13393962183E+02  0.63092771813E+02  0.10000000000E+01 0.  0.
<mgrwt>
<rscale>  0 0.11770478E+03</rscale>
<asrwt>0</asrwt>
<pdfrwt beam="1">  1        1 0.21339114E-01 0.12673854E+03</pdfrwt>
<pdfrwt beam="2">  1       -1 0.13632295E-01 0.12673854E+03</pdfrwt>
<totfact> 0.82567647E+03</totfact>
</mgrwt>
</event>
<event>
 8    2  0.7478846E-004  0.1444352E+03  0.7818608E-02  0.1217127E+00
         -1   -1    0    0    0  501 -0.00000000000E+00  0.00000000000E+00  0.45694629776E+03  0.45694629779E+03  0.50400000000E-02 0.  1.
          1   -1    0    0  501    0  0.00000000000E+00 -0.00000000000E+00 -0.70262437018E+02  0.70262437199E+02  0.50400000000E-02 0. -1.
         25    2    1    2    0    0  0.53053293356E+02 -0.49229934549E+02  0.24629672940E+02  0.14652017594E+03  0.12499321093E+03 0.  0.
         23    2    1    2    0    0 -0.53053293356E+02  0.49229934549E+02  0.36205418780E+03  0.38068855905E+03  0.92748615571E+02 0.  0.
        -11    1    4    4    0    0 -0.51255572971E+02  0.47747567587E+02  0.36784032192E+03  0.37445088651E+03  0.51100000000E-03 0.  1.
         11    1    4    4    0    0 -0.17977203854E+01  0.14823669616E+01 -0.57861341207E+01  0.62376725400E+01  0.51100000000E-03 0. -1.
    9000005    1    3    3    0    0  0.89865597424E+02 -0.20254059626E+02 -0.29037801440E+01  0.92170952425E+02  0.10000000000E+01 0.  0.
    9000005    1    3    3    0    0 -0.36812304068E+02 -0.28975874923E+02  0.27533453084E+02  0.54349223518E+02  0.10000000000E+01 0.  0.
<mgrwt>
<rscale>  0 0.13721419E+03</rscale>
<asrwt>0</asrwt>
<pdfrwt beam="2">  1        1 0.10809606E-01 0.14443525E+03</pdfrwt>
<pdfrwt beam="1">  1       -1 0.70299430E-01 0.14443525E+03</pdfrwt>
<totfact> 0.12079880E+03</totfact>
</mgrwt>
</event>
<event>
 8    2  0.7478846E-004  0.1332198E+03  0.7818608E-02  0.1234804E+00
          1   -1    0    0  501    0  0.00000000000E+00  0.00000000000E+00  0.73353066892E+02  0.73353067065E+02  0.50400000000E-02 0. -1.
         -1   -1    0    0    0  501 -0.00000000000E+00 -0.00000000000E+00 -0.22763092726E+03  0.22763092732E+03  0.50400000000E-02 0.  1.
         25    2    1    2    0    0 -0.34232518204E+02 -0.30830215750E+02 -0.25621580446E+02  0.13566122520E+03  0.12500054053E+03 0.  0.
         23    2    1    2    0    0  0.34232518204E+02  0.30830215750E+02 -0.12865627993E+03  0.16532276918E+03  0.93041991276E+02 0.  0.
        -11    1    4    4    0    0  0.37553205878E+02  0.14680636991E+02 -0.13975005757E+03  0.14545048287E+03  0.51100000000E-03 0.  1.
         11    1    4    4    0    0 -0.33206876745E+01  0.16149578759E+02  0.11093777648E+02  0.19872286317E+02  0.51100000000E-03 0. -1.
    9000005    1    3    3    0    0  0.38895752612E+02  0.13739510798E+02 -0.28196096415E+02  0.49976730398E+02  0.10000000000E+01 0.  0.
    9000005    1    3    3    0    0 -0.73128270816E+02 -0.44569726548E+02  0.25745159688E+01  0.85684494803E+02  0.10000000000E+01 0.  0.
<mgrwt>
<rscale>  0 0.12516984E+03</rscale>
<asrwt>0</asrwt>
<pdfrwt beam="1">  1        1 0.11285087E-01 0.13321975E+03</pdfrwt>
<pdfrwt beam="2">  1       -1 0.35020142E-01 0.13321975E+03</pdfrwt>
<totfact> 0.40749681E+03</totfact>
</mgrwt>
</event>
<event>
 8    2  0.7478846E-004  0.1880327E+03  0.7818608E-02  0.1165243E+00
          1   -1    0    0  501    0  0.00000000000E+00  0.00000000000E+00  0.61229846374E+03  0.61229846376E+03  0.50400000000E-02 0. -1.
         -1   -1    0    0    0  501 -0.00000000000E+00 -0.00000000000E+00 -0.55587206009E+02  0.55587206238E+02  0.50400000000E-02 0.  1.
         25    2    1    2    0    0  0.11418535518E+03  0.81809716737E+02  0.38252961313E+03  0.42624545604E+03  0.12500063514E+03 0.  0.
         23    2    1    2    0    0 -0.11418535518E+03 -0.81809716737E+02  0.17418164460E+03  0.24164021396E+03  0.91211965201E+02 0.  0.
        -11    1    4    4    0    0 -0.10398653483E+03 -0.53740211443E+02  0.77332234782E+02  0.14029071348E+03  0.51100000000E-03 0.  1.
         11    1    4    4    0    0 -0.10198820344E+02 -0.28069505294E+02  0.96849409822E+02  0.10134950048E+03  0.51100000000E-03 0. -1.
    9000005    1    3    3    0    0 -0.24787981769E+02  0.10988540246E+02  0.28360417144E+02  0.39249271554E+02  0.10000000000E+01 0.  0.
    9000005    1    3    3    0    0  0.13897333695E+03  0.70821176491E+02  0.35416919598E+03  0.38699618448E+03  0.10000000000E+01 0.  0.
<mgrwt>
<rscale>  0 0.18267034E+03</rscale>
<asrwt>0</asrwt>
<pdfrwt beam="1">  1        1 0.94199757E-01 0.18803267E+03</pdfrwt>
<pdfrwt beam="2">  1       -1 0.85518785E-02 0.18803267E+03</pdfrwt>
<totfact> 0.26259718E+03</totfact>
</mgrwt>
</event>
<event>
 8    2  0.7478846E-004  0.1447204E+03  0.7818608E-02  0.1216448E+00
          1   -1    0    0  501    0  0.00000000000E+00  0.00000000000E+00  0.85076573915E+02  0.85076574064E+02  0.50400000000E-02 0. -1.
         -1   -1    0    0    0  501 -0.00000000000E+00 -0.00000000000E+00 -0.25282132868E+03  0.25282132873E+03  0.50400000000E-02 0.  1.
         25    2    1    2    0    0 -0.45100835643E+02  0.57286873042E+02 -0.16465641852E+03  0.21921619841E+03  0.12501253652E+03 0.  0.
         23    2    1    2    0    0  0.45100835643E+02 -0.57286873042E+02 -0.30883362493E+01  0.11868170438E+03  0.93594540098E+02 0.  0.
        -11    1    4    4    0    0  0.29077422528E+02 -0.48095576540E+02  0.41864915904E+02  0.70081040000E+02  0.51100000000E-03 0. -1.
         11    1    4    4    0    0  0.16023413115E+02 -0.91912965026E+01 -0.44953252153E+02  0.48600664385E+02  0.51100000000E-03 0.  1.
    9000005    1    3    3    0    0 -0.76743243715E+02  0.38615106541E+01 -0.12087135967E+03  0.14323170846E+03  0.10000000000E+01 0.  0.
    9000005    1    3    3    0    0  0.31642408072E+02  0.53425362388E+02 -0.43785058854E+02  0.75984489955E+02  0.10000000000E+01 0.  0.
<mgrwt>
<rscale>  0 0.13770718E+03</rscale>
<asrwt>0</asrwt>
<pdfrwt beam="1">  1        1 0.13088704E-01 0.14472044E+03</pdfrwt>
<pdfrwt beam="2">  1       -1 0.38895589E-01 0.14472044E+03</pdfrwt>
<totfact> 0.28097834E+03</totfact>
</mgrwt>
</event>
<event>
 8    2  0.7478846E-004  0.1283433E+03  0.7818608E-02  0.1243688E+00
         -1   -1    0    0    0  501 -0.00000000000E+00  0.00000000000E+00  0.35884216529E+02  0.35884216883E+02  0.50400000000E-02 0.  1.
          1   -1    0    0  501    0  0.00000000000E+00 -0.00000000000E+00 -0.53309940168E+03  0.53309940170E+03  0.50400000000E-02 0. -1.
         25    2    1    2    0    0 -0.19266895143E+02 -0.21833074369E+02 -0.10755958087E+03  0.16745470062E+03  0.12499646770E+03 0.  0.
         23    2    1    2    0    0  0.19266895143E+02  0.21833074369E+02 -0.38965560427E+03  0.40152891796E+03  0.92445041146E+02 0.  0.
        -11    1    4    4    0    0 -0.86922505602E+00  0.26848161783E+02 -0.37538364458E+03  0.37634353982E+03  0.51100000000E-03 0. -1.
         11    1    4    4    0    0  0.20136120199E+02 -0.50150874141E+01 -0.14271959690E+02  0.25185378141E+02  0.51100000000E-03 0.  1.
    9000005    1    3    3    0    0  0.50146370969E+02  0.26818125069E+01 -0.22727155967E+02  0.55130520205E+02  0.10000000000E+01 0.  0.
    9000005    1    3    3    0    0 -0.69413266113E+02 -0.24514886876E+02 -0.84832424908E+02  0.11232418042E+03  0.10000000000E+01 0.  0.
<mgrwt>
<rscale>  0 0.11964270E+03</rscale>
<asrwt>0</asrwt>
<pdfrwt beam="2">  1        1 0.82015287E-01 0.12834334E+03</pdfrwt>
<pdfrwt beam="1">  1       -1 0.55206491E-02 0.12834334E+03</pdfrwt>
<totfact> 0.60174059E+03</totfact>
</mgrwt>
</event>
<event>
 8    2  0.7478846E-004  0.1738873E+03  0.7818608E-02  0.1180141E+00
          1   -1    0    0  501    0  0.00000000000E+00  0.00000000000E+00  0.34800389972E+03  0.34800389975E+03  0.50400000000E-02 0. -1.
         -1   -1    0    0    0  501 -0.00000000000E+00 -0.00000000000E+00 -0.79192441345E+02  0.79192441505E+02  0.50400000000E-02 0.  1.
         25    2    1    2    0    0 -0.10619118255E+03  0.57724240902E+02  0.99165976993E+02  0.20017665340E+03  0.12501258470E+03 0.  0.
         23    2    1    2    0    0  0.10619118255E+03 -0.57724240902E+02  0.16964548138E+03  0.22701968786E+03  0.90275656092E+02 0.  0.
        -11    1    4    4    0    0  0.11792606577E+03 -0.39100674325E+02  0.12007456229E+03  0.17278113390E+03  0.51100000000E-03 0.  1.
         11    1    4    4    0    0 -0.11734883219E+02 -0.18623566576E+02  0.49570919087E+02  0.54238553959E+02  0.51100000000E-03 0. -1.
    9000005    1    3    3    0    0 -0.99808575654E+02  0.72106212770E+02  0.26674466677E+02  0.12599041577E+03  0.10000000000E+01 0.  0.
    9000005    1    3    3    0    0 -0.63826068987E+01 -0.14381971869E+02  0.72491510316E+02  0.74186237629E+02  0.10000000000E+01 0.  0.
<mgrwt>
<rscale>  0 0.16781993E+03</rscale>
<asrwt>0</asrwt>
<pdfrwt beam="1">  1        1 0.53539060E-01 0.17388732E+03</pdfrwt>
<pdfrwt beam="2">  1       -1 0.12183453E-01 0.17388732E+03</pdfrwt>
<totfact> 0.31765791E+03</totfact>
</mgrwt>
</event>
<event>
 8    2  0.7478846E-004  0.1647759E+03  0.7818608E-02  0.1190819E+00
          1   -1    0    0  501    0  0.00000000000E+00  0.00000000000E+00  0.56266405509E+03  0.56266405511E+03  0.50400000000E-02 0. -1.
         -1   -1    0    0    0  501 -0.00000000000E+00 -0.00000000000E+00 -0.45427432082E+02  0.45427432361E+02  0.50400000000E-02 0.  1.
         25    2    1    2    0    0 -0.10652423379E+02  0.10682802357E+03  0.18552628925E+03  0.24813524495E+03  0.12500158016E+03 0.  0.
         23    2    1    2    0    0  0.10652423379E+02 -0.10682802357E+03  0.33171033376E+03  0.35995624252E+03  0.89504470623E+02 0.  0.
        -11    1    4    4    0    0  0.22736567616E+02 -0.18834495027E+02  0.19560978714E+02  0.35416402956E+02  0.51100000000E-03 0.  1.
         11    1    4    4    0    0 -0.12084144237E+02 -0.87993528542E+02  0.31214935505E+03  0.32453983957E+03  0.51100000000E-03 0. -1.
    9000005    1    3    3    0    0 -0.45284687620E+02  0.92688319597E+02  0.65000767541E+02  0.12193411050E+03  0.10000000000E+01 0.  0.
    9000005    1    3    3    0    0  0.34632264241E+02  0.14139703972E+02  0.12052552170E+03  0.12620113445E+03  0.10000000000E+01 0.  0.
<mgrwt>
<rscale>  0 0.15813456E+03</rscale>
<asrwt>0</asrwt>
<pdfrwt beam="1">  1        1 0.86563706E-01 0.16477590E+03</pdfrwt>
<pdfrwt beam="2">  1       -1 0.69888353E-02 0.16477590E+03</pdfrwt>
<totfact> 0.39847954E+03</totfact>
</mgrwt>
</event>
<event>
 8    2  0.7478846E-004  0.1603370E+03  0.7818608E-02  0.1195177E+00
         -1   -1    0    0    0  501 -0.00000000000E+00  0.00000000000E+00  0.18567017863E+02  0.18567018547E+02  0.50400000000E-02 0.  1.
          1   -1    0    0  501    0  0.00000000000E+00 -0.00000000000E+00 -0.13315574856E+04  0.13315574856E+04  0.50400000000E-02 0. -1.
         25    2    1    2    0    0 -0.44562677634E+02 -0.89941576639E+02 -0.91488538406E+03  0.92882895220E+03  0.12503054437E+03 0.  0.
         23    2    1    2    0    0  0.44562677634E+02  0.89941576639E+02 -0.39810508363E+03  0.42129555192E+03  0.94482617467E+02 0.  0.
        -11    1    4    4    0    0  0.55029028238E+02  0.28875424261E+02 -0.10759674288E+03  0.12425394623E+03  0.51100000000E-03 0.  1.
         11    1    4    4    0    0 -0.10466350604E+02  0.61066152378E+02 -0.29050834075E+03  0.29704160568E+03  0.51100000000E-03 0. -1.
    9000005    1    3    3    0    0  0.42450301222E+02 -0.46355704804E+02 -0.33967630387E+03  0.34544445407E+03  0.10000000000E+01 0.  0.
    9000005    1    3    3    0    0 -0.87012978856E+02 -0.43585871835E+02 -0.57520908020E+03  0.58338449813E+03  0.10000000000E+01 0.  0.
<mgrwt>
<rscale>  0 0.15439245E+03</rscale>
<asrwt>0</asrwt>
<pdfrwt beam="2">  1        1 0.20485492E+00 0.16033701E+03</pdfrwt>
<pdfrwt beam="1">  1       -1 0.28564654E-02 0.16033701E+03</pdfrwt>
<totfact> 0.37300933E+03</totfact>
</mgrwt>
</event>
<event>
 8    2  0.7478846E-004  0.5281078E+03  0.7818608E-02  0.1007095E+00
          1   -1    0    0  501    0  0.00000000000E+00  0.00000000000E+00  0.12254897326E+04  0.12254897326E+04  0.50400000000E-02 0. -1.
         -1   -1    0    0    0  501 -0.00000000000E+00 -0.00000000000E+00 -0.23394310502E+03  0.23394310507E+03  0.50400000000E-02 0.  1.
         25    2    1    2    0    0 -0.37435496585E+03  0.35090073059E+03  0.35415814522E+03  0.63586620415E+03  0.12499949827E+03 0.  0.
         23    2    1    2    0    0  0.37435496585E+03 -0.35090073059E+03  0.63738848239E+03  0.82356663356E+03  0.93407490328E+02 0.  0.
        -11    1    4    4    0    0  0.10739182079E+03 -0.16246169667E+03  0.23488139224E+03  0.30511649329E+03  0.51100000000E-03 0. -1.
         11    1    4    4    0    0  0.26696314506E+03 -0.18843903392E+03  0.40250709015E+03  0.51845014027E+03  0.51100000000E-03 0.  1.
    9000005    1    3    3    0    0 -0.28049693118E+03  0.32310187094E+03  0.26387844190E+03  0.50269889547E+03  0.10000000000E+01 0.  0.
    9000005    1    3    3    0    0 -0.93858034672E+02  0.27798859651E+02  0.90279703313E+02  0.13316730868E+03  0.10000000000E+01 0.  0.
<mgrwt>
<rscale>  0 0.52645667E+03</rscale>
<asrwt>0</asrwt>
<pdfrwt beam="1">  1        1 0.18853688E+00 0.52810779E+03</pdfrwt>
<pdfrwt beam="2">  1       -1 0.35991247E-01 0.52810779E+03</pdfrwt>
<totfact> 0.79139899E+01</totfact>
</mgrwt>
</event>
<event>
 8    2  0.7478846E-004  0.1292249E+03  0.7818608E-02  0.1243210E+00
          1   -1    0    0  501    0  0.00000000000E+00  0.00000000000E+00  0.19435504088E+04  0.19435504088E+04  0.50400000000E-02 0. -1.
         -1   -1    0    0    0  501 -0.00000000000E+00 -0.00000000000E+00 -0.10669763597E+02  0.10669764787E+02  0.50400000000E-02 0.  1.
         25    2    1    2    0    0  0.45468292890E+01  0.32456750035E+02  0.16593570058E+04  0.16643811918E+04  0.12499985916E+03 0.  0.
         23    2    1    2    0    0 -0.45468292890E+01 -0.32456750035E+02  0.27352363941E+03  0.28983898176E+03  0.90096280442E+02 0.  0.
        -11    1    4    4    0    0 -0.21103950038E+02 -0.11564000988E+02  0.11873531417E+02  0.26834373006E+02  0.51100000000E-03 0.  1.
         11    1    4    4    0    0  0.16557120749E+02 -0.20892749047E+02  0.26165010799E+03  0.26300460875E+03  0.51100000000E-03 0. -1.
    9000005    1    3    3    0    0  0.62701473540E+02  0.32672952068E+02  0.97098912220E+03  0.97356041005E+03  0.10000000000E+01 0.  0.
    9000005    1    3    3    0    0 -0.58154644251E+02 -0.21620203278E+00  0.68836788358E+03  0.69082078178E+03  0.10000000000E+01 0.  0.
<mgrwt>
<rscale>  0 0.11993135E+03</rscale>
<asrwt>0</asrwt>
<pdfrwt beam="1">  1        1 0.29900740E+00 0.12922492E+03</pdfrwt>
<pdfrwt beam="2">  1       -1 0.16415041E-02 0.12922492E+03</pdfrwt>
<totfact> 0.33383824E+03</totfact>
</mgrwt>
</event>
<event>
 8    2  0.7478846E-004  0.1598662E+03  0.7818608E-02  0.1196493E+00
         -1   -1    0    0    0  501 -0.00000000000E+00  0.00000000000E+00  0.55334142017E+02  0.55334142246E+02  0.50400000000E-02 0.  1.
          1   -1    0    0  501    0  0.00000000000E+00 -0.00000000000E+00 -0.42344126925E+03  0.42344126928E+03  0.50400000000E-02 0. -1.
         25    2    1    2    0    0  0.22701024928E+02 -0.97043045209E+02 -0.13457577594E+03  0.20896850163E+03  0.12499802418E+03 0.  0.
         23    2    1    2    0    0 -0.22701024928E+02  0.97043045209E+02 -0.23353135129E+03  0.26980690989E+03  0.91247944811E+02 0.  0.
        -11    1    4    4    0    0  0.31404236006E+02  0.55709979333E+02 -0.14193143227E+03  0.15567388768E+03  0.51100000000E-03 0. -1.
         11    1    4    4    0    0 -0.54105260935E+02  0.41333065876E+02 -0.91599919017E+02  0.11413302221E+03  0.51100000000E-03 0.  1.
    9000005    1    3    3    0    0  0.95405022594E+01 -0.61043249370E+02 -0.15403730639E+03  0.16596924786E+03  0.10000000000E+01 0.  0.
    9000005    1    3    3    0    0  0.13160522669E+02 -0.35999795839E+02  0.19461530449E+02  0.42999253770E+02  0.10000000000E+01 0.  0.
<mgrwt>
<rscale>  0 0.15328572E+03</rscale>
<asrwt>0</asrwt>
<pdfrwt beam="2">  1        1 0.65144808E-01 0.15986618E+03</pdfrwt>
<pdfrwt beam="1">  1       -1 0.85129452E-02 0.15986618E+03</pdfrwt>
<totfact> 0.42830169E+03</totfact>
</mgrwt>
</event>
<event>
 8    2  0.7478846E-004  0.1322108E+03  0.7818608E-02  0.1236757E+00
          1   -1    0    0  501    0  0.00000000000E+00  0.00000000000E+00  0.43158207654E+03  0.43158207657E+03  0.50400000000E-02 0. -1.
         -1   -1    0    0    0  501 -0.00000000000E+00 -0.00000000000E+00 -0.39533356174E+02  0.39533356495E+02  0.50400000000E-02 0.  1.
         25    2    1    2    0    0 -0.11418148722E+02 -0.41517606271E+02  0.31985973684E+03  0.34610682545E+03  0.12500239046E+03 0.  0.
         23    2    1    2    0    0  0.11418148722E+02  0.41517606271E+02  0.72188983523E+02  0.12500860761E+03  0.92530086373E+02 0.  0.
        -11    1    4    4    0    0 -0.36242087992E+01  0.58393267518E+02  0.10674231679E+02  0.59471403238E+02  0.51100000000E-03 0.  1.
         11    1    4    4    0    0  0.15042357521E+02 -0.16875661248E+02  0.61514751845E+02  0.65537204374E+02  0.51100000000E-03 0. -1.
    9000005    1    3    3    0    0 -0.37459874716E+02 -0.77494602486E+02  0.23597559090E+03  0.25118545962E+03  0.10000000000E+01 0.  0.
    9000005    1    3    3    0    0  0.26041725994E+02  0.35976996215E+02  0.83884145947E+02  0.94921365829E+02  0.10000000000E+01 0.  0.
<mgrwt>
<rscale>  0 0.12392593E+03</rscale>
<asrwt>0</asrwt>
<pdfrwt beam="1">  1        1 0.66397246E-01 0.13221075E+03</pdfrwt>
<pdfrwt beam="2">  1       -1 0.60820545E-02 0.13221075E+03</pdfrwt>
<totfact> 0.68602504E+03</totfact>
</mgrwt>
</event>
<event>
 8    2  0.7478846E-004  0.1890046E+03  0.7818608E-02  0.1164281E+00
          1   -1    0    0  501    0  0.00000000000E+00  0.00000000000E+00  0.11046241921E+04  0.11046241921E+04  0.50400000000E-02 0. -1.
         -1   -1    0    0    0  501 -0.00000000000E+00 -0.00000000000E+00 -0.71346144216E+02  0.71346144394E+02  0.50400000000E-02 0.  1.
         25    2    1    2    0    0  0.13714663914E+03 -0.35892125862E+02  0.75602994652E+02  0.20356459727E+03  0.12500114853E+03 0.  0.
         23    2    1    2    0    0 -0.13714663914E+03  0.35892125862E+02  0.95767505324E+03  0.97240573925E+03  0.91290573430E+02 0.  0.
        -11    1    4    4    0    0  0.27984712642E+01  0.16492295773E+02  0.32981619519E+02  0.36981272120E+02  0.51100000000E-03 0.  1.
         11    1    4    4    0    0 -0.13994511041E+03  0.19399830089E+02  0.92469343372E+03  0.93542446713E+03  0.51100000000E-03 0. -1.
    9000005    1    3    3    0    0  0.99468741157E+02 -0.69208074317E+02  0.90335768470E+02  0.15114674685E+03  0.10000000000E+01 0.  0.
    9000005    1    3    3    0    0  0.37677897985E+02  0.33315948455E+02 -0.14732773818E+02  0.52417850418E+02  0.10000000000E+01 0.  0.
<mgrwt>
<rscale>  0 0.18368727E+03</rscale>
<asrwt>0</asrwt>
<pdfrwt beam="1">  1        1 0.16994219E+00 0.18900458E+03</pdfrwt>
<pdfrwt beam="2">  1       -1 0.10976330E-01 0.18900458E+03</pdfrwt>
<totfact> 0.71196878E+02</totfact>
</mgrwt>
</event>
<event>
 8    2  0.7478846E-004  0.2093635E+03  0.7818608E-02  0.1145798E+00
          1   -1    0    0  501    0  0.00000000000E+00  0.00000000000E+00  0.10896382740E+04  0.10896382740E+04  0.50400000000E-02 0.  1.
         -1   -1    0    0    0  501 -0.00000000000E+00 -0.00000000000E+00 -0.38353835598E+02  0.38353835929E+02  0.50400000000E-02 0. -1.
         25    2    1    2    0    0  0.15051471162E+03 -0.74548570367E+02  0.43717893195E+03  0.48472517621E+03  0.12498363955E+03 0.  0.
         23    2    1    2    0    0 -0.15051471162E+03  0.74548570367E+02  0.61410550646E+03  0.64326693374E+03  0.91948938114E+02 0.  0.
        -11    1    4    4    0    0 -0.10528345787E+03  0.13417926611E+01  0.35015063802E+03  0.36563899712E+03  0.51100000000E-03 0.  1.
         11    1    4    4    0    0 -0.45231253742E+02  0.73206777706E+02  0.26395486844E+03  0.27762793662E+03  0.51100000000E-03 0. -1.
    9000005    1    3    3    0    0  0.10440981680E+03  0.68513851304E+01  0.30753737608E+03  0.32485164153E+03  0.10000000000E+01 0.  0.
    9000005    1    3    3    0    0  0.46104894814E+02 -0.81399955497E+02  0.12964155587E+03  0.15987353468E+03  0.10000000000E+01 0.  0.
<mgrwt>
<rscale>  0 0.20474336E+03</rscale>
<asrwt>0</asrwt>
<pdfrwt beam="1">  1        1 0.16763667E+00 0.20936351E+03</pdfrwt>
<pdfrwt beam="2">  1       -1 0.59005898E-02 0.20936351E+03</pdfrwt>
<totfact> 0.18786061E+03</totfact>
</mgrwt>
</event>
<event>
 8    2  0.7478846E-004  0.1597337E+03  0.7818608E-02  0.1196662E+00
          1   -1    0    0  501    0  0.00000000000E+00  0.00000000000E+00  0.78223932030E+02  0.78223932192E+02  0.50400000000E-02 0. -1.
         -1   -1    0    0    0  501 -0.00000000000E+00 -0.00000000000E+00 -0.28331338092E+03  0.28331338096E+03  0.50400000000E-02 0.  1.
         25    2    1    2    0    0  0.20754523839E+02  0.97256408058E+02 -0.85300391561E+02  0.18108292813E+03  0.12500124356E+03 0.  0.
         23    2    1    2    0    0 -0.20754523839E+02 -0.97256408058E+02 -0.11978905733E+03  0.18045438502E+03  0.91240383878E+02 0.  0.
        -11    1    4    4    0    0 -0.50523570769E+02 -0.57498949209E+02 -0.10236855033E+03  0.12782050094E+03  0.51100000000E-03 0.  1.
         11    1    4    4    0    0  0.29769046930E+02 -0.39757458849E+02 -0.17420506994E+02  0.52633884081E+02  0.51100000000E-03 0. -1.
    9000005    1    3    3    0    0  0.27987660046E+02 -0.20270299057E+02  0.17975316375E+01  0.34618279257E+02  0.10000000000E+01 0.  0.
    9000005    1    3    3    0    0 -0.72331362072E+01  0.11752670711E+03 -0.87097923198E+02  0.14646464888E+03  0.10000000000E+01 0.  0.
<mgrwt>
<rscale>  0 0.15314375E+03</rscale>
<asrwt>0</asrwt>
<pdfrwt beam="1">  1        1 0.12034451E-01 0.15973375E+03</pdfrwt>
<pdfrwt beam="2">  1       -1 0.43586674E-01 0.15973375E+03</pdfrwt>
<totfact> 0.25775895E+03</totfact>
</mgrwt>
</event>
<event>
 8    2  0.7478846E-004  0.1313260E+03  0.7818608E-02  0.1239493E+00
          1   -1    0    0  501    0  0.00000000000E+00  0.00000000000E+00  0.19314466670E+03  0.19314466677E+03  0.50400000000E-02 0. -1.
         -1   -1    0    0    0  501 -0.00000000000E+00 -0.00000000000E+00 -0.77487736441E+02  0.77487736605E+02  0.50400000000E-02 0.  1.
         25    2    1    2    0    0  0.16026009161E+02 -0.37004886296E+02  0.19102178746E+02  0.13270800996E+03  0.12498131098E+03 0.  0.
         23    2    1    2    0    0 -0.16026009161E+02  0.37004886296E+02  0.96554751512E+02  0.13792439341E+03  0.89856127669E+02 0.  0.
        -11    1    4    4    0    0 -0.16162242119E+02  0.21416830515E+02 -0.11180491584E+02  0.29067199588E+02  0.51100000000E-03 0.  1.
         11    1    4    4    0    0  0.13623295795E+00  0.15588055782E+02  0.10773524310E+03  0.10885719383E+03  0.51100000000E-03 0. -1.
    9000005    1    3    3    0    0 -0.45717407675E+02 -0.45186796830E+02  0.27367877467E+02  0.69870799977E+02  0.10000000000E+01 0.  0.
    9000005    1    3    3    0    0  0.61743416836E+02  0.81819105341E+01 -0.82656987209E+01  0.62837209979E+02  0.10000000000E+01 0.  0.
<mgrwt>
<rscale>  0 0.12221129E+03</rscale>
<asrwt>0</asrwt>
<pdfrwt beam="1">  1        1 0.29714564E-01 0.13132602E+03</pdfrwt>
<pdfrwt beam="2">  1       -1 0.11921190E-01 0.13132602E+03</pdfrwt>
<totfact> 0.67285932E+03</totfact>
</mgrwt>
</event>
<event>
 8    2  0.7478846E-004  0.4072278E+03  0.7818608E-02  0.1042127E+00
         -1   -1    0    0    0  501 -0.00000000000E+00  0.00000000000E+00  0.19761092261E+03  0.19761092267E+03  0.50400000000E-02 0.  1.
          1   -1    0    0  501    0  0.00000000000E+00 -0.00000000000E+00 -0.11056482409E+04  0.11056482409E+04  0.50400000000E-02 0. -1.
         25    2    1    2    0    0 -0.35771000753E+03 -0.14917565506E+03 -0.12657409186E+03  0.42644517365E+03  0.12499863940E+03 0.  0.
         23    2    1    2    0    0  0.35771000753E+03  0.14917565506E+03 -0.78146322646E+03  0.87681398996E+03  0.88927909763E+02 0.  0.
        -11    1    4    4    0    0  0.41093043368E+02  0.46463754637E+02 -0.88748167452E+02  0.10827629443E+03  0.51100000000E-03 0.  1.
         11    1    4    4    0    0  0.31661696416E+03  0.10271190042E+03 -0.69271505901E+03  0.76853769553E+03  0.51100000000E-03 0. -1.
    9000005    1    3    3    0    0 -0.32485151948E+03 -0.88131884475E+02 -0.11753071304E+03  0.35652518464E+03  0.10000000000E+01 0.  0.
    9000005    1    3    3    0    0 -0.32858488046E+02 -0.61043770581E+02 -0.90433788127E+01  0.69919989014E+02  0.10000000000E+01 0.  0.
<mgrwt>
<rscale>  0 0.40480953E+03</rscale>
<asrwt>0</asrwt>
<pdfrwt beam="2">  1        1 0.17009973E+00 0.40722781E+03</pdfrwt>
<pdfrwt beam="1">  1       -1 0.30401681E-01 0.40722781E+03</pdfrwt>
<totfact> 0.13190056E+02</totfact>
</mgrwt>
</event>
<event>
 8    2  0.7478846E-004  0.2675183E+03  0.7818608E-02  0.1104727E+00
          1   -1    0    0  501    0  0.00000000000E+00  0.00000000000E+00  0.31680451563E+03  0.31680451567E+03  0.50400000000E-02 0. -1.
         -1   -1    0    0    0  501 -0.00000000000E+00 -0.00000000000E+00 -0.21698457332E+03  0.21698457338E+03  0.50400000000E-02 0.  1.
         25    2    1    2    0    0  0.63025101716E+02 -0.22796867661E+03  0.79187769771E+02  0.27899235451E+03  0.12499660007E+03 0.  0.
         23    2    1    2    0    0 -0.63025101716E+02  0.22796867661E+03  0.20632172540E+02  0.25479673454E+03  0.92486801360E+02 0.  0.
        -11    1    4    4    0    0 -0.18976233594E+02  0.55118448602E+02 -0.34943767362E+02  0.67964753331E+02  0.51100000000E-03 0.  1.
         11    1    4    4    0    0 -0.44048868122E+02  0.17285022801E+03  0.55575939901E+02  0.18683198121E+03  0.51100000000E-03 0. -1.
    9000005    1    3    3    0    0 -0.68287961155E+01  0.79153851632E+01  0.24953506307E+02  0.27073294142E+02  0.10000000000E+01 0.  0.
    9000005    1    3    3    0    0  0.69853897831E+02 -0.23588406177E+03  0.54234263463E+02  0.25191906036E+03  0.10000000000E+01 0.  0.
<mgrwt>
<rscale>  0 0.26406232E+03</rscale>
<asrwt>0</asrwt>
<pdfrwt beam="1">  1        1 0.48739156E-01 0.26751828E+03</pdfrwt>
<pdfrwt beam="2">  1       -1 0.33382242E-01 0.26751828E+03</pdfrwt>
<totfact> 0.69667827E+02</totfact>
</mgrwt>
</event>
<event>
 8    2  0.7478846E-004  0.1435641E+03  0.7818608E-02  0.1209409E+00
          1   -1    0    0  501    0  0.00000000000E+00  0.00000000000E+00  0.55503553445E+03  0.55503553447E+03  0.50400000000E-02 0. -1.
         -1   -1    0    0    0  501 -0.00000000000E+00 -0.00000000000E+00 -0.38792147078E+02  0.38792147406E+02  0.50400000000E-02 0.  1.
         25    2    1    2    0    0  0.92416530838E+01  0.69998378974E+02  0.18816584726E+03  0.23667918390E+03  0.12500187520E+03 0.  0.
         23    2    1    2    0    0 -0.92416530838E+01 -0.69998378974E+02  0.32807754011E+03  0.35714849798E+03  0.12220882160E+03 0.  0.
        -11    1    4    4    0    0 -0.38196027060E+02 -0.54580577545E+02  0.31478034904E+03  0.32175245775E+03  0.51100000000E-03 0. -1.
         11    1    4    4    0    0  0.28954373976E+02 -0.15417801429E+02  0.13297191069E+02  0.35396040228E+02  0.51100000000E-03 0.  1.
    9000005    1    3    3    0    0  0.46241286374E+02  0.71854669275E+02  0.17922740143E+03  0.19855682181E+03  0.10000000000E+01 0.  0.
    9000005    1    3    3    0    0 -0.36999633290E+02 -0.18562903014E+01  0.89384458280E+01  0.38122362087E+02  0.10000000000E+01 0.  0.
<mgrwt>
<rscale>  0 0.14295391E+03</rscale>
<asrwt>0</asrwt>
<pdfrwt beam="1">  1        1 0.85390078E-01 0.14356410E+03</pdfrwt>
<pdfrwt beam="2">  1       -1 0.59680230E-02 0.14356410E+03</pdfrwt>
<totfact> 0.51101732E+03</totfact>
</mgrwt>
</event>
<event>
 8    2  0.7478846E-004  0.1364794E+03  0.7818608E-02  0.1223130E+00
          1   -1    0    0  501    0  0.00000000000E+00  0.00000000000E+00  0.11083453760E+04  0.11083453760E+04  0.50400000000E-02 0. -1.
         -1   -1    0    0    0  501 -0.00000000000E+00 -0.00000000000E+00 -0.45622999086E+02  0.45622999365E+02  0.50400000000E-02 0.  1.
         25    2    1    2    0    0  0.44716940201E+01  0.54604079689E+02  0.10117035814E+04  0.10208676519E+04  0.12500009797E+03 0.  0.
         23    2    1    2    0    0 -0.44716940201E+01 -0.54604079689E+02  0.51018795467E+02  0.13310072344E+03  0.11005127679E+03 0.  0.
        -11    1    4    4    0    0  0.70289014590E+01 -0.50199248695E+02 -0.24700178608E+02  0.56386779025E+02  0.51100000000E-03 0.  1.
         11    1    4    4    0    0 -0.11500595479E+02 -0.44048309935E+01  0.75718974074E+02  0.76713944414E+02  0.51100000000E-03 0. -1.
    9000005    1    3    3    0    0 -0.10083428170E+02 -0.32879284726E+02  0.52661685753E+03  0.52773955463E+03  0.10000000000E+01 0.  0.
    9000005    1    3    3    0    0  0.14555122191E+02  0.87483364415E+02  0.48508672388E+03  0.49312809727E+03  0.10000000000E+01 0.  0.
<mgrwt>
<rscale>  0 0.13295931E+03</rscale>
<asrwt>0</asrwt>
<pdfrwt beam="1">  1        1 0.17051464E+00 0.13647940E+03</pdfrwt>
<pdfrwt beam="2">  1       -1 0.70189242E-02 0.13647940E+03</pdfrwt>
<totfact> 0.14006446E+03</totfact>
</mgrwt>
</event>
<event>
 8    2  0.7478846E-004  0.1311861E+03  0.7818608E-02  0.1239953E+00
          1   -1    0    0  501    0  0.00000000000E+00  0.00000000000E+00  0.12669863926E+03  0.12669863936E+03  0.50400000000E-02 0. -1.
         -1   -1    0    0    0  501 -0.00000000000E+00 -0.00000000000E+00 -0.10854137730E+03  0.10854137742E+03  0.50400000000E-02 0.  1.
         25    2    1    2    0    0 -0.96598054052E+01 -0.38619758635E+02 -0.14650560293E+02  0.13200158660E+03  0.12499992940E+03 0.  0.
         23    2    1    2    0    0  0.96598054052E+01  0.38619758635E+02  0.32807822253E+02  0.10323843018E+03  0.89426073757E+02 0.  0.
        -11    1    4    4    0    0  0.91573576818E+01  0.22526846612E+02 -0.29875156965E+02  0.38520657080E+02  0.51100000000E-03 0.  1.
         11    1    4    4    0    0  0.50244772343E+00  0.16092912024E+02  0.62682979218E+02  0.64717773100E+02  0.51100000000E-03 0. -1.
    9000005    1    3    3    0    0 -0.28855633551E+02 -0.30464350553E+02  0.49289027659E+02  0.64738956508E+02  0.10000000000E+01 0.  0.
    9000005    1    3    3    0    0  0.19195828146E+02 -0.81554080821E+01 -0.63939587951E+02  0.67262630090E+02  0.10000000000E+01 0.  0.
<mgrwt>
<rscale>  0 0.12192612E+03</rscale>
<asrwt>0</asrwt>
<pdfrwt beam="1">  1        1 0.19492098E-01 0.13118605E+03</pdfrwt>
<pdfrwt beam="2">  1       -1 0.16698674E-01 0.13118605E+03</pdfrwt>
<totfact> 0.67579126E+03</totfact>
</mgrwt>
</event>
<event>
 8    2  0.7478846E-004  0.1731889E+03  0.7818608E-02  0.1180794E+00
          1   -1    0    0  501    0  0.00000000000E+00  0.00000000000E+00  0.12858583147E+04  0.12858583147E+04  0.50400000000E-02 0. -1.
         -1   -1    0    0    0  501 -0.00000000000E+00 -0.00000000000E+00 -0.22297354814E+02  0.22297355384E+02  0.50400000000E-02 0.  1.
         25    2    1    2    0    0  0.31620788946E+02  0.11562880659E+03  0.86434148252E+03  0.88152174074E+03  0.12499794312E+03 0.  0.
         23    2    1    2    0    0 -0.31620788946E+02 -0.11562880659E+03  0.39921947732E+03  0.42663392931E+03  0.90941868022E+02 0.  0.
        -11    1    4    4    0    0 -0.95828082186E+01 -0.85631226471E+02  0.36829778264E+03  0.37824303544E+03  0.51100000000E-03 0. -1.
         11    1    4    4    0    0 -0.22037980727E+02 -0.29997580118E+02  0.30921694682E+02  0.48390893872E+02  0.51100000000E-03 0.  1.
    9000005    1    3    3    0    0  0.69089197158E+02  0.28668001790E+02  0.29374043779E+03  0.30311650613E+03  0.10000000000E+01 0.  0.
    9000005    1    3    3    0    0 -0.37468408212E+02  0.86960804799E+02  0.57060104473E+03  0.57840523461E+03  0.10000000000E+01 0.  0.
<mgrwt>
<rscale>  0 0.16720539E+03</rscale>
<asrwt>0</asrwt>
<pdfrwt beam="1">  1        1 0.19782442E+00 0.17318886E+03</pdfrwt>
<pdfrwt beam="2">  1       -1 0.34303613E-02 0.17318886E+03</pdfrwt>
<totfact> 0.30660812E+03</totfact>
</mgrwt>
</event>
<event>
 8    2  0.7478846E-004  0.1376317E+03  0.7818608E-02  0.1228057E+00
          1   -1    0    0  501    0  0.00000000000E+00  0.00000000000E+00  0.16368785859E+03  0.16368785867E+03  0.50400000000E-02 0. -1.
         -1   -1    0    0    0  501 -0.00000000000E+00 -0.00000000000E+00 -0.10132032200E+03  0.10132032213E+03  0.50400000000E-02 0.  1.
         25    2    1    2    0    0  0.60022283917E+00  0.57592766395E+02 -0.47018369786E+01  0.13771200487E+03  0.12500080802E+03 0.  0.
         23    2    1    2    0    0 -0.60022283917E+00 -0.57592766395E+02  0.67069373564E+02  0.12729617592E+03  0.91590002324E+02 0.  0.
        -11    1    4    4    0    0 -0.30778299487E+02  0.10013865512E+02  0.10187707716E+02  0.33931852448E+02  0.51100000000E-03 0.  1.
         11    1    4    4    0    0  0.30178076647E+02 -0.67606631907E+02  0.56881665848E+02  0.93364323475E+02  0.51100000000E-03 0. -1.
    9000005    1    3    3    0    0  0.46039465216E+02 -0.12554216457E+02 -0.21675046438E+02  0.52421830818E+02  0.10000000000E+01 0.  0.
    9000005    1    3    3    0    0 -0.45439242376E+02  0.70146982851E+02  0.16973209460E+02  0.85290174055E+02  0.10000000000E+01 0.  0.
<mgrwt>
<rscale>  0 0.12959553E+03</rscale>
<asrwt>0</asrwt>
<pdfrwt beam="1">  1        1 0.25182747E-01 0.13763172E+03</pdfrwt>
<pdfrwt beam="2">  1       -1 0.15587742E-01 0.13763172E+03</pdfrwt>
<totfact> 0.54673892E+03</totfact>
</mgrwt>
</event>
<event>
 8    2  0.7478846E-004  0.1319773E+03  0.7818608E-02  0.1247103E+00
         -1   -1    0    0    0  501 -0.00000000000E+00  0.00000000000E+00  0.16279913125E+02  0.16279913905E+02  0.50400000000E-02 0.  1.
          1   -1    0    0  501    0  0.00000000000E+00 -0.00000000000E+00 -0.98366277461E+03  0.98366277462E+03  0.50400000000E-02 0. -1.
         25    2    1    2    0    0  0.34141379784E+02  0.25042810401E+02 -0.30468223345E+03  0.33203804685E+03  0.12500090004E+03 0.  0.
         23    2    1    2    0    0 -0.34141379784E+02 -0.25042810401E+02 -0.66270062803E+03  0.66790464168E+03  0.71635967282E+02 0.  0.
        -11    1    4    4    0    0 -0.16005875377E+02 -0.48132835517E+02 -0.50089015279E+03  0.50345198685E+03  0.51100000000E-03 0.  1.
         11    1    4    4    0    0 -0.18135504407E+02  0.23090025116E+02 -0.16181047524E+03  0.16445265482E+03  0.51100000000E-03 0. -1.
    9000005    1    3    3    0    0  0.19908124452E+01 -0.32244434147E+02 -0.16171403471E+02  0.36141128342E+02  0.10000000000E+01 0.  0.
    9000005    1    3    3    0    0  0.32150567339E+02  0.57287244548E+02 -0.28851082998E+03  0.29589691851E+03  0.10000000000E+01 0.  0.
<mgrwt>
<rscale>  0 0.11760420E+03</rscale>
<asrwt>0</asrwt>
<pdfrwt beam="2">  1        1 0.15133269E+00 0.13197728E+03</pdfrwt>
<pdfrwt beam="1">  1       -1 0.25046028E-02 0.13197728E+03</pdfrwt>
<totfact> 0.78342014E+03</totfact>
</mgrwt>
</event>
<event>
 8    2  0.7478846E-004  0.3486138E+03  0.7818608E-02  0.1064426E+00
          1   -1    0    0  501    0  0.00000000000E+00  0.00000000000E+00  0.16948710250E+04  0.16948710250E+04  0.50400000000E-02 0. -1.
         -1   -1    0    0    0  501 -0.00000000000E+00 -0.00000000000E+00 -0.14872856479E+03  0.14872856487E+03  0.50400000000E-02 0.  1.
         25    2    1    2    0    0  0.19124908387E+03 -0.26331145786E+03  0.10567150905E+03  0.36427743526E+03  0.12498978395E+03 0.  0.
         23    2    1    2    0    0 -0.19124908387E+03  0.26331145786E+03  0.14404709512E+04  0.14793221546E+04  0.86766007741E+02 0.  0.
        -11    1    4    4    0    0 -0.14773820643E+03  0.21219836013E+03  0.12711653540E+04  0.12971954667E+04  0.51100000000E-03 0. -1.
         11    1    4    4    0    0 -0.43510877443E+02  0.51113097731E+02  0.16930559720E+03  0.18212668794E+03  0.51100000000E-03 0.  1.
    9000005    1    3    3    0    0  0.93725280264E+02 -0.16645237964E+03  0.12076082713E+03  0.22599778808E+03  0.10000000000E+01 0.  0.
    9000005    1    3    3    0    0  0.97523803608E+02 -0.96859078217E+02 -0.15089318076E+02  0.13827964718E+03  0.10000000000E+01 0.  0.
<mgrwt>
<rscale>  0 0.34562329E+03</rscale>
<asrwt>0</asrwt>
<pdfrwt beam="1">  1        1 0.26074939E+00 0.34861380E+03</pdfrwt>
<pdfrwt beam="2">  1       -1 0.22881317E-01 0.34861380E+03</pdfrwt>
<totfact> 0.85140303E+01</totfact>
</mgrwt>
</event>
<event>
 8    2  0.7478846E-004  0.2750934E+03  0.7818608E-02  0.1100300E+00
         -1   -1    0    0    0  501 -0.00000000000E+00  0.00000000000E+00  0.11090402114E+03  0.11090402126E+03  0.50400000000E-02 0.  1.
          1   -1    0    0  501    0  0.00000000000E+00 -0.00000000000E+00 -0.71687435222E+03  0.71687435224E+03  0.50400000000E-02 0. -1.
         25    2    1    2    0    0  0.10947782246E+02 -0.24481047982E+03 -0.43625523530E+03  0.51574705833E+03  0.12499749151E+03 0.  0.
         23    2    1    2    0    0 -0.10947782246E+02  0.24481047982E+03 -0.16971509578E+03  0.31203131517E+03  0.92240462622E+02 0.  0.
        -11    1    4    4    0    0 -0.49535009422E+01  0.14974725983E+03 -0.47699576154E+02  0.15723876291E+03  0.51100000000E-03 0.  1.
         11    1    4    4    0    0 -0.59942813041E+01  0.95063219992E+02 -0.12201551962E+03  0.15479255225E+03  0.51100000000E-03 0. -1.
    9000005    1    3    3    0    0 -0.35072193426E+02 -0.21898825782E+03 -0.36453552075E+03  0.42670020120E+03  0.10000000000E+01 0.  0.
    9000005    1    3    3    0    0  0.46019975672E+02 -0.25822222002E+02 -0.71719714551E+02  0.89046857134E+02  0.10000000000E+01 0.  0.
<mgrwt>
<rscale>  0 0.27171854E+03</rscale>
<asrwt>0</asrwt>
<pdfrwt beam="2">  1        1 0.11028836E+00 0.27509343E+03</pdfrwt>
<pdfrwt beam="1">  1       -1 0.17062157E-01 0.27509343E+03</pdfrwt>
<totfact> 0.71326536E+02</totfact>
</mgrwt>
</event>
<event>
 8    2  0.7478846E-004  0.1538568E+03  0.7818608E-02  0.1203120E+00
          1   -1    0    0  501    0  0.00000000000E+00  0.00000000000E+00  0.23347893780E+03  0.23347893786E+03  0.50400000000E-02 0. -1.
         -1   -1    0    0    0  501 -0.00000000000E+00 -0.00000000000E+00 -0.98457168574E+02  0.98457168703E+02  0.50400000000E-02 0.  1.
         25    2    1    2    0    0 -0.80681683775E+02 -0.39209946636E+02  0.15885269458E+02  0.15467467029E+03  0.12499983133E+03 0.  0.
         23    2    1    2    0    0  0.80681683775E+02  0.39209946636E+02  0.11913649977E+03  0.17726143627E+03  0.95818355221E+02 0.  0.
        -11    1    4    4    0    0  0.83551731194E+01  0.42260568945E+02  0.67876634788E+01  0.43610055964E+02  0.51100000000E-03 0.  1.
         11    1    4    4    0    0  0.72326510656E+02 -0.30506223086E+01  0.11234883629E+03  0.13365138030E+03  0.51100000000E-03 0. -1.
    9000005    1    3    3    0    0 -0.52084288782E+02  0.20082753598E+02  0.54771894188E+02  0.78211575377E+02  0.10000000000E+01 0.  0.
    9000005    1    3    3    0    0 -0.28597394994E+02 -0.59292700235E+02 -0.38886624729E+02  0.76463094918E+02  0.10000000000E+01 0.  0.
<mgrwt>
<rscale>  0 0.14786562E+03</rscale>
<asrwt>0</asrwt>
<pdfrwt beam="1">  1        1 0.35919836E-01 0.15385679E+03</pdfrwt>
<pdfrwt beam="2">  1       -1 0.15147257E-01 0.15385679E+03</pdfrwt>
<totfact> 0.36958351E+03</totfact>
</mgrwt>
</event>
<event>
 8    2  0.7478846E-004  0.1306209E+03  0.7818608E-02  0.1240102E+00
          1   -1    0    0  501    0  0.00000000000E+00  0.00000000000E+00  0.12661739644E+03  0.12661739654E+03  0.50400000000E-02 0. -1.
         -1   -1    0    0    0  501 -0.00000000000E+00 -0.00000000000E+00 -0.10420540019E+03  0.10420540032E+03  0.50400000000E-02 0.  1.
         25    2    1    2    0    0 -0.35925340223E+02 -0.12085624859E+02  0.18067434582E+02  0.13186448015E+03  0.12500046614E+03 0.  0.
         23    2    1    2    0    0  0.35925340223E+02  0.12085624859E+02  0.43445616651E+01  0.98958316704E+02  0.91308164096E+02 0.  0.
        -11    1    4    4    0    0  0.37034520449E+02 -0.73402174442E+01  0.42059906637E+02  0.56519644758E+02  0.51100000000E-03 0. -1.
         11    1    4    4    0    0 -0.11091802260E+01  0.19425842303E+02 -0.37715344972E+02  0.42438671946E+02  0.51100000000E-03 0.  1.
    9000005    1    3    3    0    0 -0.61133364995E+02  0.38007263075E+02  0.22960055664E+02  0.75564571845E+02  0.10000000000E+01 0.  0.
    9000005    1    3    3    0    0  0.25208024772E+02 -0.50092887934E+02 -0.48926210821E+01  0.56299908308E+02  0.10000000000E+01 0.  0.
<mgrwt>
<rscale>  0 0.12183379E+03</rscale>
<asrwt>0</asrwt>
<pdfrwt beam="1">  1        1 0.19479599E-01 0.13062086E+03</pdfrwt>
<pdfrwt beam="2">  1       -1 0.16031600E-01 0.13062086E+03</pdfrwt>
<totfact> 0.72099716E+03</totfact>
</mgrwt>
</event>
<event>
 8    2  0.7478846E-004  0.2135173E+03  0.7818608E-02  0.1142913E+00
          1   -1    0    0  501    0  0.00000000000E+00  0.00000000000E+00  0.15366410201E+03  0.15366410210E+03  0.50400000000E-02 0. -1.
         -1   -1    0    0    0  501 -0.00000000000E+00 -0.00000000000E+00 -0.30022585704E+03  0.30022585708E+03  0.50400000000E-02 0.  1.
         25    2    1    2    0    0  0.17044893477E+03  0.30132051020E+02 -0.39173390877E+01  0.21355319641E+03  0.12501536821E+03 0.  0.
         23    2    1    2    0    0 -0.17044893477E+03 -0.30132051020E+02 -0.14264441594E+03  0.24033676278E+03  0.86333946284E+02 0.  0.
        -11    1    4    4    0    0 -0.10886843942E+03 -0.15834418404E+02 -0.34903452327E+02  0.11541800940E+03  0.51100000000E-03 0. -1.
         11    1    4    4    0    0 -0.61580495345E+02 -0.14297632616E+02 -0.10774096361E+03  0.12491875338E+03  0.51100000000E-03 0.  1.
    9000005    1    3    3    0    0 -0.26483149248E+01 -0.89392856035E+01  0.31268011172E+02  0.32643727142E+02  0.10000000000E+01 0.  0.
    9000005    1    3    3    0    0  0.17309724969E+03  0.39071336624E+02 -0.35185350260E+02  0.18090946926E+03  0.10000000000E+01 0.  0.
<mgrwt>
<rscale>  0 0.20830730E+03</rscale>
<asrwt>0</asrwt>
<pdfrwt beam="1">  1        1 0.23640631E-01 0.21351726E+03</pdfrwt>
<pdfrwt beam="2">  1       -1 0.46188593E-01 0.21351726E+03</pdfrwt>
<totfact> 0.97581126E+02</totfact>
</mgrwt>
</event>
<event>
 8    2  0.7478846E-004  0.2329572E+03  0.7818608E-02  0.1127447E+00
         -1   -1    0    0    0  501 -0.00000000000E+00  0.00000000000E+00  0.10018814829E+04  0.10018814829E+04  0.50400000000E-02 0.  1.
          1   -1    0    0  501    0  0.00000000000E+00 -0.00000000000E+00 -0.72514117890E+02  0.72514118065E+02  0.50400000000E-02 0. -1.
         25    2    1    2    0    0 -0.19536515295E+03 -0.21804897229E+02  0.77192296575E+03  0.80630893979E+03  0.12500417916E+03 0.  0.
         23    2    1    2    0    0  0.19536515295E+03  0.21804897229E+02  0.15744439929E+03  0.26808666121E+03  0.91862519678E+02 0.  0.
        -11    1    4    4    0    0  0.87555860882E+02  0.20317991454E+02  0.17742870281E+02  0.91616914364E+02  0.51100000000E-03 0. -1.
         11    1    4    4    0    0  0.10780929207E+03  0.14869057751E+01  0.13970152901E+03  0.17646974685E+03  0.51100000000E-03 0.  1.
    9000005    1    3    3    0    0 -0.12452945614E+03 -0.38789625107E+01  0.66643800126E+03  0.67798469106E+03  0.10000000000E+01 0.  0.
    9000005    1    3    3    0    0 -0.70835696809E+02 -0.17925934718E+02  0.10548496449E+03  0.12832424873E+03  0.10000000000E+01 0.  0.
<mgrwt>
<rscale>  0 0.22885668E+03</rscale>
<asrwt>0</asrwt>
<pdfrwt beam="2">  1        1 0.11156019E-01 0.23295717E+03</pdfrwt>
<pdfrwt beam="1">  1       -1 0.15413560E+00 0.23295717E+03</pdfrwt>
<totfact> 0.19570661E+02</totfact>
</mgrwt>
</event>
<event>
 8    2  0.7478846E-004  0.1606129E+03  0.7818608E-02  0.1195768E+00
         -1   -1    0    0    0  501 -0.00000000000E+00  0.00000000000E+00  0.45858722749E+02  0.45858723026E+02  0.50400000000E-02 0. -1.
          1   -1    0    0  501    0  0.00000000000E+00 -0.00000000000E+00 -0.47843929364E+03  0.47843929367E+03  0.50400000000E-02 0.  1.
         25    2    1    2    0    0 -0.99569164675E+02 -0.16040712704E+02 -0.24555722275E+03  0.29341925637E+03  0.12500074938E+03 0.  0.
         23    2    1    2    0    0  0.99569164675E+02  0.16040712704E+02 -0.18702334814E+03  0.23087876032E+03  0.90310277380E+02 0.  0.
        -11    1    4    4    0    0  0.49575757284E+02  0.29559966781E+02 -0.29019716281E+02  0.64604111941E+02  0.51100000000E-03 0. -1.
         11    1    4    4    0    0  0.49993407391E+02 -0.13519254077E+02 -0.15800363186E+03  0.16627464838E+03  0.51100000000E-03 0.  1.
    9000005    1    3    3    0    0 -0.11144523705E+02 -0.12404771820E+02  0.12332864373E+02  0.20764833641E+02  0.10000000000E+01 0.  0.
    9000005    1    3    3    0    0 -0.88424640970E+02 -0.36359408843E+01 -0.25789008712E+03  0.27265442273E+03  0.10000000000E+01 0.  0.
<mgrwt>
<rscale>  0 0.15389432E+03</rscale>
<asrwt>0</asrwt>
<pdfrwt beam="2">  1        1 0.73606042E-01 0.16061292E+03</pdfrwt>
<pdfrwt beam="1">  1       -1 0.70551885E-02 0.16061292E+03</pdfrwt>
<totfact> 0.48631648E+03</totfact>
</mgrwt>
</event>
<event>
 8    2  0.7478846E-004  0.1299187E+03  0.7818608E-02  0.1241806E+00
          1   -1    0    0  501    0  0.00000000000E+00  0.00000000000E+00  0.72718619737E+03  0.72718619739E+03  0.50400000000E-02 0. -1.
         -1   -1    0    0    0  501 -0.00000000000E+00 -0.00000000000E+00 -0.19854906182E+02  0.19854906822E+02  0.50400000000E-02 0.  1.
         25    2    1    2    0    0 -0.28597174979E+02 -0.20881598045E+02  0.27778395656E+03  0.30666396141E+03  0.12500007659E+03 0.  0.
         23    2    1    2    0    0  0.28597174979E+02  0.20881598045E+02  0.42954733463E+03  0.44037714281E+03  0.90372980844E+02 0.  0.
        -11    1    4    4    0    0 -0.17529624591E+02 -0.18360841467E+02  0.24121595426E+03  0.24254802582E+03  0.51100000000E-03 0. -1.
         11    1    4    4    0    0  0.46126799569E+02  0.39242439512E+02  0.18833138037E+03  0.19782911699E+03  0.51100000000E-03 0.  1.
    9000005    1    3    3    0    0  0.14875662957E+02 -0.65749185335E+02  0.14674451768E+03  0.16149053901E+03  0.10000000000E+01 0.  0.
    9000005    1    3    3    0    0 -0.43472837935E+02  0.44867587290E+02  0.13103943888E+03  0.14517342240E+03  0.10000000000E+01 0.  0.
<mgrwt>
<rscale>  0 0.12078596E+03</rscale>
<asrwt>0</asrwt>
<pdfrwt beam="1">  1        1 0.11187479E+00 0.12991866E+03</pdfrwt>
<pdfrwt beam="2">  1       -1 0.30546013E-02 0.12991866E+03</pdfrwt>
<totfact> 0.93641682E+03</totfact>
</mgrwt>
</event>
<event>
 8    2  0.7478846E-004  0.1492571E+03  0.7818608E-02  0.1210708E+00
          1   -1    0    0  501    0  0.00000000000E+00  0.00000000000E+00  0.29125054225E+02  0.29125054661E+02  0.50400000000E-02 0. -1.
         -1   -1    0    0    0  501 -0.00000000000E+00 -0.00000000000E+00 -0.64109680123E+03  0.64109680125E+03  0.50400000000E-02 0.  1.
         25    2    1    2    0    0  0.63621836082E+02  0.51046379670E+02 -0.37508637560E+03  0.40369228575E+03  0.12499680599E+03 0.  0.
         23    2    1    2    0    0 -0.63621836082E+02 -0.51046379670E+02 -0.23688537140E+03  0.26652957016E+03  0.90938779851E+02 0.  0.
        -11    1    4    4    0    0 -0.29362849766E+01 -0.19219439573E+02  0.50280310777E+00  0.19448944398E+02  0.51100000000E-03 0. -1.
         11    1    4    4    0    0 -0.60685551106E+02 -0.31826940097E+02 -0.23738817451E+03  0.24708062576E+03  0.51100000000E-03 0.  1.
    9000005    1    3    3    0    0  0.78061097407E+02  0.27086633951E+02 -0.36452564569E+03  0.37377421932E+03  0.10000000000E+01 0.  0.
    9000005    1    3    3    0    0 -0.14439261325E+02  0.23959745719E+02 -0.10560729918E+02  0.29918066430E+02  0.10000000000E+01 0.  0.
<mgrwt>
<rscale>  0 0.14196602E+03</rscale>
<asrwt>0</asrwt>
<pdfrwt beam="1">  1        1 0.44807781E-02 0.14925707E+03</pdfrwt>
<pdfrwt beam="2">  1       -1 0.98630266E-01 0.14925707E+03</pdfrwt>
<totfact> 0.19669345E+03</totfact>
</mgrwt>
</event>
<event>
 8    2  0.7478846E-004  0.1418426E+03  0.7818608E-02  0.1221872E+00
         -1   -1    0    0    0  501 -0.00000000000E+00  0.00000000000E+00  0.23477446595E+02  0.23477447136E+02  0.50400000000E-02 0.  1.
          1   -1    0    0  501    0  0.00000000000E+00 -0.00000000000E+00 -0.82886330164E+03  0.82886330166E+03  0.50400000000E-02 0. -1.
         25    2    1    2    0    0  0.41895675861E+02  0.52342122497E+02 -0.26696881340E+03  0.30231057596E+03  0.12499756626E+03 0.  0.
         23    2    1    2    0    0 -0.41895675861E+02 -0.52342122497E+02 -0.53841704165E+03  0.55003017283E+03  0.90251508801E+02 0.  0.
        -11    1    4    4    0    0 -0.32191139398E+02 -0.76925695772E+02 -0.35164197133E+03  0.36139439415E+03  0.51100000000E-03 0.  1.
         11    1    4    4    0    0 -0.97045364636E+01  0.24583573275E+02 -0.18677507032E+03  0.18863577867E+03  0.51100000000E-03 0. -1.
    9000005    1    3    3    0    0  0.57995344275E+02  0.66378688250E+02 -0.26673792368E+03  0.28092652089E+03  0.10000000000E+01 0.  0.
    9000005    1    3    3    0    0 -0.16099668414E+02 -0.14036565753E+02 -0.23088971471E+00  0.21384055070E+02  0.10000000000E+01 0.  0.
<mgrwt>
<rscale>  0 0.13383654E+03</rscale>
<asrwt>0</asrwt>
<pdfrwt beam="2">  1        1 0.12751741E+00 0.14184265E+03</pdfrwt>
<pdfrwt beam="1">  1       -1 0.36119155E-02 0.14184265E+03</pdfrwt>
<totfact> 0.60632928E+03</totfact>
</mgrwt>
</event>
<event>
 8    2  0.7478846E-004  0.1582425E+03  0.7818608E-02  0.1199050E+00
         -1   -1    0    0    0  501 -0.00000000000E+00  0.00000000000E+00  0.28896662940E+02  0.28896663379E+02  0.50400000000E-02 0.  1.
          1   -1    0    0  501    0  0.00000000000E+00 -0.00000000000E+00 -0.90768504099E+03  0.90768504100E+03  0.50400000000E-02 0. -1.
         25    2    1    2    0    0  0.97019003646E+02 -0.15927493413E+01 -0.26369485508E+03  0.30753156209E+03  0.12500184464E+03 0.  0.
         23    2    1    2    0    0 -0.97019003646E+02  0.15927493413E+01 -0.61509352297E+03  0.62905014229E+03  0.89156130500E+02 0.  0.
        -11    1    4    4    0    0 -0.40665369248E+02  0.21355027091E+02 -0.94804890838E+02  0.10534551137E+03  0.51100000000E-03 0.  1.
         11    1    4    4    0    0 -0.56353634398E+02 -0.19762277749E+02 -0.52028863213E+03  0.52370463093E+03  0.51100000000E-03 0. -1.
    9000005    1    3    3    0    0  0.13412563929E+02 -0.53861557158E+02 -0.63332225100E+02  0.84219563919E+02  0.10000000000E+01 0.  0.
    9000005    1    3    3    0    0  0.83606439717E+02  0.52268807816E+02 -0.20036262998E+03  0.22331199817E+03  0.10000000000E+01 0.  0.
<mgrwt>
<rscale>  0 0.15116410E+03</rscale>
<asrwt>0</asrwt>
<pdfrwt beam="2">  1        1 0.13964383E+00 0.15824249E+03</pdfrwt>
<pdfrwt beam="1">  1       -1 0.44456412E-02 0.15824249E+03</pdfrwt>
<totfact> 0.38895864E+03</totfact>
</mgrwt>
</event>
<event>
 8    2  0.7478846E-004  0.1393775E+03  0.7818608E-02  0.1225100E+00
          1   -1    0    0  501    0  0.00000000000E+00  0.00000000000E+00  0.22184834157E+04  0.22184834157E+04  0.50400000000E-02 0. -1.
         -1   -1    0    0    0  501 -0.00000000000E+00 -0.00000000000E+00 -0.11392691121E+02  0.11392692236E+02  0.50400000000E-02 0.  1.
         25    2    1    2    0    0  0.19268814043E+01  0.61623711316E+02  0.18670629776E+04  0.18722580605E+04  0.12499955256E+03 0.  0.
         23    2    1    2    0    0 -0.19268814043E+01 -0.61623711316E+02  0.34002774700E+03  0.35761804745E+03  0.92035886852E+02 0.  0.
        -11    1    4    4    0    0 -0.16862252072E+02 -0.78659023238E+02  0.19676145973E+03  0.21257151624E+03  0.51100000000E-03 0.  1.
         11    1    4    4    0    0  0.14935370668E+02  0.17035311922E+02  0.14326628727E+03  0.14504653122E+03  0.51100000000E-03 0. -1.
    9000005    1    3    3    0    0  0.20387524061E+02 -0.11007893728E+02  0.13066377892E+04  0.13068435779E+04  0.10000000000E+01 0.  0.
    9000005    1    3    3    0    0 -0.18460642657E+02  0.72631605044E+02  0.56042518837E+03  0.56541448260E+03  0.10000000000E+01 0.  0.
<mgrwt>
<rscale>  0 0.13160064E+03</rscale>
<asrwt>0</asrwt>
<pdfrwt beam="1">  1        1 0.34130537E+00 0.13937748E+03</pdfrwt>
<pdfrwt beam="2">  1       -1 0.17527206E-02 0.13937748E+03</pdfrwt>
<totfact> 0.20308693E+03</totfact>
</mgrwt>
</event>
<event>
 8    2  0.7478846E-004  0.1274163E+03  0.7818608E-02  0.1245014E+00
         -1   -1    0    0    0  501 -0.00000000000E+00  0.00000000000E+00  0.15501811931E+02  0.15501812750E+02  0.50400000000E-02 0.  1.
          1   -1    0    0  501    0  0.00000000000E+00 -0.00000000000E+00 -0.94242802112E+03  0.94242802113E+03  0.50400000000E-02 0. -1.
         25    2    1    2    0    0 -0.34209401412E+01  0.24453800344E+02 -0.69776486845E+03  0.70930299036E+03  0.12500091722E+03 0.  0.
         23    2    1    2    0    0  0.34209401412E+01 -0.24453800344E+02 -0.22916134073E+03  0.24862684352E+03  0.93223902777E+02 0.  0.
        -11    1    4    4    0    0  0.20706296308E+02 -0.30694471829E+02 -0.27477948610E+02  0.46107905697E+02  0.51100000000E-03 0.  1.
         11    1    4    4    0    0 -0.17285356166E+02  0.62406714847E+01 -0.20168339212E+03  0.20251893782E+03  0.51100000000E-03 0. -1.
    9000005    1    3    3    0    0 -0.37067532877E+01  0.10097329347E+02 -0.69444756902E+03  0.69453158473E+03  0.10000000000E+01 0.  0.
    9000005    1    3    3    0    0  0.28581314655E+00  0.14356470998E+02 -0.33172994355E+01  0.14771405627E+02  0.10000000000E+01 0.  0.
<mgrwt>
<rscale>  0 0.11884514E+03</rscale>
<asrwt>0</asrwt>
<pdfrwt beam="2">  1        1 0.14498888E+00 0.12741633E+03</pdfrwt>
<pdfrwt beam="1">  1       -1 0.23848949E-02 0.12741633E+03</pdfrwt>
<totfact> 0.90065136E+03</totfact>
</mgrwt>
</event>
<event>
 8    2  0.7478846E-004  0.1440766E+03  0.7818608E-02  0.1219079E+00
         -1   -1    0    0    0  501 -0.00000000000E+00  0.00000000000E+00  0.23201107065E+02  0.23201107612E+02  0.50400000000E-02 0.  1.
          1   -1    0    0  501    0  0.00000000000E+00 -0.00000000000E+00 -0.77350904169E+03  0.77350904171E+03  0.50400000000E-02 0. -1.
         25    2    1    2    0    0  0.59678663291E+02  0.39672294127E+02 -0.30837960302E+03  0.34037633080E+03  0.12499053256E+03 0.  0.
         23    2    1    2    0    0 -0.59678663291E+02 -0.39672294127E+02 -0.44192833160E+03  0.45633381852E+03  0.88342910770E+02 0.  0.
        -11    1    4    4    0    0 -0.71025368583E+02 -0.15770894827E+02 -0.19744532033E+03  0.21042333195E+03  0.51100000000E-03 0.  1.
         11    1    4    4    0    0  0.11346705292E+02 -0.23901399300E+02 -0.24448301127E+03  0.24591048658E+03  0.51100000000E-03 0. -1.
    9000005    1    3    3    0    0  0.64881901823E+02 -0.31901126004E+02 -0.15490579418E+03  0.17095071832E+03  0.10000000000E+01 0.  0.
    9000005    1    3    3    0    0 -0.52032385327E+01  0.71573420131E+02 -0.15347380885E+03  0.16942561248E+03  0.10000000000E+01 0.  0.
<mgrwt>
<rscale>  0 0.13581148E+03</rscale>
<asrwt>0</asrwt>
<pdfrwt beam="2">  1        1 0.11900137E+00 0.14407660E+03</pdfrwt>
<pdfrwt beam="1">  1       -1 0.35694017E-02 0.14407660E+03</pdfrwt>
<totfact> 0.68537505E+03</totfact>
</mgrwt>
</event>
<event>
 8    2  0.7478846E-004  0.1487989E+03  0.7818608E-02  0.1211066E+00
         -1   -1    0    0    0  501 -0.00000000000E+00  0.00000000000E+00  0.47693401782E+03  0.47693401785E+03  0.50400000000E-02 0.  1.
          1   -1    0    0  501    0  0.00000000000E+00 -0.00000000000E+00 -0.51882965758E+02  0.51882966003E+02  0.50400000000E-02 0. -1.
         25    2    1    2    0    0 -0.14999525410E+01  0.80706154711E+02  0.94308052310E+02  0.17616786010E+03  0.12500149173E+03 0.  0.
         23    2    1    2    0    0  0.14999525410E+01 -0.80706154711E+02  0.33074299975E+03  0.35264912375E+03  0.91949656511E+02 0.  0.
        -11    1    4    4    0    0  0.66212677233E+01  0.18623206581E+02  0.90464337616E+02  0.92598387622E+02  0.51100000000E-03 0.  1.
         11    1    4    4    0    0 -0.51213151823E+01 -0.99329361292E+02  0.24027866214E+03  0.26005073613E+03  0.51100000000E-03 0. -1.
    9000005    1    3    3    0    0  0.77540360701E+01  0.11379372326E+02 -0.30284314559E+02  0.33282952066E+02  0.10000000000E+01 0.  0.
    9000005    1    3    3    0    0 -0.92539886111E+01  0.69326782385E+02  0.12459236687E+03  0.14288490803E+03  0.10000000000E+01 0.  0.
<mgrwt>
<rscale>  0 0.14169489E+03</rscale>
<asrwt>0</asrwt>
<pdfrwt beam="2">  1        1 0.79819948E-02 0.14879888E+03</pdfrwt>
<pdfrwt beam="1">  1       -1 0.73374464E-01 0.14879888E+03</pdfrwt>
<totfact> 0.16639837E+03</totfact>
</mgrwt>
</event>
<event>
 8    2  0.7478846E-004  0.1954743E+03  0.7818608E-02  0.1158091E+00
         -1   -1    0    0    0  501 -0.00000000000E+00  0.00000000000E+00  0.40769295320E+02  0.40769295631E+02  0.50400000000E-02 0. -1.
          1   -1    0    0  501    0  0.00000000000E+00 -0.00000000000E+00 -0.85893305092E+03  0.85893305093E+03  0.50400000000E-02 0.  1.
         25    2    1    2    0    0  0.63401473113E+02  0.13625148015E+03 -0.48497756147E+03  0.52288952186E+03  0.12500401717E+03 0.  0.
         23    2    1    2    0    0 -0.63401473113E+02 -0.13625148015E+03 -0.33318619412E+03  0.37681282470E+03  0.91600503639E+02 0.  0.
        -11    1    4    4    0    0  0.18445308643E+02 -0.25715314041E+02 -0.28778373496E+02  0.42775011028E+02  0.51100000000E-03 0.  1.
         11    1    4    4    0    0 -0.81846781756E+02 -0.11053616611E+03 -0.30440782063E+03  0.33403781367E+03  0.51100000000E-03 0. -1.
    9000005    1    3    3    0    0  0.88451568491E+02  0.14420423159E+03 -0.41963735031E+03  0.45245446860E+03  0.10000000000E+01 0.  0.
    9000005    1    3    3    0    0 -0.25050095378E+02 -0.79527514448E+01 -0.65340211161E+02  0.70435053266E+02  0.10000000000E+01 0.  0.
<mgrwt>
<rscale>  0 0.19041164E+03</rscale>
<asrwt>0</asrwt>
<pdfrwt beam="2">  1        1 0.13214353E+00 0.19547434E+03</pdfrwt>
<pdfrwt beam="1">  1       -1 0.62721999E-02 0.19547434E+03</pdfrwt>
<totfact> 0.25551729E+03</totfact>
</mgrwt>
</event>
<event>
 8    2  0.7478846E-004  0.1461176E+03  0.7818608E-02  0.1214914E+00
         -1   -1    0    0    0  501 -0.00000000000E+00  0.00000000000E+00  0.60116212745E+02  0.60116212956E+02  0.50400000000E-02 0.  1.
          1   -1    0    0  501    0  0.00000000000E+00 -0.00000000000E+00 -0.35134820601E+03  0.35134820605E+03  0.50400000000E-02 0. -1.
         25    2    1    2    0    0 -0.70962068077E+02  0.26276473654E+02 -0.24184285822E+03  0.28255673313E+03  0.12499708473E+03 0.  0.
         23    2    1    2    0    0  0.70962068077E+02 -0.26276473654E+02 -0.49389135047E+02  0.12890768587E+03  0.91933871032E+02 0.  0.
        -11    1    4    4    0    0  0.40415338306E+01 -0.45280300988E+02 -0.36175416175E+02  0.58097335472E+02  0.51100000000E-03 0. -1.
         11    1    4    4    0    0  0.66920534247E+02  0.19003827334E+02 -0.13213718872E+02  0.70810350401E+02  0.51100000000E-03 0.  1.
    9000005    1    3    3    0    0  0.10841839420E+02  0.57493695065E+02 -0.10006014560E+03  0.11591420617E+03  0.10000000000E+01 0.  0.
    9000005    1    3    3    0    0 -0.81803907497E+02 -0.31217221410E+02 -0.14178271262E+03  0.16664252696E+03  0.10000000000E+01 0.  0.
<mgrwt>
<rscale>  0 0.13882839E+03</rscale>
<asrwt>0</asrwt>
<pdfrwt beam="2">  1        1 0.54053569E-01 0.14611755E+03</pdfrwt>
<pdfrwt beam="1">  1       -1 0.92486483E-02 0.14611755E+03</pdfrwt>
<totfact> 0.47568533E+03</totfact>
</mgrwt>
</event>
<event>
 8    2  0.7478846E-004  0.1282869E+03  0.7818608E-02  0.1243817E+00
         -1   -1    0    0    0  501 -0.00000000000E+00  0.00000000000E+00  0.16861467607E+04  0.16861467607E+04  0.50400000000E-02 0.  1.
          1   -1    0    0  501    0  0.00000000000E+00 -0.00000000000E+00 -0.77752061776E+01  0.77752078111E+01  0.50400000000E-02 0. -1.
         25    2    1    2    0    0  0.25111290839E+02 -0.14197973185E+02  0.79816740684E+03  0.80841123886E+03  0.12500144961E+03 0.  0.
         23    2    1    2    0    0 -0.25111290839E+02  0.14197973185E+02  0.88020414772E+03  0.88551072970E+03  0.92399953318E+02 0.  0.
        -11    1    4    4    0    0 -0.29380021531E+02 -0.35731826396E+02  0.38116695634E+03  0.38396379737E+03  0.51100000000E-03 0.  1.
         11    1    4    4    0    0  0.42687306923E+01  0.49929799581E+02  0.49903719138E+03  0.50154693233E+03  0.51100000000E-03 0. -1.
    9000005    1    3    3    0    0 -0.89382491531E+01 -0.45880654888E+02  0.12210225173E+03  0.13074741554E+03  0.10000000000E+01 0.  0.
    9000005    1    3    3    0    0  0.34049539992E+02  0.31682681704E+02  0.67606515511E+03  0.67766382333E+03  0.10000000000E+01 0.  0.
<mgrwt>
<rscale>  0 0.11956487E+03</rscale>
<asrwt>0</asrwt>
<pdfrwt beam="2">  1        1 0.11961850E-02 0.12828687E+03</pdfrwt>
<pdfrwt beam="1">  1       -1 0.25940735E+00 0.12828687E+03</pdfrwt>
<totfact> 0.85416300E+02</totfact>
</mgrwt>
</event>
<event>
 8    2  0.7478846E-004  0.1861423E+03  0.7818608E-02  0.1167239E+00
         -1   -1    0    0    0  501 -0.00000000000E+00  0.00000000000E+00  0.53371211104E+02  0.53371211342E+02  0.50400000000E-02 0.  1.
          1   -1    0    0  501    0  0.00000000000E+00 -0.00000000000E+00 -0.64221758570E+03  0.64221758572E+03  0.50400000000E-02 0. -1.
         25    2    1    2    0    0 -0.13533599853E+03  0.26554746535E+02 -0.42094095402E+03  0.46026104283E+03  0.12501181431E+03 0.  0.
         23    2    1    2    0    0  0.13533599853E+03 -0.26554746535E+02 -0.16790542057E+03  0.23532775423E+03  0.90365560870E+02 0.  0.
        -11    1    4    4    0    0  0.89150526889E+02 -0.91480411481E+01 -0.39830022792E+02  0.98071065138E+02  0.51100000000E-03 0.  1.
         11    1    4    4    0    0  0.46185471638E+02 -0.17406705387E+02 -0.12807539778E+03  0.13725668909E+03  0.51100000000E-03 0. -1.
    9000005    1    3    3    0    0 -0.89657435925E+02  0.76911782260E+02 -0.27007592266E+03  0.29478107481E+03  0.10000000000E+01 0.  0.
    9000005    1    3    3    0    0 -0.45678562602E+02 -0.50357035726E+02 -0.15086503137E+03  0.16547996803E+03  0.10000000000E+01 0.  0.
<mgrwt>
<rscale>  0 0.18058378E+03</rscale>
<asrwt>0</asrwt>
<pdfrwt beam="2">  1        1 0.98802700E-01 0.18614226E+03</pdfrwt>
<pdfrwt beam="1">  1       -1 0.82109560E-02 0.18614226E+03</pdfrwt>
<totfact> 0.26133409E+03</totfact>
</mgrwt>
</event>
<event>
 8    2  0.7478846E-004  0.2208548E+03  0.7818608E-02  0.1136650E+00
          1   -1    0    0  501    0  0.00000000000E+00  0.00000000000E+00  0.31691167670E+04  0.31691167670E+04  0.50400000000E-02 0. -1.
         -1   -1    0    0    0  501 -0.00000000000E+00 -0.00000000000E+00 -0.15594680965E+02  0.15594681779E+02  0.50400000000E-02 0.  1.
         25    2    1    2    0    0  0.15938204017E+03  0.88027886475E+02  0.21133211130E+04  0.21248301054E+04  0.12500122517E+03 0.  0.
         23    2    1    2    0    0 -0.15938204017E+03 -0.88027886475E+02  0.10402009730E+04  0.10598813434E+04  0.90437018926E+02 0.  0.
        -11    1    4    4    0    0 -0.16314398456E+03 -0.60872919753E+02  0.84412547681E+03  0.86189865568E+03  0.51100000000E-03 0.  1.
         11    1    4    4    0    0  0.37619443876E+01 -0.27154966722E+02  0.19607549621E+03  0.19798268777E+03  0.51100000000E-03 0. -1.
    9000005    1    3    3    0    0  0.33852990104E+02  0.21232249981E+02  0.12080786893E+03  0.12724926159E+03  0.10000000000E+01 0.  0.
    9000005    1    3    3    0    0  0.12552905007E+03  0.66795636494E+02  0.19925132441E+04  0.19975808438E+04  0.10000000000E+01 0.  0.
<mgrwt>
<rscale>  0 0.21632856E+03</rscale>
<asrwt>0</asrwt>
<pdfrwt beam="1">  1        1 0.48755589E+00 0.22085482E+03</pdfrwt>
<pdfrwt beam="2">  1       -1 0.23991844E-02 0.22085482E+03</pdfrwt>
<totfact> 0.29168707E+02</totfact>
</mgrwt>
</event>
<event>
 8    2  0.7478846E-004  0.1402841E+03  0.7818608E-02  0.1223377E+00
          1   -1    0    0  501    0  0.00000000000E+00  0.00000000000E+00  0.15407458696E+04  0.15407458696E+04  0.50400000000E-02 0. -1.
         -1   -1    0    0    0  501 -0.00000000000E+00 -0.00000000000E+00 -0.10380659331E+02  0.10380660555E+02  0.50400000000E-02 0.  1.
         25    2    1    2    0    0  0.43493638372E+02 -0.46497378548E+02  0.86125695694E+03  0.87260710792E+03  0.12500366449E+03 0.  0.
         23    2    1    2    0    0 -0.43493638372E+02  0.46497378548E+02  0.66910825330E+03  0.67851942221E+03  0.92892674029E+02 0.  0.
        -11    1    4    4    0    0 -0.39927890472E+02 -0.31124452149E+01  0.10758136283E+03  0.11479404767E+03  0.51100000000E-03 0.  1.
         11    1    4    4    0    0 -0.35657479004E+01  0.49609823763E+02  0.56152689048E+03  0.56372537454E+03  0.51100000000E-03 0. -1.
    9000005    1    3    3    0    0  0.65479071623E+02  0.17491999645E+02  0.31742890523E+03  0.32458525652E+03  0.10000000000E+01 0.  0.
    9000005    1    3    3    0    0 -0.21985433251E+02 -0.63989378194E+02  0.54382805170E+03  0.54802185140E+03  0.10000000000E+01 0.  0.
<mgrwt>
<rscale>  0 0.13278773E+03</rscale>
<asrwt>0</asrwt>
<pdfrwt beam="1">  1        1 0.23703801E+00 0.14028407E+03</pdfrwt>
<pdfrwt beam="2">  1       -1 0.15970234E-02 0.14028407E+03</pdfrwt>
<totfact> 0.62884515E+03</totfact>
</mgrwt>
</event>
<event>
 8    2  0.7478846E-004  0.1695335E+03  0.7818608E-02  0.1185789E+00
         -1   -1    0    0    0  501 -0.00000000000E+00  0.00000000000E+00  0.57870615787E+02  0.57870616006E+02  0.50400000000E-02 0.  1.
          1   -1    0    0  501    0  0.00000000000E+00 -0.00000000000E+00 -0.43221033226E+03  0.43221033229E+03  0.50400000000E-02 0. -1.
         25    2    1    2    0    0 -0.11006588321E+03 -0.31648787674E+02 -0.16721692972E+03  0.23812414552E+03  0.12500185073E+03 0.  0.
         23    2    1    2    0    0  0.11006588321E+03  0.31648787674E+02 -0.20712278675E+03  0.25195680277E+03  0.86407391264E+02 0.  0.
        -11    1    4    4    0    0  0.12786616369E+02 -0.26984130350E+02 -0.41329263250E+02  0.50987732348E+02  0.51100000000E-03 0. -1.
         11    1    4    4    0    0  0.97279266839E+02  0.58632918024E+02 -0.16579352350E+03  0.20096907042E+03  0.51100000000E-03 0.  1.
    9000005    1    3    3    0    0 -0.11683301925E+02 -0.56992062130E+02 -0.10189431408E+03  0.11733731687E+03  0.10000000000E+01 0.  0.
    9000005    1    3    3    0    0 -0.98382581283E+02  0.25343274456E+02 -0.65322615643E+02  0.12078682865E+03  0.10000000000E+01 0.  0.
<mgrwt>
<rscale>  0 0.16260302E+03</rscale>
<asrwt>0</asrwt>
<pdfrwt beam="2">  1        1 0.66493895E-01 0.16953350E+03</pdfrwt>
<pdfrwt beam="1">  1       -1 0.89031720E-02 0.16953350E+03</pdfrwt>
<totfact> 0.39070540E+03</totfact>
</mgrwt>
</event>
<event>
 8    2  0.7478846E-004  0.1805723E+03  0.7818608E-02  0.1172742E+00
          1   -1    0    0  501    0  0.00000000000E+00  0.00000000000E+00  0.38174591474E+03  0.38174591477E+03  0.50400000000E-02 0. -1.
         -1   -1    0    0    0  501 -0.00000000000E+00 -0.00000000000E+00 -0.79612968641E+02  0.79612968800E+02  0.50400000000E-02 0.  1.
         25    2    1    2    0    0  0.12371796917E+03 -0.40933190115E+02  0.21157641122E+03  0.27815630259E+03  0.12499875574E+03 0.  0.
         23    2    1    2    0    0 -0.12371796917E+03  0.40933190115E+02  0.90556534871E+02  0.18320258098E+03  0.91548007733E+02 0.  0.
        -11    1    4    4    0    0 -0.66353412107E+02  0.52282376329E+01  0.94422105448E+02  0.11552334727E+03  0.51100000000E-03 0. -1.
         11    1    4    4    0    0 -0.57364557066E+02  0.35704952482E+02 -0.38655705775E+01  0.67679233708E+02  0.51100000000E-03 0.  1.
    9000005    1    3    3    0    0  0.10758720365E+03  0.26046147332E+02  0.11613112434E+03  0.16043954070E+03  0.10000000000E+01 0.  0.
    9000005    1    3    3    0    0  0.16130765520E+02 -0.66979337447E+02  0.95445286885E+02  0.11771676189E+03  0.10000000000E+01 0.  0.
<mgrwt>
<rscale>  0 0.17498981E+03</rscale>
<asrwt>0</asrwt>
<pdfrwt beam="1">  1        1 0.58730141E-01 0.18057229E+03</pdfrwt>
<pdfrwt beam="2">  1       -1 0.12248149E-01 0.18057229E+03</pdfrwt>
<totfact> 0.28072644E+03</totfact>
</mgrwt>
</event>
<event>
 8    2  0.7478846E-004  0.2067675E+03  0.7818608E-02  0.1146962E+00
          1   -1    0    0  501    0  0.00000000000E+00  0.00000000000E+00  0.54804510814E+03  0.54804510816E+03  0.50400000000E-02 0. -1.
         -1   -1    0    0    0  501 -0.00000000000E+00 -0.00000000000E+00 -0.82097866602E+02  0.82097866757E+02  0.50400000000E-02 0.  1.
         25    2    1    2    0    0 -0.90355051928E+01 -0.16445727517E+03  0.34459472212E+03  0.40186853804E+03  0.12499985458E+03 0.  0.
         23    2    1    2    0    0  0.90355051928E+01  0.16445727517E+03  0.12135251941E+03  0.22827443687E+03  0.10126672135E+03 0.  0.
        -11    1    4    4    0    0 -0.29757802998E+02  0.77343403041E+01  0.29048809731E+02  0.42298702182E+02  0.51100000000E-03 0. -1.
         11    1    4    4    0    0  0.38793308191E+02  0.15672293486E+03  0.92303709682E+02  0.18597573469E+03  0.51100000000E-03 0.  1.
    9000005    1    3    3    0    0 -0.26852350628E+02 -0.77873383215E+02  0.54928014913E+02  0.99012117288E+02  0.10000000000E+01 0.  0.
    9000005    1    3    3    0    0  0.17816845436E+02 -0.86583891953E+02  0.28966670721E+03  0.30285642075E+03  0.10000000000E+01 0.  0.
<mgrwt>
<rscale>  0 0.20332729E+03</rscale>
<asrwt>0</asrwt>
<pdfrwt beam="1">  1        1 0.84314629E-01 0.20676750E+03</pdfrwt>
<pdfrwt beam="2">  1       -1 0.12630442E-01 0.20676750E+03</pdfrwt>
<totfact> 0.16767774E+03</totfact>
</mgrwt>
</event>
<event>
 8    2  0.7478846E-004  0.1254432E+03  0.7818608E-02  0.1249776E+00
          1   -1    0    0  501    0  0.00000000000E+00  0.00000000000E+00  0.64373225831E+03  0.64373225833E+03  0.50400000000E-02 0. -1.
         -1   -1    0    0    0  501 -0.00000000000E+00 -0.00000000000E+00 -0.20328213365E+02  0.20328213990E+02  0.50400000000E-02 0.  1.
         25    2    1    2    0    0 -0.54891684756E+00  0.10534518131E+02  0.45794886300E+03  0.47481907334E+03  0.12499885561E+03 0.  0.
         23    2    1    2    0    0  0.54891684756E+00 -0.10534518131E+02  0.16545518194E+03  0.18924139897E+03  0.91244794223E+02 0.  0.
        -11    1    4    4    0    0  0.50092297879E+01  0.29938915248E+02  0.15949932656E+02  0.34290397800E+02  0.51100000000E-03 0.  1.
         11    1    4    4    0    0 -0.44603129403E+01 -0.40473433379E+02  0.14950524928E+03  0.15495100117E+03  0.51100000000E-03 0. -1.
    9000005    1    3    3    0    0  0.22140216634E+02 -0.41006377974E+02  0.34971257491E+03  0.35280532490E+03  0.10000000000E+01 0.  0.
    9000005    1    3    3    0    0 -0.22689133482E+02  0.51540896105E+02  0.10823628809E+03  0.12201374845E+03  0.10000000000E+01 0.  0.
<mgrwt>
<rscale>  0 0.11604010E+03</rscale>
<asrwt>0</asrwt>
<pdfrwt beam="1">  1        1 0.99035731E-01 0.12544318E+03</pdfrwt>
<pdfrwt beam="2">  1       -1 0.31274175E-02 0.12544318E+03</pdfrwt>
<totfact> 0.10726908E+04</totfact>
</mgrwt>
</event>
<event>
 8    2  0.7478846E-004  0.1373575E+03  0.7818608E-02  0.1228619E+00
          1   -1    0    0  501    0  0.00000000000E+00  0.00000000000E+00  0.16467572725E+02  0.16467573497E+02  0.50400000000E-02 0. -1.
         -1   -1    0    0    0  501 -0.00000000000E+00 -0.00000000000E+00 -0.94189488409E+03  0.94189488410E+03  0.50400000000E-02 0.  1.
         25    2    1    2    0    0 -0.39772388529E+02 -0.40725969768E+02 -0.43070559259E+03  0.45207786553E+03  0.12500656586E+03 0.  0.
         23    2    1    2    0    0  0.39772388529E+02  0.40725969768E+02 -0.49472171877E+03  0.50628459207E+03  0.91291081936E+02 0.  0.
        -11    1    4    4    0    0 -0.75956415273E+01  0.44969818115E+02 -0.11689871061E+03  0.12548022495E+03  0.51100000000E-03 0.  1.
         11    1    4    4    0    0  0.47368030056E+02 -0.42438483472E+01 -0.37782300816E+03  0.38080436712E+03  0.51100000000E-03 0. -1.
    9000005    1    3    3    0    0 -0.10455903843E+02 -0.80039763792E+02 -0.19021657296E+03  0.20663744661E+03  0.10000000000E+01 0.  0.
    9000005    1    3    3    0    0 -0.29316484686E+02  0.39313794024E+02 -0.24048901963E+03  0.24544041892E+03  0.10000000000E+01 0.  0.
<mgrwt>
<rscale>  0 0.12921923E+03</rscale>
<asrwt>0</asrwt>
<pdfrwt beam="1">  1        1 0.25334735E-02 0.13735752E+03</pdfrwt>
<pdfrwt beam="2">  1       -1 0.14490686E+00 0.13735752E+03</pdfrwt>
<totfact> 0.17415550E+03</totfact>
</mgrwt>
</event>
<event>
 8    2  0.7478846E-004  0.1692766E+03  0.7818608E-02  0.1185685E+00
          1   -1    0    0  501    0  0.00000000000E+00  0.00000000000E+00  0.10830028946E+04  0.10830028946E+04  0.50400000000E-02 0. -1.
         -1   -1    0    0    0  501 -0.00000000000E+00 -0.00000000000E+00 -0.23507124167E+02  0.23507124707E+02  0.50400000000E-02 0.  1.
         25    2    1    2    0    0  0.11366298316E+03 -0.10511122708E+02  0.46937956398E+03  0.49897069780E+03  0.12499929897E+03 0.  0.
         23    2    1    2    0    0 -0.11366298316E+03  0.10511122708E+02  0.59011620647E+03  0.60753932153E+03  0.88527581169E+02 0.  0.
        -11    1    4    4    0    0 -0.52016392413E+02 -0.21861417165E+02  0.41925956109E+03  0.42303924902E+03  0.51100000000E-03 0. -1.
         11    1    4    4    0    0 -0.61646590745E+02  0.32372539873E+02  0.17085664537E+03  0.18450007251E+03  0.51100000000E-03 0.  1.
    9000005    1    3    3    0    0  0.14518698787E+02 -0.36523837006E+02  0.28765715839E+03  0.29033157606E+03  0.10000000000E+01 0.  0.
    9000005    1    3    3    0    0  0.99144284371E+02  0.26012714298E+02  0.18172240559E+03  0.20863912174E+03  0.10000000000E+01 0.  0.
<mgrwt>
<rscale>  0 0.16269717E+03</rscale>
<asrwt>0</asrwt>
<pdfrwt beam="1">  1        1 0.16661584E+00 0.16927664E+03</pdfrwt>
<pdfrwt beam="2">  1       -1 0.36164805E-02 0.16927664E+03</pdfrwt>
<totfact> 0.39204070E+03</totfact>
</mgrwt>
</event>
<event>
 8    2  0.7478846E-004  0.1337366E+03  0.7818608E-02  0.1235668E+00
         -1   -1    0    0    0  501 -0.00000000000E+00  0.00000000000E+00  0.12997480041E+03  0.12997480050E+03  0.50400000000E-02 0. -1.
          1   -1    0    0  501    0  0.00000000000E+00 -0.00000000000E+00 -0.12928698467E+03  0.12928698477E+03  0.50400000000E-02 0.  1.
         25    2    1    2    0    0  0.44508906195E+02  0.16721818388E+02 -0.54389411325E+02  0.14437341798E+03  0.12499925526E+03 0.  0.
         23    2    1    2    0    0 -0.44508906195E+02 -0.16721818388E+02  0.55077227062E+02  0.11488836729E+03  0.88911045748E+02 0.  0.
        -11    1    4    4    0    0 -0.27146268235E+01 -0.38746704325E+02  0.55381847822E+02  0.67644847278E+02  0.51100000000E-03 0. -1.
         11    1    4    4    0    0 -0.41794279371E+02  0.22024885937E+02 -0.30462076031E+00  0.47243520008E+02  0.51100000000E-03 0.  1.
    9000005    1    3    3    0    0  0.48210364012E+02  0.46330530778E+02  0.15263864518E+02  0.68591128000E+02  0.10000000000E+01 0.  0.
    9000005    1    3    3    0    0 -0.37014578175E+01 -0.29608712390E+02 -0.69653275844E+02  0.75782289983E+02  0.10000000000E+01 0.  0.
<mgrwt>
<rscale>  0 0.12461794E+03</rscale>
<asrwt>0</asrwt>
<pdfrwt beam="2">  1        1 0.19890305E-01 0.13373659E+03</pdfrwt>
<pdfrwt beam="1">  1       -1 0.19996123E-01 0.13373659E+03</pdfrwt>
<totfact> 0.49505294E+03</totfact>
</mgrwt>
</event>
<event>
 8    2  0.7478846E-004  0.1474511E+03  0.7818608E-02  0.1214660E+00
          1   -1    0    0  501    0  0.00000000000E+00  0.00000000000E+00  0.31420494770E+03  0.31420494774E+03  0.50400000000E-02 0. -1.
         -1   -1    0    0    0  501 -0.00000000000E+00 -0.00000000000E+00 -0.73453033644E+02  0.73453033816E+02  0.50400000000E-02 0.  1.
         25    2    1    2    0    0 -0.33161226141E+02 -0.70833005142E+02  0.35520627616E+02  0.15166915303E+03  0.12499934183E+03 0.  0.
         23    2    1    2    0    0  0.33161226141E+02  0.70833005142E+02  0.20523128644E+03  0.23598882852E+03  0.86335767311E+02 0.  0.
        -11    1    4    4    0    0  0.36571071037E+02  0.51109627091E+01  0.13406561602E+03  0.13905809784E+03  0.51100000000E-03 0. -1.
         11    1    4    4    0    0 -0.34098448958E+01  0.65722042432E+02  0.71165670423E+02  0.96930730683E+02  0.51100000000E-03 0.  1.
    9000005    1    3    3    0    0  0.31473321392E+02  0.64632652995E+01 -0.18755661845E+02  0.37217181637E+02  0.10000000000E+01 0.  0.
    9000005    1    3    3    0    0 -0.64634547533E+02 -0.77296270441E+02  0.54276289460E+02  0.11445197140E+03  0.10000000000E+01 0.  0.
<mgrwt>
<rscale>  0 0.13901505E+03</rscale>
<asrwt>0</asrwt>
<pdfrwt beam="1">  1        1 0.48339223E-01 0.14745107E+03</pdfrwt>
<pdfrwt beam="2">  1       -1 0.11300467E-01 0.14745107E+03</pdfrwt>
<totfact> 0.40250377E+03</totfact>
</mgrwt>
</event>
<event>
 8    2  0.7478846E-004  0.2318402E+03  0.7818608E-02  0.1128249E+00
          1   -1    0    0  501    0  0.00000000000E+00  0.00000000000E+00  0.99675798855E+03  0.99675798856E+03  0.50400000000E-02 0. -1.
         -1   -1    0    0    0  501 -0.00000000000E+00 -0.00000000000E+00 -0.50282013042E+02  0.50282013294E+02  0.50400000000E-02 0.  1.
         25    2    1    2    0    0  0.15615351523E+03 -0.11722367268E+03  0.48032227729E+03  0.53334733137E+03  0.12499830426E+03 0.  0.
         23    2    1    2    0    0 -0.15615351523E+03  0.11722367268E+03  0.46615369822E+03  0.51369267048E+03  0.91954225497E+02 0.  0.
        -11    1    4    4    0    0 -0.91388433133E+02  0.44245052720E+02  0.33612610884E+03  0.35112708731E+03  0.51100000000E-03 0. -1.
         11    1    4    4    0    0 -0.64765082100E+02  0.72978619963E+02  0.13002758938E+03  0.16256558317E+03  0.51100000000E-03 0.  1.
    9000005    1    3    3    0    0 -0.11419226240E+02 -0.35101836800E+02  0.14464206071E+03  0.14928115555E+03  0.10000000000E+01 0.  0.
    9000005    1    3    3    0    0  0.16757274147E+03 -0.82121835883E+02  0.33568021658E+03  0.38406617583E+03  0.10000000000E+01 0.  0.
<mgrwt>
<rscale>  0 0.22772859E+03</rscale>
<asrwt>0</asrwt>
<pdfrwt beam="1">  1        1 0.15334736E+00 0.23184022E+03</pdfrwt>
<pdfrwt beam="2">  1       -1 0.77356954E-02 0.23184022E+03</pdfrwt>
<totfact> 0.14583572E+03</totfact>
</mgrwt>
</event>
<event>
 8    2  0.7478846E-004  0.1273619E+03  0.7818608E-02  0.1246549E+00
         -1   -1    0    0    0  501 -0.00000000000E+00  0.00000000000E+00  0.49730991253E+02  0.49730991508E+02  0.50400000000E-02 0.  1.
          1   -1    0    0  501    0  0.00000000000E+00 -0.00000000000E+00 -0.32761983080E+03  0.32761983084E+03  0.50400000000E-02 0. -1.
         25    2    1    2    0    0  0.24260811874E+02 -0.26757780834E+01 -0.61206736256E+02  0.14130575377E+03  0.12500121881E+03 0.  0.
         23    2    1    2    0    0 -0.24260811874E+02  0.26757780834E+01 -0.21668210330E+03  0.23604506858E+03  0.90390230280E+02 0.  0.
        -11    1    4    4    0    0 -0.39146960451E+02  0.34510791273E+02 -0.84894999998E+02  0.99652597818E+02  0.51100000000E-03 0.  1.
         11    1    4    4    0    0  0.14886148577E+02 -0.31835013190E+02 -0.13178710330E+03  0.13639247076E+03  0.51100000000E-03 0. -1.
    9000005    1    3    3    0    0  0.41685247886E+01 -0.39315553967E+02  0.24097030235E+02  0.46311513134E+02  0.10000000000E+01 0.  0.
    9000005    1    3    3    0    0  0.20092287085E+02  0.36639775883E+02 -0.85303766491E+02  0.94994240639E+02  0.10000000000E+01 0.  0.
<mgrwt>
<rscale>  0 0.11793173E+03</rscale>
<asrwt>0</asrwt>
<pdfrwt beam="2">  1        1 0.50403050E-01 0.12736189E+03</pdfrwt>
<pdfrwt beam="1">  1       -1 0.76509219E-02 0.12736189E+03</pdfrwt>
<totfact> 0.68573486E+03</totfact>
</mgrwt>
</event>
<event>
 8    2  0.7478846E-004  0.1744325E+03  0.7818608E-02  0.1179620E+00
         -1   -1    0    0    0  501 -0.00000000000E+00  0.00000000000E+00  0.14887978785E+03  0.14887978794E+03  0.50400000000E-02 0.  1.
          1   -1    0    0  501    0  0.00000000000E+00 -0.00000000000E+00 -0.17912231767E+03  0.17912231774E+03  0.50400000000E-02 0. -1.
         25    2    1    2    0    0  0.10152258783E+03  0.67002044899E+02 -0.36409001224E+01  0.17447052814E+03  0.12502239469E+03 0.  0.
         23    2    1    2    0    0 -0.10152258783E+03 -0.67002044899E+02 -0.26601629697E+02  0.15353157754E+03  0.89823096917E+02 0.  0.
        -11    1    4    4    0    0 -0.47843530070E+02 -0.75649974906E+01  0.28609824179E+02  0.56256151632E+02  0.51100000000E-03 0.  1.
         11    1    4    4    0    0 -0.53679057756E+02 -0.59437047408E+02 -0.55211453876E+02  0.97275425908E+02  0.51100000000E-03 0. -1.
    9000005    1    3    3    0    0  0.65338558169E+02  0.52841529288E+02  0.57637729360E+02  0.10190418170E+03  0.10000000000E+01 0.  0.
    9000005    1    3    3    0    0  0.36184029658E+02  0.14160515611E+02 -0.61278629483E+02  0.72566346442E+02  0.10000000000E+01 0.  0.
<mgrwt>
<rscale>  0 0.16831211E+03</rscale>
<asrwt>0</asrwt>
<pdfrwt beam="2">  1        1 0.27557280E-01 0.17443253E+03</pdfrwt>
<pdfrwt beam="1">  1       -1 0.22904583E-01 0.17443253E+03</pdfrwt>
<totfact> 0.26663959E+03</totfact>
</mgrwt>
</event>
<event>
 8    2  0.7478846E-004  0.1319051E+03  0.7818608E-02  0.1238315E+00
          1   -1    0    0  501    0  0.00000000000E+00  0.00000000000E+00  0.14962560019E+04  0.14962560019E+04  0.50400000000E-02 0. -1.
         -1   -1    0    0    0  501 -0.00000000000E+00 -0.00000000000E+00 -0.10221366891E+02  0.10221368134E+02  0.50400000000E-02 0.  1.
         25    2    1    2    0    0 -0.41709482303E+02  0.58880270608E+01  0.57073159204E+03  0.58577598670E+03  0.12499842666E+03 0.  0.
         23    2    1    2    0    0  0.41709482303E+02 -0.58880270608E+01  0.91530304297E+03  0.92070138334E+03  0.90205471227E+02 0.  0.
        -11    1    4    4    0    0  0.78037214524E+01  0.28180968083E+02  0.10562524703E+03  0.10959816531E+03  0.51100000000E-03 0.  1.
         11    1    4    4    0    0  0.33905760851E+02 -0.34068995144E+02  0.80967779594E+03  0.81110321802E+03  0.51100000000E-03 0. -1.
    9000005    1    3    3    0    0 -0.65876801390E+02 -0.40760007371E+02  0.38697901064E+03  0.39465793523E+03  0.10000000000E+01 0.  0.
    9000005    1    3    3    0    0  0.24167319087E+02  0.46648034432E+02  0.18375258140E+03  0.19111805147E+03  0.10000000000E+01 0.  0.
<mgrwt>
<rscale>  0 0.12294559E+03</rscale>
<asrwt>0</asrwt>
<pdfrwt beam="1">  1        1 0.23019312E+00 0.13190510E+03</pdfrwt>
<pdfrwt beam="2">  1       -1 0.15725188E-02 0.13190510E+03</pdfrwt>
<totfact> 0.68546408E+03</totfact>
</mgrwt>
</event>
<event>
 8    2  0.7478846E-004  0.1809233E+03  0.7818608E-02  0.1172202E+00
         -1   -1    0    0    0  501 -0.00000000000E+00  0.00000000000E+00  0.35049291782E+02  0.35049292145E+02  0.50400000000E-02 0.  1.
          1   -1    0    0  501    0  0.00000000000E+00 -0.00000000000E+00 -0.83169098351E+03  0.83169098353E+03  0.50400000000E-02 0. -1.
         25    2    1    2    0    0 -0.11003683978E+03 -0.70718885310E+02 -0.43903546284E+03  0.47485302566E+03  0.12499596595E+03 0.  0.
         23    2    1    2    0    0  0.11003683978E+03  0.70718885310E+02 -0.35760622889E+03  0.39188725001E+03  0.92650606735E+02 0.  0.
        -11    1    4    4    0    0  0.91085468634E+02  0.90654018604E+02 -0.25355595218E+03  0.28426279139E+03  0.51100000000E-03 0.  1.
         11    1    4    4    0    0  0.18951371146E+02 -0.19935133293E+02 -0.10405027672E+03  0.10762445862E+03  0.51100000000E-03 0. -1.
    9000005    1    3    3    0    0 -0.43522932650E+02 -0.96718464988E+02 -0.21554606722E+03  0.24022867071E+03  0.10000000000E+01 0.  0.
    9000005    1    3    3    0    0 -0.66513907129E+02  0.25999579677E+02 -0.22348939562E+03  0.23462435495E+03  0.10000000000E+01 0.  0.
<mgrwt>
<rscale>  0 0.17552891E+03</rscale>
<asrwt>0</asrwt>
<pdfrwt beam="2">  1        1 0.12795244E+00 0.18092335E+03</pdfrwt>
<pdfrwt beam="1">  1       -1 0.53921994E-02 0.18092335E+03</pdfrwt>
<totfact> 0.33648786E+03</totfact>
</mgrwt>
</event>
<event>
 8    2  0.7478846E-004  0.1484693E+03  0.7818608E-02  0.1212279E+00
          1   -1    0    0  501    0  0.00000000000E+00  0.00000000000E+00  0.15611781479E+03  0.15611781487E+03  0.50400000000E-02 0. -1.
         -1   -1    0    0    0  501 -0.00000000000E+00 -0.00000000000E+00 -0.17741046316E+03  0.17741046323E+03  0.50400000000E-02 0.  1.
         25    2    1    2    0    0 -0.87270461791E+01 -0.79583822007E+02 -0.10957586332E+03  0.18452640978E+03  0.12503351559E+03 0.  0.
         23    2    1    2    0    0  0.87270461791E+01  0.79583822007E+02  0.88283214954E+02  0.14900186833E+03  0.89430893220E+02 0.  0.
        -11    1    4    4    0    0 -0.10970209533E+02 -0.75447351286E+01 -0.96540408520E+01  0.16445942673E+02  0.51100000000E-03 0.  1.
         11    1    4    4    0    0  0.19697255712E+02  0.87128557136E+02  0.97937255806E+02  0.13255592565E+03  0.51100000000E-03 0. -1.
    9000005    1    3    3    0    0 -0.35936219619E+02 -0.52172731273E+02  0.50540676647E+01  0.63560596040E+02  0.10000000000E+01 0.  0.
    9000005    1    3    3    0    0  0.27209173440E+02 -0.27411090734E+02 -0.11462993099E+03  0.12096581374E+03  0.10000000000E+01 0.  0.
<mgrwt>
<rscale>  0 0.14078342E+03</rscale>
<asrwt>0</asrwt>
<pdfrwt beam="1">  1        1 0.24018125E-01 0.14846928E+03</pdfrwt>
<pdfrwt beam="2">  1       -1 0.27293917E-01 0.14846928E+03</pdfrwt>
<totfact> 0.23586785E+03</totfact>
</mgrwt>
</event>
<event>
 8    2  0.7478846E-004  0.1388182E+03  0.7818608E-02  0.1226272E+00
         -1   -1    0    0    0  501 -0.00000000000E+00  0.00000000000E+00  0.48780205408E+02  0.48780205668E+02  0.50400000000E-02 0.  1.
          1   -1    0    0  501    0  0.00000000000E+00 -0.00000000000E+00 -0.31658374544E+03  0.31658374548E+03  0.50400000000E-02 0. -1.
         25    2    1    2    0    0 -0.29710593227E+02  0.52556013750E+02 -0.14083087113E+03  0.19774686814E+03  0.12500254264E+03 0.  0.
         23    2    1    2    0    0  0.29710593227E+02 -0.52556013750E+02 -0.12697266890E+03  0.16761708300E+03  0.91261020895E+02 0.  0.
        -11    1    4    4    0    0  0.51500675145E+01 -0.22556055607E+02  0.10042444634E+02  0.25222004964E+02  0.51100000000E-03 0.  1.
         11    1    4    4    0    0  0.24560525713E+02 -0.29999958144E+02 -0.13701511354E+03  0.14239507804E+03  0.51100000000E-03 0. -1.
    9000005    1    3    3    0    0  0.32194246637E+01  0.64878928059E+02 -0.14819506383E+03  0.16180981721E+03  0.10000000000E+01 0.  0.
    9000005    1    3    3    0    0 -0.32930017891E+02 -0.12322914309E+02  0.73641927078E+01  0.35937050931E+02  0.10000000000E+01 0.  0.
<mgrwt>
<rscale>  0 0.13080131E+03</rscale>
<asrwt>0</asrwt>
<pdfrwt beam="2">  1        1 0.48705190E-01 0.13881819E+03</pdfrwt>
<pdfrwt beam="1">  1       -1 0.75046472E-02 0.13881819E+03</pdfrwt>
<totfact> 0.74081288E+03</totfact>
</mgrwt>
</event>
<event>
 8    2  0.7478846E-004  0.1483676E+03  0.7818608E-02  0.1212685E+00
         -1   -1    0    0    0  501 -0.00000000000E+00  0.00000000000E+00  0.43274813773E+02  0.43274814067E+02  0.50400000000E-02 0.  1.
          1   -1    0    0  501    0  0.00000000000E+00 -0.00000000000E+00 -0.45370481359E+03  0.45370481362E+03  0.50400000000E-02 0. -1.
         25    2    1    2    0    0  0.30500566779E+01 -0.79869566117E+02 -0.29893906139E+03  0.33373270816E+03  0.12499803054E+03 0.  0.
         23    2    1    2    0    0 -0.30500566779E+01  0.79869566117E+02 -0.11149093843E+03  0.16324691952E+03  0.88492242279E+02 0.  0.
        -11    1    4    4    0    0  0.16963729707E+02  0.13628279958E+01  0.80594647052E+01  0.18830305290E+02  0.51100000000E-03 0.  1.
         11    1    4    4    0    0 -0.20013786385E+02  0.78506738121E+02 -0.11955040313E+03  0.14441661423E+03  0.51100000000E-03 0. -1.
    9000005    1    3    3    0    0 -0.54313811685E+02 -0.26834368471E+02 -0.74171779697E+02  0.95773307212E+02  0.10000000000E+01 0.  0.
    9000005    1    3    3    0    0  0.57363868362E+02 -0.53035197646E+02 -0.22476728169E+03  0.23795940095E+03  0.10000000000E+01 0.  0.
<mgrwt>
<rscale>  0 0.14047993E+03</rscale>
<asrwt>0</asrwt>
<pdfrwt beam="2">  1        1 0.69800737E-01 0.14836764E+03</pdfrwt>
<pdfrwt beam="1">  1       -1 0.66576640E-02 0.14836764E+03</pdfrwt>
<totfact> 0.56597272E+03</totfact>
</mgrwt>
</event>
<event>
 8    2  0.7478846E-004  0.2481431E+03  0.7818608E-02  0.1116820E+00
          1   -1    0    0  501    0  0.00000000000E+00  0.00000000000E+00  0.77521686729E+03  0.77521686731E+03  0.50400000000E-02 0. -1.
         -1   -1    0    0    0  501 -0.00000000000E+00 -0.00000000000E+00 -0.75989015926E+02  0.75989016093E+02  0.50400000000E-02 0.  1.
         25    2    1    2    0    0  0.84372890108E+02  0.19706124301E+03  0.31007281455E+03  0.39713995450E+03  0.12499229998E+03 0.  0.
         23    2    1    2    0    0 -0.84372890108E+02 -0.19706124301E+03  0.38915503681E+03  0.45406592890E+03  0.93713963899E+02 0.  0.
        -11    1    4    4    0    0 -0.25156328724E+01 -0.12317440909E+03  0.21984466090E+03  0.25201178224E+03  0.51100000000E-03 0.  1.
         11    1    4    4    0    0 -0.81857257236E+02 -0.73886833917E+02  0.16931037592E+03  0.20205414666E+03  0.51100000000E-03 0. -1.
    9000005    1    3    3    0    0 -0.22258154228E+02  0.10016968490E+03  0.10818435988E+03  0.14911152513E+03  0.10000000000E+01 0.  0.
    9000005    1    3    3    0    0  0.10663104434E+03  0.96891558111E+02  0.20188845467E+03  0.24802842937E+03  0.10000000000E+01 0.  0.
<mgrwt>
<rscale>  0 0.24451697E+03</rscale>
<asrwt>0</asrwt>
<pdfrwt beam="1">  1        1 0.11926414E+00 0.24814309E+03</pdfrwt>
<pdfrwt beam="2">  1       -1 0.11690617E-01 0.24814309E+03</pdfrwt>
<totfact> 0.11558400E+03</totfact>
</mgrwt>
</event>
<event>
 8    2  0.7478846E-004  0.1453009E+03  0.7818608E-02  0.1217094E+00
         -1   -1    0    0    0  501 -0.00000000000E+00  0.00000000000E+00  0.17312368182E+03  0.17312368190E+03  0.50400000000E-02 0.  1.
          1   -1    0    0  501    0  0.00000000000E+00 -0.00000000000E+00 -0.19600828184E+03  0.19600828191E+03  0.50400000000E-02 0. -1.
         25    2    1    2    0    0  0.73140276213E+02  0.11718518329E+02  0.11777680038E+03  0.18703939993E+03  0.12500215495E+03 0.  0.
         23    2    1    2    0    0 -0.73140276213E+02 -0.11718518329E+02 -0.14066140040E+03  0.18209256387E+03  0.88798922169E+02 0.  0.
        -11    1    4    4    0    0 -0.22320322907E+02 -0.44899554759E+02 -0.38320452835E+02  0.63108033863E+02  0.51100000000E-03 0.  1.
         11    1    4    4    0    0 -0.50819953306E+02  0.33181036431E+02 -0.10234094756E+03  0.11898453001E+03  0.51100000000E-03 0. -1.
    9000005    1    3    3    0    0  0.76914392962E+02  0.53856598446E+02  0.48063090526E+02  0.10548657598E+03  0.10000000000E+01 0.  0.
    9000005    1    3    3    0    0 -0.37741167490E+01 -0.42138080117E+02  0.69713709856E+02  0.81552823955E+02  0.10000000000E+01 0.  0.
<mgrwt>
<rscale>  0 0.13723856E+03</rscale>
<asrwt>0</asrwt>
<pdfrwt beam="2">  1        1 0.30155120E-01 0.14530094E+03</pdfrwt>
<pdfrwt beam="1">  1       -1 0.26634413E-01 0.14530094E+03</pdfrwt>
<totfact> 0.18454827E+03</totfact>
</mgrwt>
</event>
<event>
 8    2  0.7478846E-004  0.1608934E+03  0.7818608E-02  0.1194919E+00
          1   -1    0    0  501    0  0.00000000000E+00  0.00000000000E+00  0.55847225178E+03  0.55847225180E+03  0.50400000000E-02 0. -1.
         -1   -1    0    0    0  501 -0.00000000000E+00 -0.00000000000E+00 -0.42227584758E+02  0.42227585059E+02  0.50400000000E-02 0.  1.
         25    2    1    2    0    0  0.94045095970E+02  0.37689272747E+02  0.20531957683E+03  0.26085019277E+03  0.12498693165E+03 0.  0.
         23    2    1    2    0    0 -0.94045095970E+02 -0.37689272747E+02  0.31092509019E+03  0.33984964409E+03  0.92511661537E+02 0.  0.
        -11    1    4    4    0    0 -0.18435027740E+02 -0.15523991962E+02  0.21207249293E+03  0.21343754785E+03  0.51100000000E-03 0. -1.
         11    1    4    4    0    0 -0.75610068231E+02 -0.22165280784E+02  0.98852597264E+02  0.12641209624E+03  0.51100000000E-03 0.  1.
    9000005    1    3    3    0    0  0.63304849251E+02  0.74418149052E+02  0.78664432405E+02  0.12543786419E+03  0.10000000000E+01 0.  0.
    9000005    1    3    3    0    0  0.30740246719E+02 -0.36728876305E+02  0.12665514442E+03  0.13541232858E+03  0.10000000000E+01 0.  0.
<mgrwt>
<rscale>  0 0.15461118E+03</rscale>
<asrwt>0</asrwt>
<pdfrwt beam="1">  1        1 0.85918809E-01 0.16089343E+03</pdfrwt>
<pdfrwt beam="2">  1       -1 0.64965514E-02 0.16089343E+03</pdfrwt>
<totfact> 0.44879905E+03</totfact>
</mgrwt>
</event>
<event>
 8    2  0.7478846E-004  0.1338767E+03  0.7818608E-02  0.1233437E+00
          1   -1    0    0  501    0  0.00000000000E+00  0.00000000000E+00  0.20994200717E+03  0.20994200723E+03  0.50400000000E-02 0. -1.
         -1   -1    0    0    0  501 -0.00000000000E+00 -0.00000000000E+00 -0.96929237831E+02  0.96929237962E+02  0.50400000000E-02 0.  1.
         25    2    1    2    0    0 -0.36320635136E+02 -0.31428944878E+02  0.14456268542E+03  0.19703132583E+03  0.12496401974E+03 0.  0.
         23    2    1    2    0    0  0.36320635136E+02  0.31428944878E+02 -0.31549916076E+02  0.10983991936E+03  0.93607924709E+02 0.  0.
        -11    1    4    4    0    0  0.87370830226E+01  0.36808166953E+02 -0.59303398363E+02  0.70342525061E+02  0.51100000000E-03 0.  1.
         11    1    4    4    0    0  0.27583552114E+02 -0.53792220756E+01  0.27753482287E+02  0.39497394302E+02  0.51100000000E-03 0. -1.
    9000005    1    3    3    0    0 -0.11851903161E+02 -0.47360309985E+02 -0.72399190015E+00  0.48836366927E+02  0.10000000000E+01 0.  0.
    9000005    1    3    3    0    0 -0.24468731976E+02  0.15931365107E+02  0.14528667732E+03  0.14819495890E+03  0.10000000000E+01 0.  0.
<mgrwt>
<rscale>  0 0.12605043E+03</rscale>
<asrwt>0</asrwt>
<pdfrwt beam="1">  1        1 0.32298770E-01 0.13387671E+03</pdfrwt>
<pdfrwt beam="2">  1       -1 0.14912190E-01 0.13387671E+03</pdfrwt>
<totfact> 0.42903950E+03</totfact>
</mgrwt>
</event>
<event>
 8    2  0.7478846E-004  0.1275084E+03  0.7818608E-02  0.1257114E+00
          1   -1    0    0  501    0  0.00000000000E+00  0.00000000000E+00  0.12357525021E+03  0.12357525032E+03  0.50400000000E-02 0. -1.
         -1   -1    0    0    0  501 -0.00000000000E+00 -0.00000000000E+00 -0.94155667642E+02  0.94155667777E+02  0.50400000000E-02 0.  1.
         25    2    1    2    0    0  0.22617610771E+02  0.10927697089E+02  0.53663090963E+02  0.13834055477E+03  0.12500964315E+03 0.  0.
         23    2    1    2    0    0 -0.22617610771E+02 -0.10927697089E+02 -0.24243508393E+02  0.79390363325E+02  0.71302953718E+02 0.  0.
        -11    1    4    4    0    0  0.20252283079E+02 -0.23353637855E+02 -0.84779980897E+01  0.32053452589E+02  0.51100000000E-03 0. -1.
         11    1    4    4    0    0 -0.42869893850E+02  0.12425940766E+02 -0.15765510303E+02  0.47336910736E+02  0.51100000000E-03 0.  1.
    9000005    1    3    3    0    0  0.38160403649E+02 -0.46952153649E+02  0.42526164060E+01  0.60661403588E+02  0.10000000000E+01 0.  0.
    9000005    1    3    3    0    0 -0.15542792878E+02  0.57879850739E+02  0.49410474557E+02  0.77679151179E+02  0.10000000000E+01 0.  0.
<mgrwt>
<rscale>  0 0.11188756E+03</rscale>
<asrwt>0</asrwt>
<pdfrwt beam="1">  1        1 0.19011577E-01 0.12750836E+03</pdfrwt>
<pdfrwt beam="2">  1       -1 0.14485487E-01 0.12750836E+03</pdfrwt>
<totfact> 0.87010295E+03</totfact>
</mgrwt>
</event>
<event>
 8    2  0.7478846E-004  0.1352310E+03  0.7818608E-02  0.1234683E+00
          1   -1    0    0  501    0  0.00000000000E+00  0.00000000000E+00  0.35081963570E+04  0.35081963571E+04  0.50400000000E-02 0. -1.
         -1   -1    0    0    0  501 -0.00000000000E+00 -0.00000000000E+00 -0.40438202963E+01  0.40438234371E+01  0.50400000000E-02 0.  1.
         25    2    1    2    0    0 -0.22041327769E+02 -0.46650945205E+02  0.23065605148E+04  0.23105213326E+04  0.12500115741E+03 0.  0.
         23    2    1    2    0    0  0.22041327769E+02  0.46650945205E+02  0.11975920220E+04  0.12017188479E+04  0.85084707224E+02 0.  0.
        -11    1    4    4    0    0  0.25376521907E+02  0.58229286016E+02  0.11685693488E+04  0.11702943820E+04  0.51100000000E-03 0. -1.
         11    1    4    4    0    0 -0.33351941387E+01 -0.11578340811E+02  0.29022673192E+02  0.31424465872E+02  0.51100000000E-03 0.  1.
    9000005    1    3    3    0    0  0.46557613711E+02  0.82276997262E+01  0.76813963931E+03  0.76959392664E+03  0.10000000000E+01 0.  0.
    9000005    1    3    3    0    0 -0.68598941480E+02 -0.54878644931E+02  0.15384208755E+04  0.15409274060E+04  0.10000000000E+01 0.  0.
<mgrwt>
<rscale>  0 0.12524777E+03</rscale>
<asrwt>0</asrwt>
<pdfrwt beam="1">  1        1 0.53972280E+00 0.13523099E+03</pdfrwt>
<pdfrwt beam="2">  1       -1 0.62212611E-03 0.13523099E+03</pdfrwt>
<totfact> 0.11778548E+03</totfact>
</mgrwt>
</event>
<event>
 8    2  0.7478846E-004  0.2314574E+03  0.7818608E-02  0.1128489E+00
          1   -1    0    0  501    0  0.00000000000E+00  0.00000000000E+00  0.92390790605E+02  0.92390790742E+02  0.50400000000E-02 0. -1.
         -1   -1    0    0    0  501 -0.00000000000E+00 -0.00000000000E+00 -0.67387343504E+03  0.67387343506E+03  0.50400000000E-02 0.  1.
         25    2    1    2    0    0 -0.59733322035E+02  0.18541103187E+03 -0.46915249689E+03  0.52314107601E+03  0.12500879798E+03 0.  0.
         23    2    1    2    0    0  0.59733322035E+02 -0.18541103187E+03 -0.11233014755E+03  0.24312314979E+03  0.92441783929E+02 0.  0.
        -11    1    4    4    0    0  0.71666310536E+02 -0.81545060284E+02 -0.38720583411E+02  0.11526031625E+03  0.51100000000E-03 0. -1.
         11    1    4    4    0    0 -0.11932988501E+02 -0.10386597159E+03 -0.73609564137E+02  0.12786283354E+03  0.51100000000E-03 0.  1.
    9000005    1    3    3    0    0  0.12915908266E+02  0.20458341822E+02 -0.18544111658E+03  0.18701543294E+03  0.10000000000E+01 0.  0.
    9000005    1    3    3    0    0 -0.72649230302E+02  0.16495269005E+03 -0.28371138030E+03  0.33612564307E+03  0.10000000000E+01 0.  0.
<mgrwt>
<rscale>  0 0.22739147E+03</rscale>
<asrwt>0</asrwt>
<pdfrwt beam="1">  1        1 0.14213968E-01 0.23145738E+03</pdfrwt>
<pdfrwt beam="2">  1       -1 0.10367283E+00 0.23145738E+03</pdfrwt>
<totfact> 0.37313726E+02</totfact>
</mgrwt>
</event>
<event>
 8    2  0.7478846E-004  0.3073348E+03  0.7818608E-02  0.1083099E+00
         -1   -1    0    0    0  501 -0.00000000000E+00  0.00000000000E+00  0.14272735996E+03  0.14272736005E+03  0.50400000000E-02 0.  1.
          1   -1    0    0  501    0  0.00000000000E+00 -0.00000000000E+00 -0.83611575837E+03  0.83611575838E+03  0.50400000000E-02 0. -1.
         25    2    1    2    0    0 -0.14661091298E+03  0.23944704821E+03 -0.59101380871E+03  0.66614711204E+03  0.12500001637E+03 0.  0.
         23    2    1    2    0    0  0.14661091298E+03 -0.23944704821E+03 -0.10237458970E+03  0.31269600639E+03  0.92024926470E+02 0.  0.
        -11    1    4    4    0    0  0.10289618040E+03 -0.91379575498E+02 -0.72141945607E+02  0.15537796200E+03  0.51100000000E-03 0. -1.
         11    1    4    4    0    0  0.43714732580E+02 -0.14806747271E+03 -0.30232644097E+02  0.15731804439E+03  0.51100000000E-03 0.  1.
    9000005    1    3    3    0    0 -0.32660969197E+02  0.11226178915E+03 -0.36240398043E+03  0.38079796906E+03  0.10000000000E+01 0.  0.
    9000005    1    3    3    0    0 -0.11394994379E+03  0.12718525906E+03 -0.22860982828E+03  0.28534914298E+03  0.10000000000E+01 0.  0.
<mgrwt>
<rscale>  0 0.30432277E+03</rscale>
<asrwt>0</asrwt>
<pdfrwt beam="2">  1        1 0.12863319E+00 0.30733476E+03</pdfrwt>
<pdfrwt beam="1">  1       -1 0.21958056E-01 0.30733476E+03</pdfrwt>
<totfact> 0.37287604E+02</totfact>
</mgrwt>
</event>
<event>
 8    2  0.7478846E-004  0.1259261E+03  0.7818608E-02  0.1250006E+00
         -1   -1    0    0    0  501 -0.00000000000E+00  0.00000000000E+00  0.10671199305E+02  0.10671200495E+02  0.50400000000E-02 0.  1.
          1   -1    0    0  501    0  0.00000000000E+00 -0.00000000000E+00 -0.13210212215E+04  0.13210212215E+04  0.50400000000E-02 0. -1.
         25    2    1    2    0    0  0.12298202496E+02 -0.90229129295E+01 -0.47289725744E+03  0.48937633432E+03  0.12499888702E+03 0.  0.
         23    2    1    2    0    0 -0.12298202496E+02  0.90229129295E+01 -0.83745276478E+03  0.84231608771E+03  0.89087595279E+02 0.  0.
        -11    1    4    4    0    0  0.25794841481E+02  0.18941026939E+02 -0.13421550437E+03  0.13797803435E+03  0.51100000000E-03 0.  1.
         11    1    4    4    0    0 -0.38093043977E+02 -0.99181140092E+01 -0.70323726041E+03  0.70433805336E+03  0.51100000000E-03 0. -1.
    9000005    1    3    3    0    0  0.99831730521E+01 -0.50889354155E+02 -0.87611437731E+02  0.10181431202E+03  0.10000000000E+01 0.  0.
    9000005    1    3    3    0    0  0.23150294440E+01  0.41866441226E+02 -0.38528581971E+03  0.38756202230E+03  0.10000000000E+01 0.  0.
<mgrwt>
<rscale>  0 0.11590699E+03</rscale>
<asrwt>0</asrwt>
<pdfrwt beam="2">  1        1 0.20323390E+00 0.12592609E+03</pdfrwt>
<pdfrwt beam="1">  1       -1 0.16417241E-02 0.12592609E+03</pdfrwt>
<totfact> 0.83763399E+03</totfact>
</mgrwt>
</event>
<event>
 8    2  0.7478846E-004  0.1282359E+03  0.7818608E-02  0.1245663E+00
          1   -1    0    0  501    0  0.00000000000E+00  0.00000000000E+00  0.24432720682E+03  0.24432720687E+03  0.50400000000E-02 0. -1.
         -1   -1    0    0    0  501 -0.00000000000E+00 -0.00000000000E+00 -0.63739589947E+02  0.63739590146E+02  0.50400000000E-02 0.  1.
         25    2    1    2    0    0  0.21488679458E+01  0.28590040907E+02  0.17165561972E+03  0.21426641397E+03  0.12498974478E+03 0.  0.
         23    2    1    2    0    0 -0.21488679458E+01 -0.28590040907E+02  0.89319971477E+01  0.93800383047E+02  0.88863508901E+02 0.  0.
        -11    1    4    4    0    0 -0.42356670137E+02 -0.29297070182E+02  0.13732334455E+02  0.53300870877E+02  0.51100000000E-03 0. -1.
         11    1    4    4    0    0  0.40207802192E+02  0.70702927572E+00 -0.48003373073E+01  0.40499512170E+02  0.51100000000E-03 0.  1.
    9000005    1    3    3    0    0  0.13231137225E+02  0.75025560212E+02  0.77412047875E+02  0.10861640223E+03  0.10000000000E+01 0.  0.
    9000005    1    3    3    0    0 -0.11082269279E+02 -0.46435519305E+02  0.94243571847E+02  0.10565001174E+03  0.10000000000E+01 0.  0.
<mgrwt>
<rscale>  0 0.11845785E+03</rscale>
<asrwt>0</asrwt>
<pdfrwt beam="1">  1        1 0.37588802E-01 0.12823589E+03</pdfrwt>
<pdfrwt beam="2">  1       -1 0.98060906E-02 0.12823589E+03</pdfrwt>
<totfact> 0.67715241E+03</totfact>
</mgrwt>
</event>
<event>
 8    2  0.7478846E-004  0.1401229E+03  0.7818608E-02  0.1224821E+00
         -1   -1    0    0    0  501 -0.00000000000E+00  0.00000000000E+00  0.48425435352E+03  0.48425435355E+03  0.50400000000E-02 0.  1.
          1   -1    0    0  501    0  0.00000000000E+00 -0.00000000000E+00 -0.32215799075E+02  0.32215799469E+02  0.50400000000E-02 0. -1.
         25    2    1    2    0    0  0.53728822933E+02 -0.33516643885E+02  0.25746725033E+03  0.29312765109E+03  0.12499713199E+03 0.  0.
         23    2    1    2    0    0 -0.53728822933E+02  0.33516643885E+02  0.19457130412E+03  0.22334250193E+03  0.89519433384E+02 0.  0.
        -11    1    4    4    0    0 -0.57953424478E+02  0.47080422880E+02  0.86192039539E+02  0.11403610528E+03  0.51100000000E-03 0. -1.
         11    1    4    4    0    0  0.42246015449E+01 -0.13563778995E+02  0.10837926458E+03  0.10930639665E+03  0.51100000000E-03 0.  1.
    9000005    1    3    3    0    0 -0.44924294046E+01 -0.26720420363E+02  0.22397458509E+03  0.22560979046E+03  0.10000000000E+01 0.  0.
    9000005    1    3    3    0    0  0.58221252338E+02 -0.67962235220E+01  0.33492665241E+02  0.67517860621E+02  0.10000000000E+01 0.  0.
<mgrwt>
<rscale>  0 0.13179153E+03</rscale>
<asrwt>0</asrwt>
<pdfrwt beam="2">  1        1 0.49562769E-02 0.14012293E+03</pdfrwt>
<pdfrwt beam="1">  1       -1 0.74500669E-01 0.14012293E+03</pdfrwt>
<totfact> 0.30730620E+03</totfact>
</mgrwt>
</event>
<event>
 8    2  0.7478846E-004  0.1318028E+03  0.7818608E-02  0.1233962E+00
          1   -1    0    0  501    0  0.00000000000E+00  0.00000000000E+00  0.60264640874E+03  0.60264640876E+03  0.50400000000E-02 0. -1.
         -1   -1    0    0    0  501 -0.00000000000E+00 -0.00000000000E+00 -0.24358697904E+02  0.24358698425E+02  0.50400000000E-02 0.  1.
         25    2    1    2    0    0  0.26695882564E+02 -0.32150474282E+02  0.35009474549E+03  0.37408327565E+03  0.12500257263E+03 0.  0.
         23    2    1    2    0    0 -0.26695882564E+02  0.32150474282E+02  0.22819296535E+03  0.25292183153E+03  0.10075266889E+03 0.  0.
        -11    1    4    4    0    0  0.30270566469E+02 -0.73764036725E+00  0.24745380581E+02  0.39104797251E+02  0.51100000000E-03 0. -1.
         11    1    4    4    0    0 -0.56966449033E+02  0.32888114649E+02  0.20344758477E+03  0.21381703428E+03  0.51100000000E-03 0.  1.
    9000005    1    3    3    0    0 -0.31020988738E+02  0.20122722480E+02  0.40523524118E+02  0.54866945507E+02  0.10000000000E+01 0.  0.
    9000005    1    3    3    0    0  0.57716871301E+02 -0.52273196762E+02  0.30957122137E+03  0.31921633015E+03  0.10000000000E+01 0.  0.
<mgrwt>
<rscale>  0 0.12571149E+03</rscale>
<asrwt>0</asrwt>
<pdfrwt beam="1">  1        1 0.92714829E-01 0.13180276E+03</pdfrwt>
<pdfrwt beam="2">  1       -1 0.37474922E-02 0.13180276E+03</pdfrwt>
<totfact> 0.90496962E+03</totfact>
</mgrwt>
</event>
<event>
 8    2  0.7478846E-004  0.1441979E+03  0.7818608E-02  0.1218174E+00
         -1   -1    0    0    0  501 -0.00000000000E+00  0.00000000000E+00  0.72394776118E+02  0.72394776293E+02  0.50400000000E-02 0.  1.
          1   -1    0    0  501    0  0.00000000000E+00 -0.00000000000E+00 -0.26288412485E+03  0.26288412490E+03  0.50400000000E-02 0. -1.
         25    2    1    2    0    0  0.70511657563E+02  0.14013893453E+02 -0.48465495159E+02  0.15212476606E+03  0.12499902866E+03 0.  0.
         23    2    1    2    0    0 -0.70511657563E+02 -0.14013893453E+02 -0.14202385358E+03  0.18315413513E+03  0.90589067606E+02 0.  0.
        -11    1    4    4    0    0 -0.73095015587E+02 -0.17669699643E+02 -0.48413787339E+02  0.89437097415E+02  0.51100000000E-03 0.  1.
         11    1    4    4    0    0  0.25833580237E+01  0.36558061900E+01 -0.93610066238E+02  0.93717037720E+02  0.51100000000E-03 0. -1.
    9000005    1    3    3    0    0  0.82023426661E+02 -0.16174439390E+02  0.11111131462E+02  0.84344011366E+02  0.10000000000E+01 0.  0.
    9000005    1    3    3    0    0 -0.11511769098E+02  0.30188332843E+02 -0.59576626621E+02  0.67780754696E+02  0.10000000000E+01 0.  0.
<mgrwt>
<rscale>  0 0.13645976E+03</rscale>
<asrwt>0</asrwt>
<pdfrwt beam="2">  1        1 0.40443711E-01 0.14419792E+03</pdfrwt>
<pdfrwt beam="1">  1       -1 0.11137658E-01 0.14419792E+03</pdfrwt>
<totfact> 0.51281170E+03</totfact>
</mgrwt>
</event>
<event>
 8    2  0.7478846E-004  0.1316461E+03  0.7818608E-02  0.1232550E+00
         -1   -1    0    0    0  501 -0.00000000000E+00  0.00000000000E+00  0.64071000911E+02  0.64071001109E+02  0.50400000000E-02 0.  1.
          1   -1    0    0  501    0  0.00000000000E+00 -0.00000000000E+00 -0.24817641673E+03  0.24817641678E+03  0.50400000000E-02 0. -1.
         25    2    1    2    0    0 -0.40252780183E+02 -0.92745803175E+01 -0.13733523880E+03  0.19024108208E+03  0.12499758934E+03 0.  0.
         23    2    1    2    0    0  0.40252780183E+02  0.92745803175E+01 -0.46770177018E+02  0.12200633582E+03  0.10484174917E+03 0.  0.
        -11    1    4    4    0    0  0.34364289485E+02  0.18972071139E+02 -0.78795027845E+02  0.88031246092E+02  0.51100000000E-03 0. -1.
         11    1    4    4    0    0  0.58884906978E+01 -0.96974908220E+01  0.32024850827E+02  0.33975089723E+02  0.51100000000E-03 0.  1.
    9000005    1    3    3    0    0 -0.46752655888E+02 -0.62248153765E+02 -0.88759632021E+02  0.11806742038E+03  0.10000000000E+01 0.  0.
    9000005    1    3    3    0    0  0.64998757049E+01  0.52973573447E+02 -0.48575606780E+02  0.72173661691E+02  0.10000000000E+01 0.  0.
<mgrwt>
<rscale>  0 0.12662614E+03</rscale>
<asrwt>0</asrwt>
<pdfrwt beam="2">  1        1 0.38180987E-01 0.13164612E+03</pdfrwt>
<pdfrwt beam="1">  1       -1 0.98570772E-02 0.13164612E+03</pdfrwt>
<totfact> 0.66017058E+03</totfact>
</mgrwt>
</event>
<event>
 8    2  0.7478846E-004  0.3210135E+03  0.7818608E-02  0.1076571E+00
         -1   -1    0    0    0  501 -0.00000000000E+00  0.00000000000E+00  0.96073718734E+03  0.96073718735E+03  0.50400000000E-02 0.  1.
          1   -1    0    0  501    0  0.00000000000E+00 -0.00000000000E+00 -0.11078374904E+03  0.11078374916E+03  0.50400000000E-02 0. -1.
         25    2    1    2    0    0 -0.13824197811E+03 -0.26136910431E+03  0.57134303760E+03  0.65534919100E+03  0.12500016937E+03 0.  0.
         23    2    1    2    0    0  0.13824197811E+03  0.26136910431E+03  0.27861040070E+03  0.41617174550E+03  0.90280192601E+02 0.  0.
        -11    1    4    4    0    0  0.59382702627E+02  0.16344399722E+03  0.10971257892E+03  0.20561394790E+03  0.51100000000E-03 0. -1.
         11    1    4    4    0    0  0.78859275487E+02  0.97925107090E+02  0.16889782177E+03  0.21055779760E+03  0.51100000000E-03 0.  1.
    9000005    1    3    3    0    0 -0.11906536833E+03 -0.26880985339E+03  0.48994473570E+03  0.57138615949E+03  0.10000000000E+01 0.  0.
    9000005    1    3    3    0    0 -0.19176609788E+02  0.74407490835E+01  0.81398301896E+02  0.83963031516E+02  0.10000000000E+01 0.  0.
<mgrwt>
<rscale>  0 0.31800625E+03</rscale>
<asrwt>0</asrwt>
<pdfrwt beam="2">  1        1 0.17043653E-01 0.32101354E+03</pdfrwt>
<pdfrwt beam="1">  1       -1 0.14780573E+00 0.32101354E+03</pdfrwt>
<totfact> 0.12354428E+02</totfact>
</mgrwt>
</event>
<event>
 8    2  0.7478846E-004  0.1335357E+03  0.7818608E-02  0.1234913E+00
          1   -1    0    0  501    0  0.00000000000E+00  0.00000000000E+00  0.26425600181E+04  0.26425600181E+04  0.50400000000E-02 0. -1.
         -1   -1    0    0    0  501 -0.00000000000E+00 -0.00000000000E+00 -0.56966786816E+01  0.56966809111E+01  0.50400000000E-02 0.  1.
         25    2    1    2    0    0 -0.29813024625E+02  0.36320847467E+02  0.11247915808E+04  0.11326905504E+04  0.12499504946E+03 0.  0.
         23    2    1    2    0    0  0.29813024625E+02 -0.36320847467E+02  0.15120717587E+04  0.15155661486E+04  0.91497142800E+02 0.  0.
        -11    1    4    4    0    0  0.30469377734E+02 -0.40573627502E+02  0.36750239937E+03  0.37098870033E+03  0.51100000000E-03 0.  1.
         11    1    4    4    0    0 -0.65635310816E+00  0.42527800349E+01  0.11445693593E+04  0.11445774483E+04  0.51100000000E-03 0. -1.
    9000005    1    3    3    0    0 -0.21535707851E+02  0.70541886769E+02  0.38153805961E+03  0.38860292772E+03  0.10000000000E+01 0.  0.
    9000005    1    3    3    0    0 -0.82773167744E+01 -0.34221039301E+02  0.74325352119E+03  0.74408762271E+03  0.10000000000E+01 0.  0.
<mgrwt>
<rscale>  0 0.12510004E+03</rscale>
<asrwt>0</asrwt>
<pdfrwt beam="1">  1        1 0.40654867E+00 0.13353570E+03</pdfrwt>
<pdfrwt beam="2">  1       -1 0.87641018E-03 0.13353570E+03</pdfrwt>
<totfact> 0.29034550E+03</totfact>
</mgrwt>
</event>
<event>
 8    2  0.7478846E-004  0.1566841E+03  0.7818608E-02  0.1203653E+00
          1   -1    0    0  501    0  0.00000000000E+00  0.00000000000E+00  0.50784536639E+03  0.50784536642E+03  0.50400000000E-02 0. -1.
         -1   -1    0    0    0  501 -0.00000000000E+00 -0.00000000000E+00 -0.60507340301E+02  0.60507340511E+02  0.50400000000E-02 0.  1.
         25    2    1    2    0    0  0.25315280299E+02 -0.91010015152E+02  0.70169536391E+02  0.17167900454E+03  0.12500492185E+03 0.  0.
         23    2    1    2    0    0 -0.25315280299E+02  0.91010015152E+02  0.37716848970E+03  0.39667370239E+03  0.78551067919E+02 0.  0.
        -11    1    4    4    0    0 -0.44516836828E+02  0.46956271139E+02  0.13402439270E+03  0.14882599907E+03  0.51100000000E-03 0.  1.
         11    1    4    4    0    0  0.19201556529E+02  0.44053744014E+02  0.24314409701E+03  0.24784770333E+03  0.51100000000E-03 0. -1.
    9000005    1    3    3    0    0 -0.29786744546E+02 -0.16344308233E+02  0.71171280372E+02  0.78871653413E+02  0.10000000000E+01 0.  0.
    9000005    1    3    3    0    0  0.55102024845E+02 -0.74665706920E+02 -0.10017439807E+01  0.92807351125E+02  0.10000000000E+01 0.  0.
<mgrwt>
<rscale>  0 0.14744130E+03</rscale>
<asrwt>0</asrwt>
<pdfrwt beam="1">  1        1 0.78130060E-01 0.15668413E+03</pdfrwt>
<pdfrwt beam="2">  1       -1 0.93088212E-02 0.15668413E+03</pdfrwt>
<totfact> 0.29520444E+03</totfact>
</mgrwt>
</event>
<event>
 8    2  0.7478846E-004  0.1581394E+03  0.7818608E-02  0.1198786E+00
          1   -1    0    0  501    0  0.00000000000E+00  0.00000000000E+00  0.83419061908E+02  0.83419062060E+02  0.50400000000E-02 0. -1.
         -1   -1    0    0    0  501 -0.00000000000E+00 -0.00000000000E+00 -0.27636649749E+03  0.27636649754E+03  0.50400000000E-02 0.  1.
         25    2    1    2    0    0  0.79980526586E+02 -0.54644636832E+02 -0.52803247806E+02  0.16672208595E+03  0.12500059999E+03 0.  0.
         23    2    1    2    0    0 -0.79980526586E+02  0.54644636832E+02 -0.14014418778E+03  0.19306347364E+03  0.90830559393E+02 0.  0.
        -11    1    4    4    0    0 -0.64949535461E+02  0.44240473053E+02 -0.15211293919E+03  0.17121334026E+03  0.51100000000E-03 0.  1.
         11    1    4    4    0    0 -0.15030991125E+02  0.10404163779E+02  0.11968751416E+02  0.21850133383E+02  0.51100000000E-03 0. -1.
    9000005    1    3    3    0    0 -0.25010937926E+02 -0.40252433032E+02  0.19400924624E+01  0.47440165890E+02  0.10000000000E+01 0.  0.
    9000005    1    3    3    0    0  0.10499146451E+03 -0.14392203800E+02 -0.54743340268E+02  0.11928192006E+03  0.10000000000E+01 0.  0.
<mgrwt>
<rscale>  0 0.15138094E+03</rscale>
<asrwt>0</asrwt>
<pdfrwt beam="1">  1        1 0.12833702E-01 0.15813940E+03</pdfrwt>
<pdfrwt beam="2">  1       -1 0.42517922E-01 0.15813940E+03</pdfrwt>
<totfact> 0.24745630E+03</totfact>
</mgrwt>
</event>
<event>
 8    2  0.7478846E-004  0.1271164E+03  0.7818608E-02  0.1247116E+00
          1   -1    0    0  501    0  0.00000000000E+00  0.00000000000E+00  0.55720728751E+02  0.55720728979E+02  0.50400000000E-02 0. -1.
         -1   -1    0    0    0  501 -0.00000000000E+00 -0.00000000000E+00 -0.22719259253E+03  0.22719259259E+03  0.50400000000E-02 0.  1.
         25    2    1    2    0    0  0.22691467536E+02  0.43140974311E+01 -0.12716674354E+03  0.17980536834E+03  0.12500030275E+03 0.  0.
         23    2    1    2    0    0 -0.22691467536E+02 -0.43140974311E+01 -0.44305120243E+02  0.10310795322E+03  0.90193082899E+02 0.  0.
        -11    1    4    4    0    0  0.33319209145E+02 -0.63594510374E+01 -0.29950564101E+02  0.45250951436E+02  0.51100000000E-03 0.  1.
         11    1    4    4    0    0 -0.56010676682E+02  0.20453536063E+01 -0.14354556142E+02  0.57857001789E+02  0.51100000000E-03 0. -1.
    9000005    1    3    3    0    0 -0.43570003272E+01 -0.29978175842E+02  0.13006108201E+02  0.32982318433E+02  0.10000000000E+01 0.  0.
    9000005    1    3    3    0    0  0.27048467864E+02  0.34292273273E+02 -0.14017285174E+03  0.14682304991E+03  0.10000000000E+01 0.  0.
<mgrwt>
<rscale>  0 0.11759614E+03</rscale>
<asrwt>0</asrwt>
<pdfrwt beam="1">  1        1 0.85724199E-02 0.12711644E+03</pdfrwt>
<pdfrwt beam="2">  1       -1 0.34952706E-01 0.12711644E+03</pdfrwt>
<totfact> 0.58670202E+03</totfact>
</mgrwt>
</event>
<event>
 8    2  0.7478846E-004  0.2263373E+03  0.7818608E-02  0.1132120E+00
         -1   -1    0    0    0  501 -0.00000000000E+00  0.00000000000E+00  0.37277870727E+02  0.37277871068E+02  0.50400000000E-02 0.  1.
          1   -1    0    0  501    0  0.00000000000E+00 -0.00000000000E+00 -0.14622708951E+04  0.14622708951E+04  0.50400000000E-02 0. -1.
         25    2    1    2    0    0  0.16628493224E+03 -0.89175693857E+02 -0.47159137188E+03  0.52309367723E+03  0.12500236024E+03 0.  0.
         23    2    1    2    0    0 -0.16628493224E+03  0.89175693857E+02 -0.95340165246E+03  0.97645508891E+03  0.94270073069E+02 0.  0.
        -11    1    4    4    0    0 -0.78376009113E+02 -0.92268060952E+01 -0.34579434840E+03  0.35468530296E+03  0.51100000000E-03 0. -1.
         11    1    4    4    0    0 -0.87908923132E+02  0.98402499952E+02 -0.60760730407E+03  0.62176978595E+03  0.51100000000E-03 0.  1.
    9000005    1    3    3    0    0  0.13533240209E+03 -0.24425454676E+02 -0.39440125033E+03  0.41768984684E+03  0.10000000000E+01 0.  0.
    9000005    1    3    3    0    0  0.30952530155E+02 -0.64750239181E+02 -0.77190121553E+02  0.10540383040E+03  0.10000000000E+01 0.  0.
<mgrwt>
<rscale>  0 0.22238203E+03</rscale>
<asrwt>0</asrwt>
<pdfrwt beam="2">  1        1 0.22496471E+00 0.22633730E+03</pdfrwt>
<pdfrwt beam="1">  1       -1 0.57350582E-02 0.22633730E+03</pdfrwt>
<totfact> 0.10882107E+03</totfact>
</mgrwt>
</event>
<event>
 8    2  0.7478846E-004  0.1258591E+03  0.7818608E-02  0.1247981E+00
          1   -1    0    0  501    0  0.00000000000E+00  0.00000000000E+00  0.13293405493E+04  0.13293405493E+04  0.50400000000E-02 0. -1.
         -1   -1    0    0    0  501 -0.00000000000E+00 -0.00000000000E+00 -0.92973036717E+01  0.92973050377E+01  0.50400000000E-02 0.  1.
         25    2    1    2    0    0 -0.97908169112E+01 -0.10935366540E+02  0.84608819039E+03  0.85539800359E+03  0.12500030520E+03 0.  0.
         23    2    1    2    0    0  0.97908169112E+01  0.10935366540E+02  0.47395505525E+03  0.48323985077E+03  0.93123126194E+02 0.  0.
        -11    1    4    4    0    0  0.43866721964E+02  0.12833043280E+02  0.13408892098E+03  0.14166444517E+03  0.51100000000E-03 0.  1.
         11    1    4    4    0    0 -0.34075905053E+02 -0.18976767397E+01  0.33986613427E+03  0.34157540560E+03  0.51100000000E-03 0. -1.
    9000005    1    3    3    0    0  0.13893312525E+02  0.29410774831E+02  0.62960001856E+02  0.70872982460E+02  0.10000000000E+01 0.  0.
    9000005    1    3    3    0    0 -0.23684129436E+02 -0.40346141371E+02  0.78312818853E+03  0.78452502113E+03  0.10000000000E+01 0.  0.
<mgrwt>
<rscale>  0 0.11708739E+03</rscale>
<asrwt>0</asrwt>
<pdfrwt beam="1">  1        1 0.20451402E+00 0.12585912E+03</pdfrwt>
<pdfrwt beam="2">  1       -1 0.14303539E-02 0.12585912E+03</pdfrwt>
<totfact> 0.10075552E+04</totfact>
</mgrwt>
</event>
<event>
 8    2  0.7478846E-004  0.1266949E+03  0.7818608E-02  0.1246986E+00
         -1   -1    0    0    0  501 -0.00000000000E+00  0.00000000000E+00  0.19349403540E+03  0.19349403547E+03  0.50400000000E-02 0.  1.
          1   -1    0    0  501    0  0.00000000000E+00 -0.00000000000E+00 -0.63346805753E+02  0.63346805954E+02  0.50400000000E-02 0. -1.
         25    2    1    2    0    0  0.19716311224E+02 -0.61609730064E+01  0.82661111253E+02  0.15127605780E+03  0.12499958334E+03 0.  0.
         23    2    1    2    0    0 -0.19716311224E+02  0.61609730064E+01  0.47486118396E+02  0.10556478362E+03  0.91990769012E+02 0.  0.
        -11    1    4    4    0    0 -0.13625301455E+02 -0.29796437603E+02 -0.12742895459E+02  0.35154770921E+02  0.51100000000E-03 0. -1.
         11    1    4    4    0    0 -0.60910097698E+01  0.35957410609E+02  0.60229013855E+02  0.70410012697E+02  0.51100000000E-03 0.  1.
    9000005    1    3    3    0    0  0.37389900692E+02 -0.52346372622E+02  0.12670026274E+02  0.65571922087E+02  0.10000000000E+01 0.  0.
    9000005    1    3    3    0    0 -0.17673589468E+02  0.46185399615E+02  0.69991084979E+02  0.85704135716E+02  0.10000000000E+01 0.  0.
<mgrwt>
<rscale>  0 0.11767272E+03</rscale>
<asrwt>0</asrwt>
<pdfrwt beam="2">  1        1 0.97456627E-02 0.12669486E+03</pdfrwt>
<pdfrwt beam="1">  1       -1 0.29768312E-01 0.12669486E+03</pdfrwt>
<totfact> 0.64912438E+03</totfact>
</mgrwt>
</event>
<event>
 8    2  0.7478846E-004  0.1438182E+03  0.7818608E-02  0.1218923E+00
          1   -1    0    0  501    0  0.00000000000E+00  0.00000000000E+00  0.10942647485E+03  0.10942647496E+03  0.50400000000E-02 0. -1.
         -1   -1    0    0    0  501 -0.00000000000E+00 -0.00000000000E+00 -0.15284404492E+03  0.15284404500E+03  0.50400000000E-02 0.  1.
         25    2    1    2    0    0 -0.69840241336E+02  0.13460089138E+02 -0.20704194367E+02  0.14530090342E+03  0.12499942225E+03 0.  0.
         23    2    1    2    0    0  0.69840241336E+02 -0.13460089138E+02 -0.22713375704E+02  0.11696961655E+03  0.90039771487E+02 0.  0.
        -11    1    4    4    0    0  0.69092240862E+02 -0.27509169845E+02  0.15747500486E+02  0.76016287365E+02  0.51100000000E-03 0. -1.
         11    1    4    4    0    0  0.74800047409E+00  0.14049080707E+02 -0.38460876190E+02  0.40953329181E+02  0.51100000000E-03 0.  1.
    9000005    1    3    3    0    0 -0.66623733348E+02 -0.23088388764E+02 -0.59228505171E+02  0.92091320795E+02  0.10000000000E+01 0.  0.
    9000005    1    3    3    0    0 -0.32165079884E+01  0.36548477902E+02  0.38524310804E+02  0.53209582628E+02  0.10000000000E+01 0.  0.
<mgrwt>
<rscale>  0 0.13592277E+03</rscale>
<asrwt>0</asrwt>
<pdfrwt beam="1">  1        1 0.16834842E-01 0.14381825E+03</pdfrwt>
<pdfrwt beam="2">  1       -1 0.23514468E-01 0.14381825E+03</pdfrwt>
<totfact> 0.47340716E+03</totfact>
</mgrwt>
</event>
<event>
 8    2  0.7478846E-004  0.1464211E+03  0.7818608E-02  0.1214647E+00
          1   -1    0    0  501    0  0.00000000000E+00  0.00000000000E+00  0.12316720405E+04  0.12316720405E+04  0.50400000000E-02 0. -1.
         -1   -1    0    0    0  501 -0.00000000000E+00 -0.00000000000E+00 -0.41307268274E+02  0.41307268581E+02  0.50400000000E-02 0.  1.
         25    2    1    2    0    0 -0.62349420452E+02  0.43897226665E+02  0.10275698081E+03  0.17888021416E+03  0.12499886869E+03 0.  0.
         23    2    1    2    0    0  0.62349420452E+02 -0.43897226665E+02  0.10876077914E+04  0.10940990949E+04  0.91365774968E+02 0.  0.
        -11    1    4    4    0    0  0.32595977098E+02 -0.66086889766E+02  0.88929746720E+03  0.89234520220E+03  0.51100000000E-03 0. -1.
         11    1    4    4    0    0  0.29753443354E+02  0.22189663101E+02  0.19831032420E+03  0.20175389271E+03  0.51100000000E-03 0.  1.
    9000005    1    3    3    0    0 -0.69979654420E+02  0.41236024036E+02  0.56449767403E+01  0.81427436859E+02  0.10000000000E+01 0.  0.
    9000005    1    3    3    0    0  0.76302339678E+01  0.26612026295E+01  0.97112004066E+02  0.97452777301E+02  0.10000000000E+01 0.  0.
<mgrwt>
<rscale>  0 0.13902527E+03</rscale>
<asrwt>0</asrwt>
<pdfrwt beam="1">  1        1 0.18948801E+00 0.14642108E+03</pdfrwt>
<pdfrwt beam="2">  1       -1 0.63549644E-02 0.14642108E+03</pdfrwt>
<totfact> 0.13360258E+03</totfact>
</mgrwt>
</event>
<event>
 8    2  0.7478846E-004  0.1301518E+03  0.7818608E-02  0.1239748E+00
         -1   -1    0    0    0  501 -0.00000000000E+00  0.00000000000E+00  0.25989500581E+02  0.25989501070E+02  0.50400000000E-02 0.  1.
          1   -1    0    0  501    0  0.00000000000E+00 -0.00000000000E+00 -0.52357462229E+03  0.52357462231E+03  0.50400000000E-02 0. -1.
         25    2    1    2    0    0 -0.32737200882E+02  0.15576532272E+02 -0.24017161325E+03  0.27317008023E+03  0.12500054496E+03 0.  0.
         23    2    1    2    0    0  0.32737200882E+02 -0.15576532272E+02 -0.25741350845E+03  0.27639404315E+03  0.93902077060E+02 0.  0.
        -11    1    4    4    0    0  0.34307262552E+02 -0.24871842572E+02 -0.38423021213E+02  0.57200746290E+02  0.51100000000E-03 0.  1.
         11    1    4    4    0    0 -0.15700616704E+01  0.92953102997E+01 -0.21899048724E+03  0.21919329686E+03  0.51100000000E-03 0. -1.
    9000005    1    3    3    0    0 -0.41933148690E+02 -0.19160516568E+02 -0.20309102813E+02  0.50388232866E+02  0.10000000000E+01 0.  0.
    9000005    1    3    3    0    0  0.91959478085E+01  0.34737048840E+02 -0.21986251044E+03  0.22278184737E+03  0.10000000000E+01 0.  0.
<mgrwt>
<rscale>  0 0.12205322E+03</rscale>
<asrwt>0</asrwt>
<pdfrwt beam="2">  1        1 0.80549934E-01 0.13015179E+03</pdfrwt>
<pdfrwt beam="1">  1       -1 0.39983851E-02 0.13015179E+03</pdfrwt>
<totfact> 0.99236825E+03</totfact>
</mgrwt>
</event>
<event>
 8    2  0.7478846E-004  0.1376385E+03  0.7818608E-02  0.1228862E+00
         -1   -1    0    0    0  501 -0.00000000000E+00  0.00000000000E+00  0.39297691704E+02  0.39297692027E+02  0.50400000000E-02 0.  1.
          1   -1    0    0  501    0  0.00000000000E+00 -0.00000000000E+00 -0.39260138654E+03  0.39260138657E+03  0.50400000000E-02 0. -1.
         25    2    1    2    0    0  0.57100998851E+02 -0.77005161263E+01 -0.15837465954E+03  0.20982583817E+03  0.12499811023E+03 0.  0.
         23    2    1    2    0    0 -0.57100998851E+02  0.77005161263E+01 -0.19492903530E+03  0.22207324043E+03  0.89439215647E+02 0.  0.
        -11    1    4    4    0    0 -0.64350111670E+02  0.23624849685E+02 -0.77996515101E+02  0.10383894627E+03  0.51100000000E-03 0.  1.
         11    1    4    4    0    0  0.72491128185E+01 -0.15924333559E+02 -0.11693252019E+03  0.11823429416E+03  0.51100000000E-03 0. -1.
    9000005    1    3    3    0    0  0.85875089094E+02 -0.22540817136E+02 -0.62375912036E+02  0.10850978650E+03  0.10000000000E+01 0.  0.
    9000005    1    3    3    0    0 -0.28774090243E+02  0.14840301009E+02 -0.95998747505E+02  0.10131605167E+03  0.10000000000E+01 0.  0.
<mgrwt>
<rscale>  0 0.12905708E+03</rscale>
<asrwt>0</asrwt>
<pdfrwt beam="2">  1        1 0.60400211E-01 0.13763847E+03</pdfrwt>
<pdfrwt beam="1">  1       -1 0.60457990E-02 0.13763847E+03</pdfrwt>
<totfact> 0.78219066E+03</totfact>
</mgrwt>
</event>
<event>
 8    2  0.7478846E-004  0.1780737E+03  0.7818608E-02  0.1175101E+00
         -1   -1    0    0    0  501 -0.00000000000E+00  0.00000000000E+00  0.42725126808E+03  0.42725126811E+03  0.50400000000E-02 0.  1.
          1   -1    0    0  501    0  0.00000000000E+00 -0.00000000000E+00 -0.67498660969E+02  0.67498661157E+02  0.50400000000E-02 0. -1.
         25    2    1    2    0    0 -0.64804121279E+02 -0.10902595945E+03  0.22929532476E+03  0.29032154728E+03  0.12499608350E+03 0.  0.
         23    2    1    2    0    0  0.64804121279E+02  0.10902595945E+03  0.13045728235E+03  0.20442838198E+03  0.93196710642E+02 0.  0.
        -11    1    4    4    0    0  0.53537678715E+02  0.48122998635E+02  0.15185820641E+02  0.73571157315E+02  0.51100000000E-03 0.  1.
         11    1    4    4    0    0  0.11266442564E+02  0.60902960816E+02  0.11527146171E+03  0.13085722467E+03  0.51100000000E-03 0. -1.
    9000005    1    3    3    0    0  0.25918764701E+02 -0.33736653949E+02  0.13895024634E+02  0.44766236081E+02  0.10000000000E+01 0.  0.
    9000005    1    3    3    0    0 -0.90722885980E+02 -0.75289305501E+02  0.21540030013E+03  0.24555531120E+03  0.10000000000E+01 0.  0.
<mgrwt>
<rscale>  0 0.17266119E+03</rscale>
<asrwt>0</asrwt>
<pdfrwt beam="2">  1        1 0.10384409E-01 0.17807373E+03</pdfrwt>
<pdfrwt beam="1">  1       -1 0.65730966E-01 0.17807373E+03</pdfrwt>
<totfact> 0.14629639E+03</totfact>
</mgrwt>
</event>
<event>
 8    2  0.7478846E-004  0.1700072E+03  0.7818608E-02  0.1184296E+00
          1   -1    0    0  501    0  0.00000000000E+00  0.00000000000E+00  0.12170135770E+04  0.12170135770E+04  0.50400000000E-02 0. -1.
         -1   -1    0    0    0  501 -0.00000000000E+00 -0.00000000000E+00 -0.21843580513E+02  0.21843581095E+02  0.50400000000E-02 0.  1.
         25    2    1    2    0    0  0.11247199251E+03 -0.25047469977E+02  0.78262155147E+03  0.80087385423E+03  0.12500045086E+03 0.  0.
         23    2    1    2    0    0 -0.11247199251E+03  0.25047469977E+02  0.41254844504E+03  0.43798330390E+03  0.91410229937E+02 0.  0.
        -11    1    4    4    0    0 -0.66810082591E+02 -0.15058279666E+02  0.32012456245E+03  0.32736840778E+03  0.51100000000E-03 0. -1.
         11    1    4    4    0    0 -0.45661909917E+02  0.40105749643E+02  0.92423882583E+02  0.11061489612E+03  0.51100000000E-03 0.  1.
    9000005    1    3    3    0    0  0.96541009853E+02  0.34349164813E+02  0.58484513571E+03  0.59375488585E+03  0.10000000000E+01 0.  0.
    9000005    1    3    3    0    0  0.15930982655E+02 -0.59396634789E+02  0.19777641576E+03  0.20711896839E+03  0.10000000000E+01 0.  0.
<mgrwt>
<rscale>  0 0.16396094E+03</rscale>
<asrwt>0</asrwt>
<pdfrwt beam="1">  1        1 0.18723285E+00 0.17000717E+03</pdfrwt>
<pdfrwt beam="2">  1       -1 0.33605510E-02 0.17000717E+03</pdfrwt>
<totfact> 0.35193541E+03</totfact>
</mgrwt>
</event>
<event>
 8    2  0.7478846E-004  0.1323377E+03  0.7818608E-02  0.1237328E+00
          1   -1    0    0  501    0  0.00000000000E+00  0.00000000000E+00  0.12054404600E+03  0.12054404611E+03  0.50400000000E-02 0. -1.
         -1   -1    0    0    0  501 -0.00000000000E+00 -0.00000000000E+00 -0.11257424913E+03  0.11257424924E+03  0.50400000000E-02 0.  1.
         25    2    1    2    0    0  0.70634310449E+01 -0.42828613319E+02  0.19518962776E+01  0.13235214094E+03  0.12501638747E+03 0.  0.
         23    2    1    2    0    0 -0.70634310449E+01  0.42828613319E+02  0.60179006008E+01  0.10076615440E+03  0.90738197958E+02 0.  0.
        -11    1    4    4    0    0 -0.36118678738E+02  0.52672083569E+02 -0.12294288784E+02  0.65038887431E+02  0.51100000000E-03 0.  1.
         11    1    4    4    0    0  0.29055247693E+02 -0.98434702500E+01  0.18312189385E+02  0.35727266973E+02  0.51100000000E-03 0. -1.
    9000005    1    3    3    0    0 -0.22538428989E+02  0.80826414553E+01  0.50581299009E+02  0.55971221924E+02  0.10000000000E+01 0.  0.
    9000005    1    3    3    0    0  0.29601860034E+02 -0.50911254775E+02 -0.48629402731E+02  0.76380919019E+02  0.10000000000E+01 0.  0.
<mgrwt>
<rscale>  0 0.12356558E+03</rscale>
<asrwt>0</asrwt>
<pdfrwt beam="1">  1        1 0.18545238E-01 0.13233775E+03</pdfrwt>
<pdfrwt beam="2">  1       -1 0.17319115E-01 0.13233775E+03</pdfrwt>
<totfact> 0.68012197E+03</totfact>
</mgrwt>
</event>
<event>
 8    2  0.7478846E-004  0.1393568E+03  0.7818608E-02  0.1224838E+00
          1   -1    0    0  501    0  0.00000000000E+00  0.00000000000E+00  0.10991961270E+04  0.10991961270E+04  0.50400000000E-02 0. -1.
         -1   -1    0    0    0  501 -0.00000000000E+00 -0.00000000000E+00 -0.14466559089E+02  0.14466559967E+02  0.50400000000E-02 0.  1.
         25    2    1    2    0    0 -0.56832942737E+02  0.23765948532E+02  0.66056091900E+03  0.67510076127E+03  0.12500202586E+03 0.  0.
         23    2    1    2    0    0  0.56832942737E+02 -0.23765948532E+02  0.42416864892E+03  0.43856192572E+03  0.92858582114E+02 0.  0.
        -11    1    4    4    0    0  0.41666653160E+02  0.12295311425E+02  0.36533602672E+03  0.36790990349E+03  0.51100000000E-03 0. -1.
         11    1    4    4    0    0  0.15166289577E+02 -0.36061259957E+02  0.58832622204E+02  0.70652022228E+02  0.51100000000E-03 0.  1.
    9000005    1    3    3    0    0 -0.77807407807E+02 -0.26708566509E+02  0.33318620386E+03  0.34319292924E+03  0.10000000000E+01 0.  0.
    9000005    1    3    3    0    0  0.20974465070E+02  0.50474515041E+02  0.32737471513E+03  0.33190783203E+03  0.10000000000E+01 0.  0.
<mgrwt>
<rscale>  0 0.13178028E+03</rscale>
<asrwt>0</asrwt>
<pdfrwt beam="1">  1        1 0.16910719E+00 0.13935677E+03</pdfrwt>
<pdfrwt beam="2">  1       -1 0.22256234E-02 0.13935677E+03</pdfrwt>
<totfact> 0.76954194E+03</totfact>
</mgrwt>
</event>
<event>
 8    2  0.7478846E-004  0.2078134E+03  0.7818608E-02  0.1147172E+00
         -1   -1    0    0    0  501 -0.00000000000E+00  0.00000000000E+00  0.92719947806E+02  0.92719947943E+02  0.50400000000E-02 0.  1.
          1   -1    0    0  501    0  0.00000000000E+00 -0.00000000000E+00 -0.42989095428E+03  0.42989095431E+03  0.50400000000E-02 0. -1.
         25    2    1    2    0    0 -0.16366824233E+03 -0.27812602364E+02 -0.15023285798E+03  0.25642997417E+03  0.12500234252E+03 0.  0.
         23    2    1    2    0    0  0.16366824233E+03  0.27812602364E+02 -0.18693814850E+03  0.26618092809E+03  0.91354149978E+02 0.  0.
        -11    1    4    4    0    0  0.88778865006E+02 -0.15255787942E+02 -0.14363595329E+03  0.16954560748E+03  0.51100000000E-03 0. -1.
         11    1    4    4    0    0  0.74889377323E+02  0.43068390306E+02 -0.43302195202E+02  0.96635320607E+02  0.51100000000E-03 0.  1.
    9000005    1    3    3    0    0 -0.95919157885E+02 -0.48494036174E+02 -0.21681064911E+02  0.10965046726E+03  0.10000000000E+01 0.  0.
    9000005    1    3    3    0    0 -0.67749084444E+02  0.20681433810E+02 -0.12855179307E+03  0.14677950691E+03  0.10000000000E+01 0.  0.
<mgrwt>
<rscale>  0 0.20307278E+03</rscale>
<asrwt>0</asrwt>
<pdfrwt beam="2">  1        1 0.66137069E-01 0.20781343E+03</pdfrwt>
<pdfrwt beam="1">  1       -1 0.14264608E-01 0.20781343E+03</pdfrwt>
<totfact> 0.19072863E+03</totfact>
</mgrwt>
</event>
<event>
 8    2  0.7478846E-004  0.1282127E+03  0.7818608E-02  0.1243102E+00
         -1   -1    0    0    0  501 -0.00000000000E+00  0.00000000000E+00  0.22960465409E+02  0.22960465962E+02  0.50400000000E-02 0.  1.
          1   -1    0    0  501    0  0.00000000000E+00 -0.00000000000E+00 -0.75455420242E+03  0.75455420243E+03  0.50400000000E-02 0. -1.
         25    2    1    2    0    0  0.24083928318E+02  0.15233971618E+02 -0.59810311920E+03  0.61169096301E+03  0.12500553401E+03 0.  0.
         23    2    1    2    0    0 -0.24083928318E+02 -0.15233971618E+02 -0.13349061780E+03  0.16582370539E+03  0.94157563327E+02 0.  0.
        -11    1    4    4    0    0 -0.57556431125E+02 -0.18994452413E+02 -0.61520533788E+02  0.86361496421E+02  0.51100000000E-03 0.  1.
         11    1    4    4    0    0  0.33472502807E+02  0.37604807952E+01 -0.71970084017E+02  0.79462208965E+02  0.51100000000E-03 0. -1.
    9000005    1    3    3    0    0 -0.30959342667E+02  0.38310901170E+02 -0.11772375119E+03  0.12761695672E+03  0.10000000000E+01 0.  0.
    9000005    1    3    3    0    0  0.55043270985E+02 -0.23076929552E+02 -0.48037936801E+03  0.48407400629E+03  0.10000000000E+01 0.  0.
<mgrwt>
<rscale>  0 0.11999692E+03</rscale>
<asrwt>0</asrwt>
<pdfrwt beam="2">  1        1 0.11608524E+00 0.12821269E+03</pdfrwt>
<pdfrwt beam="1">  1       -1 0.35323799E-02 0.12821269E+03</pdfrwt>
<totfact> 0.71737151E+03</totfact>
</mgrwt>
</event>
<event>
 8    2  0.7478846E-004  0.1798296E+03  0.7818608E-02  0.1173530E+00
         -1   -1    0    0    0  501 -0.00000000000E+00  0.00000000000E+00  0.55685593457E+02  0.55685593685E+02  0.50400000000E-02 0.  1.
          1   -1    0    0  501    0  0.00000000000E+00 -0.00000000000E+00 -0.55390806720E+03  0.55390806722E+03  0.50400000000E-02 0. -1.
         25    2    1    2    0    0  0.11109490158E+03 -0.66115925480E+02 -0.34592612192E+03  0.38987634123E+03  0.12500114745E+03 0.  0.
         23    2    1    2    0    0 -0.11109490158E+03  0.66115925480E+02 -0.15229635182E+03  0.21971731968E+03  0.91477478259E+02 0.  0.
        -11    1    4    4    0    0 -0.96092224319E+02  0.45080134233E+02 -0.55986293477E+02  0.12000166305E+03  0.51100000000E-03 0.  1.
         11    1    4    4    0    0 -0.15002677264E+02  0.21035791247E+02 -0.96310058343E+02  0.99715656628E+02  0.51100000000E-03 0. -1.
    9000005    1    3    3    0    0 -0.92146924086E+01 -0.57819339307E+02 -0.12932300994E+03  0.14196276784E+03  0.10000000000E+01 0.  0.
    9000005    1    3    3    0    0  0.12030959399E+03 -0.82965861724E+01 -0.21660311199E+03  0.24791357339E+03  0.10000000000E+01 0.  0.
<mgrwt>
<rscale>  0 0.17420680E+03</rscale>
<asrwt>0</asrwt>
<pdfrwt beam="2">  1        1 0.85216622E-01 0.17982958E+03</pdfrwt>
<pdfrwt beam="1">  1       -1 0.85670148E-02 0.17982958E+03</pdfrwt>
<totfact> 0.29989810E+03</totfact>
</mgrwt>
</event>
<event>
 8    2  0.7478846E-004  0.1603437E+03  0.7818608E-02  0.1196164E+00
          1   -1    0    0  501    0  0.00000000000E+00  0.00000000000E+00  0.33654810105E+02  0.33654810483E+02  0.50400000000E-02 0. -1.
         -1   -1    0    0    0  501 -0.00000000000E+00 -0.00000000000E+00 -0.64747087565E+03  0.64747087567E+03  0.50400000000E-02 0.  1.
         25    2    1    2    0    0  0.64519565485E+02 -0.76967321918E+02 -0.33479474436E+03  0.37121100365E+03  0.12499338145E+03 0.  0.
         23    2    1    2    0    0 -0.64519565485E+02  0.76967321918E+02 -0.27902132119E+03  0.30991468251E+03  0.90041489224E+02 0.  0.
        -11    1    4    4    0    0  0.10829468379E+02  0.55316885011E+02 -0.11026736993E+03  0.12383912154E+03  0.51100000000E-03 0. -1.
         11    1    4    4    0    0 -0.75349033865E+02  0.21650436907E+02 -0.16875395126E+03  0.18607556097E+03  0.51100000000E-03 0.  1.
    9000005    1    3    3    0    0 -0.37362037095E+02 -0.15140696765E+02 -0.10202797721E+03  0.10970811569E+03  0.10000000000E+01 0.  0.
    9000005    1    3    3    0    0  0.10188160258E+03 -0.61826625153E+02 -0.23276676715E+03  0.26150288796E+03  0.10000000000E+01 0.  0.
<mgrwt>
<rscale>  0 0.15356085E+03</rscale>
<asrwt>0</asrwt>
<pdfrwt beam="1">  1        1 0.51776636E-02 0.16034366E+03</pdfrwt>
<pdfrwt beam="2">  1       -1 0.99610895E-01 0.16034366E+03</pdfrwt>
<totfact> 0.15827557E+03</totfact>
</mgrwt>
</event>
<event>
 8    2  0.7478846E-004  0.1358479E+03  0.7818608E-02  0.1230581E+00
          1   -1    0    0  501    0  0.00000000000E+00  0.00000000000E+00  0.21045578581E+02  0.21045579185E+02  0.50400000000E-02 0. -1.
         -1   -1    0    0    0  501 -0.00000000000E+00 -0.00000000000E+00 -0.13843131417E+04  0.13843131417E+04  0.50400000000E-02 0.  1.
         25    2    1    2    0    0  0.31156295710E+02 -0.43116175057E+02 -0.23039051637E+03  0.26745921884E+03  0.12499969759E+03 0.  0.
         23    2    1    2    0    0 -0.31156295710E+02  0.43116175057E+02 -0.11328770467E+04  0.11378995020E+04  0.92602129571E+02 0.  0.
        -11    1    4    4    0    0 -0.29390805850E+02  0.13828679082E+02 -0.10398049689E+04  0.10403121768E+04  0.51100000000E-03 0.  1.
         11    1    4    4    0    0 -0.17654898601E+01  0.29287495975E+02 -0.93072077781E+02  0.97587325189E+02  0.51100000000E-03 0. -1.
    9000005    1    3    3    0    0  0.41759892989E+02  0.48157493478E+01 -0.12157680873E+02  0.43770872832E+02  0.10000000000E+01 0.  0.
    9000005    1    3    3    0    0 -0.10603597280E+02 -0.47931924404E+02 -0.21823283549E+03  0.22368834601E+03  0.10000000000E+01 0.  0.
<mgrwt>
<rscale>  0 0.12791631E+03</rscale>
<asrwt>0</asrwt>
<pdfrwt beam="1">  1        1 0.32377825E-02 0.13584787E+03</pdfrwt>
<pdfrwt beam="2">  1       -1 0.21297118E+00 0.13584787E+03</pdfrwt>
<totfact> 0.41788011E+02</totfact>
</mgrwt>
</event>
<event>
 8    2  0.7478846E-004  0.2043165E+03  0.7818608E-02  0.1150393E+00
          1   -1    0    0  501    0  0.00000000000E+00  0.00000000000E+00  0.42722963304E+03  0.42722963307E+03  0.50400000000E-02 0. -1.
         -1   -1    0    0    0  501 -0.00000000000E+00 -0.00000000000E+00 -0.10088548282E+03  0.10088548294E+03  0.50400000000E-02 0.  1.
         25    2    1    2    0    0  0.15432498044E+03  0.47960738031E+02  0.26259311449E+03  0.33271664421E+03  0.12501515739E+03 0.  0.
         23    2    1    2    0    0 -0.15432498044E+03 -0.47960738031E+02  0.63751035735E+02  0.19539847181E+03  0.89442362713E+02 0.  0.
        -11    1    4    4    0    0 -0.11481018088E+03 -0.64049027000E+02  0.17753349618E+02  0.13266060801E+03  0.51100000000E-03 0.  1.
         11    1    4    4    0    0 -0.39514799553E+02  0.16088288969E+02  0.45997686116E+02  0.62737863798E+02  0.51100000000E-03 0. -1.
    9000005    1    3    3    0    0  0.44238677905E+02  0.20430836930E+02  0.23361325602E+01  0.48794848456E+02  0.10000000000E+01 0.  0.
    9000005    1    3    3    0    0  0.11008630253E+03  0.27529901101E+02  0.26025698193E+03  0.28392179575E+03  0.10000000000E+01 0.  0.
<mgrwt>
<rscale>  0 0.19922686E+03</rscale>
<asrwt>0</asrwt>
<pdfrwt beam="1">  1        1 0.65727634E-01 0.20431647E+03</pdfrwt>
<pdfrwt beam="2">  1       -1 0.15520844E-01 0.20431647E+03</pdfrwt>
<totfact> 0.16816748E+03</totfact>
</mgrwt>
</event>
<event>
 8    2  0.7478846E-004  0.1281020E+03  0.7818608E-02  0.1243965E+00
          1   -1    0    0  501    0  0.00000000000E+00  0.00000000000E+00  0.10438758781E+03  0.10438758793E+03  0.50400000000E-02 0. -1.
         -1   -1    0    0    0  501 -0.00000000000E+00 -0.00000000000E+00 -0.13310581559E+03  0.13310581569E+03  0.50400000000E-02 0.  1.
         25    2    1    2    0    0  0.43024091559E+01 -0.27666405203E+02 -0.51264686049E+02  0.13797898691E+03  0.12500476828E+03 0.  0.
         23    2    1    2    0    0 -0.43024091559E+01  0.27666405203E+02  0.22546458262E+02  0.99514416706E+02  0.92794588478E+02 0.  0.
        -11    1    4    4    0    0 -0.28766372929E+02 -0.24308372314E+01 -0.24975990104E+02  0.38173462812E+02  0.51100000000E-03 0.  1.
         11    1    4    4    0    0  0.24463963773E+02  0.30097242434E+02  0.47522448366E+02  0.61340953894E+02  0.51100000000E-03 0. -1.
    9000005    1    3    3    0    0  0.13449082137E+02 -0.45303562040E+02  0.28886503216E+02  0.55396034261E+02  0.10000000000E+01 0.  0.
    9000005    1    3    3    0    0 -0.91466729813E+01  0.17637156837E+02 -0.80151189265E+02  0.82582952650E+02  0.10000000000E+01 0.  0.
<mgrwt>
<rscale>  0 0.11947522E+03</rscale>
<asrwt>0</asrwt>
<pdfrwt beam="1">  1        1 0.16059629E-01 0.12810204E+03</pdfrwt>
<pdfrwt beam="2">  1       -1 0.20477818E-01 0.12810204E+03</pdfrwt>
<totfact> 0.62459498E+03</totfact>
</mgrwt>
</event>
<event>
 8    2  0.7478846E-004  0.1810356E+03  0.7818608E-02  0.1172514E+00
          1   -1    0    0  501    0  0.00000000000E+00  0.00000000000E+00  0.50050464806E+03  0.50050464809E+03  0.50400000000E-02 0. -1.
         -1   -1    0    0    0  501 -0.00000000000E+00 -0.00000000000E+00 -0.72852359527E+02  0.72852359702E+02  0.50400000000E-02 0.  1.
         25    2    1    2    0    0  0.10636635719E+03 -0.76390671403E+02  0.35536871698E+03  0.39882428714E+03  0.12499820152E+03 0.  0.
         23    2    1    2    0    0 -0.10636635719E+03  0.76390671403E+02  0.72283571554E+02  0.17453272065E+03  0.89930079744E+02 0.  0.
        -11    1    4    4    0    0  0.50217235824E+01  0.40112358060E+02  0.91166015931E+01  0.41440697409E+02  0.51100000000E-03 0.  1.
         11    1    4    4    0    0 -0.11138808077E+03  0.36278313343E+02  0.63166969961E+02  0.13309202324E+03  0.51100000000E-03 0. -1.
    9000005    1    3    3    0    0  0.49886807464E+02  0.63092688167E+00  0.26776140440E+02  0.56630851349E+02  0.10000000000E+01 0.  0.
    9000005    1    3    3    0    0  0.56479549723E+02 -0.77021598285E+02  0.32859257654E+03  0.34219343579E+03  0.10000000000E+01 0.  0.
<mgrwt>
<rscale>  0 0.17521738E+03</rscale>
<asrwt>0</asrwt>
<pdfrwt beam="1">  1        1 0.77000711E-01 0.18103560E+03</pdfrwt>
<pdfrwt beam="2">  1       -1 0.11208056E-01 0.18103560E+03</pdfrwt>
<totfact> 0.22724482E+03</totfact>
</mgrwt>
</event>
<event>
 8    2  0.7478846E-004  0.1369009E+03  0.7818608E-02  0.1229273E+00
          1   -1    0    0  501    0  0.00000000000E+00  0.00000000000E+00  0.17876968851E+04  0.17876968851E+04  0.50400000000E-02 0. -1.
         -1   -1    0    0    0  501 -0.00000000000E+00 -0.00000000000E+00 -0.83871677874E+01  0.83871693018E+01  0.50400000000E-02 0.  1.
         25    2    1    2    0    0 -0.23728114187E+02 -0.50540984264E+02  0.10688605890E+04  0.10775921409E+04  0.12499779575E+03 0.  0.
         23    2    1    2    0    0  0.23728114187E+02  0.50540984264E+02  0.71044912832E+03  0.71849191351E+03  0.91516399345E+02 0.  0.
        -11    1    4    4    0    0 -0.64446240703E+01  0.13960977631E+02  0.15178680166E+02  0.21606351096E+02  0.51100000000E-03 0.  1.
         11    1    4    4    0    0  0.30172738257E+02  0.36580006633E+02  0.69527044816E+03  0.69688556241E+03  0.51100000000E-03 0. -1.
    9000005    1    3    3    0    0  0.15436570678E+02 -0.72669808204E+02  0.89231884387E+03  0.89540667178E+03  0.10000000000E+01 0.  0.
    9000005    1    3    3    0    0 -0.39164684866E+02  0.22128823940E+02  0.17654174512E+03  0.18218546913E+03  0.10000000000E+01 0.  0.
<mgrwt>
<rscale>  0 0.12878266E+03</rscale>
<asrwt>0</asrwt>
<pdfrwt beam="1">  1        1 0.27503033E+00 0.13690093E+03</pdfrwt>
<pdfrwt beam="2">  1       -1 0.12903334E-02 0.13690093E+03</pdfrwt>
<totfact> 0.59277980E+03</totfact>
</mgrwt>
</event>
<event>
 8    2  0.7478846E-004  0.4800289E+03  0.7818608E-02  0.1019660E+00
         -1   -1    0    0    0  501 -0.00000000000E+00  0.00000000000E+00  0.23295817935E+03  0.23295817941E+03  0.50400000000E-02 0.  1.
          1   -1    0    0  501    0  0.00000000000E+00 -0.00000000000E+00 -0.98002708699E+03  0.98002708700E+03  0.50400000000E-02 0. -1.
         25    2    1    2    0    0 -0.18164613967E+03  0.42638929685E+03 -0.42650273484E+03  0.64213105343E+03  0.12499821770E+03 0.  0.
         23    2    1    2    0    0  0.18164613967E+03 -0.42638929685E+03 -0.32056617279E+03  0.57085421297E+03  0.91152119072E+02 0.  0.
        -11    1    4    4    0    0  0.40919681916E+02 -0.19037615659E+03 -0.10248341473E+03  0.22004624891E+03  0.51100000000E-03 0.  1.
         11    1    4    4    0    0  0.14072645776E+03 -0.23601314026E+03 -0.21808275806E+03  0.35080796406E+03  0.51100000000E-03 0. -1.
    9000005    1    3    3    0    0 -0.78208467679E+02  0.31513003249E+03 -0.25376651725E+03  0.41209458510E+03  0.10000000000E+01 0.  0.
    9000005    1    3    3    0    0 -0.10343767200E+03  0.11125926436E+03 -0.17273621759E+03  0.23003646833E+03  0.10000000000E+01 0.  0.
<mgrwt>
<rscale>  0 0.47809681E+03</rscale>
<asrwt>0</asrwt>
<pdfrwt beam="2">  1        1 0.15077340E+00 0.48002886E+03</pdfrwt>
<pdfrwt beam="1">  1       -1 0.35839721E-01 0.48002886E+03</pdfrwt>
<totfact> 0.12175785E+02</totfact>
</mgrwt>
</event>
<event>
 8    2  0.7478846E-004  0.1660814E+03  0.7818608E-02  0.1189203E+00
         -1   -1    0    0    0  501 -0.00000000000E+00  0.00000000000E+00  0.36764353650E+02  0.36764353996E+02  0.50400000000E-02 0.  1.
          1   -1    0    0  501    0  0.00000000000E+00 -0.00000000000E+00 -0.96253954214E+03  0.96253954215E+03  0.50400000000E-02 0. -1.
         25    2    1    2    0    0  0.56118343674E+02  0.93889708691E+02 -0.20045870399E+03  0.26032039429E+03  0.12497387641E+03 0.  0.
         23    2    1    2    0    0 -0.56118343674E+02 -0.93889708691E+02 -0.72531648450E+03  0.73898350185E+03  0.89711021809E+02 0.  0.
        -11    1    4    4    0    0 -0.72895305077E+02 -0.68511116142E+02 -0.40284897164E+03  0.41508407882E+03  0.51100000000E-03 0.  1.
         11    1    4    4    0    0  0.16776961404E+02 -0.25378592549E+02 -0.32246751286E+03  0.32389942304E+03  0.51100000000E-03 0. -1.
    9000005    1    3    3    0    0  0.11655104542E+02 -0.20576639116E+02 -0.96692647702E+02  0.99547514578E+02  0.10000000000E+01 0.  0.
    9000005    1    3    3    0    0  0.44463239132E+02  0.11446634781E+03 -0.10376605629E+03  0.16077287972E+03  0.10000000000E+01 0.  0.
<mgrwt>
<rscale>  0 0.15955251E+03</rscale>
<asrwt>0</asrwt>
<pdfrwt beam="2">  1        1 0.14808299E+00 0.16608135E+03</pdfrwt>
<pdfrwt beam="1">  1       -1 0.56560552E-02 0.16608135E+03</pdfrwt>
<totfact> 0.24736237E+03</totfact>
</mgrwt>
</event>
<event>
 8    2  0.7478846E-004  0.2237681E+03  0.7818608E-02  0.1134294E+00
         -1   -1    0    0    0  501 -0.00000000000E+00  0.00000000000E+00  0.27035801187E+02  0.27035801657E+02  0.50400000000E-02 0.  1.
          1   -1    0    0  501    0  0.00000000000E+00 -0.00000000000E+00 -0.22581577595E+04  0.22581577595E+04  0.50400000000E-02 0. -1.
         25    2    1    2    0    0 -0.10914390178E+03  0.15013020696E+03 -0.17082400107E+04  0.17228337455E+04  0.12498283841E+03 0.  0.
         23    2    1    2    0    0  0.10914390178E+03 -0.15013020696E+03 -0.52288194759E+03  0.56235981571E+03  0.91605463109E+02 0.  0.
        -11    1    4    4    0    0  0.12286323316E+03 -0.11141812775E+03 -0.42418252983E+03  0.45545602627E+03  0.51100000000E-03 0. -1.
         11    1    4    4    0    0 -0.13719331372E+02 -0.38712079211E+02 -0.98699417756E+02  0.10690378944E+03  0.51100000000E-03 0.  1.
    9000005    1    3    3    0    0  0.18397109700E+00  0.54158733317E+02 -0.89833586214E+03  0.89996751244E+03  0.10000000000E+01 0.  0.
    9000005    1    3    3    0    0 -0.10932787288E+03  0.95971473641E+02 -0.80990414861E+03  0.82286623304E+03  0.10000000000E+01 0.  0.
<mgrwt>
<rscale>  0 0.21944905E+03</rscale>
<asrwt>0</asrwt>
<pdfrwt beam="2">  1        1 0.34740874E+00 0.22376814E+03</pdfrwt>
<pdfrwt beam="1">  1       -1 0.41593558E-02 0.22376814E+03</pdfrwt>
<totfact> 0.53518384E+02</totfact>
</mgrwt>
</event>
<event>
 8    2  0.7478846E-004  0.1282398E+03  0.7818608E-02  0.1243417E+00
         -1   -1    0    0    0  501 -0.00000000000E+00  0.00000000000E+00  0.61652741702E+01  0.61652762303E+01  0.50400000000E-02 0.  1.
          1   -1    0    0  501    0  0.00000000000E+00 -0.00000000000E+00 -0.22037729029E+04  0.22037729029E+04  0.50400000000E-02 0. -1.
         25    2    1    2    0    0 -0.20400907094E+02  0.20134377152E+02 -0.96827597849E+03  0.97673118811E+03  0.12499541246E+03 0.  0.
         23    2    1    2    0    0  0.20400907094E+02 -0.20134377152E+02 -0.12293316502E+04  0.12332069910E+04  0.93389433565E+02 0.  0.
        -11    1    4    4    0    0  0.39529369942E+02  0.74301258642E+01 -0.24311000844E+03  0.24641480082E+03  0.51100000000E-03 0.  1.
         11    1    4    4    0    0 -0.19128462847E+02 -0.27564503016E+02 -0.98622164178E+03  0.98679219020E+03  0.51100000000E-03 0. -1.
    9000005    1    3    3    0    0 -0.73006718170E+02  0.14762139549E+02 -0.62080027206E+03  0.62525345218E+03  0.10000000000E+01 0.  0.
    9000005    1    3    3    0    0  0.52605811076E+02  0.53722376025E+01 -0.34747570643E+03  0.35147773593E+03  0.10000000000E+01 0.  0.
<mgrwt>
<rscale>  0 0.11980604E+03</rscale>
<asrwt>0</asrwt>
<pdfrwt beam="2">  1        1 0.33904136E+00 0.12823979E+03</pdfrwt>
<pdfrwt beam="1">  1       -1 0.94850563E-03 0.12823979E+03</pdfrwt>
<totfact> 0.49924118E+03</totfact>
</mgrwt>
</event>
<event>
 8    2  0.7478846E-004  0.1268720E+03  0.7818608E-02  0.1247198E+00
          1   -1    0    0  501    0  0.00000000000E+00  0.00000000000E+00  0.25449638804E+03  0.25449638809E+03  0.50400000000E-02 0. -1.
         -1   -1    0    0    0  501 -0.00000000000E+00 -0.00000000000E+00 -0.55134503687E+02  0.55134503918E+02  0.50400000000E-02 0.  1.
         25    2    1    2    0    0  0.11889880221E+02 -0.18200248294E+02  0.56466836855E+02  0.13887050781E+03  0.12499558386E+03 0.  0.
         23    2    1    2    0    0 -0.11889880221E+02  0.18200248294E+02  0.14289504750E+03  0.17076038420E+03  0.90925771507E+02 0.  0.
        -11    1    4    4    0    0  0.96328079731E+01  0.18258299930E+02 -0.50546582442E+01  0.21253377991E+02  0.51100000000E-03 0.  1.
         11    1    4    4    0    0 -0.21522688194E+02 -0.58051636168E-01  0.14794970574E+03  0.14950700621E+03  0.51100000000E-03 0. -1.
    9000005    1    3    3    0    0  0.45438051419E+02  0.34511599106E+02  0.50310783986E+02  0.76077867839E+02  0.10000000000E+01 0.  0.
    9000005    1    3    3    0    0 -0.33548171198E+02 -0.52711847400E+02  0.61560528692E+01  0.62792639966E+02  0.10000000000E+01 0.  0.
<mgrwt>
<rscale>  0 0.11754768E+03</rscale>
<asrwt>0</asrwt>
<pdfrwt beam="1">  1        1 0.39153290E-01 0.12687204E+03</pdfrwt>
<pdfrwt beam="2">  1       -1 0.84822314E-02 0.12687204E+03</pdfrwt>
<totfact> 0.80165692E+03</totfact>
</mgrwt>
</event>
<event>
 8    2  0.7478846E-004  0.1521961E+03  0.7818608E-02  0.1205578E+00
         -1   -1    0    0    0  501 -0.00000000000E+00  0.00000000000E+00  0.32350837272E+02  0.32350837664E+02  0.50400000000E-02 0.  1.
          1   -1    0    0  501    0  0.00000000000E+00 -0.00000000000E+00 -0.63073861276E+03  0.63073861278E+03  0.50400000000E-02 0. -1.
         25    2    1    2    0    0 -0.82665588586E+02  0.26555813279E+02 -0.38437306306E+03  0.41340816335E+03  0.12499938865E+03 0.  0.
         23    2    1    2    0    0  0.82665588586E+02 -0.26555813279E+02 -0.21401471243E+03  0.24968128710E+03  0.94866417843E+02 0.  0.
        -11    1    4    4    0    0 -0.15058562188E+02 -0.25983859289E+02 -0.38908846932E+02  0.49150987870E+02  0.51100000000E-03 0.  1.
         11    1    4    4    0    0  0.97724150775E+02 -0.57195399070E+00 -0.17510586550E+03  0.20053029923E+03  0.51100000000E-03 0. -1.
    9000005    1    3    3    0    0 -0.10849245597E+03 -0.80945297589E+01 -0.26609612244E+03  0.28747918323E+03  0.10000000000E+01 0.  0.
    9000005    1    3    3    0    0  0.25826867380E+02  0.34650343038E+02 -0.11827694062E+03  0.12592898012E+03  0.10000000000E+01 0.  0.
<mgrwt>
<rscale>  0 0.14591990E+03</rscale>
<asrwt>0</asrwt>
<pdfrwt beam="2">  1        1 0.97036701E-01 0.15219612E+03</pdfrwt>
<pdfrwt beam="1">  1       -1 0.49770524E-02 0.15219612E+03</pdfrwt>
<totfact> 0.56417681E+03</totfact>
</mgrwt>
</event>
<event>
 8    2  0.7478846E-004  0.1269504E+03  0.7818608E-02  0.1247102E+00
          1   -1    0    0  501    0  0.00000000000E+00  0.00000000000E+00  0.17633935411E+02  0.17633936131E+02  0.50400000000E-02 0. -1.
         -1   -1    0    0    0  501 -0.00000000000E+00 -0.00000000000E+00 -0.10696633706E+04  0.10696633706E+04  0.50400000000E-02 0.  1.
         25    2    1    2    0    0  0.21818352732E+02  0.39607044333E+01 -0.25551732702E+03  0.28531650825E+03  0.12499871109E+03 0.  0.
         23    2    1    2    0    0 -0.21818352732E+02 -0.39607044333E+01 -0.79651210814E+03  0.80198079847E+03  0.90829152814E+02 0.  0.
        -11    1    4    4    0    0  0.80363172357E+01 -0.26634538538E+02 -0.84081972979E+02  0.88564999962E+02  0.51100000000E-03 0. -1.
         11    1    4    4    0    0 -0.29854669967E+02  0.22673834105E+02 -0.71243013516E+03  0.71341579851E+03  0.51100000000E-03 0.  1.
    9000005    1    3    3    0    0  0.16204514916E+02  0.62303041381E+02 -0.16863548143E+03  0.18050811856E+03  0.10000000000E+01 0.  0.
    9000005    1    3    3    0    0  0.56138378153E+01 -0.58342336947E+02 -0.86881845587E+02  0.10480838968E+03  0.10000000000E+01 0.  0.
<mgrwt>
<rscale>  0 0.11760474E+03</rscale>
<asrwt>0</asrwt>
<pdfrwt beam="1">  1        1 0.27129140E-02 0.12695041E+03</pdfrwt>
<pdfrwt beam="2">  1       -1 0.16456354E+00 0.12695041E+03</pdfrwt>
<totfact> 0.11303985E+03</totfact>
</mgrwt>
</event>
<event>
 8    2  0.7478846E-004  0.2617429E+03  0.7818608E-02  0.1108282E+00
         -1   -1    0    0    0  501 -0.00000000000E+00  0.00000000000E+00  0.42622684873E+03  0.42622684876E+03  0.50400000000E-02 0.  1.
          1   -1    0    0  501    0  0.00000000000E+00 -0.00000000000E+00 -0.17189669097E+03  0.17189669104E+03  0.50400000000E-02 0. -1.
         25    2    1    2    0    0  0.17464967016E+03  0.14960414137E+03  0.23170766804E+03  0.34956798589E+03  0.12500170769E+03 0.  0.
         23    2    1    2    0    0 -0.17464967016E+03 -0.14960414137E+03  0.22622489719E+02  0.24855555391E+03  0.91565167708E+02 0.  0.
        -11    1    4    4    0    0 -0.11074691536E+03 -0.10904660357E+03  0.56845013911E+02  0.16549137929E+03  0.51100000000E-03 0.  1.
         11    1    4    4    0    0 -0.63902754804E+02 -0.40557537796E+02 -0.34222524192E+02  0.83064174624E+02  0.51100000000E-03 0. -1.
    9000005    1    3    3    0    0  0.15022741594E+03  0.97476634017E+02  0.98349234521E+02  0.20431236529E+03  0.10000000000E+01 0.  0.
    9000005    1    3    3    0    0  0.24422254223E+02  0.52127507351E+02  0.13335843352E+03  0.14525562060E+03  0.10000000000E+01 0.  0.
<mgrwt>
<rscale>  0 0.25811334E+03</rscale>
<asrwt>0</asrwt>
<pdfrwt beam="2">  1        1 0.26445645E-01 0.26174288E+03</pdfrwt>
<pdfrwt beam="1">  1       -1 0.65573360E-01 0.26174288E+03</pdfrwt>
<totfact> 0.43651209E+02</totfact>
</mgrwt>
</event>
<event>
 8    2  0.7478846E-004  0.1375153E+03  0.7818608E-02  0.1229673E+00
         -1   -1    0    0    0  501 -0.00000000000E+00  0.00000000000E+00  0.17833413859E+04  0.17833413859E+04  0.50400000000E-02 0.  1.
          1   -1    0    0  501    0  0.00000000000E+00 -0.00000000000E+00 -0.84692722067E+01  0.84692737064E+01  0.50400000000E-02 0. -1.
         25    2    1    2    0    0 -0.51694425514E+02  0.24769425801E+02  0.85690725156E+03  0.86787124156E+03  0.12499846424E+03 0.  0.
         23    2    1    2    0    0  0.51694425514E+02 -0.24769425801E+02  0.91796486217E+03  0.92393941809E+03  0.87856257854E+02 0.  0.
        -11    1    4    4    0    0  0.65012658876E+02 -0.11994397147E+02  0.87059757325E+03  0.87310402927E+03  0.51100000000E-03 0.  1.
         11    1    4    4    0    0 -0.13318233362E+02 -0.12775028655E+02  0.47367288921E+02  0.50835388825E+02  0.51100000000E-03 0. -1.
    9000005    1    3    3    0    0 -0.30509323535E+02  0.68554991168E+02  0.68848657568E+03  0.69256434397E+03  0.10000000000E+01 0.  0.
    9000005    1    3    3    0    0 -0.21185101979E+02 -0.43785565367E+02  0.16842067588E+03  0.17530689760E+03  0.10000000000E+01 0.  0.
<mgrwt>
<rscale>  0 0.12851678E+03</rscale>
<asrwt>0</asrwt>
<pdfrwt beam="2">  1        1 0.13029634E-02 0.13751529E+03</pdfrwt>
<pdfrwt beam="1">  1       -1 0.27436057E+00 0.13751529E+03</pdfrwt>
<totfact> 0.61451355E+02</totfact>
</mgrwt>
</event>
<event>
 8    2  0.7478846E-004  0.1687732E+03  0.7818608E-02  0.1181413E+00
         -1   -1    0    0    0  501 -0.00000000000E+00  0.00000000000E+00  0.24862168833E+03  0.24862168838E+03  0.50400000000E-02 0.  1.
          1   -1    0    0  501    0  0.00000000000E+00 -0.00000000000E+00 -0.11299165242E+03  0.11299165253E+03  0.50400000000E-02 0. -1.
         25    2    1    2    0    0  0.10322958402E+03 -0.46930154196E+02  0.35175177978E+02  0.17239981987E+03  0.12500247339E+03 0.  0.
         23    2    1    2    0    0 -0.10322958402E+03  0.46930154196E+02  0.10045485794E+03  0.18921352104E+03  0.11336574294E+03 0.  0.
        -11    1    4    4    0    0 -0.11983703118E+02  0.60878602765E+02  0.15941352019E+02  0.64062002150E+02  0.51100000000E-03 0. -1.
         11    1    4    4    0    0 -0.91245880901E+02 -0.13948448569E+02  0.84513505917E+02  0.12515151889E+03  0.51100000000E-03 0.  1.
    9000005    1    3    3    0    0  0.94387128392E+02  0.72224714530E+01  0.60091163137E+02  0.11212957677E+03  0.10000000000E+01 0.  0.
    9000005    1    3    3    0    0  0.88424556273E+01 -0.54152625649E+02 -0.24915985159E+02  0.60270243095E+02  0.10000000000E+01 0.  0.
<mgrwt>
<rscale>  0 0.16662557E+03</rscale>
<asrwt>0</asrwt>
<pdfrwt beam="2">  1        1 0.17383331E-01 0.16877323E+03</pdfrwt>
<pdfrwt beam="1">  1       -1 0.38249490E-01 0.16877323E+03</pdfrwt>
<totfact> 0.20142347E+03</totfact>
</mgrwt>
</event>
<event>
 8    2  0.7478846E-004  0.1289320E+03  0.7818608E-02  0.1243273E+00
         -1   -1    0    0    0  501 -0.00000000000E+00  0.00000000000E+00  0.11539193758E+03  0.11539193769E+03  0.50400000000E-02 0.  1.
          1   -1    0    0  501    0  0.00000000000E+00 -0.00000000000E+00 -0.14266048171E+03  0.14266048180E+03  0.50400000000E-02 0. -1.
         25    2    1    2    0    0  0.28994474061E+02  0.12578410909E+02 -0.76380610578E+02  0.14985813150E+03  0.12499826382E+03 0.  0.
         23    2    1    2    0    0 -0.28994474061E+02 -0.12578410909E+02  0.49112066442E+02  0.10819428798E+03  0.91077510589E+02 0.  0.
        -11    1    4    4    0    0  0.30267321279E+02 -0.18700583039E+02  0.26931786262E+02  0.44622232743E+02  0.51100000000E-03 0.  1.
         11    1    4    4    0    0 -0.59261795340E+02  0.61221721304E+01  0.22180280180E+02  0.63572055242E+02  0.51100000000E-03 0. -1.
    9000005    1    3    3    0    0  0.71319848942E+02 -0.88794830620E+01 -0.17039280931E+02  0.73869500927E+02  0.10000000000E+01 0.  0.
    9000005    1    3    3    0    0 -0.42325374882E+02  0.21457893971E+02 -0.59341329647E+02  0.75988630576E+02  0.10000000000E+01 0.  0.
<mgrwt>
<rscale>  0 0.11989358E+03</rscale>
<asrwt>0</asrwt>
<pdfrwt beam="2">  1        1 0.21947766E-01 0.12893200E+03</pdfrwt>
<pdfrwt beam="1">  1       -1 0.17752606E-01 0.12893200E+03</pdfrwt>
<totfact> 0.52716173E+03</totfact>
</mgrwt>
</event>
<event>
 8    2  0.7478846E-004  0.1574238E+03  0.7818608E-02  0.1200276E+00
         -1   -1    0    0    0  501 -0.00000000000E+00  0.00000000000E+00  0.18337487363E+03  0.18337487370E+03  0.50400000000E-02 0.  1.
          1   -1    0    0  501    0  0.00000000000E+00 -0.00000000000E+00 -0.11631752742E+03  0.11631752753E+03  0.50400000000E-02 0. -1.
         25    2    1    2    0    0 -0.36366313116E+01 -0.95635133750E+02  0.10940991391E+02  0.15780359159E+03  0.12499185706E+03 0.  0.
         23    2    1    2    0    0  0.36366313116E+01  0.95635133750E+02  0.56116354823E+02  0.14188880964E+03  0.88453858748E+02 0.  0.
        -11    1    4    4    0    0 -0.16023705470E+02  0.47635736508E+02 -0.16279245148E+02  0.52829313383E+02  0.51100000000E-03 0. -1.
         11    1    4    4    0    0  0.19660336781E+02  0.47999397242E+02  0.72395599971E+02  0.89059496256E+02  0.51100000000E-03 0.  1.
    9000005    1    3    3    0    0 -0.31954787007E+00  0.10731834228E+01 -0.45667345617E+02  0.45692015595E+02  0.10000000000E+01 0.  0.
    9000005    1    3    3    0    0 -0.33170834415E+01 -0.96708317173E+02  0.56608337008E+02  0.11211157599E+03  0.10000000000E+01 0.  0.
<mgrwt>
<rscale>  0 0.15016058E+03</rscale>
<asrwt>0</asrwt>
<pdfrwt beam="2">  1        1 0.17895004E-01 0.15742385E+03</pdfrwt>
<pdfrwt beam="1">  1       -1 0.28211519E-01 0.15742385E+03</pdfrwt>
<totfact> 0.32550535E+03</totfact>
</mgrwt>
</event>
<event>
 8    2  0.7478846E-004  0.1622460E+03  0.7818608E-02  0.1193545E+00
          1   -1    0    0  501    0  0.00000000000E+00  0.00000000000E+00  0.14994617427E+04  0.14994617427E+04  0.50400000000E-02 0. -1.
         -1   -1    0    0    0  501 -0.00000000000E+00 -0.00000000000E+00 -0.19362551404E+02  0.19362552060E+02  0.50400000000E-02 0.  1.
         25    2    1    2    0    0 -0.82280960519E+02  0.62642248172E+02  0.11454087895E+04  0.11568427103E+04  0.12501821290E+03 0.  0.
         23    2    1    2    0    0  0.82280960519E+02 -0.62642248172E+02  0.33469040179E+03  0.36198158448E+03  0.91207426947E+02 0.  0.
        -11    1    4    4    0    0  0.38732173929E+02  0.16555834832E+02  0.64148980343E+02  0.76742222039E+02  0.51100000000E-03 0.  1.
         11    1    4    4    0    0  0.43548786590E+02 -0.79198083004E+02  0.27054142145E+03  0.28523936244E+03  0.51100000000E-03 0. -1.
    9000005    1    3    3    0    0 -0.36630232255E+02  0.23335283467E+01  0.88261519054E+03  0.88337862429E+03  0.10000000000E+01 0.  0.
    9000005    1    3    3    0    0 -0.45650728264E+02  0.60308719825E+02  0.26279359894E+03  0.27346408598E+03  0.10000000000E+01 0.  0.
<mgrwt>
<rscale>  0 0.15578004E+03</rscale>
<asrwt>0</asrwt>
<pdfrwt beam="1">  1        1 0.23068645E+00 0.16224599E+03</pdfrwt>
<pdfrwt beam="2">  1       -1 0.29788538E-02 0.16224599E+03</pdfrwt>
<totfact> 0.27189421E+03</totfact>
</mgrwt>
</event>
<event>
 8    2  0.7478846E-004  0.1254326E+03  0.7818608E-02  0.1249858E+00
         -1   -1    0    0    0  501 -0.00000000000E+00  0.00000000000E+00  0.93484864391E+02  0.93484864526E+02  0.50400000000E-02 0.  1.
          1   -1    0    0  501    0  0.00000000000E+00 -0.00000000000E+00 -0.17932087527E+03  0.17932087534E+03  0.50400000000E-02 0. -1.
         25    2    1    2    0    0 -0.10401644666E+02  0.15043775268E+00  0.26067018532E+02  0.12811257942E+03  0.12500050683E+03 0.  0.
         23    2    1    2    0    0  0.10401644666E+02 -0.15043775268E+00 -0.11190302941E+03  0.14469316044E+03  0.91135096669E+02 0.  0.
        -11    1    4    4    0    0  0.15726650262E+02  0.44091953475E+02 -0.50984700743E+02  0.69216093503E+02  0.51100000000E-03 0.  1.
         11    1    4    4    0    0 -0.53250055959E+01 -0.44242391228E+02 -0.60918328664E+02  0.75477066938E+02  0.51100000000E-03 0. -1.
    9000005    1    3    3    0    0  0.11289926266E+02 -0.29632203042E+02  0.66329795572E+02  0.73526673207E+02  0.10000000000E+01 0.  0.
    9000005    1    3    3    0    0 -0.21691570932E+02  0.29782640795E+02 -0.40262777041E+02  0.54585906214E+02  0.10000000000E+01 0.  0.
<mgrwt>
<rscale>  0 0.11599307E+03</rscale>
<asrwt>0</asrwt>
<pdfrwt beam="2">  1        1 0.27587827E-01 0.12543263E+03</pdfrwt>
<pdfrwt beam="1">  1       -1 0.14382287E-01 0.12543263E+03</pdfrwt>
<totfact> 0.55000574E+03</totfact>
</mgrwt>
</event>
<event>
 8    2  0.7478846E-004  0.1762589E+03  0.7818608E-02  0.1177071E+00
          1   -1    0    0  501    0  0.00000000000E+00  0.00000000000E+00  0.47266853102E+03  0.47266853105E+03  0.50400000000E-02 0. -1.
         -1   -1    0    0    0  501 -0.00000000000E+00 -0.00000000000E+00 -0.86938626262E+02  0.86938626408E+02  0.50400000000E-02 0.  1.
         25    2    1    2    0    0  0.12414291237E+03 -0.54788184869E+01  0.36193309297E+03  0.40257019021E+03  0.12500285645E+03 0.  0.
         23    2    1    2    0    0 -0.12414291237E+03  0.54788184869E+01  0.23796811787E+02  0.15703696724E+03  0.93020646553E+02 0.  0.
        -11    1    4    4    0    0 -0.48494578764E+01 -0.98321882956E+01 -0.24957265067E+02  0.27259021410E+02  0.51100000000E-03 0.  1.
         11    1    4    4    0    0 -0.11929345449E+03  0.15311006783E+02  0.48754076854E+02  0.12977794583E+03  0.51100000000E-03 0. -1.
    9000005    1    3    3    0    0  0.63861590329E+02 -0.52510233498E+02  0.27319123165E+03  0.28542963475E+03  0.10000000000E+01 0.  0.
    9000005    1    3    3    0    0  0.60281322039E+02  0.47031415011E+02  0.88741861319E+02  0.11714055547E+03  0.10000000000E+01 0.  0.
<mgrwt>
<rscale>  0 0.17074681E+03</rscale>
<asrwt>0</asrwt>
<pdfrwt beam="1">  1        1 0.72718236E-01 0.17625888E+03</pdfrwt>
<pdfrwt beam="2">  1       -1 0.13375173E-01 0.17625888E+03</pdfrwt>
<totfact> 0.18592167E+03</totfact>
</mgrwt>
</event>
<event>
 8    2  0.7478846E-004  0.1350155E+03  0.7818608E-02  0.1231643E+00
         -1   -1    0    0    0  501 -0.00000000000E+00  0.00000000000E+00  0.28349532921E+02  0.28349533369E+02  0.50400000000E-02 0.  1.
          1   -1    0    0  501    0  0.00000000000E+00 -0.00000000000E+00 -0.52296531980E+03  0.52296531983E+03  0.50400000000E-02 0. -1.
         25    2    1    2    0    0  0.76299874046E+01 -0.50496374841E+02 -0.31181614218E+03  0.33979183814E+03  0.12498434368E+03 0.  0.
         23    2    1    2    0    0 -0.76299874046E+01  0.50496374841E+02 -0.18279964470E+03  0.21152301505E+03  0.93371169072E+02 0.  0.
        -11    1    4    4    0    0  0.87226208323E+01 -0.83068793495E+01  0.57452690651E+01  0.13345279150E+02  0.51100000000E-03 0.  1.
         11    1    4    4    0    0 -0.16352608237E+02  0.58803254190E+02 -0.18854491377E+03  0.19817773590E+03  0.51100000000E-03 0. -1.
    9000005    1    3    3    0    0 -0.51564620184E+02 -0.53666922956E+02 -0.14989078648E+03  0.16735380649E+03  0.10000000000E+01 0.  0.
    9000005    1    3    3    0    0  0.59194607589E+02  0.31705481159E+01 -0.16192535570E+03  0.17243803166E+03  0.10000000000E+01 0.  0.
<mgrwt>
<rscale>  0 0.12721802E+03</rscale>
<asrwt>0</asrwt>
<pdfrwt beam="2">  1        1 0.80456196E-01 0.13501551E+03</pdfrwt>
<pdfrwt beam="1">  1       -1 0.43614670E-02 0.13501551E+03</pdfrwt>
<totfact> 0.87692169E+03</totfact>
</mgrwt>
</event>
<event>
 8    2  0.7478846E-004  0.2228953E+03  0.7818608E-02  0.1134929E+00
         -1   -1    0    0    0  501 -0.00000000000E+00  0.00000000000E+00  0.36035656538E+03  0.36035656542E+03  0.50400000000E-02 0.  1.
          1   -1    0    0  501    0  0.00000000000E+00 -0.00000000000E+00 -0.12871692705E+03  0.12871692715E+03  0.50400000000E-02 0. -1.
         25    2    1    2    0    0  0.15370144456E+03  0.10214535931E+03  0.99054979882E+02  0.24391433501E+03  0.12499802117E+03 0.  0.
         23    2    1    2    0    0 -0.15370144456E+03 -0.10214535931E+03  0.13258465845E+03  0.24515915755E+03  0.92013653271E+02 0.  0.
        -11    1    4    4    0    0 -0.83439658469E+02 -0.30166741821E+02  0.11131406910E+03  0.14234827325E+03  0.51100000000E-03 0.  1.
         11    1    4    4    0    0 -0.70261786093E+02 -0.71978617485E+02  0.21270589352E+02  0.10281088431E+03  0.51100000000E-03 0. -1.
    9000005    1    3    3    0    0 -0.92851934295E+01  0.18890924214E+02 -0.17105714608E+02  0.27141984211E+02  0.10000000000E+01 0.  0.
    9000005    1    3    3    0    0  0.16298663799E+03  0.83254435092E+02  0.11616069449E+03  0.21677235080E+03  0.10000000000E+01 0.  0.
<mgrwt>
<rscale>  0 0.21860262E+03</rscale>
<asrwt>0</asrwt>
<pdfrwt beam="2">  1        1 0.19802605E-01 0.22289530E+03</pdfrwt>
<pdfrwt beam="1">  1       -1 0.55439469E-01 0.22289530E+03</pdfrwt>
<totfact> 0.87393561E+02</totfact>
</mgrwt>
</event>
<event>
 8    2  0.7478846E-004  0.1321024E+03  0.7818608E-02  0.1236005E+00
          1   -1    0    0  501    0  0.00000000000E+00  0.00000000000E+00  0.13172601619E+03  0.13172601629E+03  0.50400000000E-02 0. -1.
         -1   -1    0    0    0  501 -0.00000000000E+00 -0.00000000000E+00 -0.11296308809E+03  0.11296308820E+03  0.50400000000E-02 0.  1.
         25    2    1    2    0    0  0.40004094705E+02 -0.14999150590E+02 -0.20380162840E+02  0.13366522845E+03  0.12500296056E+03 0.  0.
         23    2    1    2    0    0 -0.40004094705E+02  0.14999150590E+02  0.39143090944E+02  0.11102387603E+03  0.94703840305E+02 0.  0.
        -11    1    4    4    0    0 -0.90332085898E+01 -0.25874310635E+02  0.51442798432E+02  0.58287565733E+02  0.51100000000E-03 0. -1.
         11    1    4    4    0    0 -0.30970886115E+02  0.40873461225E+02 -0.12299707488E+02  0.52736310298E+02  0.51100000000E-03 0.  1.
    9000005    1    3    3    0    0  0.73302835963E+02  0.10292277916E+02 -0.43511045271E+02  0.85868782485E+02  0.10000000000E+01 0.  0.
    9000005    1    3    3    0    0 -0.33298741258E+02 -0.25291428506E+02  0.23130882430E+02  0.47796445969E+02  0.10000000000E+01 0.  0.
<mgrwt>
<rscale>  0 0.12440316E+03</rscale>
<asrwt>0</asrwt>
<pdfrwt beam="1">  1        1 0.20265541E-01 0.13210239E+03</pdfrwt>
<pdfrwt beam="2">  1       -1 0.17378937E-01 0.13210239E+03</pdfrwt>
<totfact> 0.60413664E+03</totfact>
</mgrwt>
</event>
<event>
 8    2  0.7478846E-004  0.1269434E+03  0.7818608E-02  0.1246818E+00
          1   -1    0    0  501    0  0.00000000000E+00  0.00000000000E+00  0.15748658754E+03  0.15748658763E+03  0.50400000000E-02 0. -1.
         -1   -1    0    0    0  501 -0.00000000000E+00 -0.00000000000E+00 -0.89916110910E+02  0.89916111051E+02  0.50400000000E-02 0.  1.
         25    2    1    2    0    0  0.20589558729E+01  0.22038564382E+02  0.83602643900E+02  0.15200008850E+03  0.12499874886E+03 0.  0.
         23    2    1    2    0    0 -0.20589558729E+01 -0.22038564382E+02 -0.16032167266E+02  0.95402610176E+02  0.91403993468E+02 0.  0.
        -11    1    4    4    0    0  0.27002054001E+02 -0.22699043784E+02 -0.43091552749E+02  0.55688772904E+02  0.51100000000E-03 0.  1.
         11    1    4    4    0    0 -0.29061009874E+02  0.66047940254E+00  0.27059385483E+02  0.39713837272E+02  0.51100000000E-03 0. -1.
    9000005    1    3    3    0    0  0.24375555417E+02  0.53889766107E+02 -0.69436660633E+00  0.59158741855E+02  0.10000000000E+01 0.  0.
    9000005    1    3    3    0    0 -0.22316599544E+02 -0.31851201725E+02  0.84297010507E+02  0.92841346645E+02  0.10000000000E+01 0.  0.
<mgrwt>
<rscale>  0 0.11777213E+03</rscale>
<asrwt>0</asrwt>
<pdfrwt beam="1">  1        1 0.24228706E-01 0.12694339E+03</pdfrwt>
<pdfrwt beam="2">  1       -1 0.13833248E-01 0.12694339E+03</pdfrwt>
<totfact> 0.68792960E+03</totfact>
</mgrwt>
</event>
<event>
 8    2  0.7478846E-004  0.1716233E+03  0.7818608E-02  0.1183105E+00
          1   -1    0    0  501    0  0.00000000000E+00  0.00000000000E+00  0.89469057682E+02  0.89469057824E+02  0.50400000000E-02 0. -1.
         -1   -1    0    0    0  501 -0.00000000000E+00 -0.00000000000E+00 -0.29149883946E+03  0.29149883950E+03  0.50400000000E-02 0.  1.
         25    2    1    2    0    0 -0.76405921701E+02  0.89379711060E+02 -0.76918247854E+02  0.18807175735E+03  0.12501188519E+03 0.  0.
         23    2    1    2    0    0  0.76405921701E+02 -0.89379711060E+02 -0.12511153392E+03  0.19289613998E+03  0.87917161459E+02 0.  0.
        -11    1    4    4    0    0 -0.12569075993E+02 -0.10952092711E+02 -0.49516114657E+02  0.52247254636E+02  0.51100000000E-03 0.  1.
         11    1    4    4    0    0  0.88974997693E+02 -0.78427618350E+02 -0.75595419266E+02  0.14064888535E+03  0.51100000000E-03 0. -1.
    9000005    1    3    3    0    0 -0.10213804477E+03  0.61912716771E+02 -0.21944944380E+02  0.12144111854E+03  0.10000000000E+01 0.  0.
    9000005    1    3    3    0    0  0.25732123072E+02  0.27466994290E+02 -0.54973303474E+02  0.66630638808E+02  0.10000000000E+01 0.  0.
<mgrwt>
<rscale>  0 0.16505487E+03</rscale>
<asrwt>0</asrwt>
<pdfrwt beam="1">  1        1 0.13764471E-01 0.17162333E+03</pdfrwt>
<pdfrwt beam="2">  1       -1 0.44845975E-01 0.17162333E+03</pdfrwt>
<totfact> 0.20589266E+03</totfact>
</mgrwt>
</event>
<event>
 8    2  0.7478846E-004  0.1524251E+03  0.7818608E-02  0.1206953E+00
         -1   -1    0    0    0  501 -0.00000000000E+00  0.00000000000E+00  0.36161252716E+03  0.36161252719E+03  0.50400000000E-02 0.  1.
          1   -1    0    0  501    0  0.00000000000E+00 -0.00000000000E+00 -0.61233507726E+02  0.61233507934E+02  0.50400000000E-02 0. -1.
         25    2    1    2    0    0 -0.68625996611E+02  0.53842693312E+02  0.85927684713E+02  0.17497706273E+03  0.12499936979E+03 0.  0.
         23    2    1    2    0    0  0.68625996611E+02 -0.53842693312E+02  0.21445133472E+03  0.24786897239E+03  0.88549926479E+02 0.  0.
        -11    1    4    4    0    0  0.51232083133E+02 -0.14463752688E+02  0.19214615428E+03  0.19938422979E+03  0.51100000000E-03 0.  1.
         11    1    4    4    0    0  0.17393913478E+02 -0.39378940624E+02  0.22305180438E+02  0.48484742604E+02  0.51100000000E-03 0. -1.
    9000005    1    3    3    0    0 -0.29682382680E+02  0.61340034920E+02  0.10939296735E+03  0.12888547254E+03  0.10000000000E+01 0.  0.
    9000005    1    3    3    0    0 -0.38943613931E+02 -0.74973416073E+01 -0.23465282638E+02  0.46091590193E+02  0.10000000000E+01 0.  0.
<mgrwt>
<rscale>  0 0.14484622E+03</rscale>
<asrwt>0</asrwt>
<pdfrwt beam="2">  1        1 0.94205396E-02 0.15242508E+03</pdfrwt>
<pdfrwt beam="1">  1       -1 0.55632697E-01 0.15242508E+03</pdfrwt>
<totfact> 0.22788881E+03</totfact>
</mgrwt>
</event>
<event>
 8    2  0.7478846E-004  0.1481553E+03  0.7818608E-02  0.1212381E+00
          1   -1    0    0  501    0  0.00000000000E+00  0.00000000000E+00  0.28041263565E+03  0.28041263570E+03  0.50400000000E-02 0. -1.
         -1   -1    0    0    0  501 -0.00000000000E+00 -0.00000000000E+00 -0.64378404686E+02  0.64378404883E+02  0.50400000000E-02 0.  1.
         25    2    1    2    0    0 -0.64934003297E+02  0.45938443525E+02  0.12163294392E+03  0.19168875158E+03  0.12499295604E+03 0.  0.
         23    2    1    2    0    0  0.64934003297E+02 -0.45938443525E+02  0.94401287049E+02  0.15310228900E+03  0.90564576530E+02 0.  0.
        -11    1    4    4    0    0  0.30407020059E+02 -0.31567607259E+01 -0.12393959265E+02  0.32987304128E+02  0.51100000000E-03 0.  1.
         11    1    4    4    0    0  0.34526983238E+02 -0.42781682799E+02  0.10679524631E+03  0.12011498487E+03  0.51100000000E-03 0. -1.
    9000005    1    3    3    0    0 -0.53842765397E+02 -0.36422498727E+02  0.51402845018E+02  0.82878792674E+02  0.10000000000E+01 0.  0.
    9000005    1    3    3    0    0 -0.11091237900E+02  0.82360942251E+02  0.70230098900E+02  0.10880995891E+03  0.10000000000E+01 0.  0.
<mgrwt>
<rscale>  0 0.14070721E+03</rscale>
<asrwt>0</asrwt>
<pdfrwt beam="1">  1        1 0.43140407E-01 0.14815534E+03</pdfrwt>
<pdfrwt beam="2">  1       -1 0.99043697E-02 0.14815534E+03</pdfrwt>
<totfact> 0.56765469E+03</totfact>
</mgrwt>
</event>
<event>
 8    2  0.7478846E-004  0.1774448E+03  0.7818608E-02  0.1177243E+00
          1   -1    0    0  501    0  0.00000000000E+00  0.00000000000E+00  0.39743213365E+03  0.39743213368E+03  0.50400000000E-02 0. -1.
         -1   -1    0    0    0  501 -0.00000000000E+00 -0.00000000000E+00 -0.68702018639E+02  0.68702018824E+02  0.50400000000E-02 0.  1.
         25    2    1    2    0    0  0.93516580480E+02  0.84355950243E+02  0.15513780056E+03  0.23569979289E+03  0.12500151215E+03 0.  0.
         23    2    1    2    0    0 -0.93516580480E+02 -0.84355950243E+02  0.17359231445E+03  0.23043435961E+03  0.84287752893E+02 0.  0.
        -11    1    4    4    0    0  0.92323980570E+01 -0.35165166588E+02  0.55536641168E+02  0.66378796521E+02  0.51100000000E-03 0. -1.
         11    1    4    4    0    0 -0.10274897854E+03 -0.49190783655E+02  0.11805567328E+03  0.16405556309E+03  0.51100000000E-03 0.  1.
    9000005    1    3    3    0    0  0.11651375454E+02 -0.11711866728E+02 -0.16019735996E+02  0.23033764643E+02  0.10000000000E+01 0.  0.
    9000005    1    3    3    0    0  0.81865205026E+02  0.96067816971E+02  0.17115753655E+03  0.21266602825E+03  0.10000000000E+01 0.  0.
<mgrwt>
<rscale>  0 0.17058169E+03</rscale>
<asrwt>0</asrwt>
<pdfrwt beam="1">  1        1 0.61143406E-01 0.17744479E+03</pdfrwt>
<pdfrwt beam="2">  1       -1 0.10569541E-01 0.17744479E+03</pdfrwt>
<totfact> 0.33491344E+03</totfact>
</mgrwt>
</event>
<event>
 8    2  0.7478846E-004  0.5703625E+03  0.7818608E-02  0.9972707E-01
          1   -1    0    0  501    0  0.00000000000E+00  0.00000000000E+00  0.39917205485E+03  0.39917205488E+03  0.50400000000E-02 0.  1.
         -1   -1    0    0    0  501 -0.00000000000E+00 -0.00000000000E+00 -0.92577534985E+03  0.92577534987E+03  0.50400000000E-02 0. -1.
         25    2    1    2    0    0 -0.15949801102E+03  0.53315008957E+03 -0.50380674254E+03  0.76100894224E+03  0.12499897127E+03 0.  0.
         23    2    1    2    0    0  0.15949801102E+03 -0.53315008957E+03 -0.22796552461E+02  0.56393846251E+03  0.88420999598E+02 0.  0.
        -11    1    4    4    0    0  0.19832377174E+02 -0.56228860484E+02  0.25085277281E+02  0.64686003681E+02  0.51100000000E-03 0.  1.
         11    1    4    4    0    0  0.13966563384E+03 -0.47692122908E+03 -0.47881829741E+02  0.49925245883E+03  0.51100000000E-03 0. -1.
    9000005    1    3    3    0    0 -0.15682860859E+03  0.41621212277E+03 -0.34059399315E+03  0.56020800760E+03  0.10000000000E+01 0.  0.
    9000005    1    3    3    0    0 -0.26694024242E+01  0.11693796680E+03 -0.16321274939E+03  0.20080093464E+03  0.10000000000E+01 0.  0.
<mgrwt>
<rscale>  0 0.56863340E+03</rscale>
<asrwt>0</asrwt>
<pdfrwt beam="1">  1        1 0.61411086E-01 0.57036250E+03</pdfrwt>
<pdfrwt beam="2">  1       -1 0.14242698E+00 0.57036250E+03</pdfrwt>
<totfact> 0.25201492E+01</totfact>
</mgrwt>
</event>
<event>
 8    2  0.7478846E-004  0.1997243E+03  0.7818608E-02  0.1153829E+00
          1   -1    0    0  501    0  0.00000000000E+00  0.00000000000E+00  0.55878752220E+03  0.55878752222E+03  0.50400000000E-02 0. -1.
         -1   -1    0    0    0  501 -0.00000000000E+00 -0.00000000000E+00 -0.65899722095E+02  0.65899722288E+02  0.50400000000E-02 0.  1.
         25    2    1    2    0    0 -0.54011956193E+02  0.14610156006E+03  0.28716878335E+03  0.34979381309E+03  0.12500737690E+03 0.  0.
         23    2    1    2    0    0  0.54011956193E+02 -0.14610156006E+03  0.20571901675E+03  0.27489343142E+03  0.94779362323E+02 0.  0.
        -11    1    4    4    0    0  0.79799092350E+02 -0.93299086423E+02  0.15086387374E+03  0.19450584327E+03  0.51100000000E-03 0. -1.
         11    1    4    4    0    0 -0.25787136158E+02 -0.52802473636E+02  0.54855143010E+02  0.80387588148E+02  0.51100000000E-03 0.  1.
    9000005    1    3    3    0    0 -0.19836894991E+02  0.13163185676E+03  0.28260444016E+03  0.31238872853E+03  0.10000000000E+01 0.  0.
    9000005    1    3    3    0    0 -0.34175061202E+02  0.14469703299E+02  0.45643431940E+01  0.37405084555E+02  0.10000000000E+01 0.  0.
<mgrwt>
<rscale>  0 0.19522740E+03</rscale>
<asrwt>0</asrwt>
<pdfrwt beam="1">  1        1 0.85967310E-01 0.19972431E+03</pdfrwt>
<pdfrwt beam="2">  1       -1 0.10138419E-01 0.19972431E+03</pdfrwt>
<totfact> 0.22960720E+03</totfact>
</mgrwt>
</event>
<event>
 8    2  0.7478846E-004  0.1539472E+03  0.7818608E-02  0.1204227E+00
          1   -1    0    0  501    0  0.00000000000E+00  0.00000000000E+00  0.30890486693E+04  0.30890486693E+04  0.50400000000E-02 0. -1.
         -1   -1    0    0    0  501 -0.00000000000E+00 -0.00000000000E+00 -0.69931119961E+01  0.69931138123E+01  0.50400000000E-02 0.  1.
         25    2    1    2    0    0  0.32549866789E+02  0.83759358411E+02  0.12344337306E+04  0.12439961364E+04  0.12499851251E+03 0.  0.
         23    2    1    2    0    0 -0.32549866789E+02 -0.83759358411E+02  0.18476218267E+04  0.18520456468E+04  0.91057888969E+02 0.  0.
        -11    1    4    4    0    0 -0.58758949828E+02 -0.37753306034E+02  0.78327332185E+03  0.78638096558E+03  0.51100000000E-03 0.  1.
         11    1    4    4    0    0  0.26209083039E+02 -0.46006052378E+02  0.10643485049E+04  0.10656646812E+04  0.51100000000E-03 0. -1.
    9000005    1    3    3    0    0 -0.45601761695E+02  0.11416682045E+02  0.33666184817E+03  0.33992949462E+03  0.10000000000E+01 0.  0.
    9000005    1    3    3    0    0  0.78151628484E+02  0.72342676367E+02  0.89777188245E+03  0.90406664177E+03  0.10000000000E+01 0.  0.
<mgrwt>
<rscale>  0 0.14698531E+03</rscale>
<asrwt>0</asrwt>
<pdfrwt beam="1">  1        1 0.47523844E+00 0.15394724E+03</pdfrwt>
<pdfrwt beam="2">  1       -1 0.10758631E-02 0.15394724E+03</pdfrwt>
<totfact> 0.10777067E+03</totfact>
</mgrwt>
</event>
<event>
 8    2  0.7478846E-004  0.1644971E+03  0.7818608E-02  0.1191165E+00
         -1   -1    0    0    0  501 -0.00000000000E+00  0.00000000000E+00  0.44381888418E+02  0.44381888704E+02  0.50400000000E-02 0.  1.
          1   -1    0    0  501    0  0.00000000000E+00 -0.00000000000E+00 -0.52656320379E+03  0.52656320381E+03  0.50400000000E-02 0. -1.
         25    2    1    2    0    0 -0.50076195801E+02  0.94477671572E+02 -0.29180979569E+03  0.33498099070E+03  0.12500260581E+03 0.  0.
         23    2    1    2    0    0  0.50076195801E+02 -0.94477671572E+02 -0.19037151968E+03  0.23596410181E+03  0.89465557776E+02 0.  0.
        -11    1    4    4    0    0  0.19176645141E+02 -0.53218068257E+02 -0.23399601118E+02  0.61216401729E+02  0.51100000000E-03 0.  1.
         11    1    4    4    0    0  0.30899550660E+02 -0.41259603316E+02 -0.16697191856E+03  0.17474770009E+03  0.51100000000E-03 0. -1.
    9000005    1    3    3    0    0  0.82616246851E+01 -0.26633428355E+02 -0.32038513195E+02  0.42486000943E+02  0.10000000000E+01 0.  0.
    9000005    1    3    3    0    0 -0.58337820486E+02  0.12111109993E+03 -0.25977128249E+03  0.29249498976E+03  0.10000000000E+01 0.  0.
<mgrwt>
<rscale>  0 0.15783361E+03</rscale>
<asrwt>0</asrwt>
<pdfrwt beam="2">  1        1 0.81009719E-01 0.16449713E+03</pdfrwt>
<pdfrwt beam="1">  1       -1 0.68279832E-02 0.16449713E+03</pdfrwt>
<totfact> 0.45093842E+03</totfact>
</mgrwt>
</event>
<event>
 8    2  0.7478846E-004  0.1334980E+03  0.7818608E-02  0.1236035E+00
          1   -1    0    0  501    0  0.00000000000E+00  0.00000000000E+00  0.70637455639E+02  0.70637455818E+02  0.50400000000E-02 0. -1.
         -1   -1    0    0    0  501 -0.00000000000E+00 -0.00000000000E+00 -0.21938135653E+03  0.21938135659E+03  0.50400000000E-02 0.  1.
         25    2    1    2    0    0 -0.15023001858E+02  0.44374072783E+02 -0.34688390258E+02  0.13793112537E+03  0.12500784778E+03 0.  0.
         23    2    1    2    0    0  0.15023001858E+02 -0.44374072783E+02 -0.11405551063E+03  0.15208768704E+03  0.89035139818E+02 0.  0.
        -11    1    4    4    0    0 -0.18737082676E+02  0.13481918129E+02 -0.65236709646E+02  0.69200207149E+02  0.51100000000E-03 0.  1.
         11    1    4    4    0    0  0.33760084535E+02 -0.57855990912E+02 -0.48818800988E+02  0.82887479889E+02  0.51100000000E-03 0. -1.
    9000005    1    3    3    0    0 -0.18296051900E+02 -0.38096901268E+02 -0.35777710279E+02  0.55381982215E+02  0.10000000000E+01 0.  0.
    9000005    1    3    3    0    0  0.32730500411E+01  0.82470974050E+02  0.10893200205E+01  0.82549143154E+02  0.10000000000E+01 0.  0.
<mgrwt>
<rscale>  0 0.12438395E+03</rscale>
<asrwt>0</asrwt>
<pdfrwt beam="1">  1        1 0.10867301E-01 0.13349798E+03</pdfrwt>
<pdfrwt beam="2">  1       -1 0.33750978E-01 0.13349798E+03</pdfrwt>
<totfact> 0.45623732E+03</totfact>
</mgrwt>
</event>
<event>
 8    2  0.7478846E-004  0.1268070E+03  0.7818608E-02  0.1245603E+00
         -1   -1    0    0    0  501 -0.00000000000E+00  0.00000000000E+00  0.96374368489E+02  0.96374368621E+02  0.50400000000E-02 0.  1.
          1   -1    0    0  501    0  0.00000000000E+00 -0.00000000000E+00 -0.13115053701E+03  0.13115053711E+03  0.50400000000E-02 0. -1.
         25    2    1    2    0    0 -0.88468569598E+01 -0.19390763611E+02 -0.32093078406E+02  0.13080509052E+03  0.12500294970E+03 0.  0.
         23    2    1    2    0    0  0.88468569598E+01  0.19390763611E+02 -0.26830901180E+01  0.96719815212E+02  0.94304056597E+02 0.  0.
        -11    1    4    4    0    0  0.49328670198E+02  0.21742071686E+02 -0.11738678403E+02  0.55170933974E+02  0.51100000000E-03 0. -1.
         11    1    4    4    0    0 -0.40481813238E+02 -0.23513080750E+01  0.90555882853E+01  0.41548881238E+02  0.51100000000E-03 0.  1.
    9000005    1    3    3    0    0  0.42937491446E+02 -0.24175014556E+02  0.23561667136E+02  0.54627938444E+02  0.10000000000E+01 0.  0.
    9000005    1    3    3    0    0 -0.51784348405E+02  0.47842509445E+01 -0.55654745542E+02  0.76177152075E+02  0.10000000000E+01 0.  0.
<mgrwt>
<rscale>  0 0.11849347E+03</rscale>
<asrwt>0</asrwt>
<pdfrwt beam="2">  1        1 0.20177006E-01 0.12680696E+03</pdfrwt>
<pdfrwt beam="1">  1       -1 0.14826826E-01 0.12680696E+03</pdfrwt>
<totfact> 0.77762012E+03</totfact>
</mgrwt>
</event>
<event>
 8    2  0.7478846E-004  0.1478421E+03  0.7818608E-02  0.1211807E+00
         -1   -1    0    0    0  501 -0.00000000000E+00  0.00000000000E+00  0.17476294862E+03  0.17476294870E+03  0.50400000000E-02 0.  1.
          1   -1    0    0  501    0  0.00000000000E+00 -0.00000000000E+00 -0.11791367234E+03  0.11791367245E+03  0.50400000000E-02 0. -1.
         25    2    1    2    0    0 -0.65304629977E+02  0.44395803765E+02 -0.17899593026E+02  0.14892172263E+03  0.12498640707E+03 0.  0.
         23    2    1    2    0    0  0.65304629977E+02 -0.44395803765E+02  0.74748869310E+02  0.14375489851E+03  0.94034011374E+02 0.  0.
        -11    1    4    4    0    0  0.14405606211E+02 -0.52702656705E+02  0.21186552897E+01  0.54677053821E+02  0.51100000000E-03 0.  1.
         11    1    4    4    0    0  0.50899023766E+02  0.83068529398E+01  0.72630214020E+02  0.89077844692E+02  0.51100000000E-03 0. -1.
    9000005    1    3    3    0    0 -0.90795206714E+02  0.62716494898E+02 -0.31401384766E+02  0.11473523983E+03  0.10000000000E+01 0.  0.
    9000005    1    3    3    0    0  0.25490576737E+02 -0.18320691133E+02  0.13501791740E+02  0.34186482799E+02  0.10000000000E+01 0.  0.
<mgrwt>
<rscale>  0 0.14113730E+03</rscale>
<asrwt>0</asrwt>
<pdfrwt beam="2">  1        1 0.18140565E-01 0.14784209E+03</pdfrwt>
<pdfrwt beam="1">  1       -1 0.26886607E-01 0.14784209E+03</pdfrwt>
<totfact> 0.34544636E+03</totfact>
</mgrwt>
</event>
<event>
 8    2  0.7478846E-004  0.1282651E+03  0.7818608E-02  0.1246078E+00
         -1   -1    0    0    0  501 -0.00000000000E+00  0.00000000000E+00  0.44811259220E+02  0.44811259504E+02  0.50400000000E-02 0.  1.
          1   -1    0    0  501    0  0.00000000000E+00 -0.00000000000E+00 -0.27266381503E+03  0.27266381508E+03  0.50400000000E-02 0. -1.
         25    2    1    2    0    0 -0.14845998732E+02 -0.24596571838E+02 -0.12451375691E+03  0.17876129139E+03  0.12500611431E+03 0.  0.
         23    2    1    2    0    0  0.14845998732E+02  0.24596571838E+02 -0.10333879891E+03  0.13871378320E+03  0.87961419189E+02 0.  0.
        -11    1    4    4    0    0 -0.53046961383E+01 -0.78704107461E+01  0.13093346578E+02  0.16171545730E+02  0.51100000000E-03 0.  1.
         11    1    4    4    0    0  0.20150694870E+02  0.32466982584E+02 -0.11643214548E+03  0.12254223747E+03  0.51100000000E-03 0. -1.
    9000005    1    3    3    0    0  0.14040809103E+02 -0.56370009795E+02 -0.12271009383E+03  0.13576998730E+03  0.10000000000E+01 0.  0.
    9000005    1    3    3    0    0 -0.28886807834E+02  0.31773437957E+02 -0.18036630821E+01  0.42991304085E+02  0.10000000000E+01 0.  0.
<mgrwt>
<rscale>  0 0.11821076E+03</rscale>
<asrwt>0</asrwt>
<pdfrwt beam="2">  1        1 0.41948278E-01 0.12826505E+03</pdfrwt>
<pdfrwt beam="1">  1       -1 0.68940400E-02 0.12826505E+03</pdfrwt>
<totfact> 0.10063524E+04</totfact>
</mgrwt>
</event>
<event>
 8    2  0.7478846E-004  0.1288470E+03  0.7818608E-02  0.1243627E+00
          1   -1    0    0  501    0  0.00000000000E+00  0.00000000000E+00  0.11413229498E+03  0.11413229509E+03  0.50400000000E-02 0. -1.
         -1   -1    0    0    0  501 -0.00000000000E+00 -0.00000000000E+00 -0.31845067720E+03  0.31845067724E+03  0.50400000000E-02 0.  1.
         25    2    1    2    0    0  0.17357837941E+02  0.25987304962E+02  0.66705298132E+02  0.14509014801E+03  0.12499967878E+03 0.  0.
         23    2    1    2    0    0 -0.17357837941E+02 -0.25987304962E+02 -0.27102368035E+03  0.28749282432E+03  0.90673337688E+02 0.  0.
        -11    1    4    4    0    0  0.17864394608E+02  0.26933864700E+02 -0.88802577031E+02  0.94501149993E+02  0.51100000000E-03 0. -1.
         11    1    4    4    0    0 -0.35222232549E+02 -0.52921169662E+02 -0.18222110332E+03  0.19299167432E+03  0.51100000000E-03 0.  1.
    9000005    1    3    3    0    0 -0.83363998802E+01  0.61467024625E+02  0.78171246328E+02  0.99796966045E+02  0.10000000000E+01 0.  0.
    9000005    1    3    3    0    0  0.25694237821E+02 -0.35479719664E+02 -0.11465948196E+02  0.45293181967E+02  0.10000000000E+01 0.  0.
<mgrwt>
<rscale>  0 0.11967933E+03</rscale>
<asrwt>0</asrwt>
<pdfrwt beam="1">  1        1 0.17558815E-01 0.12884702E+03</pdfrwt>
<pdfrwt beam="2">  1       -1 0.48992411E-01 0.12884702E+03</pdfrwt>
<totfact> 0.12682304E+03</totfact>
</mgrwt>
</event>
<event>
 8    2  0.7478846E-004  0.1273425E+03  0.7818608E-02  0.1245433E+00
         -1   -1    0    0    0  501 -0.00000000000E+00  0.00000000000E+00  0.22975314692E+04  0.22975314692E+04  0.50400000000E-02 0.  1.
          1   -1    0    0  501    0  0.00000000000E+00 -0.00000000000E+00 -0.57058054741E+01  0.57058077000E+01  0.50400000000E-02 0. -1.
         25    2    1    2    0    0  0.16752926502E+02  0.17610265068E+02  0.10435038040E+04  0.10512451174E+04  0.12500130393E+03 0.  0.
         23    2    1    2    0    0 -0.16752926502E+02 -0.17610265068E+02  0.12483218597E+04  0.12519921594E+04  0.92661318396E+02 0.  0.
        -11    1    4    4    0    0 -0.49931678672E+02 -0.31099430792E+02  0.67817153442E+03  0.68071798656E+03  0.51100000000E-03 0. -1.
         11    1    4    4    0    0  0.33178752170E+02  0.13489165724E+02  0.57015032527E+03  0.57127417287E+03  0.51100000000E-03 0.  1.
    9000005    1    3    3    0    0 -0.12741960505E+02 -0.11673957900E+02  0.18267788550E+02  0.25166464771E+02  0.10000000000E+01 0.  0.
    9000005    1    3    3    0    0  0.29494887007E+02  0.29284222969E+02  0.10252360155E+04  0.10260786527E+04  0.10000000000E+01 0.  0.
<mgrwt>
<rscale>  0 0.11859517E+03</rscale>
<asrwt>0</asrwt>
<pdfrwt beam="2">  1        1 0.87781607E-03 0.12734248E+03</pdfrwt>
<pdfrwt beam="1">  1       -1 0.35346651E+00 0.12734248E+03</pdfrwt>
<totfact> 0.34567293E+02</totfact>
</mgrwt>
</event>
<event>
 8    2  0.7478846E-004  0.1812488E+03  0.7818608E-02  0.1172349E+00
          1   -1    0    0  501    0  0.00000000000E+00  0.00000000000E+00  0.93301444326E+02  0.93301444462E+02  0.50400000000E-02 0. -1.
         -1   -1    0    0    0  501 -0.00000000000E+00 -0.00000000000E+00 -0.31010516765E+03  0.31010516769E+03  0.50400000000E-02 0.  1.
         25    2    1    2    0    0  0.68706136223E+02  0.11182973537E+03 -0.11203616478E+03  0.21308035426E+03  0.12499884914E+03 0.  0.
         23    2    1    2    0    0 -0.68706136223E+02 -0.11182973537E+03 -0.10476755854E+03  0.19032625789E+03  0.89562381912E+02 0.  0.
        -11    1    4    4    0    0 -0.61376537706E+02 -0.10326154633E+03 -0.43079375028E+02  0.12761606045E+03  0.51100000000E-03 0. -1.
         11    1    4    4    0    0 -0.73295985160E+01 -0.85681890352E+01 -0.61688183516E+02  0.62710197444E+02  0.51100000000E-03 0.  1.
    9000005    1    3    3    0    0  0.52033759323E+02  0.13691184729E+03 -0.10942890798E+03  0.18283339941E+03  0.10000000000E+01 0.  0.
    9000005    1    3    3    0    0  0.16672376900E+02 -0.25082111918E+02 -0.26072567960E+01  0.30246954851E+02  0.10000000000E+01 0.  0.
<mgrwt>
<rscale>  0 0.17538176E+03</rscale>
<asrwt>0</asrwt>
<pdfrwt beam="1">  1        1 0.14354068E-01 0.18124882E+03</pdfrwt>
<pdfrwt beam="2">  1       -1 0.47708487E-01 0.18124882E+03</pdfrwt>
<totfact> 0.17457310E+03</totfact>
</mgrwt>
</event>
<event>
 8    2  0.7478846E-004  0.1297540E+03  0.7818608E-02  0.1240025E+00
         -1   -1    0    0    0  501 -0.00000000000E+00  0.00000000000E+00  0.11958370593E+03  0.11958370603E+03  0.50400000000E-02 0.  1.
          1   -1    0    0  501    0  0.00000000000E+00 -0.00000000000E+00 -0.13568407489E+03  0.13568407498E+03  0.50400000000E-02 0. -1.
         25    2    1    2    0    0 -0.33506180896E+02  0.93765171526E+01  0.44851987331E+02  0.13728732321E+03  0.12500210044E+03 0.  0.
         23    2    1    2    0    0  0.33506180896E+02 -0.93765171526E+01 -0.60952356291E+02  0.11798045780E+03  0.94834674320E+02 0.  0.
        -11    1    4    4    0    0 -0.22803211942E+02 -0.10880029585E+02  0.10185183938E+02  0.27241503093E+02  0.51100000000E-03 0.  1.
         11    1    4    4    0    0  0.56309392838E+02  0.15035124321E+01 -0.71137540229E+02  0.90738954709E+02  0.51100000000E-03 0. -1.
    9000005    1    3    3    0    0 -0.17395376548E+02 -0.57827354496E+02  0.25114715785E+02  0.65409104888E+02  0.10000000000E+01 0.  0.
    9000005    1    3    3    0    0 -0.16110804349E+02  0.67203871649E+02  0.19737271546E+02  0.71878218324E+02  0.10000000000E+01 0.  0.
<mgrwt>
<rscale>  0 0.12188156E+03</rscale>
<asrwt>0</asrwt>
<pdfrwt beam="2">  1        1 0.20874473E-01 0.12975403E+03</pdfrwt>
<pdfrwt beam="1">  1       -1 0.18397493E-01 0.12975403E+03</pdfrwt>
<totfact> 0.53092492E+03</totfact>
</mgrwt>
</event>
<event>
 8    2  0.7478846E-004  0.1689506E+03  0.7818608E-02  0.1185460E+00
         -1   -1    0    0    0  501 -0.00000000000E+00  0.00000000000E+00  0.10675222232E+03  0.10675222244E+03  0.50400000000E-02 0.  1.
          1   -1    0    0  501    0  0.00000000000E+00 -0.00000000000E+00 -0.25393513751E+03  0.25393513756E+03  0.50400000000E-02 0. -1.
         25    2    1    2    0    0 -0.89794862176E+02  0.69689089300E+02 -0.13097166038E+03  0.21377064677E+03  0.12499850861E+03 0.  0.
         23    2    1    2    0    0  0.89794862176E+02 -0.69689089300E+02 -0.16211254803E+02  0.14691671324E+03  0.91662584542E+02 0.  0.
        -11    1    4    4    0    0  0.76915065730E+02 -0.65804751531E+02  0.24410560807E+02  0.10412525217E+03  0.51100000000E-03 0.  1.
         11    1    4    4    0    0  0.12879796446E+02 -0.38843377693E+01 -0.40621815610E+02  0.42791461066E+02  0.51100000000E-03 0. -1.
    9000005    1    3    3    0    0  0.13210395600E+02  0.52352514252E+02 -0.11760602707E+02  0.55268545091E+02  0.10000000000E+01 0.  0.
    9000005    1    3    3    0    0 -0.10300525778E+03  0.17336575048E+02 -0.11921105768E+03  0.15850210168E+03  0.10000000000E+01 0.  0.
<mgrwt>
<rscale>  0 0.16290058E+03</rscale>
<asrwt>0</asrwt>
<pdfrwt beam="2">  1        1 0.39066944E-01 0.16895062E+03</pdfrwt>
<pdfrwt beam="1">  1       -1 0.16423419E-01 0.16895062E+03</pdfrwt>
<totfact> 0.29421384E+03</totfact>
</mgrwt>
</event>
<event>
 8    2  0.7478846E-004  0.3628392E+03  0.7818608E-02  0.1058414E+00
          1   -1    0    0  501    0  0.00000000000E+00  0.00000000000E+00  0.49807094096E+03  0.49807094098E+03  0.50400000000E-02 0. -1.
         -1   -1    0    0    0  501 -0.00000000000E+00 -0.00000000000E+00 -0.27468755890E+03  0.27468755895E+03  0.50400000000E-02 0.  1.
         25    2    1    2    0    0  0.34059270837E+03 -0.49349728743E+01  0.20995711243E+03  0.41920670961E+03  0.12499811745E+03 0.  0.
         23    2    1    2    0    0 -0.34059270837E+03  0.49349728743E+01  0.13426269620E+02  0.35355179032E+03  0.93759568958E+02 0.  0.
        -11    1    4    4    0    0 -0.21119343207E+03  0.62291422093E+01 -0.37312095316E+02  0.21455456281E+03  0.51100000000E-03 0.  1.
         11    1    4    4    0    0 -0.12939927630E+03 -0.12941693349E+01  0.50738364936E+02  0.13899722752E+03  0.51100000000E-03 0. -1.
    9000005    1    3    3    0    0  0.82502377786E+02  0.18022511056E+01  0.12033066519E+03  0.14591216343E+03  0.10000000000E+01 0.  0.
    9000005    1    3    3    0    0  0.25809033058E+03 -0.67372239799E+01  0.89626447240E+02  0.27329454618E+03  0.10000000000E+01 0.  0.
<mgrwt>
<rscale>  0 0.36042969E+03</rscale>
<asrwt>0</asrwt>
<pdfrwt beam="1">  1        1 0.76626298E-01 0.36283919E+03</pdfrwt>
<pdfrwt beam="2">  1       -1 0.42259625E-01 0.36283919E+03</pdfrwt>
<totfact> 0.25393667E+02</totfact>
</mgrwt>
</event>
<event>
 8    2  0.7478846E-004  0.1510401E+03  0.7818608E-02  0.1208189E+00
         -1   -1    0    0    0  501 -0.00000000000E+00  0.00000000000E+00  0.37620770088E+02  0.37620770425E+02  0.50400000000E-02 0.  1.
          1   -1    0    0  501    0  0.00000000000E+00 -0.00000000000E+00 -0.51544430252E+03  0.51544430254E+03  0.50400000000E-02 0. -1.
         25    2    1    2    0    0  0.84615091848E+02  0.53327710653E+01 -0.22081228678E+03  0.26752788799E+03  0.12499981058E+03 0.  0.
         23    2    1    2    0    0 -0.84615091848E+02 -0.53327710653E+01 -0.25701124565E+03  0.28553718497E+03  0.91041481733E+02 0.  0.
        -11    1    4    4    0    0 -0.53825051799E+02  0.13934269893E+02 -0.23825969939E+03  0.24466095813E+03  0.51100000000E-03 0. -1.
         11    1    4    4    0    0 -0.30790040050E+02 -0.19267040958E+02 -0.18751546257E+02  0.40876226842E+02  0.51100000000E-03 0.  1.
    9000005    1    3    3    0    0  0.94596902166E+01 -0.22473154880E+02  0.75233660053E+01  0.25536825670E+02  0.10000000000E+01 0.  0.
    9000005    1    3    3    0    0  0.75155401632E+02  0.27805925945E+02 -0.22833565278E+03  0.24199106232E+03  0.10000000000E+01 0.  0.
<mgrwt>
<rscale>  0 0.14388945E+03</rscale>
<asrwt>0</asrwt>
<pdfrwt beam="2">  1        1 0.79299119E-01 0.15104008E+03</pdfrwt>
<pdfrwt beam="1">  1       -1 0.57878112E-02 0.15104008E+03</pdfrwt>
<totfact> 0.59166692E+03</totfact>
</mgrwt>
</event>
<event>
 8    2  0.7478846E-004  0.1382021E+03  0.7818608E-02  0.1227377E+00
          1   -1    0    0  501    0  0.00000000000E+00  0.00000000000E+00  0.88201232317E+02  0.88201232461E+02  0.50400000000E-02 0. -1.
         -1   -1    0    0    0  501 -0.00000000000E+00 -0.00000000000E+00 -0.17265239026E+03  0.17265239033E+03  0.50400000000E-02 0.  1.
         25    2    1    2    0    0  0.15948580643E+02  0.56748736886E+02 -0.41803562331E+02  0.14438618552E+03  0.12500022553E+03 0.  0.
         23    2    1    2    0    0 -0.15948580643E+02 -0.56748736886E+02 -0.42647595610E+02  0.11646743727E+03  0.90945424131E+02 0.  0.
        -11    1    4    4    0    0 -0.21102937654E+02 -0.74548762928E+02 -0.54268857187E+02  0.94593662009E+02  0.51100000000E-03 0.  1.
         11    1    4    4    0    0  0.51543570107E+01  0.17800026042E+02  0.11621261577E+02  0.21873775261E+02  0.51100000000E-03 0. -1.
    9000005    1    3    3    0    0 -0.57029926130E+01 -0.11169407653E+02 -0.67455634171E+02  0.68618819382E+02  0.10000000000E+01 0.  0.
    9000005    1    3    3    0    0  0.21651573256E+02  0.67918144539E+02  0.25652071840E+02  0.75767366140E+02  0.10000000000E+01 0.  0.
<mgrwt>
<rscale>  0 0.13005337E+03</rscale>
<asrwt>0</asrwt>
<pdfrwt beam="1">  1        1 0.13569420E-01 0.13820214E+03</pdfrwt>
<pdfrwt beam="2">  1       -1 0.26561906E-01 0.13820214E+03</pdfrwt>
<totfact> 0.51101179E+03</totfact>
</mgrwt>
</event>
<event>
 8    2  0.7478846E-004  0.1590017E+03  0.7818608E-02  0.1197570E+00
          1   -1    0    0  501    0  0.00000000000E+00  0.00000000000E+00  0.22482862573E+03  0.22482862579E+03  0.50400000000E-02 0. -1.
         -1   -1    0    0    0  501 -0.00000000000E+00 -0.00000000000E+00 -0.98765062381E+02  0.98765062510E+02  0.50400000000E-02 0.  1.
         25    2    1    2    0    0 -0.95500631386E+02 -0.23156382858E+02  0.97248935330E+02  0.18638376002E+03  0.12499984766E+03 0.  0.
         23    2    1    2    0    0  0.95500631386E+02  0.23156382858E+02  0.28814628022E+02  0.13720992828E+03  0.91321919429E+02 0.  0.
        -11    1    4    4    0    0  0.24446194750E+02  0.40747131049E+02  0.41294974649E+02  0.62954110732E+02  0.51100000000E-03 0. -1.
         11    1    4    4    0    0  0.71054436635E+02 -0.17590748191E+02 -0.12480346627E+02  0.74255817548E+02  0.51100000000E-03 0.  1.
    9000005    1    3    3    0    0 -0.66046993854E+02  0.47986422719E+02  0.56230395928E+02  0.99135057314E+02  0.10000000000E+01 0.  0.
    9000005    1    3    3    0    0 -0.29453637532E+02 -0.71142805577E+02  0.41018539402E+02  0.87248702706E+02  0.10000000000E+01 0.  0.
<mgrwt>
<rscale>  0 0.15238746E+03</rscale>
<asrwt>0</asrwt>
<pdfrwt beam="1">  1        1 0.34589019E-01 0.15900173E+03</pdfrwt>
<pdfrwt beam="2">  1       -1 0.15194625E-01 0.15900173E+03</pdfrwt>
<totfact> 0.38608943E+03</totfact>
</mgrwt>
</event>
<event>
 8    2  0.7478846E-004  0.1932164E+03  0.7818608E-02  0.1159704E+00
          1   -1    0    0  501    0  0.00000000000E+00  0.00000000000E+00  0.48468961468E+02  0.48468961730E+02  0.50400000000E-02 0. -1.
         -1   -1    0    0    0  501 -0.00000000000E+00 -0.00000000000E+00 -0.78702239267E+03  0.78702239269E+03  0.50400000000E-02 0.  1.
         25    2    1    2    0    0  0.11665508883E+03 -0.89988012231E+02 -0.24732680568E+03  0.31385205538E+03  0.12500524695E+03 0.  0.
         23    2    1    2    0    0 -0.11665508883E+03  0.89988012231E+02 -0.49122662553E+03  0.52163929904E+03  0.95381909069E+02 0.  0.
        -11    1    4    4    0    0 -0.18753328834E+02  0.33105273222E+02 -0.27443595514E+03  0.27706089571E+03  0.51100000000E-03 0.  1.
         11    1    4    4    0    0 -0.97901759993E+02  0.56882739009E+02 -0.21679067039E+03  0.24457840333E+03  0.51100000000E-03 0. -1.
    9000005    1    3    3    0    0  0.64311465916E+02 -0.24155872081E+01 -0.24667225147E+02  0.68929469070E+02  0.10000000000E+01 0.  0.
    9000005    1    3    3    0    0  0.52343622911E+02 -0.87572425023E+02 -0.22265958053E+03  0.24492258631E+03  0.10000000000E+01 0.  0.
<mgrwt>
<rscale>  0 0.18862913E+03</rscale>
<asrwt>0</asrwt>
<pdfrwt beam="1">  1        1 0.74567639E-02 0.19321637E+03</pdfrwt>
<pdfrwt beam="2">  1       -1 0.12108036E+00 0.19321637E+03</pdfrwt>
<totfact> 0.61806825E+02</totfact>
</mgrwt>
</event>
<event>
 8    2  0.7478846E-004  0.1272961E+03  0.7818608E-02  0.1247874E+00
         -1   -1    0    0    0  501 -0.00000000000E+00  0.00000000000E+00  0.79624175483E+02  0.79624175643E+02  0.50400000000E-02 0.  1.
          1   -1    0    0  501    0  0.00000000000E+00 -0.00000000000E+00 -0.16037394411E+03  0.16037394419E+03  0.50400000000E-02 0. -1.
         25    2    1    2    0    0 -0.18365270965E+02  0.15585279115E+02 -0.76655270910E+02  0.14859446530E+03  0.12499640178E+03 0.  0.
         23    2    1    2    0    0  0.18365270965E+02 -0.15585279115E+02 -0.40944977180E+01  0.91403654530E+02  0.88077687567E+02 0.  0.
        -11    1    4    4    0    0  0.26954333801E+02 -0.47060060490E+02  0.11190158102E+02  0.55375130181E+02  0.51100000000E-03 0.  1.
         11    1    4    4    0    0 -0.85890628356E+01  0.31474781375E+02 -0.15284655820E+02  0.36028524349E+02  0.51100000000E-03 0. -1.
    9000005    1    3    3    0    0 -0.51721857420E+02  0.25248587222E+02 -0.93643031354E+02  0.10992114907E+03  0.10000000000E+01 0.  0.
    9000005    1    3    3    0    0  0.33356586455E+02 -0.96633081070E+01  0.16987760444E+02  0.38673316232E+02  0.10000000000E+01 0.  0.
<mgrwt>
<rscale>  0 0.11715020E+03</rscale>
<asrwt>0</asrwt>
<pdfrwt beam="2">  1        1 0.24672914E-01 0.12729605E+03</pdfrwt>
<pdfrwt beam="1">  1       -1 0.12249873E-01 0.12729605E+03</pdfrwt>
<totfact> 0.81188543E+03</totfact>
</mgrwt>
</event>
<event>
 8    2  0.7478846E-004  0.1252490E+03  0.7818608E-02  0.1250550E+00
         -1   -1    0    0    0  501 -0.00000000000E+00  0.00000000000E+00  0.30495102103E+02  0.30495102520E+02  0.50400000000E-02 0.  1.
          1   -1    0    0  501    0  0.00000000000E+00 -0.00000000000E+00 -0.45048817142E+03  0.45048817145E+03  0.50400000000E-02 0. -1.
         25    2    1    2    0    0  0.65169551269E+01  0.43331114469E+01 -0.14624397636E+03  0.19254767398E+03  0.12500423823E+03 0.  0.
         23    2    1    2    0    0 -0.65169551269E+01 -0.43331114469E+01 -0.27374909295E+03  0.28843559998E+03  0.90527801726E+02 0.  0.
        -11    1    4    4    0    0  0.39982884549E+02 -0.11998329235E+02 -0.98951704043E+02  0.10739660467E+03  0.51100000000E-03 0.  1.
         11    1    4    4    0    0 -0.46499839676E+02  0.76652177877E+01 -0.17479738891E+03  0.18103899531E+03  0.51100000000E-03 0. -1.
    9000005    1    3    3    0    0 -0.23905451778E+02 -0.52006314595E+02 -0.93284445034E+02  0.10944914375E+03  0.10000000000E+01 0.  0.
    9000005    1    3    3    0    0  0.30422406905E+02  0.56339426041E+02 -0.52959531327E+02  0.83098530233E+02  0.10000000000E+01 0.  0.
<mgrwt>
<rscale>  0 0.11559268E+03</rscale>
<asrwt>0</asrwt>
<pdfrwt beam="2">  1        1 0.69305868E-01 0.12524898E+03</pdfrwt>
<pdfrwt beam="1">  1       -1 0.46915545E-02 0.12524898E+03</pdfrwt>
<totfact> 0.95050618E+03</totfact>
</mgrwt>
</event>
<event>
 8    2  0.7478846E-004  0.1406856E+03  0.7818608E-02  0.1223027E+00
          1   -1    0    0  501    0  0.00000000000E+00  0.00000000000E+00  0.61847099037E+02  0.61847099242E+02  0.50400000000E-02 0. -1.
         -1   -1    0    0    0  501 -0.00000000000E+00 -0.00000000000E+00 -0.29701511708E+03  0.29701511712E+03  0.50400000000E-02 0.  1.
         25    2    1    2    0    0  0.32612399013E+02  0.55724834615E+02 -0.65224438864E+02  0.15506987371E+03  0.12499445006E+03 0.  0.
         23    2    1    2    0    0 -0.32612399013E+02 -0.55724834615E+02 -0.16994357918E+03  0.20379234265E+03  0.92095999138E+02 0.  0.
        -11    1    4    4    0    0  0.21584572455E+02 -0.47134149124E+02 -0.50621003273E+02  0.72456937241E+02  0.51100000000E-03 0. -1.
         11    1    4    4    0    0 -0.54196971467E+02 -0.85906854913E+01 -0.11932257591E+03  0.13133540541E+03  0.51100000000E-03 0.  1.
    9000005    1    3    3    0    0 -0.75628203524E+01 -0.36565025038E+02 -0.31649237147E+02  0.48957854525E+02  0.10000000000E+01 0.  0.
    9000005    1    3    3    0    0  0.40175219365E+02  0.92289859653E+02 -0.33575201718E+02  0.10611201919E+03  0.10000000000E+01 0.  0.
<mgrwt>
<rscale>  0 0.13303034E+03</rscale>
<asrwt>0</asrwt>
<pdfrwt beam="1">  1        1 0.95149385E-02 0.14068560E+03</pdfrwt>
<pdfrwt beam="2">  1       -1 0.45694633E-01 0.14068560E+03</pdfrwt>
<totfact> 0.32126022E+03</totfact>
</mgrwt>
</event>
<event>
 8    2  0.7478846E-004  0.1304866E+03  0.7818608E-02  0.1241955E+00
          1   -1    0    0  501    0  0.00000000000E+00  0.00000000000E+00  0.74533279894E+03  0.74533279896E+03  0.50400000000E-02 0. -1.
         -1   -1    0    0    0  501 -0.00000000000E+00 -0.00000000000E+00 -0.17434104009E+02  0.17434104737E+02  0.50400000000E-02 0.  1.
         25    2    1    2    0    0 -0.30927142259E+02 -0.21106992458E+02  0.36966128798E+03  0.39201558266E+03  0.12499902383E+03 0.  0.
         23    2    1    2    0    0  0.30927142259E+02  0.21106992458E+02  0.35823740695E+03  0.37075132103E+03  0.87866427317E+02 0.  0.
        -11    1    4    4    0    0  0.17684206695E+02  0.54130971622E+02  0.17311784373E+03  0.18224346648E+03  0.51100000000E-03 0.  1.
         11    1    4    4    0    0  0.13242935564E+02 -0.33023979164E+02  0.18511956322E+03  0.18850785456E+03  0.51100000000E-03 0. -1.
    9000005    1    3    3    0    0 -0.90375109504E+01 -0.19887473635E+02  0.36942125268E+03  0.37006789937E+03  0.10000000000E+01 0.  0.
    9000005    1    3    3    0    0 -0.21889631308E+02 -0.12195188227E+01  0.24003530010E+00  0.21947683293E+02  0.10000000000E+01 0.  0.
<mgrwt>
<rscale>  0 0.12069483E+03</rscale>
<asrwt>0</asrwt>
<pdfrwt beam="1">  1        1 0.11466658E+00 0.13048659E+03</pdfrwt>
<pdfrwt beam="2">  1       -1 0.26821700E-02 0.13048659E+03</pdfrwt>
<totfact> 0.10916203E+04</totfact>
</mgrwt>
</event>
<event>
 8    2  0.7478846E-004  0.1298424E+03  0.7818608E-02  0.1242359E+00
          1   -1    0    0  501    0  0.00000000000E+00  0.00000000000E+00  0.18516765884E+02  0.18516766570E+02  0.50400000000E-02 0. -1.
         -1   -1    0    0    0  501 -0.00000000000E+00 -0.00000000000E+00 -0.78165026480E+03  0.78165026481E+03  0.50400000000E-02 0.  1.
         25    2    1    2    0    0  0.35076927853E+02 -0.17783283749E+01 -0.29576819172E+03  0.32301373741E+03  0.12500199200E+03 0.  0.
         23    2    1    2    0    0 -0.35076927853E+02  0.17783283749E+01 -0.46736530720E+03  0.47715329397E+03  0.89506325256E+02 0.  0.
        -11    1    4    4    0    0  0.20195794867E+02  0.27802587502E+02 -0.14170059237E+03  0.14580779088E+03  0.51100000000E-03 0. -1.
         11    1    4    4    0    0 -0.55272722720E+02 -0.26024259128E+02 -0.32566471483E+03  0.33134550310E+03  0.51100000000E-03 0.  1.
    9000005    1    3    3    0    0  0.56738795123E+02 -0.80506694891E+01 -0.49555592703E+02  0.75768469163E+02  0.10000000000E+01 0.  0.
    9000005    1    3    3    0    0 -0.21661867270E+02  0.62723411142E+01 -0.24621259901E+03  0.24724526825E+03  0.10000000000E+01 0.  0.
<mgrwt>
<rscale>  0 0.12044823E+03</rscale>
<asrwt>0</asrwt>
<pdfrwt beam="1">  1        1 0.28487339E-02 0.12984241E+03</pdfrwt>
<pdfrwt beam="2">  1       -1 0.12025386E+00 0.12984241E+03</pdfrwt>
<totfact> 0.23285976E+03</totfact>
</mgrwt>
</event>
<event>
 8    2  0.7478846E-004  0.1292529E+03  0.7818608E-02  0.1243928E+00
         -1   -1    0    0    0  501 -0.00000000000E+00  0.00000000000E+00  0.13226000673E+02  0.13226001634E+02  0.50400000000E-02 0.  1.
          1   -1    0    0  501    0  0.00000000000E+00 -0.00000000000E+00 -0.94800006186E+03  0.94800006188E+03  0.50400000000E-02 0. -1.
         25    2    1    2    0    0 -0.16101309691E+02 -0.28666296675E+02 -0.56303903211E+03  0.57768439395E+03  0.12500119439E+03 0.  0.
         23    2    1    2    0    0  0.16101309691E+02  0.28666296675E+02 -0.37173502908E+03  0.38354166956E+03  0.88522718565E+02 0.  0.
        -11    1    4    4    0    0 -0.75463432757E+01  0.11306401223E+02 -0.33628317527E+01  0.14003236880E+02  0.51100000000E-03 0.  1.
         11    1    4    4    0    0  0.23647652967E+02  0.17359895452E+02 -0.36837219733E+03  0.36953843268E+03  0.51100000000E-03 0. -1.
    9000005    1    3    3    0    0 -0.36118827315E+02  0.30751609045E+02 -0.10314168565E+03  0.11353166283E+03  0.10000000000E+01 0.  0.
    9000005    1    3    3    0    0  0.20017517624E+02 -0.59417905720E+02 -0.45989734646E+03  0.46415273113E+03  0.10000000000E+01 0.  0.
<mgrwt>
<rscale>  0 0.11949761E+03</rscale>
<asrwt>0</asrwt>
<pdfrwt beam="2">  1        1 0.14584611E+00 0.12925288E+03</pdfrwt>
<pdfrwt beam="1">  1       -1 0.20347701E-02 0.12925288E+03</pdfrwt>
<totfact> 0.11227648E+04</totfact>
</mgrwt>
</event>
<event>
 8    2  0.7478846E-004  0.2222142E+03  0.7818608E-02  0.1135494E+00
         -1   -1    0    0    0  501 -0.00000000000E+00  0.00000000000E+00  0.91078936809E+03  0.91078936810E+03  0.50400000000E-02 0.  1.
          1   -1    0    0  501    0  0.00000000000E+00 -0.00000000000E+00 -0.60886438641E+02  0.60886438850E+02  0.50400000000E-02 0. -1.
         25    2    1    2    0    0  0.32415524258E+02 -0.18083881787E+03  0.23505739731E+03  0.32346738202E+03  0.12500289172E+03 0.  0.
         23    2    1    2    0    0 -0.32415524258E+02  0.18083881787E+03  0.61484553214E+03  0.64820842493E+03  0.91573410446E+02 0.  0.
        -11    1    4    4    0    0 -0.57888637636E+02  0.16471567126E+03  0.53985671067E+03  0.56738665369E+03  0.51100000000E-03 0. -1.
         11    1    4    4    0    0  0.25473113378E+02  0.16123146614E+02  0.74988821466E+02  0.80821771244E+02  0.51100000000E-03 0.  1.
    9000005    1    3    3    0    0  0.95025679838E+01  0.10724439094E+02 -0.52519340513E+01  0.15293632774E+02  0.10000000000E+01 0.  0.
    9000005    1    3    3    0    0  0.22912956274E+02 -0.19156325697E+03  0.24030933136E+03  0.30817374924E+03  0.10000000000E+01 0.  0.
<mgrwt>
<rscale>  0 0.21785353E+03</rscale>
<asrwt>0</asrwt>
<pdfrwt beam="2">  1        1 0.93671447E-02 0.22221424E+03</pdfrwt>
<pdfrwt beam="1">  1       -1 0.14012144E+00 0.22221424E+03</pdfrwt>
<totfact> 0.31714199E+02</totfact>
</mgrwt>
</event>
<event>
 8    2  0.7478846E-004  0.1656358E+03  0.7818608E-02  0.1189486E+00
         -1   -1    0    0    0  501 -0.00000000000E+00  0.00000000000E+00  0.55239893073E+02  0.55239893303E+02  0.50400000000E-02 0.  1.
          1   -1    0    0  501    0  0.00000000000E+00 -0.00000000000E+00 -0.42946446431E+03  0.42946446434E+03  0.50400000000E-02 0. -1.
         25    2    1    2    0    0 -0.70515582253E+02  0.82690726129E+02 -0.18541032374E+03  0.24862063418E+03  0.12500011225E+03 0.  0.
         23    2    1    2    0    0  0.70515582253E+02 -0.82690726129E+02 -0.18881424750E+03  0.23608372347E+03  0.90964283637E+02 0.  0.
        -11    1    4    4    0    0  0.68064938136E+02 -0.55562767262E+02 -0.64959996283E+02  0.10926965739E+03  0.51100000000E-03 0. -1.
         11    1    4    4    0    0  0.24506441176E+01 -0.27127958866E+02 -0.12385425122E+03  0.12681406607E+03  0.51100000000E-03 0.  1.
    9000005    1    3    3    0    0  0.34293555069E+02  0.37165898115E+02 -0.46086871378E+02  0.68427710873E+02  0.10000000000E+01 0.  0.
    9000005    1    3    3    0    0 -0.10480913732E+03  0.45524828013E+02 -0.13932345236E+03  0.18019292330E+03  0.10000000000E+01 0.  0.
<mgrwt>
<rscale>  0 0.15930299E+03</rscale>
<asrwt>0</asrwt>
<pdfrwt beam="2">  1        1 0.66071454E-01 0.16563584E+03</pdfrwt>
<pdfrwt beam="1">  1       -1 0.84984454E-02 0.16563584E+03</pdfrwt>
<totfact> 0.42240128E+03</totfact>
</mgrwt>
</event>
<event>
 8    2  0.7478846E-004  0.1257180E+03  0.7818608E-02  0.1249941E+00
          1   -1    0    0  501    0  0.00000000000E+00  0.00000000000E+00  0.15446220524E+04  0.15446220524E+04  0.50400000000E-02 0. -1.
         -1   -1    0    0    0  501 -0.00000000000E+00 -0.00000000000E+00 -0.76800966420E+01  0.76800982958E+01  0.50400000000E-02 0.  1.
         25    2    1    2    0    0 -0.93922882793E+01 -0.94417024005E+01  0.96954693106E+03  0.97766367598E+03  0.12501060345E+03 0.  0.
         23    2    1    2    0    0  0.93922882793E+01  0.94417024005E+01  0.56739502465E+03  0.57463847468E+03  0.89971671982E+02 0.  0.
        -11    1    4    4    0    0  0.34170656417E+01  0.91980715226E+01  0.30693809678E+01  0.10281145711E+02  0.51100000000E-03 0.  1.
         11    1    4    4    0    0  0.59752226376E+01  0.24363087789E+00  0.56432564368E+03  0.56435732897E+03  0.51100000000E-03 0. -1.
    9000005    1    3    3    0    0 -0.41436633959E+02 -0.52205157790E+02  0.38981469288E+03  0.39547296737E+03  0.10000000000E+01 0.  0.
    9000005    1    3    3    0    0  0.32044345680E+02  0.42763455390E+02  0.57973223818E+03  0.58219070861E+03  0.10000000000E+01 0.  0.
<mgrwt>
<rscale>  0 0.11594475E+03</rscale>
<asrwt>0</asrwt>
<pdfrwt beam="1">  1        1 0.23763435E+00 0.12571799E+03</pdfrwt>
<pdfrwt beam="2">  1       -1 0.11815525E-02 0.12571799E+03</pdfrwt>
<totfact> 0.95819259E+03</totfact>
</mgrwt>
</event>
<event>
 8    2  0.7478846E-004  0.1425719E+03  0.7818608E-02  0.1220734E+00
         -1   -1    0    0    0  501 -0.00000000000E+00  0.00000000000E+00  0.92774307236E+02  0.92774307373E+02  0.50400000000E-02 0.  1.
          1   -1    0    0  501    0  0.00000000000E+00 -0.00000000000E+00 -0.17773192344E+03  0.17773192351E+03  0.50400000000E-02 0. -1.
         25    2    1    2    0    0  0.51173640061E+02  0.45621842732E+02 -0.58306579406E+02  0.15403377948E+03  0.12500661601E+03 0.  0.
         23    2    1    2    0    0 -0.51173640061E+02 -0.45621842732E+02 -0.26651036797E+02  0.11647245141E+03  0.90307586631E+02 0.  0.
        -11    1    4    4    0    0  0.44895401097E+01  0.14501941704E+02  0.17688638422E+02  0.23309873725E+02  0.51100000000E-03 0.  1.
         11    1    4    4    0    0 -0.55663180170E+02 -0.60123784437E+02 -0.44339675218E+02  0.93162577682E+02  0.51100000000E-03 0. -1.
    9000005    1    3    3    0    0  0.80936395785E+02  0.49348397805E+02 -0.75904189334E+01  0.95102991479E+02  0.10000000000E+01 0.  0.
    9000005    1    3    3    0    0 -0.29762755724E+02 -0.37265550730E+01 -0.50716160473E+02  0.58930787998E+02  0.10000000000E+01 0.  0.
<mgrwt>
<rscale>  0 0.13463619E+03</rscale>
<asrwt>0</asrwt>
<pdfrwt beam="2">  1        1 0.27343373E-01 0.14257190E+03</pdfrwt>
<pdfrwt beam="1">  1       -1 0.14272970E-01 0.14257190E+03</pdfrwt>
<totfact> 0.56744720E+03</totfact>
</mgrwt>
</event>
<event>
 8    2  0.7478846E-004  0.1842177E+03  0.7818608E-02  0.1166018E+00
          1   -1    0    0  501    0  0.00000000000E+00  0.00000000000E+00  0.34153052843E+03  0.34153052847E+03  0.50400000000E-02 0. -1.
         -1   -1    0    0    0  501 -0.00000000000E+00 -0.00000000000E+00 -0.12320507405E+03  0.12320507415E+03  0.50400000000E-02 0.  1.
         25    2    1    2    0    0  0.12189514094E+03 -0.58756227420E+02  0.22358604797E+03  0.28970139306E+03  0.12500182658E+03 0.  0.
         23    2    1    2    0    0 -0.12189514094E+03  0.58756227420E+02 -0.52605935890E+01  0.17503420956E+03  0.11089896764E+03 0.  0.
        -11    1    4    4    0    0 -0.38042764287E+02 -0.12499380646E+02  0.39493304215E+02  0.56242399569E+02  0.51100000000E-03 0. -1.
         11    1    4    4    0    0 -0.83852376655E+02  0.71255608066E+02 -0.44753897804E+02  0.11879180999E+03  0.51100000000E-03 0.  1.
    9000005    1    3    3    0    0  0.90443460458E+02 -0.32612589439E+02  0.22906452009E+03  0.24842535075E+03  0.10000000000E+01 0.  0.
    9000005    1    3    3    0    0  0.31451680485E+02 -0.26143637981E+02 -0.54784721203E+01  0.41276042312E+02  0.10000000000E+01 0.  0.
<mgrwt>
<rscale>  0 0.18185710E+03</rscale>
<asrwt>0</asrwt>
<pdfrwt beam="1">  1        1 0.52543158E-01 0.18421774E+03</pdfrwt>
<pdfrwt beam="2">  1       -1 0.18954627E-01 0.18421774E+03</pdfrwt>
<totfact> 0.16206455E+03</totfact>
</mgrwt>
</event>
<event>
 8    2  0.7478846E-004  0.2085288E+03  0.7818608E-02  0.1146858E+00
          1   -1    0    0  501    0  0.00000000000E+00  0.00000000000E+00  0.42388569406E+03  0.42388569409E+03  0.50400000000E-02 0. -1.
         -1   -1    0    0    0  501 -0.00000000000E+00 -0.00000000000E+00 -0.26328713353E+03  0.26328713358E+03  0.50400000000E-02 0.  1.
         25    2    1    2    0    0 -0.12649397753E+02 -0.16643108515E+03 -0.19435534549E+03  0.28505835367E+03  0.12499980526E+03 0.  0.
         23    2    1    2    0    0  0.12649397753E+02  0.16643108515E+03  0.35495390601E+03  0.40211447399E+03  0.88568964276E+02 0.  0.
        -11    1    4    4    0    0  0.45030540173E+02  0.55748550606E+02  0.16506388129E+03  0.17994925771E+03  0.51100000000E-03 0. -1.
         11    1    4    4    0    0 -0.32381142419E+02  0.11068253454E+03  0.18989002473E+03  0.22216521628E+03  0.51100000000E-03 0.  1.
    9000005    1    3    3    0    0 -0.49939490174E+02 -0.43770737491E+02 -0.11918225272E+03  0.13643767626E+03  0.10000000000E+01 0.  0.
    9000005    1    3    3    0    0  0.37290092421E+02 -0.12266034765E+03 -0.75173092764E+02  0.14862067741E+03  0.10000000000E+01 0.  0.
<mgrwt>
<rscale>  0 0.20345287E+03</rscale>
<asrwt>0</asrwt>
<pdfrwt beam="1">  1        1 0.65213183E-01 0.20852881E+03</pdfrwt>
<pdfrwt beam="2">  1       -1 0.40505713E-01 0.20852881E+03</pdfrwt>
<totfact> 0.34328029E+02</totfact>
</mgrwt>
</event>
<event>
 8    2  0.7478846E-004  0.1338414E+03  0.7818608E-02  0.1234548E+00
          1   -1    0    0  501    0  0.00000000000E+00  0.00000000000E+00  0.83469842014E+03  0.83469842015E+03  0.50400000000E-02 0. -1.
         -1   -1    0    0    0  501 -0.00000000000E+00 -0.00000000000E+00 -0.20088550934E+02  0.20088551566E+02  0.50400000000E-02 0.  1.
         25    2    1    2    0    0  0.16617757878E+02 -0.44860891371E+02  0.62371871580E+03  0.63791735682E+03  0.12499947299E+03 0.  0.
         23    2    1    2    0    0 -0.16617757878E+02  0.44860891371E+02  0.19089115340E+03  0.21686961489E+03  0.91128195225E+02 0.  0.
        -11    1    4    4    0    0  0.30542550089E+02 -0.25378467260E+00  0.10276560184E+03  0.10720858499E+03  0.51100000000E-03 0. -1.
         11    1    4    4    0    0 -0.47160307967E+02  0.45114676043E+02  0.88125551560E+02  0.10966102991E+03  0.51100000000E-03 0.  1.
    9000005    1    3    3    0    0  0.66948585208E+02 -0.35714082381E+02  0.46511997361E+03  0.47126977263E+03  0.10000000000E+01 0.  0.
    9000005    1    3    3    0    0 -0.50330827329E+02 -0.91468089898E+01  0.15859874219E+03  0.16664758419E+03  0.10000000000E+01 0.  0.
<mgrwt>
<rscale>  0 0.12533437E+03</rscale>
<asrwt>0</asrwt>
<pdfrwt beam="1">  1        1 0.12841514E+00 0.13384139E+03</pdfrwt>
<pdfrwt beam="2">  1       -1 0.30905463E-02 0.13384139E+03</pdfrwt>
<totfact> 0.75106429E+03</totfact>
</mgrwt>
</event>
<event>
 8    2  0.7478846E-004  0.1358180E+03  0.7818608E-02  0.1232514E+00
         -1   -1    0    0    0  501 -0.00000000000E+00  0.00000000000E+00  0.87948157770E+03  0.87948157772E+03  0.50400000000E-02 0.  1.
          1   -1    0    0  501    0  0.00000000000E+00 -0.00000000000E+00 -0.17122155585E+02  0.17122156327E+02  0.50400000000E-02 0. -1.
         25    2    1    2    0    0  0.18910793837E+02  0.49641091261E+02  0.59244528417E+03  0.60781407011E+03  0.12499869206E+03 0.  0.
         23    2    1    2    0    0 -0.18910793837E+02 -0.49641091261E+02  0.26991413794E+03  0.28878966394E+03  0.87886131270E+02 0.  0.
        -11    1    4    4    0    0 -0.42319774083E+02 -0.19805543638E+02  0.22594477598E+03  0.23072551795E+03  0.51100000000E-03 0.  1.
         11    1    4    4    0    0  0.23408980245E+02 -0.29835547623E+02  0.43969361959E+02  0.58064145989E+02  0.51100000000E-03 0. -1.
    9000005    1    3    3    0    0  0.54256263837E+02 -0.29949354354E+01  0.12799988439E+03  0.13905999500E+03  0.10000000000E+01 0.  0.
    9000005    1    3    3    0    0 -0.35345469999E+02  0.52636026697E+02  0.46444539978E+03  0.46875407511E+03  0.10000000000E+01 0.  0.
<mgrwt>
<rscale>  0 0.12664938E+03</rscale>
<asrwt>0</asrwt>
<pdfrwt beam="2">  1        1 0.26341772E-02 0.13581800E+03</pdfrwt>
<pdfrwt beam="1">  1       -1 0.13530489E+00 0.13581800E+03</pdfrwt>
<totfact> 0.19584576E+03</totfact>
</mgrwt>
</event>
<event>
 8    2  0.7478846E-004  0.1383939E+03  0.7818608E-02  0.1226045E+00
          1   -1    0    0  501    0  0.00000000000E+00  0.00000000000E+00  0.24588662251E+03  0.24588662256E+03  0.50400000000E-02 0. -1.
         -1   -1    0    0    0  501 -0.00000000000E+00 -0.00000000000E+00 -0.63279420214E+02  0.63279420415E+02  0.50400000000E-02 0.  1.
         25    2    1    2    0    0  0.59388851655E+02  0.10615754924E+01  0.10628770058E+03  0.17449912314E+03  0.12499882415E+03 0.  0.
         23    2    1    2    0    0 -0.59388851655E+02 -0.10615754924E+01  0.76319501714E+02  0.13466691984E+03  0.93714194831E+02 0.  0.
        -11    1    4    4    0    0 -0.38646378786E+02  0.11216498516E+02 -0.12892486243E+02  0.42255989327E+02  0.51100000000E-03 0.  1.
         11    1    4    4    0    0 -0.20742472870E+02 -0.12278074009E+02  0.89211987957E+02  0.92410930509E+02  0.51100000000E-03 0. -1.
    9000005    1    3    3    0    0  0.63971695516E+02  0.45738809102E+02  0.10280944305E+03  0.12944187138E+03  0.10000000000E+01 0.  0.
    9000005    1    3    3    0    0 -0.45828438605E+01 -0.44677233610E+02  0.34782575297E+01  0.45057251762E+02  0.10000000000E+01 0.  0.
<mgrwt>
<rscale>  0 0.13095504E+03</rscale>
<asrwt>0</asrwt>
<pdfrwt beam="1">  1        1 0.37828711E-01 0.13839389E+03</pdfrwt>
<pdfrwt beam="2">  1       -1 0.97352954E-02 0.13839389E+03</pdfrwt>
<totfact> 0.68279370E+03</totfact>
</mgrwt>
</event>
<event>
 8    2  0.7478846E-004  0.1752257E+03  0.7818608E-02  0.1178856E+00
         -1   -1    0    0    0  501 -0.00000000000E+00  0.00000000000E+00  0.31013729124E+03  0.31013729129E+03  0.50400000000E-02 0.  1.
          1   -1    0    0  501    0  0.00000000000E+00 -0.00000000000E+00 -0.95600372455E+02  0.95600372588E+02  0.50400000000E-02 0. -1.
         25    2    1    2    0    0 -0.37620623407E+02  0.11690513091E+03  0.17773574953E+03  0.24958774651E+03  0.12498770183E+03 0.  0.
         23    2    1    2    0    0  0.37620623407E+02 -0.11690513091E+03  0.36801169257E+02  0.15614991736E+03  0.89142300255E+02 0.  0.
        -11    1    4    4    0    0  0.21517912134E+02 -0.10526898682E+03 -0.73887569700E+01  0.10769946081E+03  0.51100000000E-03 0. -1.
         11    1    4    4    0    0  0.16102711273E+02 -0.11636144085E+02  0.44189926227E+02  0.48450456548E+02  0.51100000000E-03 0.  1.
    9000005    1    3    3    0    0 -0.45743829619E+02  0.17834118727E+02  0.13068440010E+03  0.13960646894E+03  0.10000000000E+01 0.  0.
    9000005    1    3    3    0    0  0.81232062127E+01  0.99071012182E+02  0.47051349428E+02  0.10998127757E+03  0.10000000000E+01 0.  0.
<mgrwt>
<rscale>  0 0.16903689E+03</rscale>
<asrwt>0</asrwt>
<pdfrwt beam="2">  1        1 0.14707750E-01 0.17522570E+03</pdfrwt>
<pdfrwt beam="1">  1       -1 0.47713429E-01 0.17522570E+03</pdfrwt>
<totfact> 0.16889157E+03</totfact>
</mgrwt>
</event>
<event>
 8    2  0.7478846E-004  0.1476703E+03  0.7818608E-02  0.1222525E+00
          1   -1    0    0  501    0  0.00000000000E+00  0.00000000000E+00  0.24028289280E+03  0.24028289285E+03  0.50400000000E-02 0. -1.
         -1   -1    0    0    0  501 -0.00000000000E+00 -0.00000000000E+00 -0.76293550731E+02  0.76293550898E+02  0.50400000000E-02 0.  1.
         25    2    1    2    0    0 -0.24207449485E+02 -0.74807600893E+02  0.16068901070E+03  0.21823719379E+03  0.12499734731E+03 0.  0.
         23    2    1    2    0    0  0.24207449485E+02  0.74807600893E+02  0.33003313722E+01  0.98339249959E+02  0.58970654850E+02 0.  0.
        -11    1    4    4    0    0  0.17381243020E+01  0.55822260285E+02 -0.21518829249E+02  0.59851531576E+02  0.51100000000E-03 0.  1.
         11    1    4    4    0    0  0.22469325183E+02  0.18985340608E+02  0.24819160621E+02  0.38487718383E+02  0.51100000000E-03 0. -1.
    9000005    1    3    3    0    0 -0.14148728683E+02 -0.10568754720E+03  0.14998207751E+03  0.18402626913E+03  0.10000000000E+01 0.  0.
    9000005    1    3    3    0    0 -0.10058720802E+02  0.30879946305E+02  0.10706933190E+02  0.34210924663E+02  0.10000000000E+01 0.  0.
<mgrwt>
<rscale>  0 0.13337990E+03</rscale>
<asrwt>0</asrwt>
<pdfrwt beam="1">  1        1 0.36966599E-01 0.14767029E+03</pdfrwt>
<pdfrwt beam="2">  1       -1 0.11737469E-01 0.14767029E+03</pdfrwt>
<totfact> 0.52946211E+03</totfact>
</mgrwt>
</event>
<event>
 8    2  0.7478846E-004  0.1338626E+03  0.7818608E-02  0.1234440E+00
          1   -1    0    0  501    0  0.00000000000E+00  0.00000000000E+00  0.27748387683E+04  0.27748387683E+04  0.50400000000E-02 0. -1.
         -1   -1    0    0    0  501 -0.00000000000E+00 -0.00000000000E+00 -0.51696961132E+01  0.51696985700E+01  0.50400000000E-02 0.  1.
         25    2    1    2    0    0  0.32285115143E+02  0.35379224648E+02  0.13590279727E+04  0.13656047101E+04  0.12500070178E+03 0.  0.
         23    2    1    2    0    0 -0.32285115143E+02 -0.35379224648E+02  0.14106410995E+04  0.14144037568E+04  0.91299821709E+02 0.  0.
        -11    1    4    4    0    0  0.76052179876E+01 -0.17673347529E+01  0.95214747477E+01  0.12313459887E+02  0.51100000000E-03 0.  1.
         11    1    4    4    0    0 -0.39890333131E+02 -0.33611889896E+02  0.14011196247E+04  0.14020902969E+04  0.51100000000E-03 0. -1.
    9000005    1    3    3    0    0  0.64892747574E+02 -0.14982655738E+02  0.48981894922E+03  0.49432696839E+03  0.10000000000E+01 0.  0.
    9000005    1    3    3    0    0 -0.32607632431E+02  0.50361880386E+02  0.86920902348E+03  0.87127774170E+03  0.10000000000E+01 0.  0.
<mgrwt>
<rscale>  0 0.12540343E+03</rscale>
<asrwt>0</asrwt>
<pdfrwt beam="1">  1        1 0.42689798E+00 0.13386259E+03</pdfrwt>
<pdfrwt beam="2">  1       -1 0.79533860E-03 0.13386259E+03</pdfrwt>
<totfact> 0.27224643E+03</totfact>
</mgrwt>
</event>
<event>
 8    2  0.7478846E-004  0.1350721E+03  0.7818608E-02  0.1232665E+00
          1   -1    0    0  501    0  0.00000000000E+00  0.00000000000E+00  0.91266829442E+03  0.91266829443E+03  0.50400000000E-02 0. -1.
         -1   -1    0    0    0  501 -0.00000000000E+00 -0.00000000000E+00 -0.15897924129E+02  0.15897924928E+02  0.50400000000E-02 0.  1.
         25    2    1    2    0    0 -0.17543288085E+02  0.48022381108E+02  0.45011284312E+03  0.46994260058E+03  0.12502223905E+03 0.  0.
         23    2    1    2    0    0  0.17543288085E+02 -0.48022381108E+02  0.44665752717E+03  0.45862361878E+03  0.90657382921E+02 0.  0.
        -11    1    4    4    0    0 -0.25787778649E+02 -0.34399239475E+02  0.97943298950E+02  0.10696357798E+03  0.51100000000E-03 0.  1.
         11    1    4    4    0    0  0.43331066734E+02 -0.13623141633E+02  0.34871422822E+03  0.35166004080E+03  0.51100000000E-03 0. -1.
    9000005    1    3    3    0    0  0.21363797271E+02 -0.27582130270E+02  0.25124271459E+03  0.25365545012E+03  0.10000000000E+01 0.  0.
    9000005    1    3    3    0    0 -0.38907085356E+02  0.75604511378E+02  0.19887012853E+03  0.21628715046E+03  0.10000000000E+01 0.  0.
<mgrwt>
<rscale>  0 0.12655120E+03</rscale>
<asrwt>0</asrwt>
<pdfrwt beam="1">  1        1 0.14041051E+00 0.13507212E+03</pdfrwt>
<pdfrwt beam="2">  1       -1 0.24458344E-02 0.13507212E+03</pdfrwt>
<totfact> 0.91764012E+03</totfact>
</mgrwt>
</event>
<event>
 8    2  0.7478846E-004  0.2154678E+03  0.7818608E-02  0.1140969E+00
         -1   -1    0    0    0  501 -0.00000000000E+00  0.00000000000E+00  0.63816442296E+03  0.63816442298E+03  0.50400000000E-02 0.  1.
          1   -1    0    0  501    0  0.00000000000E+00 -0.00000000000E+00 -0.68250224703E+02  0.68250224889E+02  0.50400000000E-02 0. -1.
         25    2    1    2    0    0 -0.17190497445E+03  0.35342623577E+02  0.35006639849E+03  0.41106307764E+03  0.12500379662E+03 0.  0.
         23    2    1    2    0    0  0.17190497445E+03 -0.35342623577E+02  0.21984779977E+03  0.29535157022E+03  0.89994853668E+02 0.  0.
        -11    1    4    4    0    0  0.13821165967E+03 -0.47170584165E+02  0.11905044759E+03  0.18841585907E+03  0.51100000000E-03 0. -1.
         11    1    4    4    0    0  0.33693314788E+02  0.11827960588E+02  0.10079735218E+03  0.10693571115E+03  0.51100000000E-03 0.  1.
    9000005    1    3    3    0    0 -0.12669656352E+03  0.74829282394E+02  0.19144562990E+03  0.24146194300E+03  0.10000000000E+01 0.  0.
    9000005    1    3    3    0    0 -0.45208410933E+02 -0.39486658817E+02  0.15862076859E+03  0.16960113464E+03  0.10000000000E+01 0.  0.
<mgrwt>
<rscale>  0 0.21075591E+03</rscale>
<asrwt>0</asrwt>
<pdfrwt beam="2">  1        1 0.10500034E-01 0.21546779E+03</pdfrwt>
<pdfrwt beam="1">  1       -1 0.98179143E-01 0.21546779E+03</pdfrwt>
<totfact> 0.63007829E+02</totfact>
</mgrwt>
</event>
<event>
 8    2  0.7478846E-004  0.2310279E+03  0.7818608E-02  0.1129339E+00
          1   -1    0    0  501    0  0.00000000000E+00  0.00000000000E+00  0.10311441233E+03  0.10311441245E+03  0.50400000000E-02 0. -1.
         -1   -1    0    0    0  501 -0.00000000000E+00 -0.00000000000E+00 -0.56875866616E+03  0.56875866618E+03  0.50400000000E-02 0.  1.
         25    2    1    2    0    0  0.33922378643E+02  0.19130077719E+03 -0.37617960476E+03  0.44145780166E+03  0.12500872163E+03 0.  0.
         23    2    1    2    0    0 -0.33922378643E+02 -0.19130077719E+03 -0.89464649073E+02  0.23041527697E+03  0.85677075726E+02 0.  0.
        -11    1    4    4    0    0 -0.34879383173E+01 -0.17972060916E+03 -0.74595233162E+02  0.19461786116E+03  0.51100000000E-03 0. -1.
         11    1    4    4    0    0 -0.30434440326E+02 -0.11580168026E+02 -0.14869415911E+02  0.35797415818E+02  0.51100000000E-03 0.  1.
    9000005    1    3    3    0    0  0.42102634206E+02  0.12749742761E+03 -0.12956942380E+03  0.18659437676E+03  0.10000000000E+01 0.  0.
    9000005    1    3    3    0    0 -0.81802555630E+01  0.63803349573E+02 -0.24661018096E+03  0.25486342490E+03  0.10000000000E+01 0.  0.
<mgrwt>
<rscale>  0 0.22620650E+03</rscale>
<asrwt>0</asrwt>
<pdfrwt beam="1">  1        1 0.15863756E-01 0.23102791E+03</pdfrwt>
<pdfrwt beam="2">  1       -1 0.87501331E-01 0.23102791E+03</pdfrwt>
<totfact> 0.46829081E+02</totfact>
</mgrwt>
</event>
<event>
 8    2  0.7478846E-004  0.1505904E+03  0.7818608E-02  0.1210342E+00
          1   -1    0    0  501    0  0.00000000000E+00  0.00000000000E+00  0.25083776955E+03  0.25083776960E+03  0.50400000000E-02 0. -1.
         -1   -1    0    0    0  501 -0.00000000000E+00 -0.00000000000E+00 -0.90898782888E+02  0.90898783027E+02  0.50400000000E-02 0.  1.
         25    2    1    2    0    0 -0.35355202013E+02 -0.76185839689E+02  0.16287397177E+03  0.22182293233E+03  0.12499284039E+03 0.  0.
         23    2    1    2    0    0  0.35355202013E+02  0.76185839689E+02 -0.29349851135E+01  0.11991362029E+03  0.85535897237E+02 0.  0.
        -11    1    4    4    0    0  0.71896564429E+01  0.78291457829E+02 -0.26669472819E+02  0.83021107614E+02  0.51100000000E-03 0.  1.
         11    1    4    4    0    0  0.28165545570E+02 -0.21056181400E+01  0.23734487706E+02  0.36892512681E+02  0.51100000000E-03 0. -1.
    9000005    1    3    3    0    0  0.72464200305E+01 -0.78533395444E+02  0.33681806259E+02  0.85764030200E+02  0.10000000000E+01 0.  0.
    9000005    1    3    3    0    0 -0.42601622043E+02  0.23475557557E+01  0.12919216551E+03  0.13605890213E+03  0.10000000000E+01 0.  0.
<mgrwt>
<rscale>  0 0.14224358E+03</rscale>
<asrwt>0</asrwt>
<pdfrwt beam="1">  1        1 0.38590426E-01 0.15059045E+03</pdfrwt>
<pdfrwt beam="2">  1       -1 0.13984428E-01 0.15059045E+03</pdfrwt>
<totfact> 0.38280094E+03</totfact>
</mgrwt>
</event>
<event>
 8    2  0.7478846E-004  0.1497188E+03  0.7818608E-02  0.1209578E+00
          1   -1    0    0  501    0  0.00000000000E+00  0.00000000000E+00  0.43543388559E+02  0.43543388850E+02  0.50400000000E-02 0. -1.
         -1   -1    0    0    0  501 -0.00000000000E+00 -0.00000000000E+00 -0.53245104487E+03  0.53245104489E+03  0.50400000000E-02 0.  1.
         25    2    1    2    0    0 -0.77335885484E+02  0.28456325530E+02 -0.13721280316E+03  0.20308388483E+03  0.12500043711E+03 0.  0.
         23    2    1    2    0    0  0.77335885484E+02 -0.28456325530E+02 -0.35169485315E+03  0.37291054892E+03  0.92641276526E+02 0.  0.
        -11    1    4    4    0    0  0.35608122519E+01 -0.27997521630E+02 -0.24105237406E+02  0.37116075654E+02  0.51100000000E-03 0.  1.
         11    1    4    4    0    0  0.73775073232E+02 -0.45880389969E+00 -0.32758961574E+03  0.33579447326E+03  0.51100000000E-03 0. -1.
    9000005    1    3    3    0    0 -0.73731540373E+02  0.38349133289E+02 -0.15869309855E+03  0.17914099363E+03  0.10000000000E+01 0.  0.
    9000005    1    3    3    0    0 -0.36043451108E+01 -0.98928077595E+01  0.21480295389E+02  0.23942891200E+02  0.10000000000E+01 0.  0.
<mgrwt>
<rscale>  0 0.14282428E+03</rscale>
<asrwt>0</asrwt>
<pdfrwt beam="1">  1        1 0.66989832E-02 0.14971877E+03</pdfrwt>
<pdfrwt beam="2">  1       -1 0.81915541E-01 0.14971877E+03</pdfrwt>
<totfact> 0.16856847E+03</totfact>
</mgrwt>
</event>
<event>
 8    2  0.7478846E-004  0.1351883E+03  0.7818608E-02  0.1232947E+00
         -1   -1    0    0    0  501 -0.00000000000E+00  0.00000000000E+00  0.81946537096E+02  0.81946537251E+02  0.50400000000E-02 0.  1.
          1   -1    0    0  501    0  0.00000000000E+00 -0.00000000000E+00 -0.17405917269E+03  0.17405917276E+03  0.50400000000E-02 0. -1.
         25    2    1    2    0    0  0.22854879244E+01 -0.51431783249E+02 -0.60080188144E+02  0.14793750680E+03  0.12500170050E+03 0.  0.
         23    2    1    2    0    0 -0.22854879244E+01  0.51431783249E+02 -0.32032447446E+02  0.10806820321E+03  0.89455056160E+02 0.  0.
        -11    1    4    4    0    0 -0.32063386486E+02 -0.77005284515E+01  0.30942180430E+01  0.33119980026E+02  0.51100000000E-03 0. -1.
         11    1    4    4    0    0  0.29777898562E+02  0.59132311701E+02 -0.35126665489E+02  0.74948223184E+02  0.51100000000E-03 0.  1.
    9000005    1    3    3    0    0 -0.22855983162E+02  0.25528314317E+02  0.15090448661E+02  0.37454137808E+02  0.10000000000E+01 0.  0.
    9000005    1    3    3    0    0  0.25141471087E+02 -0.76960097566E+02 -0.75170636805E+02  0.11048336899E+03  0.10000000000E+01 0.  0.
<mgrwt>
<rscale>  0 0.12636785E+03</rscale>
<asrwt>0</asrwt>
<pdfrwt beam="2">  1        1 0.26778334E-01 0.13518830E+03</pdfrwt>
<pdfrwt beam="1">  1       -1 0.12607160E-01 0.13518830E+03</pdfrwt>
<totfact> 0.70402723E+03</totfact>
</mgrwt>
</event>
<event>
 8    2  0.7478846E-004  0.2688009E+03  0.7818608E-02  0.1104241E+00
         -1   -1    0    0    0  501 -0.00000000000E+00  0.00000000000E+00  0.88900977852E+02  0.88900977994E+02  0.50400000000E-02 0.  1.
          1   -1    0    0  501    0  0.00000000000E+00 -0.00000000000E+00 -0.76988897150E+03  0.76988897151E+03  0.50400000000E-02 0. -1.
         25    2    1    2    0    0  0.19286898478E+03  0.13939419658E+03 -0.37622345713E+03  0.46238296051E+03  0.12499890058E+03 0.  0.
         23    2    1    2    0    0 -0.19286898478E+03 -0.13939419658E+03 -0.30476453651E+03  0.39640698899E+03  0.87337797512E+02 0.  0.
        -11    1    4    4    0    0 -0.10013059269E+03 -0.12411767301E+03 -0.19466643638E+03  0.25164728053E+03  0.51100000000E-03 0.  1.
         11    1    4    4    0    0 -0.92738392098E+02 -0.15276523574E+02 -0.11009810014E+03  0.14475970847E+03  0.51100000000E-03 0. -1.
    9000005    1    3    3    0    0  0.45061069357E+02  0.10137246965E+03 -0.11464630557E+03  0.15953574193E+03  0.10000000000E+01 0.  0.
    9000005    1    3    3    0    0  0.14780791543E+03  0.38021726936E+02 -0.26157715156E+03  0.30284721858E+03  0.10000000000E+01 0.  0.
<mgrwt>
<rscale>  0 0.26488852E+03</rscale>
<asrwt>0</asrwt>
<pdfrwt beam="2">  1        1 0.11844445E+00 0.26880088E+03</pdfrwt>
<pdfrwt beam="1">  1       -1 0.13677074E-01 0.26880088E+03</pdfrwt>
<totfact> 0.91236563E+02</totfact>
</mgrwt>
</event>
<event>
 8    2  0.7478846E-004  0.1647730E+03  0.7818608E-02  0.1190407E+00
          1   -1    0    0  501    0  0.00000000000E+00  0.00000000000E+00  0.86480472329E+03  0.86480472331E+03  0.50400000000E-02 0. -1.
         -1   -1    0    0    0  501 -0.00000000000E+00 -0.00000000000E+00 -0.28440325948E+02  0.28440326394E+02  0.50400000000E-02 0.  1.
         25    2    1    2    0    0  0.22016348027E+02  0.10507334393E+03  0.35014942786E+03  0.38698161440E+03  0.12500008348E+03 0.  0.
         23    2    1    2    0    0 -0.22016348027E+02 -0.10507334393E+03  0.48621496949E+03  0.50626343530E+03  0.91501596606E+02 0.  0.
        -11    1    4    4    0    0 -0.24763378365E+02 -0.75667979312E+02  0.16000173943E+03  0.17871604467E+03  0.51100000000E-03 0.  1.
         11    1    4    4    0    0  0.27470303388E+01 -0.29405364623E+02  0.32621323005E+03  0.32754739063E+03  0.51100000000E-03 0. -1.
    9000005    1    3    3    0    0  0.49784055113E+02 -0.30103418579E+01  0.14648454187E+03  0.15474571176E+03  0.10000000000E+01 0.  0.
    9000005    1    3    3    0    0 -0.27767707086E+02  0.10808368579E+03  0.20366488599E+03  0.23223590264E+03  0.10000000000E+01 0.  0.
<mgrwt>
<rscale>  0 0.15849474E+03</rscale>
<asrwt>0</asrwt>
<pdfrwt beam="1">  1        1 0.13304686E+00 0.16477302E+03</pdfrwt>
<pdfrwt beam="2">  1       -1 0.43754355E-02 0.16477302E+03</pdfrwt>
<totfact> 0.43067392E+03</totfact>
</mgrwt>
</event>
<event>
 8    2  0.7478846E-004  0.2476316E+03  0.7818608E-02  0.1116985E+00
          1   -1    0    0  501    0  0.00000000000E+00  0.00000000000E+00  0.91854684533E+02  0.91854684671E+02  0.50400000000E-02 0. -1.
         -1   -1    0    0    0  501 -0.00000000000E+00 -0.00000000000E+00 -0.65031350290E+03  0.65031350292E+03  0.50400000000E-02 0.  1.
         25    2    1    2    0    0 -0.12222062840E+03  0.17538185069E+03 -0.22522287318E+03  0.33473384491E+03  0.12499891505E+03 0.  0.
         23    2    1    2    0    0  0.12222062840E+03 -0.17538185069E+03 -0.33323594519E+03  0.40743434268E+03  0.96228233251E+02 0.  0.
        -11    1    4    4    0    0 -0.31707911094E+01 -0.93615563862E+00  0.54401763480E+01  0.63659895222E+01  0.51100000000E-03 0. -1.
         11    1    4    4    0    0  0.12539141951E+03 -0.17444569505E+03 -0.33867612153E+03  0.40106835316E+03  0.51100000000E-03 0.  1.
    9000005    1    3    3    0    0 -0.54740944417E+02  0.13828710447E+03 -0.76491439882E+02  0.16724782400E+03  0.10000000000E+01 0.  0.
    9000005    1    3    3    0    0 -0.67479683987E+02  0.37094746223E+02 -0.14873143330E+03  0.16748602091E+03  0.10000000000E+01 0.  0.
<mgrwt>
<rscale>  0 0.24426259E+03</rscale>
<asrwt>0</asrwt>
<pdfrwt beam="1">  1        1 0.14131490E-01 0.24763159E+03</pdfrwt>
<pdfrwt beam="2">  1       -1 0.10004823E+00 0.24763159E+03</pdfrwt>
<totfact> 0.40711552E+02</totfact>
</mgrwt>
</event>
<event>
 8    2  0.7478846E-004  0.1631608E+03  0.7818608E-02  0.1192983E+00
          1   -1    0    0  501    0  0.00000000000E+00  0.00000000000E+00  0.24036036539E+03  0.24036036544E+03  0.50400000000E-02 0. -1.
         -1   -1    0    0    0  501 -0.00000000000E+00 -0.00000000000E+00 -0.11495698355E+03  0.11495698366E+03  0.50400000000E-02 0.  1.
         25    2    1    2    0    0  0.10458810345E+03 -0.76119697728E+01  0.14296110991E+03  0.21693160542E+03  0.12499931606E+03 0.  0.
         23    2    1    2    0    0 -0.10458810345E+03  0.76119697728E+01 -0.17557728067E+02  0.13838574368E+03  0.88576107222E+02 0.  0.
        -11    1    4    4    0    0 -0.77929446253E+02  0.35936232462E+02 -0.38672711262E+02  0.94127519852E+02  0.51100000000E-03 0.  1.
         11    1    4    4    0    0 -0.26658657198E+02 -0.28324262690E+02  0.21114983195E+02  0.44258223824E+02  0.51100000000E-03 0. -1.
    9000005    1    3    3    0    0  0.47666543519E+02 -0.65391950206E+02  0.58717828449E+02  0.99984948370E+02  0.10000000000E+01 0.  0.
    9000005    1    3    3    0    0  0.56921559932E+02  0.57779980433E+02  0.84243281459E+02  0.11694665705E+03  0.10000000000E+01 0.  0.
<mgrwt>
<rscale>  0 0.15626212E+03</rscale>
<asrwt>0</asrwt>
<pdfrwt beam="1">  1        1 0.36978518E-01 0.16316079E+03</pdfrwt>
<pdfrwt beam="2">  1       -1 0.17685690E-01 0.16316079E+03</pdfrwt>
<totfact> 0.27963966E+03</totfact>
</mgrwt>
</event>
<event>
 8    2  0.7478846E-004  0.1571834E+03  0.7818608E-02  0.1200167E+00
         -1   -1    0    0    0  501 -0.00000000000E+00  0.00000000000E+00  0.94355410580E+02  0.94355410714E+02  0.50400000000E-02 0.  1.
          1   -1    0    0  501    0  0.00000000000E+00 -0.00000000000E+00 -0.27224885933E+03  0.27224885938E+03  0.50400000000E-02 0. -1.
         25    2    1    2    0    0 -0.16657095552E+02  0.93833006491E+02 -0.15691831475E+02  0.15796472964E+03  0.12499812117E+03 0.  0.
         23    2    1    2    0    0  0.16657095552E+02 -0.93833006491E+02 -0.16220161728E+03  0.20863954045E+03  0.90216413432E+02 0.  0.
        -11    1    4    4    0    0  0.40503125467E+02 -0.84052937508E+02 -0.15656289772E+03  0.18225624932E+03  0.51100000000E-03 0. -1.
         11    1    4    4    0    0 -0.23846029916E+02 -0.97800689824E+01 -0.56387195612E+01  0.26383291125E+02  0.51100000000E-03 0.  1.
    9000005    1    3    3    0    0  0.37567580854E+01 -0.29518385839E+02  0.77216188568E+01  0.30758279074E+02  0.10000000000E+01 0.  0.
    9000005    1    3    3    0    0 -0.20413853637E+02  0.12335139233E+03 -0.23413450332E+02  0.12720645057E+03  0.10000000000E+01 0.  0.
<mgrwt>
<rscale>  0 0.15024935E+03</rscale>
<asrwt>0</asrwt>
<pdfrwt beam="2">  1        1 0.41884439E-01 0.15718340E+03</pdfrwt>
<pdfrwt beam="1">  1       -1 0.14516217E-01 0.15718340E+03</pdfrwt>
<totfact> 0.32685310E+03</totfact>
</mgrwt>
</event>
<event>
 8    2  0.7478846E-004  0.1623834E+03  0.7818608E-02  0.1193895E+00
         -1   -1    0    0    0  501 -0.00000000000E+00  0.00000000000E+00  0.24607880113E+02  0.24607880629E+02  0.50400000000E-02 0.  1.
          1   -1    0    0  501    0  0.00000000000E+00 -0.00000000000E+00 -0.92827333746E+03  0.92827333748E+03  0.50400000000E-02 0. -1.
         25    2    1    2    0    0  0.30366730847E+02 -0.99116135720E+02 -0.56118418307E+03  0.58420548746E+03  0.12498886966E+03 0.  0.
         23    2    1    2    0    0 -0.30366730847E+02  0.99116135720E+02 -0.34248127428E+03  0.36867573065E+03  0.88781892515E+02 0.  0.
        -11    1    4    4    0    0  0.83156563800E+01 -0.13252267399E+02 -0.64245396985E+02  0.66122944325E+02  0.51100000000E-03 0. -1.
         11    1    4    4    0    0 -0.38682387227E+02  0.11236840312E+03 -0.27823587729E+03  0.30255278633E+03  0.51100000000E-03 0.  1.
    9000005    1    3    3    0    0  0.57236900181E+02 -0.77764271215E+02 -0.20760684747E+03  0.22896494871E+03  0.10000000000E+01 0.  0.
    9000005    1    3    3    0    0 -0.26870169333E+02 -0.21351864505E+02 -0.35357733560E+03  0.35524053875E+03  0.10000000000E+01 0.  0.
<mgrwt>
<rscale>  0 0.15548126E+03</rscale>
<asrwt>0</asrwt>
<pdfrwt beam="2">  1        1 0.14281126E+00 0.16238339E+03</pdfrwt>
<pdfrwt beam="1">  1       -1 0.37858285E-02 0.16238339E+03</pdfrwt>
<totfact> 0.47586214E+03</totfact>
</mgrwt>
</event>
<event>
 8    2  0.7478846E-004  0.1529171E+03  0.7818608E-02  0.1205828E+00
         -1   -1    0    0    0  501 -0.00000000000E+00  0.00000000000E+00  0.30382979679E+02  0.30382980097E+02  0.50400000000E-02 0.  1.
          1   -1    0    0  501    0  0.00000000000E+00 -0.00000000000E+00 -0.81648115166E+03  0.81648115167E+03  0.50400000000E-02 0. -1.
         25    2    1    2    0    0  0.86522688049E+02  0.16515526652E+02 -0.22688092762E+03  0.27360301192E+03  0.12499885858E+03 0.  0.
         23    2    1    2    0    0 -0.86522688049E+02 -0.16515526652E+02 -0.55921724435E+03  0.57326111985E+03  0.90252130032E+02 0.  0.
        -11    1    4    4    0    0 -0.44666510570E+02 -0.15395583077E+02 -0.49065568439E+03  0.49292506709E+03  0.51100000000E-03 0. -1.
         11    1    4    4    0    0 -0.41856177480E+02 -0.11199435747E+01 -0.68561559969E+02  0.80336052756E+02  0.51100000000E-03 0.  1.
    9000005    1    3    3    0    0 -0.32028513529E+02 -0.10578987291E+01 -0.61562011076E+02  0.69410561418E+02  0.10000000000E+01 0.  0.
    9000005    1    3    3    0    0  0.11855120158E+03  0.17573425381E+02 -0.16531891655E+03  0.20419245051E+03  0.10000000000E+01 0.  0.
<mgrwt>
<rscale>  0 0.14572422E+03</rscale>
<asrwt>0</asrwt>
<pdfrwt beam="2">  1        1 0.12561247E+00 0.15291714E+03</pdfrwt>
<pdfrwt beam="1">  1       -1 0.46743052E-02 0.15291714E+03</pdfrwt>
<totfact> 0.42578898E+03</totfact>
</mgrwt>
</event>
<event>
 8    2  0.7478846E-004  0.1338181E+03  0.7818608E-02  0.1235203E+00
          1   -1    0    0  501    0  0.00000000000E+00  0.00000000000E+00  0.25420980863E+02  0.25420981363E+02  0.50400000000E-02 0. -1.
         -1   -1    0    0    0  501 -0.00000000000E+00 -0.00000000000E+00 -0.54580170916E+03  0.54580170919E+03  0.50400000000E-02 0.  1.
         25    2    1    2    0    0  0.70896523131E+01  0.47245511950E+02 -0.30619484459E+03  0.33415949591E+03  0.12499953712E+03 0.  0.
         23    2    1    2    0    0 -0.70896523131E+01 -0.47245511950E+02 -0.21418588371E+03  0.23706319464E+03  0.89671421903E+02 0.  0.
        -11    1    4    4    0    0 -0.18808599523E+02 -0.71794290869E+02 -0.16288406397E+03  0.17899553602E+03  0.51100000000E-03 0.  1.
         11    1    4    4    0    0  0.11718947210E+02  0.24548778919E+02 -0.51301819733E+02  0.58067658626E+02  0.51100000000E-03 0. -1.
    9000005    1    3    3    0    0  0.36263434860E+02 -0.28291679685E+02 -0.16599570120E+03  0.17225280451E+03  0.10000000000E+01 0.  0.
    9000005    1    3    3    0    0 -0.29173782547E+02  0.75537191635E+02 -0.14019914340E+03  0.16190669139E+03  0.10000000000E+01 0.  0.
<mgrwt>
<rscale>  0 0.12491478E+03</rscale>
<asrwt>0</asrwt>
<pdfrwt beam="1">  1        1 0.39109206E-02 0.13381811E+03</pdfrwt>
<pdfrwt beam="2">  1       -1 0.83969485E-01 0.13381811E+03</pdfrwt>
<totfact> 0.33234466E+03</totfact>
</mgrwt>
</event>
<event>
 8    2  0.7478846E-004  0.1254594E+03  0.7818608E-02  0.1252250E+00
         -1   -1    0    0    0  501 -0.00000000000E+00  0.00000000000E+00  0.11974378245E+02  0.11974379306E+02  0.50400000000E-02 0.  1.
          1   -1    0    0  501    0  0.00000000000E+00 -0.00000000000E+00 -0.10466156538E+04  0.10466156538E+04  0.50400000000E-02 0. -1.
         25    2    1    2    0    0  0.13972980854E+01 -0.10616613118E+02 -0.76270803246E+03  0.77295770068E+03  0.12500159733E+03 0.  0.
         23    2    1    2    0    0 -0.13972980854E+01  0.10616613118E+02 -0.27193324308E+03  0.28563233243E+03  0.86737971625E+02 0.  0.
        -11    1    4    4    0    0 -0.32181463863E+00 -0.38316533635E+02 -0.12729424992E+03  0.13293639975E+03  0.51100000000E-03 0.  1.
         11    1    4    4    0    0 -0.10754834468E+01  0.48933146753E+02 -0.14463899316E+03  0.15269593269E+03  0.51100000000E-03 0. -1.
    9000005    1    3    3    0    0 -0.45453292941E+02  0.36747836044E+02 -0.38628012507E+03  0.39067856394E+03  0.10000000000E+01 0.  0.
    9000005    1    3    3    0    0  0.46850591027E+02 -0.47364449162E+02 -0.37642790739E+03  0.38227913674E+03  0.10000000000E+01 0.  0.
<mgrwt>
<rscale>  0 0.11461749E+03</rscale>
<asrwt>0</asrwt>
<pdfrwt beam="2">  1        1 0.16101772E+00 0.12545941E+03</pdfrwt>
<pdfrwt beam="1">  1       -1 0.18422129E-02 0.12545941E+03</pdfrwt>
<totfact> 0.10952236E+04</totfact>
</mgrwt>
</event>
<event>
 8    2  0.7478846E-004  0.1471619E+03  0.7818608E-02  0.1213397E+00
         -1   -1    0    0    0  501 -0.00000000000E+00  0.00000000000E+00  0.68566023271E+02  0.68566023457E+02  0.50400000000E-02 0.  1.
          1   -1    0    0  501    0  0.00000000000E+00 -0.00000000000E+00 -0.27379456083E+03  0.27379456088E+03  0.50400000000E-02 0. -1.
         25    2    1    2    0    0  0.76585497920E+02  0.13084425615E+02 -0.75516056388E+02  0.16540643375E+03  0.12498028992E+03 0.  0.
         23    2    1    2    0    0 -0.76585497920E+02 -0.13084425615E+02 -0.12971248117E+03  0.17695415059E+03  0.91928792837E+02 0.  0.
        -11    1    4    4    0    0  0.75351076074E+01 -0.32009678045E+02 -0.24987180247E+02  0.41300805224E+02  0.51100000000E-03 0.  1.
         11    1    4    4    0    0 -0.84120605527E+02  0.18925252429E+02 -0.10472530092E+03  0.13565334536E+03  0.51100000000E-03 0. -1.
    9000005    1    3    3    0    0 -0.13909029636E+02 -0.97908979186E+01  0.23694645565E+02  0.29184910757E+02  0.10000000000E+01 0.  0.
    9000005    1    3    3    0    0  0.90494527555E+02  0.22875323534E+02 -0.99210701953E+02  0.13622152299E+03  0.10000000000E+01 0.  0.
<mgrwt>
<rscale>  0 0.13994920E+03</rscale>
<asrwt>0</asrwt>
<pdfrwt beam="2">  1        1 0.42122240E-01 0.14716186E+03</pdfrwt>
<pdfrwt beam="1">  1       -1 0.10548619E-01 0.14716186E+03</pdfrwt>
<totfact> 0.53070347E+03</totfact>
</mgrwt>
</event>
<event>
 8    2  0.7478846E-004  0.1730049E+03  0.7818608E-02  0.1181427E+00
          1   -1    0    0  501    0  0.00000000000E+00  0.00000000000E+00  0.15182863730E+04  0.15182863730E+04  0.50400000000E-02 0. -1.
         -1   -1    0    0    0  501 -0.00000000000E+00 -0.00000000000E+00 -0.21480447777E+02  0.21480448369E+02  0.50400000000E-02 0.  1.
         25    2    1    2    0    0 -0.71866461005E+02  0.95604699601E+02  0.44435123337E+03  0.47684245009E+03  0.12500262718E+03 0.  0.
         23    2    1    2    0    0  0.71866461005E+02 -0.95604699601E+02  0.10524546919E+04  0.10629243713E+04  0.88556726916E+02 0.  0.
        -11    1    4    4    0    0  0.69328873255E+02 -0.54979061934E+02  0.42301867699E+03  0.43217356583E+03  0.51100000000E-03 0.  1.
         11    1    4    4    0    0  0.25375877496E+01 -0.40625637667E+02  0.62943601490E+03  0.63075080550E+03  0.51100000000E-03 0. -1.
    9000005    1    3    3    0    0  0.14930819216E+02  0.52167798386E+02  0.28604578110E+03  0.29114875482E+03  0.10000000000E+01 0.  0.
    9000005    1    3    3    0    0 -0.86797280221E+02  0.43436901215E+02  0.15830545227E+03  0.18569369526E+03  0.10000000000E+01 0.  0.
<mgrwt>
<rscale>  0 0.16661306E+03</rscale>
<asrwt>0</asrwt>
<pdfrwt beam="1">  1        1 0.23358262E+00 0.17300492E+03</pdfrwt>
<pdfrwt beam="2">  1       -1 0.33046828E-02 0.17300492E+03</pdfrwt>
<totfact> 0.22713285E+03</totfact>
</mgrwt>
</event>
<event>
 8    2  0.7478846E-004  0.1856273E+03  0.7818608E-02  0.1167411E+00
          1   -1    0    0  501    0  0.00000000000E+00  0.00000000000E+00  0.27685172256E+03  0.27685172260E+03  0.50400000000E-02 0. -1.
         -1   -1    0    0    0  501 -0.00000000000E+00 -0.00000000000E+00 -0.11734356528E+03  0.11734356539E+03  0.50400000000E-02 0.  1.
         25    2    1    2    0    0 -0.13434655970E+03 -0.27986462375E+02  0.12835929138E+03  0.22568474772E+03  0.12500102995E+03 0.  0.
         23    2    1    2    0    0  0.13434655970E+03  0.27986462375E+02  0.31148865902E+02  0.16851054028E+03  0.92700108726E+02 0.  0.
        -11    1    4    4    0    0  0.11358793168E+02 -0.20337143285E+02  0.27878354151E+02  0.36329384934E+02  0.51100000000E-03 0. -1.
         11    1    4    4    0    0  0.12298776653E+03  0.48323605660E+02  0.32705117510E+01  0.13218115534E+03  0.51100000000E-03 0.  1.
    9000005    1    3    3    0    0 -0.53140996468E+02 -0.43621688599E+02 -0.48067991254E+01  0.68926936242E+02  0.10000000000E+01 0.  0.
    9000005    1    3    3    0    0 -0.81205563231E+02  0.15635226224E+02  0.13316609050E+03  0.15675781147E+03  0.10000000000E+01 0.  0.
<mgrwt>
<rscale>  0 0.18040593E+03</rscale>
<asrwt>0</asrwt>
<pdfrwt beam="1">  1        1 0.42592573E-01 0.18562731E+03</pdfrwt>
<pdfrwt beam="2">  1       -1 0.18052856E-01 0.18562731E+03</pdfrwt>
<totfact> 0.22798423E+03</totfact>
</mgrwt>
</event>
<event>
 8    2  0.7478846E-004  0.1552614E+03  0.7818608E-02  0.1204648E+00
          1   -1    0    0  501    0  0.00000000000E+00  0.00000000000E+00  0.97835412824E+03  0.97835412826E+03  0.50400000000E-02 0. -1.
         -1   -1    0    0    0  501 -0.00000000000E+00 -0.00000000000E+00 -0.20646718600E+02  0.20646719215E+02  0.50400000000E-02 0.  1.
         25    2    1    2    0    0  0.90355743291E+02  0.17821207482E+02  0.43485384546E+03  0.46174016094E+03  0.12499741411E+03 0.  0.
         23    2    1    2    0    0 -0.90355743291E+02 -0.17821207482E+02  0.52285356419E+03  0.53726068653E+03  0.82410193119E+02 0.  0.
        -11    1    4    4    0    0 -0.14558698157E+02  0.52646011320E+00  0.81708299272E+01  0.16703152823E+02  0.51100000000E-03 0.  1.
         11    1    4    4    0    0 -0.75797045134E+02 -0.18347667595E+02  0.51468273426E+03  0.52055753371E+03  0.51100000000E-03 0. -1.
    9000005    1    3    3    0    0 -0.30806051762E+02  0.77831476033E+01  0.12251836407E+03  0.12657543105E+03  0.10000000000E+01 0.  0.
    9000005    1    3    3    0    0  0.12116179505E+03  0.10038059879E+02  0.31233548139E+03  0.33516472989E+03  0.10000000000E+01 0.  0.
<mgrwt>
<rscale>  0 0.14665231E+03</rscale>
<asrwt>0</asrwt>
<pdfrwt beam="1">  1        1 0.15051599E+00 0.15526142E+03</pdfrwt>
<pdfrwt beam="2">  1       -1 0.31764190E-02 0.15526142E+03</pdfrwt>
<totfact> 0.56356486E+03</totfact>
</mgrwt>
</event>
<event>
 8    2  0.7478846E-004  0.1343431E+03  0.7818608E-02  0.1233194E+00
          1   -1    0    0  501    0  0.00000000000E+00  0.00000000000E+00  0.21390439410E+03  0.21390439416E+03  0.50400000000E-02 0. -1.
         -1   -1    0    0    0  501 -0.00000000000E+00 -0.00000000000E+00 -0.95384832995E+02  0.95384833128E+02  0.50400000000E-02 0.  1.
         25    2    1    2    0    0 -0.30746387203E+02 -0.38475523326E+02 -0.19857206009E+02  0.13580274525E+03  0.12498948263E+03 0.  0.
         23    2    1    2    0    0  0.30746387203E+02  0.38475523326E+02  0.13837676712E+03  0.17348648204E+03  0.92324013941E+02 0.  0.
        -11    1    4    4    0    0  0.22407907850E+01  0.12438599029E+02 -0.12483544709E+02  0.17764537087E+02  0.51100000000E-03 0.  1.
         11    1    4    4    0    0  0.28505596418E+02  0.26036924297E+02  0.15086031183E+03  0.15572194495E+03  0.51100000000E-03 0. -1.
    9000005    1    3    3    0    0 -0.32824494969E+02  0.20159654212E+02 -0.55186094207E+02  0.67307979629E+02  0.10000000000E+01 0.  0.
    9000005    1    3    3    0    0  0.20781077658E+01 -0.58635177538E+02  0.35328888198E+02  0.68494765625E+02  0.10000000000E+01 0.  0.
<mgrwt>
<rscale>  0 0.12620761E+03</rscale>
<asrwt>0</asrwt>
<pdfrwt beam="1">  1        1 0.32908368E-01 0.13434313E+03</pdfrwt>
<pdfrwt beam="2">  1       -1 0.14674590E-01 0.13434313E+03</pdfrwt>
<totfact> 0.42995909E+03</totfact>
</mgrwt>
</event>
<event>
 8    2  0.7478846E-004  0.1530782E+03  0.7818608E-02  0.1205641E+00
          1   -1    0    0  501    0  0.00000000000E+00  0.00000000000E+00  0.94409986599E+03  0.94409986600E+03  0.50400000000E-02 0. -1.
         -1   -1    0    0    0  501 -0.00000000000E+00 -0.00000000000E+00 -0.21336299547E+02  0.21336300142E+02  0.50400000000E-02 0.  1.
         25    2    1    2    0    0 -0.75293721894E+02  0.46248051267E+02  0.41857666868E+03  0.44568975413E+03  0.12499961030E+03 0.  0.
         23    2    1    2    0    0  0.75293721894E+02 -0.46248051267E+02  0.50418689777E+03  0.51974641202E+03  0.90132558606E+02 0.  0.
        -11    1    4    4    0    0  0.43931735571E+02  0.55009794541E+01  0.81495407867E+02  0.92745671968E+02  0.51100000000E-03 0.  1.
         11    1    4    4    0    0  0.31361986323E+02 -0.51749030721E+02  0.42269148990E+03  0.42700074005E+03  0.51100000000E-03 0. -1.
    9000005    1    3    3    0    0 -0.44303337864E+02  0.74505641875E+02  0.37620590426E+03  0.38606444904E+03  0.10000000000E+01 0.  0.
    9000005    1    3    3    0    0 -0.30990384030E+02 -0.28257590608E+02  0.42370764420E+02  0.59625305088E+02  0.10000000000E+01 0.  0.
<mgrwt>
<rscale>  0 0.14587082E+03</rscale>
<asrwt>0</asrwt>
<pdfrwt beam="1">  1        1 0.14524611E+00 0.15307818E+03</pdfrwt>
<pdfrwt beam="2">  1       -1 0.32825083E-02 0.15307818E+03</pdfrwt>
<totfact> 0.56943069E+03</totfact>
</mgrwt>
</event>
<event>
 8    2  0.7478846E-004  0.1384072E+03  0.7818608E-02  0.1227353E+00
          1   -1    0    0  501    0  0.00000000000E+00  0.00000000000E+00  0.10629030711E+03  0.10629030723E+03  0.50400000000E-02 0. -1.
         -1   -1    0    0    0  501 -0.00000000000E+00 -0.00000000000E+00 -0.15164060852E+03  0.15164060860E+03  0.50400000000E-02 0.  1.
         25    2    1    2    0    0 -0.28402341958E+02 -0.52210206674E+02 -0.56317200593E+02  0.14942613639E+03  0.12499577770E+03 0.  0.
         23    2    1    2    0    0  0.28402341958E+02  0.52210206674E+02  0.10966899182E+02  0.10850477944E+03  0.90113348481E+02 0.  0.
        -11    1    4    4    0    0  0.31463442954E+02 -0.84264215764E+00 -0.28381819574E+02  0.42381434272E+02  0.51100000000E-03 0.  1.
         11    1    4    4    0    0 -0.30611009957E+01  0.53052848831E+02  0.39348718757E+02  0.66123345170E+02  0.51100000000E-03 0. -1.
    9000005    1    3    3    0    0 -0.30178167389E+02 -0.24740634872E+01 -0.86198931690E+02  0.91367929831E+02  0.10000000000E+01 0.  0.
    9000005    1    3    3    0    0  0.17758254304E+01 -0.49736143186E+02  0.29881731097E+02  0.58058206555E+02  0.10000000000E+01 0.  0.
<mgrwt>
<rscale>  0 0.13006897E+03</rscale>
<asrwt>0</asrwt>
<pdfrwt beam="1">  1        1 0.16352355E-01 0.13840716E+03</pdfrwt>
<pdfrwt beam="2">  1       -1 0.23329324E-01 0.13840716E+03</pdfrwt>
<totfact> 0.49669002E+03</totfact>
</mgrwt>
</event>
<event>
 8    2  0.7478846E-004  0.1258477E+03  0.7818608E-02  0.1251853E+00
         -1   -1    0    0    0  501 -0.00000000000E+00  0.00000000000E+00  0.68095000963E+01  0.68095019615E+01  0.50400000000E-02 0.  1.
          1   -1    0    0  501    0  0.00000000000E+00 -0.00000000000E+00 -0.17180140533E+04  0.17180140534E+04  0.50400000000E-02 0. -1.
         25    2    1    2    0    0 -0.97160158023E+01 -0.10818274530E+02 -0.11512300946E+04  0.11580882465E+04  0.12500487942E+03 0.  0.
         23    2    1    2    0    0  0.97160158023E+01  0.10818274530E+02 -0.55997445862E+03  0.56673530881E+03  0.86058584238E+02 0.  0.
        -11    1    4    4    0    0  0.42428343183E+02  0.22081696258E+02 -0.41215569161E+03  0.41492177545E+03  0.51100000000E-03 0. -1.
         11    1    4    4    0    0 -0.32712327381E+02 -0.11263421728E+02 -0.14781876701E+03  0.15181353336E+03  0.51100000000E-03 0.  1.
    9000005    1    3    3    0    0 -0.45295598555E+02 -0.33986345261E+02 -0.98124190621E+03  0.98287508943E+03  0.10000000000E+01 0.  0.
    9000005    1    3    3    0    0  0.35579582752E+02  0.23168070731E+02 -0.16998818842E+03  0.17521315707E+03  0.10000000000E+01 0.  0.
<mgrwt>
<rscale>  0 0.11484465E+03</rscale>
<asrwt>0</asrwt>
<pdfrwt beam="2">  1        1 0.26430951E+00 0.12584775E+03</pdfrwt>
<pdfrwt beam="1">  1       -1 0.10476169E-02 0.12584775E+03</pdfrwt>
<totfact> 0.88125693E+03</totfact>
</mgrwt>
</event>
<event>
 8    2  0.7478846E-004  0.1258376E+03  0.7818608E-02  0.1248716E+00
         -1   -1    0    0    0  501 -0.00000000000E+00  0.00000000000E+00  0.34538935068E+02  0.34538935436E+02  0.50400000000E-02 0.  1.
          1   -1    0    0  501    0  0.00000000000E+00 -0.00000000000E+00 -0.36648329081E+03  0.36648329085E+03  0.50400000000E-02 0. -1.
         25    2    1    2    0    0  0.37776531245E+01  0.13857898311E+02 -0.14319225201E+03  0.19062824004E+03  0.12501517050E+03 0.  0.
         23    2    1    2    0    0 -0.37776531245E+01 -0.13857898311E+02 -0.18875210374E+03  0.21039398625E+03  0.91825708683E+02 0.  0.
        -11    1    4    4    0    0  0.31853400464E+02 -0.37926133684E+02 -0.91060113214E+02  0.10365797102E+03  0.51100000000E-03 0. -1.
         11    1    4    4    0    0 -0.35631053588E+02  0.24068235373E+02 -0.97691990525E+02  0.10673601523E+03  0.51100000000E-03 0.  1.
    9000005    1    3    3    0    0 -0.57379142689E+02 -0.91850864883E+01 -0.49218272681E+02  0.76158848437E+02  0.10000000000E+01 0.  0.
    9000005    1    3    3    0    0  0.61156795814E+02  0.23042984800E+02 -0.93973979326E+02  0.11446939160E+03  0.10000000000E+01 0.  0.
<mgrwt>
<rscale>  0 0.11665711E+03</rscale>
<asrwt>0</asrwt>
<pdfrwt beam="2">  1        1 0.56382042E-01 0.12583761E+03</pdfrwt>
<pdfrwt beam="1">  1       -1 0.53136826E-02 0.12583761E+03</pdfrwt>
<totfact> 0.10262293E+04</totfact>
</mgrwt>
</event>
<event>
 8    2  0.7478846E-004  0.1564776E+03  0.7818608E-02  0.1200938E+00
         -1   -1    0    0    0  501 -0.00000000000E+00  0.00000000000E+00  0.19557774900E+02  0.19557775549E+02  0.50400000000E-02 0.  1.
          1   -1    0    0  501    0  0.00000000000E+00 -0.00000000000E+00 -0.10592988999E+04  0.10592988999E+04  0.50400000000E-02 0. -1.
         25    2    1    2    0    0  0.81443193823E+02  0.47195531208E+02 -0.53179548524E+03  0.55433894386E+03  0.12499925829E+03 0.  0.
         23    2    1    2    0    0 -0.81443193823E+02 -0.47195531208E+02 -0.50794563979E+03  0.52451773163E+03  0.90827671037E+02 0.  0.
        -11    1    4    4    0    0 -0.45458667049E+02 -0.17333702889E+02 -0.43603241224E+03  0.43873820461E+03  0.51100000000E-03 0. -1.
         11    1    4    4    0    0 -0.35984526774E+02 -0.29861828319E+02 -0.71913227548E+02  0.85779527012E+02  0.51100000000E-03 0.  1.
    9000005    1    3    3    0    0 -0.29980232589E+02 -0.94867234510E+01 -0.10709389716E+03  0.11161951028E+03  0.10000000000E+01 0.  0.
    9000005    1    3    3    0    0  0.11142342641E+03  0.56682254659E+02 -0.42470158808E+03  0.44271943357E+03  0.10000000000E+01 0.  0.
<mgrwt>
<rscale>  0 0.14962203E+03</rscale>
<asrwt>0</asrwt>
<pdfrwt beam="2">  1        1 0.16296902E+00 0.15647756E+03</pdfrwt>
<pdfrwt beam="1">  1       -1 0.30088893E-02 0.15647756E+03</pdfrwt>
<totfact> 0.53257855E+03</totfact>
</mgrwt>
</event>
<event>
 8    2  0.7478846E-004  0.1513640E+03  0.7818608E-02  0.1207782E+00
         -1   -1    0    0    0  501 -0.00000000000E+00  0.00000000000E+00  0.99880191434E+02  0.99880191561E+02  0.50400000000E-02 0.  1.
          1   -1    0    0  501    0  0.00000000000E+00 -0.00000000000E+00 -0.19492471171E+03  0.19492471177E+03  0.50400000000E-02 0. -1.
         25    2    1    2    0    0  0.84833868585E+02 -0.94456273909E+01 -0.73503107868E+02  0.16826697861E+03  0.12500025636E+03 0.  0.
         23    2    1    2    0    0 -0.84833868585E+02  0.94456273909E+01 -0.21541412405E+02  0.12653792472E+03  0.90894492729E+02 0.  0.
        -11    1    4    4    0    0 -0.17696769653E+02  0.37872336009E+01  0.34462941550E+02  0.38925738722E+02  0.51100000000E-03 0.  1.
         11    1    4    4    0    0 -0.67137098933E+02  0.56583937900E+01 -0.56004353955E+02  0.87612185999E+02  0.51100000000E-03 0. -1.
    9000005    1    3    3    0    0 -0.58074682684E+01 -0.94661442501E+01  0.29215312206E+02  0.31270897683E+02  0.10000000000E+01 0.  0.
    9000005    1    3    3    0    0  0.90641336853E+02  0.20516859225E-01 -0.10271842007E+03  0.13699608093E+03  0.10000000000E+01 0.  0.
<mgrwt>
<rscale>  0 0.14420346E+03</rscale>
<asrwt>0</asrwt>
<pdfrwt beam="2">  1        1 0.29988417E-01 0.15136403E+03</pdfrwt>
<pdfrwt beam="1">  1       -1 0.15366183E-01 0.15136403E+03</pdfrwt>
<totfact> 0.45195676E+03</totfact>
</mgrwt>
</event>
<event>
 8    2  0.7478846E-004  0.1545676E+03  0.7818608E-02  0.1203300E+00
         -1   -1    0    0    0  501 -0.00000000000E+00  0.00000000000E+00  0.41638707528E+02  0.41638707833E+02  0.50400000000E-02 0.  1.
          1   -1    0    0  501    0  0.00000000000E+00 -0.00000000000E+00 -0.54688357883E+03  0.54688357885E+03  0.50400000000E-02 0. -1.
         25    2    1    2    0    0  0.75781291708E+02 -0.50232700154E+02 -0.37326833332E+03  0.40400544626E+03  0.12500009446E+03 0.  0.
         23    2    1    2    0    0 -0.75781291708E+02  0.50232700154E+02 -0.13197653798E+03  0.18451684042E+03  0.91446866997E+02 0.  0.
        -11    1    4    4    0    0 -0.71260250837E+02  0.30690650481E+01 -0.41855815515E+02  0.82700373653E+02  0.51100000000E-03 0.  1.
         11    1    4    4    0    0 -0.45210408711E+01  0.47163635106E+02 -0.90120722466E+02  0.10181646677E+03  0.51100000000E-03 0. -1.
    9000005    1    3    3    0    0  0.92091666298E+02 -0.94218092833E+01 -0.14861701261E+03  0.17509329493E+03  0.10000000000E+01 0.  0.
    9000005    1    3    3    0    0 -0.16310374590E+02 -0.40810890871E+02 -0.22465132070E+03  0.22891215133E+03  0.10000000000E+01 0.  0.
<mgrwt>
<rscale>  0 0.14772230E+03</rscale>
<asrwt>0</asrwt>
<pdfrwt beam="2">  1        1 0.84135930E-01 0.15456763E+03</pdfrwt>
<pdfrwt beam="1">  1       -1 0.64059554E-02 0.15456763E+03</pdfrwt>
<totfact> 0.47054581E+03</totfact>
</mgrwt>
</event>
<event>
 8    2  0.7478846E-004  0.1662326E+03  0.7818608E-02  0.1189083E+00
         -1   -1    0    0    0  501 -0.00000000000E+00  0.00000000000E+00  0.27449816183E+03  0.27449816187E+03  0.50400000000E-02 0.  1.
          1   -1    0    0  501    0  0.00000000000E+00 -0.00000000000E+00 -0.86225835465E+02  0.86225835612E+02  0.50400000000E-02 0. -1.
         25    2    1    2    0    0  0.11574562194E+02  0.10897416985E+03  0.10286151843E+03  0.19548344806E+03  0.12499578516E+03 0.  0.
         23    2    1    2    0    0 -0.11574562194E+02 -0.10897416985E+03  0.85410807929E+02  0.16524054942E+03  0.89443238310E+02 0.  0.
        -11    1    4    4    0    0 -0.34546777376E+02 -0.57683456622E+02  0.85840454333E+02  0.10903872979E+03  0.51100000000E-03 0.  1.
         11    1    4    4    0    0  0.22972215182E+02 -0.51290713223E+02 -0.42964640436E+00  0.56201819629E+02  0.51100000000E-03 0. -1.
    9000005    1    3    3    0    0  0.14294938699E+01  0.83962161147E+02  0.13155650873E+03  0.15607627285E+03  0.10000000000E+01 0.  0.
    9000005    1    3    3    0    0  0.10145068324E+02  0.25012008698E+02 -0.28694990294E+02  0.39407175215E+02  0.10000000000E+01 0.  0.
<mgrwt>
<rscale>  0 0.15965832E+03</rscale>
<asrwt>0</asrwt>
<pdfrwt beam="2">  1        1 0.13265513E-01 0.16623263E+03</pdfrwt>
<pdfrwt beam="1">  1       -1 0.42230486E-01 0.16623263E+03</pdfrwt>
<totfact> 0.24032077E+03</totfact>
</mgrwt>
</event>
<event>
 8    2  0.7478846E-004  0.2963667E+03  0.7818608E-02  0.1088741E+00
         -1   -1    0    0    0  501 -0.00000000000E+00  0.00000000000E+00  0.64018489468E+02  0.64018489667E+02  0.50400000000E-02 0.  1.
          1   -1    0    0  501    0  0.00000000000E+00 -0.00000000000E+00 -0.13253960783E+04  0.13253960783E+04  0.50400000000E-02 0. -1.
         25    2    1    2    0    0 -0.25520626167E+03  0.84126162454E+02 -0.57784394213E+03  0.64941270607E+03  0.12500317649E+03 0.  0.
         23    2    1    2    0    0  0.25520626167E+03 -0.84126162454E+02 -0.68353364667E+03  0.74000186188E+03  0.90427110171E+02 0.  0.
        -11    1    4    4    0    0  0.13548033276E+03 -0.20861401879E+02 -0.44589811580E+03  0.46649249547E+03  0.51100000000E-03 0. -1.
         11    1    4    4    0    0  0.11972592892E+03 -0.63264760575E+02 -0.23763553087E+03  0.27350936642E+03  0.51100000000E-03 0.  1.
    9000005    1    3    3    0    0  0.51951905508E+01  0.23011432125E+02 -0.90074759317E+02  0.93118087820E+02  0.10000000000E+01 0.  0.
    9000005    1    3    3    0    0 -0.26040145222E+03  0.61114730329E+02 -0.48776918282E+03  0.55629461824E+03  0.10000000000E+01 0.  0.
<mgrwt>
<rscale>  0 0.29310190E+03</rscale>
<asrwt>0</asrwt>
<pdfrwt beam="2">  1        1 0.20390707E+00 0.29636673E+03</pdfrwt>
<pdfrwt beam="1">  1       -1 0.98489994E-02 0.29636673E+03</pdfrwt>
<totfact> 0.58527181E+02</totfact>
</mgrwt>
</event>
<event>
 8    2  0.7478846E-004  0.1402543E+03  0.7818608E-02  0.1222969E+00
          1   -1    0    0  501    0  0.00000000000E+00  0.00000000000E+00  0.33021495635E+03  0.33021495638E+03  0.50400000000E-02 0. -1.
         -1   -1    0    0    0  501 -0.00000000000E+00 -0.00000000000E+00 -0.67843377867E+02  0.67843378054E+02  0.50400000000E-02 0.  1.
         25    2    1    2    0    0  0.52838036460E+02  0.35417200348E+02  0.36066949595E+02  0.14481742118E+03  0.12500009779E+03 0.  0.
         23    2    1    2    0    0 -0.52838036460E+02 -0.35417200348E+02  0.22630462888E+03  0.25324091326E+03  0.94185661950E+02 0.  0.
        -11    1    4    4    0    0  0.41202912970E+01 -0.38148207230E+02  0.16546349476E+03  0.16985414512E+03  0.51100000000E-03 0. -1.
         11    1    4    4    0    0 -0.56958327757E+02  0.27310068818E+01  0.60841134124E+02  0.83386768143E+02  0.51100000000E-03 0.  1.
    9000005    1    3    3    0    0  0.91699950512E+02  0.28717477304E+02  0.80512244242E+01  0.96433379290E+02  0.10000000000E+01 0.  0.
    9000005    1    3    3    0    0 -0.38861914052E+02  0.66997230443E+01  0.28015725171E+02  0.48384041889E+02  0.10000000000E+01 0.  0.
<mgrwt>
<rscale>  0 0.13307088E+03</rscale>
<asrwt>0</asrwt>
<pdfrwt beam="1">  1        1 0.50802301E-01 0.14025427E+03</pdfrwt>
<pdfrwt beam="2">  1       -1 0.10437443E-01 0.14025427E+03</pdfrwt>
<totfact> 0.42639839E+03</totfact>
</mgrwt>
</event>
<event>
 8    2  0.7478846E-004  0.1340993E+03  0.7818608E-02  0.1233940E+00
         -1   -1    0    0    0  501 -0.00000000000E+00  0.00000000000E+00  0.10709236013E+02  0.10709237199E+02  0.50400000000E-02 0.  1.
          1   -1    0    0  501    0  0.00000000000E+00 -0.00000000000E+00 -0.13616114185E+04  0.13616114185E+04  0.50400000000E-02 0. -1.
         25    2    1    2    0    0  0.17964032486E+02  0.45109666289E+02 -0.63912361955E+03  0.65304029353E+03  0.12500014179E+03 0.  0.
         23    2    1    2    0    0 -0.17964032486E+02 -0.45109666289E+02 -0.71177856294E+03  0.71928036218E+03  0.91531023739E+02 0.  0.
        -11    1    4    4    0    0  0.21034219727E+02  0.16785129202E+02 -0.28594985411E+03  0.28721333191E+03  0.51100000000E-03 0. -1.
         11    1    4    4    0    0 -0.38998252213E+02 -0.61894795491E+02 -0.42582870883E+03  0.43206703028E+03  0.51100000000E-03 0.  1.
    9000005    1    3    3    0    0  0.52846971598E+01  0.77287794519E+01  0.28621135133E+01  0.98414302645E+01  0.10000000000E+01 0.  0.
    9000005    1    3    3    0    0  0.12679335326E+02  0.37380886837E+02 -0.64198573306E+03  0.64319886326E+03  0.10000000000E+01 0.  0.
<mgrwt>
<rscale>  0 0.12572533E+03</rscale>
<asrwt>0</asrwt>
<pdfrwt beam="2">  1        1 0.20947854E+00 0.13409931E+03</pdfrwt>
<pdfrwt beam="1">  1       -1 0.16475759E-02 0.13409931E+03</pdfrwt>
<totfact> 0.78564368E+03</totfact>
</mgrwt>
</event>
<event>
 8    2  0.7478846E-004  0.1391204E+03  0.7818608E-02  0.1225263E+00
         -1   -1    0    0    0  501 -0.00000000000E+00  0.00000000000E+00  0.91139189865E+02  0.91139190005E+02  0.50400000000E-02 0.  1.
          1   -1    0    0  501    0  0.00000000000E+00 -0.00000000000E+00 -0.17743805510E+03  0.17743805517E+03  0.50400000000E-02 0. -1.
         25    2    1    2    0    0  0.15130727166E+02  0.59172991459E+02 -0.23684535271E+02  0.14112208207E+03  0.12499641201E+03 0.  0.
         23    2    1    2    0    0 -0.15130727166E+02 -0.59172991459E+02 -0.62614329960E+02  0.12745516310E+03  0.92703195533E+02 0.  0.
        -11    1    4    4    0    0 -0.47952123908E+02 -0.61023754337E+01 -0.31806885009E+02  0.57864696556E+02  0.51100000000E-03 0.  1.
         11    1    4    4    0    0  0.32821396742E+02 -0.53070616025E+02 -0.30807444951E+02  0.69590466546E+02  0.51100000000E-03 0. -1.
    9000005    1    3    3    0    0  0.18055493397E+02  0.88630328287E+02 -0.48359269876E+02  0.10257170622E+03  0.10000000000E+01 0.  0.
    9000005    1    3    3    0    0 -0.29247662315E+01 -0.29457336828E+02  0.24674734604E+02  0.38550375851E+02  0.10000000000E+01 0.  0.
<mgrwt>
<rscale>  0 0.13148864E+03</rscale>
<asrwt>0</asrwt>
<pdfrwt beam="2">  1        1 0.27298162E-01 0.13912040E+03</pdfrwt>
<pdfrwt beam="1">  1       -1 0.14021414E-01 0.13912040E+03</pdfrwt>
<totfact> 0.58373413E+03</totfact>
</mgrwt>
</event>
<event>
 8    2  0.7478846E-004  0.2748630E+03  0.7818608E-02  0.1100824E+00
         -1   -1    0    0    0  501 -0.00000000000E+00  0.00000000000E+00  0.74449773279E+02  0.74449773449E+02  0.50400000000E-02 0.  1.
          1   -1    0    0  501    0  0.00000000000E+00 -0.00000000000E+00 -0.97031533315E+03  0.97031533317E+03  0.50400000000E-02 0. -1.
         25    2    1    2    0    0 -0.20519206541E+03  0.13349320216E+03 -0.39971907629E+03  0.48510311243E+03  0.12500188403E+03 0.  0.
         23    2    1    2    0    0  0.20519206541E+03 -0.13349320216E+03 -0.49614648358E+03  0.55966199418E+03  0.84474823643E+02 0.  0.
        -11    1    4    4    0    0  0.14358746590E+03 -0.91533279445E+02 -0.25003862568E+03  0.30251448881E+03  0.51100000000E-03 0.  1.
         11    1    4    4    0    0  0.61604599509E+02 -0.41959922713E+02 -0.24610785790E+03  0.25714750537E+03  0.51100000000E-03 0. -1.
    9000005    1    3    3    0    0 -0.22050250899E+03  0.11761921244E+03 -0.34422801304E+03  0.42538166458E+03  0.10000000000E+01 0.  0.
    9000005    1    3    3    0    0  0.15310443575E+02  0.15873989719E+02 -0.55491063255E+02  0.59721447850E+02  0.10000000000E+01 0.  0.
<mgrwt>
<rscale>  0 0.27079795E+03</rscale>
<asrwt>0</asrwt>
<pdfrwt beam="2">  1        1 0.14927927E+00 0.27486304E+03</pdfrwt>
<pdfrwt beam="1">  1       -1 0.11453812E-01 0.27486304E+03</pdfrwt>
<totfact> 0.83193844E+02</totfact>
</mgrwt>
</event>
<event>
 8    2  0.7478846E-004  0.1491107E+03  0.7818608E-02  0.1210741E+00
          1   -1    0    0  501    0  0.00000000000E+00  0.00000000000E+00  0.41365722116E+03  0.41365722119E+03  0.50400000000E-02 0. -1.
         -1   -1    0    0    0  501 -0.00000000000E+00 -0.00000000000E+00 -0.84117854440E+02  0.84117854591E+02  0.50400000000E-02 0.  1.
         25    2    1    2    0    0  0.56334510754E+02  0.58615014297E+02  0.34357607648E+03  0.37453775035E+03  0.12499883643E+03 0.  0.
         23    2    1    2    0    0 -0.56334510754E+02 -0.58615014297E+02 -0.14036709760E+02  0.12323732543E+03  0.91548414267E+02 0.  0.
        -11    1    4    4    0    0 -0.64732547059E+02 -0.56027465232E+02  0.20140083156E+02  0.87948862749E+02  0.51100000000E-03 0. -1.
         11    1    4    4    0    0  0.83980363049E+01 -0.25875490653E+01 -0.34176792916E+02  0.35288462679E+02  0.51100000000E-03 0.  1.
    9000005    1    3    3    0    0  0.37599697956E+02  0.35350454574E+02  0.30329786093E+02  0.59868922234E+02  0.10000000000E+01 0.  0.
    9000005    1    3    3    0    0  0.18734812798E+02  0.23264559723E+02  0.31324629039E+03  0.31466882812E+03  0.10000000000E+01 0.  0.
<mgrwt>
<rscale>  0 0.14194115E+03</rscale>
<asrwt>0</asrwt>
<pdfrwt beam="1">  1        1 0.63639571E-01 0.14911072E+03</pdfrwt>
<pdfrwt beam="2">  1       -1 0.12941209E-01 0.14911072E+03</pdfrwt>
<totfact> 0.23124852E+03</totfact>
</mgrwt>
</event>
<event>
 8    2  0.7478846E-004  0.1749224E+03  0.7818608E-02  0.1178854E+00
         -1   -1    0    0    0  501 -0.00000000000E+00  0.00000000000E+00  0.77923174163E+02  0.77923174325E+02  0.50400000000E-02 0.  1.
          1   -1    0    0  501    0  0.00000000000E+00 -0.00000000000E+00 -0.75184518196E+03  0.75184518198E+03  0.50400000000E-02 0. -1.
         25    2    1    2    0    0  0.96469892761E+01 -0.12197928421E+03 -0.65272022695E+03  0.67575257219E+03  0.12500333583E+03 0.  0.
         23    2    1    2    0    0 -0.96469892761E+01  0.12197928421E+03 -0.21201780844E+02  0.15401578411E+03  0.91100691900E+02 0.  0.
        -11    1    4    4    0    0 -0.10220663676E+02  0.21271838680E+02 -0.44748752950E+02  0.50590552256E+02  0.51100000000E-03 0. -1.
         11    1    4    4    0    0  0.57367440018E+00  0.10070744553E+03  0.23546972106E+02  0.10342523185E+03  0.51100000000E-03 0.  1.
    9000005    1    3    3    0    0 -0.21756434354E+02  0.18007839686E+02 -0.66978633745E+02  0.72696369265E+02  0.10000000000E+01 0.  0.
    9000005    1    3    3    0    0  0.31403423630E+02 -0.13998712390E+03 -0.58574159321E+03  0.60305620293E+03  0.10000000000E+01 0.  0.
<mgrwt>
<rscale>  0 0.16903894E+03</rscale>
<asrwt>0</asrwt>
<pdfrwt beam="2">  1        1 0.11566848E+00 0.17492239E+03</pdfrwt>
<pdfrwt beam="1">  1       -1 0.11988181E-01 0.17492239E+03</pdfrwt>
<totfact> 0.11628256E+03</totfact>
</mgrwt>
</event>
<event>
 8    2  0.7478846E-004  0.2219675E+03  0.7818608E-02  0.1134956E+00
          1   -1    0    0  501    0  0.00000000000E+00  0.00000000000E+00  0.27823715281E+03  0.27823715285E+03  0.50400000000E-02 0. -1.
         -1   -1    0    0    0  501 -0.00000000000E+00 -0.00000000000E+00 -0.16666939599E+03  0.16666939606E+03  0.50400000000E-02 0.  1.
         25    2    1    2    0    0  0.13097895941E+03 -0.12840741906E+03  0.60795024544E+02  0.23014260892E+03  0.12500252938E+03 0.  0.
         23    2    1    2    0    0 -0.13097895941E+03  0.12840741906E+03  0.50772732276E+02  0.21476393999E+03  0.99507419321E+02 0.  0.
        -11    1    4    4    0    0 -0.69902072944E+02  0.54241250000E+02 -0.25513137832E+02  0.92083294933E+02  0.51100000000E-03 0.  1.
         11    1    4    4    0    0 -0.61076886471E+02  0.74166169060E+02  0.76285870109E+02  0.12268064506E+03  0.51100000000E-03 0. -1.
    9000005    1    3    3    0    0  0.12081193022E+03 -0.47957505674E+02  0.71483450260E+02  0.14834530156E+03  0.10000000000E+01 0.  0.
    9000005    1    3    3    0    0  0.10167029190E+02 -0.80449913386E+02 -0.10688425716E+02  0.81797307355E+02  0.10000000000E+01 0.  0.
<mgrwt>
<rscale>  0 0.21856732E+03</rscale>
<asrwt>0</asrwt>
<pdfrwt beam="1">  1        1 0.42805716E-01 0.22196753E+03</pdfrwt>
<pdfrwt beam="2">  1       -1 0.25641445E-01 0.22196753E+03</pdfrwt>
<totfact> 0.12825872E+03</totfact>
</mgrwt>
</event>
<event>
 8    2  0.7478846E-004  0.1287766E+03  0.7818608E-02  0.1244843E+00
          1   -1    0    0  501    0  0.00000000000E+00  0.00000000000E+00  0.72801820840E+03  0.72801820842E+03  0.50400000000E-02 0. -1.
         -1   -1    0    0    0  501 -0.00000000000E+00 -0.00000000000E+00 -0.17218265613E+02  0.17218266351E+02  0.50400000000E-02 0.  1.
         25    2    1    2    0    0  0.10666348731E+02 -0.29066525415E+02  0.45185387640E+03  0.46984607506E+03  0.12499909895E+03 0.  0.
         23    2    1    2    0    0 -0.10666348731E+02  0.29066525415E+02  0.25894606639E+03  0.27539039971E+03  0.88476963432E+02 0.  0.
        -11    1    4    4    0    0  0.46539687510E+01 -0.14344948908E+02  0.30498884268E+01  0.15386318728E+02  0.51100000000E-03 0.  1.
         11    1    4    4    0    0 -0.15320317482E+02  0.43411474323E+02  0.25589617796E+03  0.26000408098E+03  0.51100000000E-03 0. -1.
    9000005    1    3    3    0    0  0.24067818782E+02  0.38333212990E+02  0.29693947212E+03  0.30037101262E+03  0.10000000000E+01 0.  0.
    9000005    1    3    3    0    0 -0.13401470051E+02 -0.67399738405E+02  0.15491440428E+03  0.16947506244E+03  0.10000000000E+01 0.  0.
<mgrwt>
<rscale>  0 0.11894784E+03</rscale>
<asrwt>0</asrwt>
<pdfrwt beam="1">  1        1 0.11200276E+00 0.12877658E+03</pdfrwt>
<pdfrwt beam="2">  1       -1 0.26489650E-02 0.12877658E+03</pdfrwt>
<totfact> 0.11491035E+04</totfact>
</mgrwt>
</event>
<event>
 8    2  0.7478846E-004  0.1385235E+03  0.7818608E-02  0.1226924E+00
          1   -1    0    0  501    0  0.00000000000E+00  0.00000000000E+00  0.13643835811E+04  0.13643835811E+04  0.50400000000E-02 0. -1.
         -1   -1    0    0    0  501 -0.00000000000E+00 -0.00000000000E+00 -0.14974096247E+02  0.14974097096E+02  0.50400000000E-02 0.  1.
         25    2    1    2    0    0 -0.46220622895E+02  0.37788982261E+02  0.10803195771E+04  0.10891644305E+04  0.12499765961E+03 0.  0.
         23    2    1    2    0    0  0.46220622895E+02 -0.37788982261E+02  0.26908990777E+03  0.29019324769E+03  0.90765573766E+02 0.  0.
        -11    1    4    4    0    0 -0.11213516044E+02 -0.34830135485E+02  0.40949440004E+02  0.54915734693E+02  0.51100000000E-03 0.  1.
         11    1    4    4    0    0  0.57434138939E+02 -0.29588467761E+01  0.22814046777E+03  0.23527751300E+03  0.51100000000E-03 0. -1.
    9000005    1    3    3    0    0 -0.13410648145E+02 -0.34828144965E+01  0.90097410946E+01  0.16557503286E+02  0.10000000000E+01 0.  0.
    9000005    1    3    3    0    0 -0.32809974750E+02  0.41271796758E+02  0.10713098360E+04  0.10726069272E+04  0.10000000000E+01 0.  0.
<mgrwt>
<rscale>  0 0.13035885E+03</rscale>
<asrwt>0</asrwt>
<pdfrwt beam="1">  1        1 0.20990507E+00 0.13852353E+03</pdfrwt>
<pdfrwt beam="2">  1       -1 0.23037082E-02 0.13852353E+03</pdfrwt>
<totfact> 0.48306469E+03</totfact>
</mgrwt>
</event>
<event>
 8    2  0.7478846E-004  0.1778761E+03  0.7818608E-02  0.1175542E+00
          1   -1    0    0  501    0  0.00000000000E+00  0.00000000000E+00  0.20637196516E+04  0.20637196516E+04  0.50400000000E-02 0. -1.
         -1   -1    0    0    0  501 -0.00000000000E+00 -0.00000000000E+00 -0.13708092327E+02  0.13708093254E+02  0.50400000000E-02 0.  1.
         25    2    1    2    0    0  0.12524565458E+03  0.18116169518E+02  0.97260668323E+03  0.98873841434E+03  0.12500088849E+03 0.  0.
         23    2    1    2    0    0 -0.12524565458E+03 -0.18116169518E+02  0.10774048760E+04  0.10886893305E+04  0.91806981739E+02 0.  0.
        -11    1    4    4    0    0 -0.26355622969E+02  0.59144234751E+01  0.55441400323E+02  0.61671291029E+02  0.51100000000E-03 0.  1.
         11    1    4    4    0    0 -0.98890031611E+02 -0.24030592993E+02  0.10219634757E+04  0.10270180395E+04  0.51100000000E-03 0. -1.
    9000005    1    3    3    0    0  0.49737282491E+02 -0.46337767249E+02  0.57140168203E+03  0.57543189708E+03  0.10000000000E+01 0.  0.
    9000005    1    3    3    0    0  0.75508372089E+02  0.64453936767E+02  0.40120500120E+03  0.41330651726E+03  0.10000000000E+01 0.  0.
<mgrwt>
<rscale>  0 0.17222963E+03</rscale>
<asrwt>0</asrwt>
<pdfrwt beam="1">  1        1 0.31749532E+00 0.17787606E+03</pdfrwt>
<pdfrwt beam="2">  1       -1 0.21089374E-02 0.17787606E+03</pdfrwt>
<totfact> 0.19508324E+03</totfact>
</mgrwt>
</event>
<event>
 8    2  0.7478846E-004  0.1362568E+03  0.7818608E-02  0.1230805E+00
         -1   -1    0    0    0  501 -0.00000000000E+00  0.00000000000E+00  0.19260906913E+03  0.19260906920E+03  0.50400000000E-02 0.  1.
          1   -1    0    0  501    0  0.00000000000E+00 -0.00000000000E+00 -0.14545326554E+03  0.14545326563E+03  0.50400000000E-02 0. -1.
         25    2    1    2    0    0  0.53194202437E+02  0.10585037909E+02  0.14164858399E+03  0.19654573559E+03  0.12499695450E+03 0.  0.
         23    2    1    2    0    0 -0.53194202437E+02 -0.10585037909E+02 -0.94492780401E+02  0.14151659923E+03  0.90312768256E+02 0.  0.
        -11    1    4    4    0    0 -0.92711353117E+01 -0.33226585079E+02  0.43347535238E+00  0.34498518912E+02  0.51100000000E-03 0.  1.
         11    1    4    4    0    0 -0.43923067126E+02  0.22641547170E+02 -0.94926255754E+02  0.10701808032E+03  0.51100000000E-03 0. -1.
    9000005    1    3    3    0    0 -0.28347377578E+02  0.35544823805E+02  0.24536588016E+02  0.51672550414E+02  0.10000000000E+01 0.  0.
    9000005    1    3    3    0    0  0.81541580015E+02 -0.24959785896E+02  0.11711199597E+03  0.14487318518E+03  0.10000000000E+01 0.  0.
<mgrwt>
<rscale>  0 0.12776869E+03</rscale>
<asrwt>0</asrwt>
<pdfrwt beam="2">  1        1 0.22377426E-01 0.13625676E+03</pdfrwt>
<pdfrwt beam="1">  1       -1 0.29632164E-01 0.13625676E+03</pdfrwt>
<totfact> 0.22402845E+03</totfact>
</mgrwt>
</event>
<event>
 8    2  0.7478846E-004  0.1275150E+03  0.7818608E-02  0.1244386E+00
          1   -1    0    0  501    0  0.00000000000E+00  0.00000000000E+00  0.36444573634E+02  0.36444573983E+02  0.50400000000E-02 0. -1.
         -1   -1    0    0    0  501 -0.00000000000E+00 -0.00000000000E+00 -0.37239633658E+03  0.37239633661E+03  0.50400000000E-02 0.  1.
         25    2    1    2    0    0 -0.15183358592E+02  0.20107817775E+02 -0.13611605796E+03  0.18651449094E+03  0.12500086152E+03 0.  0.
         23    2    1    2    0    0  0.15183358592E+02 -0.20107817775E+02 -0.19983570498E+03  0.22232641966E+03  0.94126878092E+02 0.  0.
        -11    1    4    4    0    0  0.60860726079E+01  0.34575630246E+02 -0.12072819913E+03  0.12572912373E+03  0.51100000000E-03 0.  1.
         11    1    4    4    0    0  0.90972859845E+01 -0.54683448021E+02 -0.79107505844E+02  0.96597295930E+02  0.51100000000E-03 0. -1.
    9000005    1    3    3    0    0 -0.53712350844E+02 -0.37233990434E+00 -0.13219379006E+03  0.14269321428E+03  0.10000000000E+01 0.  0.
    9000005    1    3    3    0    0  0.38528992252E+02  0.20480157680E+02 -0.39222679032E+01  0.43821276659E+02  0.10000000000E+01 0.  0.
<mgrwt>
<rscale>  0 0.11922196E+03</rscale>
<asrwt>0</asrwt>
<pdfrwt beam="1">  1        1 0.56068578E-02 0.12751500E+03</pdfrwt>
<pdfrwt beam="2">  1       -1 0.57291741E-01 0.12751500E+03</pdfrwt>
<totfact> 0.42977697E+03</totfact>
</mgrwt>
</event>
<event>
 8    2  0.7478846E-004  0.1629715E+03  0.7818608E-02  0.1192843E+00
          1   -1    0    0  501    0  0.00000000000E+00  0.00000000000E+00  0.56481568322E+02  0.56481568547E+02  0.50400000000E-02 0. -1.
         -1   -1    0    0    0  501 -0.00000000000E+00 -0.00000000000E+00 -0.40444323980E+03  0.40444323983E+03  0.50400000000E-02 0.  1.
         25    2    1    2    0    0  0.59012484032E+02 -0.86323078835E+02 -0.16825828935E+03  0.23424469363E+03  0.12500230937E+03 0.  0.
         23    2    1    2    0    0 -0.59012484032E+02  0.86323078835E+02 -0.17970338213E+03  0.22668011475E+03  0.90312909720E+02 0.  0.
        -11    1    4    4    0    0 -0.43347253093E+02  0.62438820473E+02 -0.43632246704E+02  0.87643388829E+02  0.51100000000E-03 0. -1.
         11    1    4    4    0    0 -0.15665230939E+02  0.23884258362E+02 -0.13607113542E+03  0.13903672592E+03  0.51100000000E-03 0.  1.
    9000005    1    3    3    0    0 -0.79665832798E+01 -0.95076982767E+02 -0.98424888627E+02  0.13708230302E+03  0.10000000000E+01 0.  0.
    9000005    1    3    3    0    0  0.66979067312E+02  0.87539039319E+01 -0.69833400721E+02  0.97162390606E+02  0.10000000000E+01 0.  0.
<mgrwt>
<rscale>  0 0.15638180E+03</rscale>
<asrwt>0</asrwt>
<pdfrwt beam="1">  1        1 0.86894723E-02 0.16297155E+03</pdfrwt>
<pdfrwt beam="2">  1       -1 0.62222035E-01 0.16297155E+03</pdfrwt>
<totfact> 0.20589583E+03</totfact>
</mgrwt>
</event>
<event>
 8    2  0.7478846E-004  0.1684590E+03  0.7818608E-02  0.1186309E+00
         -1   -1    0    0    0  501 -0.00000000000E+00  0.00000000000E+00  0.19066338659E+02  0.19066339325E+02  0.50400000000E-02 0.  1.
          1   -1    0    0  501    0  0.00000000000E+00 -0.00000000000E+00 -0.13759343847E+04  0.13759343847E+04  0.50400000000E-02 0. -1.
         25    2    1    2    0    0  0.10307366203E+03 -0.46206036208E+02 -0.90602453920E+03  0.92155243446E+03  0.12497698284E+03 0.  0.
         23    2    1    2    0    0 -0.10307366203E+03  0.46206036208E+02 -0.45084350684E+03  0.47344828957E+03  0.90190008610E+02 0.  0.
        -11    1    4    4    0    0 -0.15836551584E+01  0.37235258208E+02 -0.18570007237E+03  0.18940298123E+03  0.51100000000E-03 0. -1.
         11    1    4    4    0    0 -0.10149000687E+03  0.89707780000E+01 -0.26514343447E+03  0.28404530835E+03  0.51100000000E-03 0.  1.
    9000005    1    3    3    0    0  0.46225445472E+02 -0.65115214793E+02 -0.75287256410E+03  0.75709634842E+03  0.10000000000E+01 0.  0.
    9000005    1    3    3    0    0  0.56848216560E+02  0.18909178585E+02 -0.15315197510E+03  0.16445608605E+03  0.10000000000E+01 0.  0.
<mgrwt>
<rscale>  0 0.16213314E+03</rscale>
<asrwt>0</asrwt>
<pdfrwt beam="2">  1        1 0.21168214E+00 0.16845897E+03</pdfrwt>
<pdfrwt beam="1">  1       -1 0.29332840E-02 0.16845897E+03</pdfrwt>
<totfact> 0.33553251E+03</totfact>
</mgrwt>
</event>
<event>
 8    2  0.7478846E-004  0.1303781E+03  0.7818608E-02  0.1229218E+00
          1   -1    0    0  501    0  0.00000000000E+00  0.00000000000E+00  0.88490726659E+02  0.88490726802E+02  0.50400000000E-02 0. -1.
         -1   -1    0    0    0  501 -0.00000000000E+00 -0.00000000000E+00 -0.18345190460E+03  0.18345190467E+03  0.50400000000E-02 0.  1.
         25    2    1    2    0    0 -0.32053789620E+02 -0.18555036851E+02 -0.43351574323E+02  0.13739651850E+03  0.12500683773E+03 0.  0.
         23    2    1    2    0    0  0.32053789620E+02  0.18555036851E+02 -0.51609603624E+02  0.13454611297E+03  0.11860594635E+03 0.  0.
        -11    1    4    4    0    0  0.43178617390E+02  0.81878531582E+01 -0.86202183540E+02  0.96758722534E+02  0.51100000000E-03 0.  1.
         11    1    4    4    0    0 -0.11124827771E+02  0.10367183693E+02  0.34592579917E+02  0.37787390439E+02  0.51100000000E-03 0. -1.
    9000005    1    3    3    0    0  0.31244230433E+02  0.34449702038E+02 -0.25018805520E+02  0.52819736231E+02  0.10000000000E+01 0.  0.
    9000005    1    3    3    0    0 -0.63298020053E+02 -0.53004738889E+02 -0.18332768803E+02  0.84576782271E+02  0.10000000000E+01 0.  0.
<mgrwt>
<rscale>  0 0.12881938E+03</rscale>
<asrwt>0</asrwt>
<pdfrwt beam="1">  1        1 0.13613958E-01 0.13037808E+03</pdfrwt>
<pdfrwt beam="2">  1       -1 0.28223370E-01 0.13037808E+03</pdfrwt>
<totfact> 0.45839210E+03</totfact>
</mgrwt>
</event>
<event>
 8    2  0.7478846E-004  0.1333929E+03  0.7818608E-02  0.1238799E+00
         -1   -1    0    0    0  501 -0.00000000000E+00  0.00000000000E+00  0.27593797661E+01  0.27593843689E+01  0.50400000000E-02 0.  1.
          1   -1    0    0  501    0  0.00000000000E+00 -0.00000000000E+00 -0.48361224743E+04  0.48361224743E+04  0.50400000000E-02 0. -1.
         25    2    1    2    0    0  0.45281537057E+02  0.10839535749E+02 -0.31487204082E+04  0.31515446826E+04  0.12500305656E+03 0.  0.
         23    2    1    2    0    0 -0.45281537057E+02 -0.10839535749E+02 -0.16846426863E+04  0.16873371761E+04  0.83173626041E+02 0.  0.
        -11    1    4    4    0    0  0.60234130510E+01 -0.19287532972E+02 -0.11026554317E+03  0.11210165228E+03  0.51100000000E-03 0.  1.
         11    1    4    4    0    0 -0.51304950108E+02  0.84479972227E+01 -0.15743771432E+04  0.15752355238E+04  0.51100000000E-03 0. -1.
    9000005    1    3    3    0    0  0.58283704402E+00  0.27334971175E+02 -0.27274687674E+04  0.27276059865E+04  0.10000000000E+01 0.  0.
    9000005    1    3    3    0    0  0.44698700013E+02 -0.16495435425E+02 -0.42125164078E+03  0.42393869608E+03  0.10000000000E+01 0.  0.
<mgrwt>
<rscale>  0 0.12264358E+03</rscale>
<asrwt>0</asrwt>
<pdfrwt beam="2">  1        1 0.74401206E+00 0.13339294E+03</pdfrwt>
<pdfrwt beam="1">  1       -1 0.42452419E-03 0.13339294E+03</pdfrwt>
<totfact> 0.13460200E+02</totfact>
</mgrwt>
</event>
<event>
 8    2  0.7478846E-004  0.1324320E+03  0.7818608E-02  0.1237850E+00
          1   -1    0    0  501    0  0.00000000000E+00  0.00000000000E+00  0.73704587102E+02  0.73704587274E+02  0.50400000000E-02 0. -1.
         -1   -1    0    0    0  501 -0.00000000000E+00 -0.00000000000E+00 -0.18293863913E+03  0.18293863919E+03  0.50400000000E-02 0.  1.
         25    2    1    2    0    0  0.35259492306E+02  0.25861917774E+02 -0.54105435696E+02  0.14305814273E+03  0.12500465368E+03 0.  0.
         23    2    1    2    0    0 -0.35259492306E+02 -0.25861917774E+02 -0.55128616327E+02  0.11358508374E+03  0.89164658477E+02 0.  0.
        -11    1    4    4    0    0 -0.37879906090E+02 -0.42552123453E+01  0.14386231945E+02  0.40742579537E+02  0.51100000000E-03 0. -1.
         11    1    4    4    0    0  0.26204137836E+01 -0.21606705429E+02 -0.69514848272E+02  0.72842504202E+02  0.51100000000E-03 0.  1.
    9000005    1    3    3    0    0  0.70517207304E+02  0.50787543864E+02 -0.48445029203E+02  0.99498602965E+02  0.10000000000E+01 0.  0.
    9000005    1    3    3    0    0 -0.35257714997E+02 -0.24925626090E+02 -0.56604064937E+01  0.43559539764E+02  0.10000000000E+01 0.  0.
<mgrwt>
<rscale>  0 0.12323741E+03</rscale>
<asrwt>0</asrwt>
<pdfrwt beam="1">  1        1 0.11339167E-01 0.13243200E+03</pdfrwt>
<pdfrwt beam="2">  1       -1 0.28144406E-01 0.13243200E+03</pdfrwt>
<totfact> 0.58559570E+03</totfact>
</mgrwt>
</event>
<event>
 8    2  0.7478846E-004  0.1348728E+03  0.7818608E-02  0.1232742E+00
         -1   -1    0    0    0  501 -0.00000000000E+00  0.00000000000E+00  0.22354422419E+03  0.22354422425E+03  0.50400000000E-02 0.  1.
          1   -1    0    0  501    0  0.00000000000E+00 -0.00000000000E+00 -0.64018583183E+02  0.64018583382E+02  0.50400000000E-02 0. -1.
         25    2    1    2    0    0  0.49733803365E+02  0.96309421935E+01  0.88731976058E+02  0.16144356798E+03  0.12499782326E+03 0.  0.
         23    2    1    2    0    0 -0.49733803365E+02 -0.96309421935E+01  0.70793664947E+02  0.12611923965E+03  0.91258497517E+02 0.  0.
        -11    1    4    4    0    0  0.23450346589E+02 -0.17719617337E+02  0.11419831737E+02  0.31532778991E+02  0.51100000000E-03 0.  1.
         11    1    4    4    0    0 -0.73184149954E+02  0.80886751435E+01  0.59373833209E+02  0.94586460661E+02  0.51100000000E-03 0. -1.
    9000005    1    3    3    0    0  0.96396972669E+01 -0.35317386717E+02  0.94089322077E+02  0.10096554906E+03  0.10000000000E+01 0.  0.
    9000005    1    3    3    0    0  0.40094106098E+02  0.44948328910E+02 -0.53573460185E+01  0.60478018916E+02  0.10000000000E+01 0.  0.
<mgrwt>
<rscale>  0 0.12650078E+03</rscale>
<asrwt>0</asrwt>
<pdfrwt beam="2">  1        1 0.98490127E-02 0.13487276E+03</pdfrwt>
<pdfrwt beam="1">  1       -1 0.34391419E-01 0.13487276E+03</pdfrwt>
<totfact> 0.50355383E+03</totfact>
</mgrwt>
</event>
<event>
 8    2  0.7478846E-004  0.1400888E+03  0.7818608E-02  0.1216207E+00
          1   -1    0    0  501    0  0.00000000000E+00  0.00000000000E+00  0.44880919303E+03  0.44880919306E+03  0.50400000000E-02 0. -1.
         -1   -1    0    0    0  501 -0.00000000000E+00 -0.00000000000E+00 -0.48071063252E+02  0.48071063516E+02  0.50400000000E-02 0.  1.
         25    2    1    2    0    0  0.62349623723E+02  0.10441621656E+02  0.11108539073E+03  0.17878711965E+03  0.12501346759E+03 0.  0.
         23    2    1    2    0    0 -0.62349623723E+02 -0.10441621656E+02  0.28965273905E+03  0.31809313693E+03  0.11527372415E+03 0.  0.
        -11    1    4    4    0    0 -0.14024648492E+02 -0.28807607147E+02  0.25226857257E+03  0.25429510751E+03  0.51100000000E-03 0. -1.
         11    1    4    4    0    0 -0.48324975231E+02  0.18365985491E+02  0.37384166482E+02  0.63798029420E+02  0.51100000000E-03 0.  1.
    9000005    1    3    3    0    0  0.66160004328E+02  0.49305961185E+02  0.28278940695E+02  0.87229137722E+02  0.10000000000E+01 0.  0.
    9000005    1    3    3    0    0 -0.38103806043E+01 -0.38864339528E+02  0.82806450034E+02  0.91557981927E+02  0.10000000000E+01 0.  0.
<mgrwt>
<rscale>  0 0.13788269E+03</rscale>
<asrwt>0</asrwt>
<pdfrwt beam="1">  1        1 0.69047564E-01 0.14008879E+03</pdfrwt>
<pdfrwt beam="2">  1       -1 0.73955487E-02 0.14008879E+03</pdfrwt>
<totfact> 0.48861156E+03</totfact>
</mgrwt>
</event>
<event>
 8    2  0.7478846E-004  0.1344360E+03  0.7818608E-02  0.1233303E+00
          1   -1    0    0  501    0  0.00000000000E+00  0.00000000000E+00  0.22498342671E+03  0.22498342677E+03  0.50400000000E-02 0. -1.
         -1   -1    0    0    0  501 -0.00000000000E+00 -0.00000000000E+00 -0.63336987255E+02  0.63336987455E+02  0.50400000000E-02 0.  1.
         25    2    1    2    0    0 -0.47369478102E+02 -0.14276512708E+02  0.86517626863E+02  0.15986971843E+03  0.12500136336E+03 0.  0.
         23    2    1    2    0    0  0.47369478102E+02  0.14276512708E+02  0.75128812592E+02  0.12845069579E+03  0.91692728704E+02 0.  0.
        -11    1    4    4    0    0  0.37485439033E+02  0.36834263761E+02  0.86586761619E+02  0.10128765183E+03  0.51100000000E-03 0. -1.
         11    1    4    4    0    0  0.98840390692E+01 -0.22557751052E+02 -0.11457949027E+02  0.27163043957E+02  0.51100000000E-03 0.  1.
    9000005    1    3    3    0    0 -0.55287072372E+02 -0.54188702209E+02  0.16927236755E+02  0.79250281783E+02  0.10000000000E+01 0.  0.
    9000005    1    3    3    0    0  0.79175942703E+01  0.39912189501E+02  0.69590390108E+02  0.80619436646E+02  0.10000000000E+01 0.  0.
<mgrwt>
<rscale>  0 0.12613672E+03</rscale>
<asrwt>0</asrwt>
<pdfrwt beam="1">  1        1 0.34612835E-01 0.13443596E+03</pdfrwt>
<pdfrwt beam="2">  1       -1 0.97441519E-02 0.13443596E+03</pdfrwt>
<totfact> 0.75963423E+03</totfact>
</mgrwt>
</event>
<event>
 8    2  0.7478846E-004  0.1300830E+03  0.7818608E-02  0.1243119E+00
         -1   -1    0    0    0  501 -0.00000000000E+00  0.00000000000E+00  0.16489865175E+02  0.16489865945E+02  0.50400000000E-02 0.  1.
          1   -1    0    0  501    0  0.00000000000E+00 -0.00000000000E+00 -0.76239259000E+03  0.76239259002E+03  0.50400000000E-02 0. -1.
         25    2    1    2    0    0 -0.25654860351E+02  0.25255121428E+02 -0.43512256261E+03  0.45415110158E+03  0.12500234222E+03 0.  0.
         23    2    1    2    0    0  0.25654860351E+02 -0.25255121428E+02 -0.31078016222E+03  0.32473135439E+03  0.87006610501E+02 0.  0.
        -11    1    4    4    0    0  0.56451199086E+02 -0.27226020019E+02 -0.18993463908E+03  0.20000790276E+03  0.51100000000E-03 0. -1.
         11    1    4    4    0    0 -0.30796338735E+02  0.19708985907E+01 -0.12084552314E+03  0.12472345162E+03  0.51100000000E-03 0.  1.
    9000005    1    3    3    0    0  0.13057460156E+02  0.56736447137E+02 -0.35509266207E+03  0.35983512940E+03  0.10000000000E+01 0.  0.
    9000005    1    3    3    0    0 -0.38712320507E+02 -0.31481325709E+02 -0.80029900540E+02  0.94315972178E+02  0.10000000000E+01 0.  0.
<mgrwt>
<rscale>  0 0.11998644E+03</rscale>
<asrwt>0</asrwt>
<pdfrwt beam="2">  1        1 0.11729114E+00 0.13008297E+03</pdfrwt>
<pdfrwt beam="1">  1       -1 0.25369030E-02 0.13008297E+03</pdfrwt>
<totfact> 0.11444952E+04</totfact>
</mgrwt>
</event>
<event>
 8    2  0.7478846E-004  0.1942368E+03  0.7818608E-02  0.1159018E+00
         -1   -1    0    0    0  501 -0.00000000000E+00  0.00000000000E+00  0.40168482456E+02  0.40168482772E+02  0.50400000000E-02 0.  1.
          1   -1    0    0  501    0  0.00000000000E+00 -0.00000000000E+00 -0.97216304978E+03  0.97216304979E+03  0.50400000000E-02 0. -1.
         25    2    1    2    0    0  0.79812680115E+02 -0.12542748962E+03 -0.66509960496E+03  0.69288196558E+03  0.12500325855E+03 0.  0.
         23    2    1    2    0    0 -0.79812680115E+02  0.12542748962E+03 -0.26689496236E+03  0.31944956698E+03  0.93343376058E+02 0.  0.
        -11    1    4    4    0    0 -0.11923110073E+01  0.29417605281E+02 -0.13572697885E+03  0.13888351196E+03  0.51100000000E-03 0. -1.
         11    1    4    4    0    0 -0.78620369107E+02  0.96009884335E+02 -0.13116798351E+03  0.18056605502E+03  0.51100000000E-03 0.  1.
    9000005    1    3    3    0    0  0.11101275769E+03 -0.11699152186E+03 -0.53194467019E+03  0.55585697863E+03  0.10000000000E+01 0.  0.
    9000005    1    3    3    0    0 -0.31200077574E+02 -0.84359677563E+01 -0.13315493478E+03  0.13702498695E+03  0.10000000000E+01 0.  0.
<mgrwt>
<rscale>  0 0.18938435E+03</rscale>
<asrwt>0</asrwt>
<pdfrwt beam="2">  1        1 0.14956353E+00 0.19423680E+03</pdfrwt>
<pdfrwt beam="1">  1       -1 0.61797673E-02 0.19423680E+03</pdfrwt>
<totfact> 0.21357146E+03</totfact>
</mgrwt>
</event>
<event>
 8    2  0.7478846E-004  0.1509332E+03  0.7818608E-02  0.1209836E+00
          1   -1    0    0  501    0  0.00000000000E+00  0.00000000000E+00  0.94535650301E+03  0.94535650303E+03  0.50400000000E-02 0. -1.
         -1   -1    0    0    0  501 -0.00000000000E+00 -0.00000000000E+00 -0.34606677206E+02  0.34606677573E+02  0.50400000000E-02 0.  1.
         25    2    1    2    0    0 -0.83454579244E+02 -0.13829302486E+02  0.16127314506E+03  0.22088426548E+03  0.12499966007E+03 0.  0.
         23    2    1    2    0    0  0.83454579244E+02  0.13829302486E+02  0.74947668075E+03  0.75907891512E+03  0.85613012912E+02 0.  0.
        -11    1    4    4    0    0  0.39679967636E+02 -0.14718974482E+02  0.58432486362E+03  0.58585552339E+03  0.51100000000E-03 0. -1.
         11    1    4    4    0    0  0.43774611608E+02  0.28548276968E+02  0.16515181713E+03  0.17322339173E+03  0.51100000000E-03 0.  1.
    9000005    1    3    3    0    0 -0.15653200590E+02 -0.16195962225E+02 -0.18224640062E+02  0.28990850047E+02  0.10000000000E+01 0.  0.
    9000005    1    3    3    0    0 -0.67801378655E+02  0.23666597388E+01  0.17949778512E+03  0.19189341544E+03  0.10000000000E+01 0.  0.
<mgrwt>
<rscale>  0 0.14262816E+03</rscale>
<asrwt>0</asrwt>
<pdfrwt beam="1">  1        1 0.14543947E+00 0.15093320E+03</pdfrwt>
<pdfrwt beam="2">  1       -1 0.53241038E-02 0.15093320E+03</pdfrwt>
<totfact> 0.27829360E+03</totfact>
</mgrwt>
</event>
<event>
 8    2  0.7478846E-004  0.1522664E+03  0.7818608E-02  0.1206642E+00
         -1   -1    0    0    0  501 -0.00000000000E+00  0.00000000000E+00  0.25024901693E+02  0.25024902200E+02  0.50400000000E-02 0.  1.
          1   -1    0    0  501    0  0.00000000000E+00 -0.00000000000E+00 -0.96055399426E+03  0.96055399427E+03  0.50400000000E-02 0. -1.
         25    2    1    2    0    0 -0.86845551142E+02 -0.42720487781E+01 -0.28574933182E+03  0.32378657850E+03  0.12499867052E+03 0.  0.
         23    2    1    2    0    0  0.86845551142E+02  0.42720487781E+01 -0.64977976075E+03  0.66179231797E+03  0.90525877464E+02 0.  0.
        -11    1    4    4    0    0  0.19348350250E+02 -0.38893439546E+02 -0.17572243721E+03  0.18101224609E+03  0.51100000000E-03 0.  1.
         11    1    4    4    0    0  0.67497200891E+02  0.43165488324E+02 -0.47405732355E+03  0.48078007188E+03  0.51100000000E-03 0. -1.
    9000005    1    3    3    0    0 -0.37874027243E+02 -0.41827593664E+02 -0.36974437230E+02  0.67469241435E+02  0.10000000000E+01 0.  0.
    9000005    1    3    3    0    0 -0.48971523899E+02  0.37555544886E+02 -0.24877489459E+03  0.25631733707E+03  0.10000000000E+01 0.  0.
<mgrwt>
<rscale>  0 0.14508803E+03</rscale>
<asrwt>0</asrwt>
<pdfrwt beam="2">  1        1 0.14777751E+00 0.15226644E+03</pdfrwt>
<pdfrwt beam="1">  1       -1 0.38499857E-02 0.15226644E+03</pdfrwt>
<totfact> 0.43788694E+03</totfact>
</mgrwt>
</event>
<event>
 8    2  0.7478846E-004  0.2378092E+03  0.7818608E-02  0.1123995E+00
         -1   -1    0    0    0  501 -0.00000000000E+00  0.00000000000E+00  0.64458759410E+02  0.64458759607E+02  0.50400000000E-02 0.  1.
          1   -1    0    0  501    0  0.00000000000E+00 -0.00000000000E+00 -0.89489094301E+03  0.89489094302E+03  0.50400000000E-02 0. -1.
         25    2    1    2    0    0 -0.11695025070E+03 -0.16508023621E+03 -0.56630239217E+03  0.61420812194E+03  0.12499748857E+03 0.  0.
         23    2    1    2    0    0  0.11695025070E+03  0.16508023621E+03 -0.26412979142E+03  0.34514158069E+03  0.91811319990E+02 0.  0.
        -11    1    4    4    0    0  0.11220308080E+03  0.15794248033E+03 -0.19289616300E+03  0.27339401628E+03  0.51100000000E-03 0.  1.
         11    1    4    4    0    0  0.47471699013E+01  0.71377558761E+01 -0.71233628421E+02  0.71747564413E+02  0.51100000000E-03 0. -1.
    9000005    1    3    3    0    0 -0.98169397274E+02 -0.33306351667E+02 -0.21992465276E+03  0.24313452350E+03  0.10000000000E+01 0.  0.
    9000005    1    3    3    0    0 -0.18780853431E+02 -0.13177388454E+03 -0.34637773941E+03  0.37107359844E+03  0.10000000000E+01 0.  0.
<mgrwt>
<rscale>  0 0.23379831E+03</rscale>
<asrwt>0</asrwt>
<pdfrwt beam="2">  1        1 0.13767552E+00 0.23780920E+03</pdfrwt>
<pdfrwt beam="1">  1       -1 0.99167329E-02 0.23780920E+03</pdfrwt>
<totfact> 0.11918949E+03</totfact>
</mgrwt>
</event>
<event>
 8    2  0.7478846E-004  0.1453578E+03  0.7818608E-02  0.1216412E+00
          1   -1    0    0  501    0  0.00000000000E+00  0.00000000000E+00  0.76913686270E+02  0.76913686435E+02  0.50400000000E-02 0. -1.
         -1   -1    0    0    0  501 -0.00000000000E+00 -0.00000000000E+00 -0.23431124765E+03  0.23431124770E+03  0.50400000000E-02 0.  1.
         25    2    1    2    0    0 -0.22065517128E+02 -0.70845858445E+02 -0.54362642198E+02  0.15519078010E+03  0.12499143433E+03 0.  0.
         23    2    1    2    0    0  0.22065517128E+02  0.70845858445E+02 -0.10303491918E+03  0.15603415404E+03  0.90688698036E+02 0.  0.
        -11    1    4    4    0    0  0.93064639205E+01  0.58637404177E+02 -0.86341023752E+01  0.59995859552E+02  0.51100000000E-03 0. -1.
         11    1    4    4    0    0  0.12759053207E+02  0.12208454268E+02 -0.94400816805E+02  0.96038294487E+02  0.51100000000E-03 0.  1.
    9000005    1    3    3    0    0 -0.26658008306E+02 -0.97668492670E+02 -0.70650902379E+02  0.12345984721E+03  0.10000000000E+01 0.  0.
    9000005    1    3    3    0    0  0.45924911782E+01  0.26822634225E+02  0.16288260181E+02  0.31730932884E+02  0.10000000000E+01 0.  0.
<mgrwt>
<rscale>  0 0.13773342E+03</rscale>
<asrwt>0</asrwt>
<pdfrwt beam="1">  1        1 0.11832875E-01 0.14535777E+03</pdfrwt>
<pdfrwt beam="2">  1       -1 0.36047884E-01 0.14535777E+03</pdfrwt>
<totfact> 0.36608128E+03</totfact>
</mgrwt>
</event>
<event>
 8    2  0.7478846E-004  0.1503973E+03  0.7818608E-02  0.1209208E+00
         -1   -1    0    0    0  501 -0.00000000000E+00  0.00000000000E+00  0.18810446248E+03  0.18810446255E+03  0.50400000000E-02 0.  1.
          1   -1    0    0  501    0  0.00000000000E+00 -0.00000000000E+00 -0.11387313143E+03  0.11387313154E+03  0.50400000000E-02 0. -1.
         25    2    1    2    0    0  0.74315703864E+02 -0.38360930830E+02 -0.12984669092E+02  0.15095680886E+03  0.12499988662E+03 0.  0.
         23    2    1    2    0    0 -0.74315703864E+02  0.38360930830E+02  0.87216000146E+02  0.15102078522E+03  0.90588421075E+02 0.  0.
        -11    1    4    4    0    0  0.32686524528E+01  0.38021613369E+02  0.55159850637E+02  0.67074110464E+02  0.51100000000E-03 0.  1.
         11    1    4    4    0    0 -0.77584356317E+02  0.33931746118E+00  0.32056149509E+02  0.83946674759E+02  0.51100000000E-03 0. -1.
    9000005    1    3    3    0    0  0.21366995975E+01 -0.16873498335E+02 -0.59864953603E+02  0.62242213176E+02  0.10000000000E+01 0.  0.
    9000005    1    3    3    0    0  0.72179004266E+02 -0.21487432495E+02  0.46880284511E+02  0.88714595687E+02  0.10000000000E+01 0.  0.
<mgrwt>
<rscale>  0 0.14310765E+03</rscale>
<asrwt>0</asrwt>
<pdfrwt beam="2">  1        1 0.17518943E-01 0.15039733E+03</pdfrwt>
<pdfrwt beam="1">  1       -1 0.28939148E-01 0.15039733E+03</pdfrwt>
<totfact> 0.31981626E+03</totfact>
</mgrwt>
</event>
<event>
 8    2  0.7478846E-004  0.1369808E+03  0.7818608E-02  0.1230432E+00
         -1   -1    0    0    0  501 -0.00000000000E+00  0.00000000000E+00  0.15301311286E+02  0.15301312116E+02  0.50400000000E-02 0.  1.
          1   -1    0    0  501    0  0.00000000000E+00 -0.00000000000E+00 -0.11407788533E+04  0.11407788533E+04  0.50400000000E-02 0. -1.
         25    2    1    2    0    0 -0.55924592087E+02 -0.33687129804E+01 -0.39300890363E+03  0.41619676234E+03  0.12499935367E+03 0.  0.
         23    2    1    2    0    0  0.55924592087E+02  0.33687129804E+01 -0.73246863836E+03  0.73988340307E+03  0.88194306670E+02 0.  0.
        -11    1    4    4    0    0  0.36837429575E+02 -0.31504515162E+02 -0.19454079300E+03  0.20048853043E+03  0.51100000000E-03 0.  1.
         11    1    4    4    0    0  0.19087162512E+02  0.34873228143E+02 -0.53792784535E+03  0.53939487263E+03  0.51100000000E-03 0. -1.
    9000005    1    3    3    0    0  0.14120561327E+01  0.49660530198E+02 -0.85189725961E+02  0.98622774101E+02  0.10000000000E+01 0.  0.
    9000005    1    3    3    0    0 -0.57336648219E+02 -0.53029243179E+02 -0.30781917767E+03  0.31757398823E+03  0.10000000000E+01 0.  0.
<mgrwt>
<rscale>  0 0.12801429E+03</rscale>
<asrwt>0</asrwt>
<pdfrwt beam="2">  1        1 0.17550437E+00 0.13698083E+03</pdfrwt>
<pdfrwt beam="1">  1       -1 0.23540488E-02 0.13698083E+03</pdfrwt>
<totfact> 0.66297872E+03</totfact>
</mgrwt>
</event>
<event>
 8    2  0.7478846E-004  0.1430900E+03  0.7818608E-02  0.1221281E+00
         -1   -1    0    0    0  501 -0.00000000000E+00  0.00000000000E+00  0.18905164102E+03  0.18905164109E+03  0.50400000000E-02 0.  1.
          1   -1    0    0  501    0  0.00000000000E+00 -0.00000000000E+00 -0.10914999478E+03  0.10914999489E+03  0.50400000000E-02 0. -1.
         25    2    1    2    0    0 -0.42301579666E+02 -0.55316551422E+02  0.11317737952E+03  0.18243863633E+03  0.12500156914E+03 0.  0.
         23    2    1    2    0    0  0.42301579666E+02  0.55316551422E+02 -0.33275733281E+02  0.11576299965E+03  0.86281244537E+02 0.  0.
        -11    1    4    4    0    0  0.48592323620E+02  0.39477015749E+02  0.15159895349E+02  0.64416388555E+02  0.51100000000E-03 0.  1.
         11    1    4    4    0    0 -0.62907439539E+01  0.15839535673E+02 -0.48435628629E+02  0.51346611094E+02  0.51100000000E-03 0. -1.
    9000005    1    3    3    0    0  0.41848846825E+02 -0.30191426796E+02  0.22825289972E+02  0.56434405241E+02  0.10000000000E+01 0.  0.
    9000005    1    3    3    0    0 -0.84150426491E+02 -0.25125124626E+02  0.90352089553E+02  0.12600423109E+03  0.10000000000E+01 0.  0.
<mgrwt>
<rscale>  0 0.13425103E+03</rscale>
<asrwt>0</asrwt>
<pdfrwt beam="2">  1        1 0.16792307E-01 0.14308996E+03</pdfrwt>
<pdfrwt beam="1">  1       -1 0.29084868E-01 0.14308996E+03</pdfrwt>
<totfact> 0.33405189E+03</totfact>
</mgrwt>
</event>
<event>
 8    2  0.7478846E-004  0.1252020E+03  0.7818608E-02  0.1249261E+00
         -1   -1    0    0    0  501 -0.00000000000E+00  0.00000000000E+00  0.52300487026E+02  0.52300487269E+02  0.50400000000E-02 0.  1.
          1   -1    0    0  501    0  0.00000000000E+00 -0.00000000000E+00 -0.24949544311E+03  0.24949544316E+03  0.50400000000E-02 0. -1.
         25    2    1    2    0    0  0.22282415123E+00 -0.71917959083E+01 -0.68199706432E+02  0.14257189531E+03  0.12499509509E+03 0.  0.
         23    2    1    2    0    0 -0.22282415123E+00  0.71917959083E+01 -0.12899524965E+03  0.15922403512E+03  0.93063136354E+02 0.  0.
        -11    1    4    4    0    0 -0.45012370087E+02  0.15375567959E+02 -0.71649496950E+02  0.86000999787E+02  0.51100000000E-03 0.  1.
         11    1    4    4    0    0  0.44789545936E+02 -0.81837720508E+01 -0.57345752699E+02  0.73223035331E+02  0.51100000000E-03 0. -1.
    9000005    1    3    3    0    0 -0.25464852233E+02 -0.53674294826E+02 -0.66847620772E+02  0.89437089774E+02  0.10000000000E+01 0.  0.
    9000005    1    3    3    0    0  0.25687676385E+02  0.46482498918E+02 -0.13520856598E+01  0.53134805536E+02  0.10000000000E+01 0.  0.
<mgrwt>
<rscale>  0 0.11633930E+03</rscale>
<asrwt>0</asrwt>
<pdfrwt beam="2">  1        1 0.38383914E-01 0.12520202E+03</pdfrwt>
<pdfrwt beam="1">  1       -1 0.80462289E-02 0.12520202E+03</pdfrwt>
<totfact> 0.88868911E+03</totfact>
</mgrwt>
</event>
<event>
 8    2  0.7478846E-004  0.1572853E+03  0.7818608E-02  0.1199817E+00
         -1   -1    0    0    0  501 -0.00000000000E+00  0.00000000000E+00  0.53590468614E+01  0.53590492313E+01  0.50400000000E-02 0.  1.
          1   -1    0    0  501    0  0.00000000000E+00 -0.00000000000E+00 -0.39908104591E+04  0.39908104591E+04  0.50400000000E-02 0. -1.
         25    2    1    2    0    0 -0.19721845229E+02  0.93407173776E+02 -0.18683686498E+04  0.18749773544E+04  0.12499926668E+03 0.  0.
         23    2    1    2    0    0  0.19721845229E+02 -0.93407173776E+02 -0.21170827625E+04  0.21211921540E+04  0.91120138277E+02 0.  0.
        -11    1    4    4    0    0 -0.66311582443E+01  0.52783770722E+01 -0.21336718924E+02  0.22958421089E+02  0.51100000000E-03 0.  1.
         11    1    4    4    0    0  0.26353003473E+02 -0.98685550848E+02 -0.20957460436E+04  0.20982337329E+04  0.51100000000E-03 0. -1.
    9000005    1    3    3    0    0 -0.46751464985E+02  0.11404665997E+03 -0.14664807387E+04  0.14716518261E+04  0.10000000000E+01 0.  0.
    9000005    1    3    3    0    0  0.27029619756E+02 -0.20639486194E+02 -0.40188791105E+03  0.40332552830E+03  0.10000000000E+01 0.  0.
<mgrwt>
<rscale>  0 0.15053481E+03</rscale>
<asrwt>0</asrwt>
<pdfrwt beam="2">  1        1 0.61396846E+00 0.15728531E+03</pdfrwt>
<pdfrwt beam="1">  1       -1 0.82447212E-03 0.15728531E+03</pdfrwt>
<totfact> 0.32828959E+02</totfact>
</mgrwt>
</event>
<event>
 8    2  0.7478846E-004  0.1328098E+03  0.7818608E-02  0.1236479E+00
          1   -1    0    0  501    0  0.00000000000E+00  0.00000000000E+00  0.19771850435E+04  0.19771850435E+04  0.50400000000E-02 0. -1.
         -1   -1    0    0    0  501 -0.00000000000E+00 -0.00000000000E+00 -0.69381202129E+01  0.69381220435E+01  0.50400000000E-02 0.  1.
         25    2    1    2    0    0  0.33932171092E+02 -0.29228036968E+02  0.11561884340E+04  0.11637912751E+04  0.12503106215E+03 0.  0.
         23    2    1    2    0    0 -0.33932171092E+02  0.29228036968E+02  0.81405848920E+03  0.82033189045E+03  0.90815837109E+02 0.  0.
        -11    1    4    4    0    0 -0.53004246451E+02  0.26154729448E+02  0.76949143927E+03  0.77175811957E+03  0.51100000000E-03 0.  1.
         11    1    4    4    0    0  0.19072075359E+02  0.30733075203E+01  0.44567049932E+02  0.48573770880E+02  0.51100000000E-03 0. -1.
    9000005    1    3    3    0    0 -0.24341972646E+01 -0.71487987376E+02  0.80862144879E+03  0.81177959145E+03  0.10000000000E+01 0.  0.
    9000005    1    3    3    0    0  0.36366368357E+02  0.42259950408E+02  0.34756698526E+03  0.35201168361E+03  0.10000000000E+01 0.  0.
<mgrwt>
<rscale>  0 0.12410232E+03</rscale>
<asrwt>0</asrwt>
<pdfrwt beam="1">  1        1 0.30418246E+00 0.13280978E+03</pdfrwt>
<pdfrwt beam="2">  1       -1 0.10674027E-02 0.13280978E+03</pdfrwt>
<totfact> 0.58858274E+03</totfact>
</mgrwt>
</event>
<event>
 8    2  0.7478846E-004  0.4248855E+03  0.7818608E-02  0.1036199E+00
         -1   -1    0    0    0  501 -0.00000000000E+00  0.00000000000E+00  0.12788760546E+03  0.12788760556E+03  0.50400000000E-02 0.  1.
          1   -1    0    0  501    0  0.00000000000E+00 -0.00000000000E+00 -0.17857765663E+04  0.17857765663E+04  0.50400000000E-02 0. -1.
         25    2    1    2    0    0  0.12147817302E+03  0.38748620600E+03 -0.38102777848E+03  0.57070997131E+03  0.12500078808E+03 0.  0.
         23    2    1    2    0    0 -0.12147817302E+03 -0.38748620600E+03 -0.12768611823E+04  0.13429542005E+04  0.90824002469E+02 0.  0.
        -11    1    4    4    0    0 -0.12342934578E+03 -0.25361195048E+03 -0.84754551353E+03  0.89324533154E+03  0.51100000000E-03 0.  1.
         11    1    4    4    0    0  0.19511727580E+01 -0.13387425553E+03 -0.42931566879E+03  0.44970886897E+03  0.51100000000E-03 0. -1.
    9000005    1    3    3    0    0  0.10122359889E+03  0.23431018733E+03 -0.16074928649E+03  0.30164352134E+03  0.10000000000E+01 0.  0.
    9000005    1    3    3    0    0  0.20254574134E+02  0.15317601867E+03 -0.22027849198E+03  0.26906644997E+03  0.10000000000E+01 0.  0.
<mgrwt>
<rscale>  0 0.42267565E+03</rscale>
<asrwt>0</asrwt>
<pdfrwt beam="2">  1        1 0.27473484E+00 0.42488552E+03</pdfrwt>
<pdfrwt beam="1">  1       -1 0.19675018E-01 0.42488552E+03</pdfrwt>
<totfact> 0.93798015E+01</totfact>
</mgrwt>
</event>
<event>
 8    2  0.7478846E-004  0.1473771E+03  0.7818608E-02  0.1213544E+00
          1   -1    0    0  501    0  0.00000000000E+00  0.00000000000E+00  0.10008336741E+03  0.10008336754E+03  0.50400000000E-02 0. -1.
         -1   -1    0    0    0  501 -0.00000000000E+00 -0.00000000000E+00 -0.17828227323E+03  0.17828227330E+03  0.50400000000E-02 0.  1.
         25    2    1    2    0    0 -0.72303454684E+02 -0.29454574764E+02 -0.36473207932E+02  0.15182325570E+03  0.12499857816E+03 0.  0.
         23    2    1    2    0    0  0.72303454684E+02  0.29454574764E+02 -0.41725697885E+02  0.12654238513E+03  0.90424442694E+02 0.  0.
        -11    1    4    4    0    0  0.19223755047E+02  0.12556536422E-01 -0.60119552832E+02  0.63118250520E+02  0.51100000000E-03 0.  1.
         11    1    4    4    0    0  0.53079699637E+02  0.29442018228E+02  0.18393854947E+02  0.63424134609E+02  0.51100000000E-03 0. -1.
    9000005    1    3    3    0    0  0.24800682347E+02  0.25561512415E+02 -0.60425801886E+01  0.36138311211E+02  0.10000000000E+01 0.  0.
    9000005    1    3    3    0    0 -0.97104137032E+02 -0.55016087179E+02 -0.30430627744E+02  0.11568494449E+03  0.10000000000E+01 0.  0.
<mgrwt>
<rscale>  0 0.13984047E+03</rscale>
<asrwt>0</asrwt>
<pdfrwt beam="1">  1        1 0.15397441E-01 0.14737709E+03</pdfrwt>
<pdfrwt beam="2">  1       -1 0.27428042E-01 0.14737709E+03</pdfrwt>
<totfact> 0.41274265E+03</totfact>
</mgrwt>
</event>
<event>
 8    2  0.7478846E-004  0.1633670E+03  0.7818608E-02  0.1191669E+00
          1   -1    0    0  501    0  0.00000000000E+00  0.00000000000E+00  0.40159791352E+03  0.40159791355E+03  0.50400000000E-02 0. -1.
         -1   -1    0    0    0  501 -0.00000000000E+00 -0.00000000000E+00 -0.65882975484E+02  0.65882975676E+02  0.50400000000E-02 0.  1.
         25    2    1    2    0    0  0.93619858178E+02  0.47947127969E+02  0.95972857751E+02  0.18947176523E+03  0.12500062187E+03 0.  0.
         23    2    1    2    0    0 -0.93619858178E+02 -0.47947127969E+02  0.23974208028E+03  0.27800912400E+03  0.93537174655E+02 0.  0.
        -11    1    4    4    0    0 -0.45061219615E+02  0.23521617851E+02  0.12023478042E+03  0.13053804979E+03  0.51100000000E-03 0. -1.
         11    1    4    4    0    0 -0.48558638563E+02 -0.71468745820E+02  0.11950729987E+03  0.14747107421E+03  0.51100000000E-03 0.  1.
    9000005    1    3    3    0    0 -0.44885277612E+01 -0.80785997030E+01 -0.23358039421E+02  0.25139782422E+02  0.10000000000E+01 0.  0.
    9000005    1    3    3    0    0  0.98108385939E+02  0.56025727672E+02  0.11933089717E+03  0.16433198280E+03  0.10000000000E+01 0.  0.
<mgrwt>
<rscale>  0 0.15739517E+03</rscale>
<asrwt>0</asrwt>
<pdfrwt beam="1">  1        1 0.61784295E-01 0.16336695E+03</pdfrwt>
<pdfrwt beam="2">  1       -1 0.10135842E-01 0.16336695E+03</pdfrwt>
<totfact> 0.35133852E+03</totfact>
</mgrwt>
</event>
<event>
 8    2  0.7478846E-004  0.2106591E+03  0.7818608E-02  0.1144591E+00
         -1   -1    0    0    0  501 -0.00000000000E+00  0.00000000000E+00  0.48405333558E+03  0.48405333561E+03  0.50400000000E-02 0.  1.
          1   -1    0    0  501    0  0.00000000000E+00 -0.00000000000E+00 -0.21000636492E+03  0.21000636498E+03  0.50400000000E-02 0. -1.
         25    2    1    2    0    0  0.16253960226E+03  0.48315951429E+02 -0.12897349233E+03  0.24700486118E+03  0.12499474493E+03 0.  0.
         23    2    1    2    0    0 -0.16253960226E+03 -0.48315951429E+02  0.40302046299E+03  0.44705483941E+03  0.93161056147E+02 0.  0.
        -11    1    4    4    0    0 -0.16549817853E+03 -0.50294143951E+02  0.31832268827E+03  0.36228232344E+03  0.51100000000E-03 0. -1.
         11    1    4    4    0    0  0.29585762749E+01  0.19781925217E+01  0.84697774728E+02  0.84772515967E+02  0.51100000000E-03 0.  1.
    9000005    1    3    3    0    0  0.34551857296E+02 -0.40090500049E+02 -0.48832720694E+02  0.72018842307E+02  0.10000000000E+01 0.  0.
    9000005    1    3    3    0    0  0.12798774496E+03  0.88406451478E+02 -0.80140771635E+02  0.17498601888E+03  0.10000000000E+01 0.  0.
<mgrwt>
<rscale>  0 0.20622498E+03</rscale>
<asrwt>0</asrwt>
<pdfrwt beam="2">  1        1 0.32308672E-01 0.21065906E+03</pdfrwt>
<pdfrwt beam="1">  1       -1 0.74469743E-01 0.21065906E+03</pdfrwt>
<totfact> 0.26350909E+02</totfact>
</mgrwt>
</event>
<event>
 8    2  0.7478846E-004  0.1436389E+03  0.7818608E-02  0.1218642E+00
          1   -1    0    0  501    0  0.00000000000E+00  0.00000000000E+00  0.84907942119E+03  0.84907942121E+03  0.50400000000E-02 0. -1.
         -1   -1    0    0    0  501 -0.00000000000E+00 -0.00000000000E+00 -0.20401998371E+02  0.20401998994E+02  0.50400000000E-02 0.  1.
         25    2    1    2    0    0 -0.54017652419E+02 -0.45706265578E+02  0.53004678161E+03  0.54916456348E+03  0.12500063042E+03 0.  0.
         23    2    1    2    0    0  0.54017652419E+02  0.45706265578E+02  0.29863064121E+03  0.32031685672E+03  0.91736902832E+02 0.  0.
        -11    1    4    4    0    0 -0.14176883307E+02  0.31800088966E+02  0.17511254377E+03  0.17854028303E+03  0.51100000000E-03 0. -1.
         11    1    4    4    0    0  0.68194535726E+02  0.13906176612E+02  0.12351809744E+03  0.14177657369E+03  0.51100000000E-03 0.  1.
    9000005    1    3    3    0    0 -0.35770870527E+02  0.41335288878E+02  0.19669234009E+03  0.20414954797E+03  0.10000000000E+01 0.  0.
    9000005    1    3    3    0    0 -0.18246781892E+02 -0.87041554456E+02  0.33335444152E+03  0.34501501552E+03  0.10000000000E+01 0.  0.
<mgrwt>
<rscale>  0 0.13612369E+03</rscale>
<asrwt>0</asrwt>
<pdfrwt beam="1">  1        1 0.13062759E+00 0.14363888E+03</pdfrwt>
<pdfrwt beam="2">  1       -1 0.31387695E-02 0.14363888E+03</pdfrwt>
<totfact> 0.71784752E+03</totfact>
</mgrwt>
</event>
<event>
 8    2  0.7478846E-004  0.1351808E+03  0.7818608E-02  0.1232117E+00
          1   -1    0    0  501    0  0.00000000000E+00  0.00000000000E+00  0.35035375523E+03  0.35035375526E+03  0.50400000000E-02 0. -1.
         -1   -1    0    0    0  501 -0.00000000000E+00 -0.00000000000E+00 -0.41396221697E+02  0.41396222004E+02  0.50400000000E-02 0.  1.
         25    2    1    2    0    0 -0.40982148522E+02 -0.31129857780E+02  0.18828756390E+03  0.23178883586E+03  0.12500101267E+03 0.  0.
         23    2    1    2    0    0  0.40982148522E+02  0.31129857780E+02  0.12066996963E+03  0.15996114140E+03  0.91529889357E+02 0.  0.
        -11    1    4    4    0    0  0.29063317354E+02 -0.16464251579E+01 -0.50046721355E+01  0.29536991635E+02  0.51100000000E-03 0.  1.
         11    1    4    4    0    0  0.11918831168E+02  0.32776282938E+02  0.12567464177E+03  0.13042414977E+03  0.51100000000E-03 0. -1.
    9000005    1    3    3    0    0 -0.97566897616E+01 -0.71590158397E+02  0.15436123144E+03  0.17043689021E+03  0.10000000000E+01 0.  0.
    9000005    1    3    3    0    0 -0.31225458760E+02  0.40460300617E+02  0.33926332463E+02  0.61351945651E+02  0.10000000000E+01 0.  0.
<mgrwt>
<rscale>  0 0.12690835E+03</rscale>
<asrwt>0</asrwt>
<pdfrwt beam="1">  1        1 0.53900580E-01 0.13518083E+03</pdfrwt>
<pdfrwt beam="2">  1       -1 0.63686492E-02 0.13518083E+03</pdfrwt>
<totfact> 0.83372835E+03</totfact>
</mgrwt>
</event>
<event>
 8    2  0.7478846E-004  0.1346308E+03  0.7818608E-02  0.1233448E+00
         -1   -1    0    0    0  501 -0.00000000000E+00  0.00000000000E+00  0.40527752533E+03  0.40527752536E+03  0.50400000000E-02 0.  1.
          1   -1    0    0  501    0  0.00000000000E+00 -0.00000000000E+00 -0.36162861631E+02  0.36162861983E+02  0.50400000000E-02 0. -1.
         25    2    1    2    0    0  0.40489473487E+02 -0.29349747746E+02  0.16800476860E+03  0.21529296867E+03  0.12499861972E+03 0.  0.
         23    2    1    2    0    0 -0.40489473487E+02  0.29349747746E+02  0.20110989510E+03  0.22614741867E+03  0.90535406932E+02 0.  0.
        -11    1    4    4    0    0 -0.20840619711E+02 -0.30690958024E+02  0.10280294913E+03  0.10929186925E+03  0.51100000000E-03 0. -1.
         11    1    4    4    0    0 -0.19648853776E+02  0.60040705769E+02  0.98306945973E+02  0.11685554942E+03  0.51100000000E-03 0.  1.
    9000005    1    3    3    0    0  0.45513562330E+01 -0.75462958776E+02  0.10430940007E+03  0.12882866115E+03  0.10000000000E+01 0.  0.
    9000005    1    3    3    0    0  0.35938117254E+02  0.46113211030E+02  0.63695368522E+02  0.86464307517E+02  0.10000000000E+01 0.  0.
<mgrwt>
<rscale>  0 0.12604293E+03</rscale>
<asrwt>0</asrwt>
<pdfrwt beam="2">  1        1 0.55635170E-02 0.13463083E+03</pdfrwt>
<pdfrwt beam="1">  1       -1 0.62350390E-01 0.13463083E+03</pdfrwt>
<totfact> 0.37123863E+03</totfact>
</mgrwt>
</event>
<event>
 8    2  0.7478846E-004  0.1301120E+03  0.7818608E-02  0.1243909E+00
         -1   -1    0    0    0  501 -0.00000000000E+00  0.00000000000E+00  0.28987306835E+03  0.28987306839E+03  0.50400000000E-02 0.  1.
          1   -1    0    0  501    0  0.00000000000E+00 -0.00000000000E+00 -0.45260724660E+02  0.45260724940E+02  0.50400000000E-02 0. -1.
         25    2    1    2    0    0 -0.24318653564E+02  0.26714737546E+02  0.10308075324E+03  0.16599634478E+03  0.12499628265E+03 0.  0.
         23    2    1    2    0    0  0.24318653564E+02 -0.26714737546E+02  0.14153159045E+03  0.16913744856E+03  0.85271397875E+02 0.  0.
        -11    1    4    4    0    0 -0.13128286579E+02  0.14218438211E+02  0.25844026628E+01  0.19524216528E+02  0.51100000000E-03 0. -1.
         11    1    4    4    0    0  0.37446940143E+02 -0.40933175757E+02  0.13894718779E+03  0.14961323203E+03  0.51100000000E-03 0.  1.
    9000005    1    3    3    0    0  0.18979440421E+02  0.12344366831E+02  0.11630089712E+03  0.11848840121E+03  0.10000000000E+01 0.  0.
    9000005    1    3    3    0    0 -0.43298093985E+02  0.14370370715E+02 -0.13220143882E+02  0.47507943562E+02  0.10000000000E+01 0.  0.
<mgrwt>
<rscale>  0 0.11950898E+03</rscale>
<asrwt>0</asrwt>
<pdfrwt beam="2">  1        1 0.69631882E-02 0.13011205E+03</pdfrwt>
<pdfrwt beam="1">  1       -1 0.44595858E-01 0.13011205E+03</pdfrwt>
<totfact> 0.50741249E+03</totfact>
</mgrwt>
</event>
<event>
 8    2  0.7478846E-004  0.1277869E+03  0.7818608E-02  0.1237951E+00
         -1   -1    0    0    0  501 -0.00000000000E+00  0.00000000000E+00  0.71921726080E+01  0.71921743739E+01  0.50400000000E-02 0.  1.
          1   -1    0    0  501    0  0.00000000000E+00 -0.00000000000E+00 -0.25596477208E+04  0.25596477208E+04  0.50400000000E-02 0. -1.
         25    2    1    2    0    0 -0.15093137579E+02  0.21833579690E+02 -0.73392593791E+03  0.74496762983E+03  0.12499991665E+03 0.  0.
         23    2    1    2    0    0  0.15093137579E+02 -0.21833579690E+02 -0.18185296103E+04  0.18218722653E+04  0.10707053632E+03 0.  0.
        -11    1    4    4    0    0  0.29623772112E+02 -0.58442886831E+02 -0.84058592032E+03  0.84313571169E+03  0.51100000000E-03 0.  1.
         11    1    4    4    0    0 -0.14530634533E+02  0.36609307141E+02 -0.97794368994E+03  0.97873655363E+03  0.51100000000E-03 0. -1.
    9000005    1    3    3    0    0 -0.46230369453E+02 -0.38312518224E+02 -0.34615451328E+03  0.35132469765E+03  0.10000000000E+01 0.  0.
    9000005    1    3    3    0    0  0.31137231874E+02  0.60146097913E+02 -0.38777142463E+03  0.39364293219E+03  0.10000000000E+01 0.  0.
<mgrwt>
<rscale>  0 0.12317422E+03</rscale>
<asrwt>0</asrwt>
<pdfrwt beam="2">  1        1 0.39379123E+00 0.12778688E+03</pdfrwt>
<pdfrwt beam="1">  1       -1 0.11064903E-02 0.12778688E+03</pdfrwt>
<totfact> 0.23617818E+03</totfact>
</mgrwt>
</event>
<event>
 8    2  0.7478846E-004  0.1671264E+03  0.7818608E-02  0.1186726E+00
          1   -1    0    0  501    0  0.00000000000E+00  0.00000000000E+00  0.84413645498E+03  0.84413645500E+03  0.50400000000E-02 0. -1.
         -1   -1    0    0    0  501 -0.00000000000E+00 -0.00000000000E+00 -0.32068699115E+02  0.32068699511E+02  0.50400000000E-02 0.  1.
         25    2    1    2    0    0  0.78555828663E+02  0.78323130615E+02  0.56175191793E+03  0.58608570248E+03  0.12500280936E+03 0.  0.
         23    2    1    2    0    0 -0.78555828663E+02 -0.78323130615E+02  0.25031583793E+03  0.29011945202E+03  0.95946582618E+02 0.  0.
        -11    1    4    4    0    0  0.37228899393E+01  0.13393545381E+02  0.36200541145E+01  0.14364948988E+02  0.51100000000E-03 0.  1.
         11    1    4    4    0    0 -0.82278718602E+02 -0.91716675996E+02  0.24669578382E+03  0.27575450303E+03  0.51100000000E-03 0. -1.
    9000005    1    3    3    0    0  0.94654609793E+02  0.14657059743E+02  0.25537958991E+03  0.27275274425E+03  0.10000000000E+01 0.  0.
    9000005    1    3    3    0    0 -0.16098781130E+02  0.63666070872E+02  0.30637232803E+03  0.31333295823E+03  0.10000000000E+01 0.  0.
<mgrwt>
<rscale>  0 0.16175848E+03</rscale>
<asrwt>0</asrwt>
<pdfrwt beam="1">  1        1 0.12986713E+00 0.16712640E+03</pdfrwt>
<pdfrwt beam="2">  1       -1 0.49336467E-02 0.16712640E+03</pdfrwt>
<totfact> 0.37449286E+03</totfact>
</mgrwt>
</event>
<event>
 8    2  0.7478846E-004  0.1286048E+03  0.7818608E-02  0.1243024E+00
          1   -1    0    0  501    0  0.00000000000E+00  0.00000000000E+00  0.32509946774E+03  0.32509946778E+03  0.50400000000E-02 0. -1.
         -1   -1    0    0    0  501 -0.00000000000E+00 -0.00000000000E+00 -0.12936986877E+03  0.12936986887E+03  0.50400000000E-02 0.  1.
         25    2    1    2    0    0  0.29019081651E+02  0.84784064668E+01 -0.87059175707E+02  0.15530132443E+03  0.12500084327E+03 0.  0.
         23    2    1    2    0    0 -0.29019081651E+02 -0.84784064668E+01  0.28278877467E+03  0.29916801222E+03  0.92833280561E+02 0.  0.
        -11    1    4    4    0    0 -0.51560556801E+01 -0.47705158991E+02  0.18523913003E+03  0.19135282177E+03  0.51100000000E-03 0.  1.
         11    1    4    4    0    0 -0.23863025971E+02  0.39226752525E+02  0.97549644641E+02  0.10781519045E+03  0.51100000000E-03 0. -1.
    9000005    1    3    3    0    0 -0.34658807848E+01  0.11515683876E+02 -0.11297796620E+03  0.11362061499E+03  0.10000000000E+01 0.  0.
    9000005    1    3    3    0    0  0.32484962436E+02 -0.30372774097E+01  0.25918790493E+02  0.41680709437E+02  0.10000000000E+01 0.  0.
<mgrwt>
<rscale>  0 0.12004415E+03</rscale>
<asrwt>0</asrwt>
<pdfrwt beam="1">  1        1 0.50015303E-01 0.12860483E+03</pdfrwt>
<pdfrwt beam="2">  1       -1 0.19903057E-01 0.12860483E+03</pdfrwt>
<totfact> 0.15791876E+03</totfact>
</mgrwt>
</event>
<event>
 8    2  0.7478846E-004  0.1412246E+03  0.7818608E-02  0.1212963E+00
         -1   -1    0    0    0  501 -0.00000000000E+00  0.00000000000E+00  0.59631003957E+02  0.59631004170E+02  0.50400000000E-02 0.  1.
          1   -1    0    0  501    0  0.00000000000E+00 -0.00000000000E+00 -0.37075513742E+03  0.37075513746E+03  0.50400000000E-02 0. -1.
         25    2    1    2    0    0  0.10317742897E+02  0.64921532664E+02 -0.82310298621E+02  0.16346062314E+03  0.12499251512E+03 0.  0.
         23    2    1    2    0    0 -0.10317742897E+02 -0.64921532664E+02 -0.22881383485E+03  0.26692551849E+03  0.12071536845E+03 0.  0.
        -11    1    4    4    0    0 -0.26437320173E+02 -0.92493991445E+02 -0.20696310745E+03  0.22822751411E+03  0.51100000000E-03 0. -1.
         11    1    4    4    0    0  0.16119577276E+02  0.27572458781E+02 -0.21850727397E+02  0.38698004378E+02  0.51100000000E-03 0.  1.
    9000005    1    3    3    0    0  0.37805200468E+02  0.74786039254E+02 -0.86907226725E+01  0.84253863474E+02  0.10000000000E+01 0.  0.
    9000005    1    3    3    0    0 -0.27487457571E+02 -0.98645065902E+01 -0.73619575948E+02  0.79206759666E+02  0.10000000000E+01 0.  0.
<mgrwt>
<rscale>  0 0.14027224E+03</rscale>
<asrwt>0</asrwt>
<pdfrwt beam="2">  1        1 0.57039250E-01 0.14122461E+03</pdfrwt>
<pdfrwt beam="1">  1       -1 0.91740009E-02 0.14122461E+03</pdfrwt>
<totfact> 0.44942189E+03</totfact>
</mgrwt>
</event>
<event>
 8    2  0.7478846E-004  0.1441051E+03  0.7818608E-02  0.1217771E+00
         -1   -1    0    0    0  501 -0.00000000000E+00  0.00000000000E+00  0.51964272956E+02  0.51964273201E+02  0.50400000000E-02 0.  1.
          1   -1    0    0  501    0  0.00000000000E+00 -0.00000000000E+00 -0.34375687326E+03  0.34375687330E+03  0.50400000000E-02 0. -1.
         25    2    1    2    0    0  0.31775232545E+02  0.64276950612E+02 -0.11779399152E+03  0.18612284625E+03  0.12500039069E+03 0.  0.
         23    2    1    2    0    0 -0.31775232545E+02 -0.64276950612E+02 -0.17399860878E+03  0.20959830025E+03  0.92275347881E+02 0.  0.
        -11    1    4    4    0    0  0.29629997416E+01 -0.75725725680E+02 -0.87935925845E+02  0.11608570951E+03  0.51100000000E-03 0.  1.
         11    1    4    4    0    0 -0.34738232287E+02  0.11448775068E+02 -0.86062682937E+02  0.93512590743E+02  0.51100000000E-03 0. -1.
    9000005    1    3    3    0    0  0.21782805155E+02  0.99315106212E+02 -0.10810007055E+03  0.14840689396E+03  0.10000000000E+01 0.  0.
    9000005    1    3    3    0    0  0.99924273896E+01 -0.35038155600E+02 -0.96939209706E+01  0.37715952285E+02  0.10000000000E+01 0.  0.
<mgrwt>
<rscale>  0 0.13674919E+03</rscale>
<asrwt>0</asrwt>
<pdfrwt beam="2">  1        1 0.52885672E-01 0.14410513E+03</pdfrwt>
<pdfrwt beam="1">  1       -1 0.79945038E-02 0.14410513E+03</pdfrwt>
<totfact> 0.60926986E+03</totfact>
</mgrwt>
</event>
<event>
 8    2  0.7478846E-004  0.1404684E+03  0.7818608E-02  0.1223921E+00
          1   -1    0    0  501    0  0.00000000000E+00  0.00000000000E+00  0.26890670426E+03  0.26890670431E+03  0.50400000000E-02 0. -1.
         -1   -1    0    0    0  501 -0.00000000000E+00 -0.00000000000E+00 -0.76147624599E+02  0.76147624765E+02  0.50400000000E-02 0.  1.
         25    2    1    2    0    0 -0.49589922615E+02 -0.40591640616E+02  0.18715371263E+03  0.23400400535E+03  0.12499808261E+03 0.  0.
         23    2    1    2    0    0  0.49589922615E+02  0.40591640616E+02  0.56053670278E+01  0.11105032372E+03  0.90520232798E+02 0.  0.
        -11    1    4    4    0    0  0.25994164781E+02  0.14283884636E+01 -0.39185134673E+02  0.47044783727E+02  0.51100000000E-03 0.  1.
         11    1    4    4    0    0  0.23595757834E+02  0.39163252152E+02  0.44790501701E+02  0.64005539993E+02  0.51100000000E-03 0. -1.
    9000005    1    3    3    0    0 -0.89796420898E+02 -0.36665974877E+02  0.15268218250E+03  0.18088847330E+03  0.10000000000E+01 0.  0.
    9000005    1    3    3    0    0  0.40206498283E+02 -0.39256657388E+01  0.34471530137E+02  0.53115532057E+02  0.10000000000E+01 0.  0.
<mgrwt>
<rscale>  0 0.13241140E+03</rscale>
<asrwt>0</asrwt>
<pdfrwt beam="1">  1        1 0.41370263E-01 0.14046837E+03</pdfrwt>
<pdfrwt beam="2">  1       -1 0.11715019E-01 0.14046837E+03</pdfrwt>
<totfact> 0.46062706E+03</totfact>
</mgrwt>
</event>
<event>
 8    2  0.7478846E-004  0.1360591E+03  0.7818608E-02  0.1232443E+00
         -1   -1    0    0    0  501 -0.00000000000E+00  0.00000000000E+00  0.19522438530E+03  0.19522438536E+03  0.50400000000E-02 0.  1.
          1   -1    0    0  501    0  0.00000000000E+00 -0.00000000000E+00 -0.12786592790E+03  0.12786592800E+03  0.50400000000E-02 0. -1.
         25    2    1    2    0    0 -0.30210453455E+02 -0.44463555957E+02 -0.69055948426E+02  0.15258050772E+03  0.12498963163E+03 0.  0.
         23    2    1    2    0    0  0.30210453455E+02  0.44463555957E+02  0.13641440582E+03  0.17050980565E+03  0.87034616104E+02 0.  0.
        -11    1    4    4    0    0  0.32287282121E+01  0.30669406948E+02  0.70539912716E-01  0.30838971846E+02  0.51100000000E-03 0. -1.
         11    1    4    4    0    0  0.26981725243E+02  0.13794149009E+02  0.13634386591E+03  0.13967083380E+03  0.51100000000E-03 0.  1.
    9000005    1    3    3    0    0 -0.60181032510E+02  0.59179343012E+00 -0.77153466262E+02  0.97855834009E+02  0.10000000000E+01 0.  0.
    9000005    1    3    3    0    0  0.29970579055E+02 -0.45055349387E+02  0.80975178361E+01  0.54724673707E+02  0.10000000000E+01 0.  0.
<mgrwt>
<rscale>  0 0.12669563E+03</rscale>
<asrwt>0</asrwt>
<pdfrwt beam="2">  1        1 0.19671681E-01 0.13605913E+03</pdfrwt>
<pdfrwt beam="1">  1       -1 0.30034521E-01 0.13605913E+03</pdfrwt>
<totfact> 0.25786078E+03</totfact>
</mgrwt>
</event>
<event>
 8    2  0.7478846E-004  0.2474031E+03  0.7818608E-02  0.1117546E+00
         -1   -1    0    0    0  501 -0.00000000000E+00  0.00000000000E+00  0.87217816985E+03  0.87217816986E+03  0.50400000000E-02 0.  1.
          1   -1    0    0  501    0  0.00000000000E+00 -0.00000000000E+00 -0.67976807244E+02  0.67976807430E+02  0.50400000000E-02 0. -1.
         25    2    1    2    0    0 -0.13001726505E+03  0.16935038655E+03  0.49850434319E+03  0.55652031608E+03  0.12499695754E+03 0.  0.
         23    2    1    2    0    0  0.13001726505E+03 -0.16935038655E+03  0.30569701942E+03  0.38363466122E+03  0.90226620063E+02 0.  0.
        -11    1    4    4    0    0  0.13577066418E+03 -0.12322917098E+03  0.22229940330E+03  0.28815989752E+03  0.51100000000E-03 0. -1.
         11    1    4    4    0    0 -0.57533991318E+01 -0.46121215576E+02  0.83397616123E+02  0.95474763697E+02  0.51100000000E-03 0.  1.
    9000005    1    3    3    0    0 -0.12674636220E+03  0.18892622241E+03  0.46057394500E+03  0.51369944194E+03  0.10000000000E+01 0.  0.
    9000005    1    3    3    0    0 -0.32709028523E+01 -0.19575835853E+02  0.37930398189E+02  0.42820874133E+02  0.10000000000E+01 0.  0.
<mgrwt>
<rscale>  0 0.24340291E+03</rscale>
<asrwt>0</asrwt>
<pdfrwt beam="2">  1        1 0.10457970E-01 0.24740308E+03</pdfrwt>
<pdfrwt beam="1">  1       -1 0.13418126E+00 0.24740308E+03</pdfrwt>
<totfact> 0.30461918E+02</totfact>
</mgrwt>
</event>
<event>
 8    2  0.7478846E-004  0.1313206E+03  0.7818608E-02  0.1239915E+00
         -1   -1    0    0    0  501 -0.00000000000E+00  0.00000000000E+00  0.14270078191E+02  0.14270079081E+02  0.50400000000E-02 0.  1.
          1   -1    0    0  501    0  0.00000000000E+00 -0.00000000000E+00 -0.10424740198E+04  0.10424740198E+04  0.50400000000E-02 0. -1.
         25    2    1    2    0    0  0.94415697282E+01  0.39107110192E+02 -0.40028134703E+03  0.42127217893E+03  0.12500633046E+03 0.  0.
         23    2    1    2    0    0 -0.94415697282E+01 -0.39107110192E+02 -0.62792259459E+03  0.63547191997E+03  0.88990263355E+02 0.  0.
        -11    1    4    4    0    0 -0.14224904077E+02 -0.60063847491E+02 -0.27265348538E+03  0.27955310186E+03  0.51100000000E-03 0.  1.
         11    1    4    4    0    0  0.47833343486E+01  0.20956737300E+02 -0.35526910921E+03  0.35591881811E+03  0.51100000000E-03 0. -1.
    9000005    1    3    3    0    0  0.45530866079E+02  0.47293372424E+02 -0.36242322670E+03  0.36832230193E+03  0.10000000000E+01 0.  0.
    9000005    1    3    3    0    0 -0.36089296351E+02 -0.81862622321E+01 -0.37858120330E+02  0.52949877010E+02  0.10000000000E+01 0.  0.
<mgrwt>
<rscale>  0 0.12194962E+03</rscale>
<asrwt>0</asrwt>
<pdfrwt beam="2">  1        1 0.16038056E+00 0.13132057E+03</pdfrwt>
<pdfrwt beam="1">  1       -1 0.21953975E-02 0.13132057E+03</pdfrwt>
<totfact> 0.85877994E+03</totfact>
</mgrwt>
</event>
<event>
 8    2  0.7478846E-004  0.1939073E+03  0.7818608E-02  0.1159194E+00
         -1   -1    0    0    0  501 -0.00000000000E+00  0.00000000000E+00  0.10769544740E+03  0.10769544752E+03  0.50400000000E-02 0. -1.
          1   -1    0    0  501    0  0.00000000000E+00 -0.00000000000E+00 -0.33043800831E+03  0.33043800835E+03  0.50400000000E-02 0.  1.
         25    2    1    2    0    0 -0.59944557988E+02 -0.13558069631E+03 -0.72747360088E+02  0.20710439411E+03  0.12499830564E+03 0.  0.
         23    2    1    2    0    0  0.59944557988E+02  0.13558069631E+03 -0.14999520082E+03  0.23102906177E+03  0.94341888191E+02 0.  0.
        -11    1    4    4    0    0  0.50374339232E+02  0.57048275803E+02 -0.19729521725E+02  0.78621459240E+02  0.51100000000E-03 0. -1.
         11    1    4    4    0    0  0.95702187555E+01  0.78532420510E+02 -0.13026567910E+03  0.15240760253E+03  0.51100000000E-03 0.  1.
    9000005    1    3    3    0    0 -0.10400537301E+02 -0.12972866058E+03 -0.15351733061E+02  0.13105102923E+03  0.10000000000E+01 0.  0.
    9000005    1    3    3    0    0 -0.49544020687E+02 -0.58520357288E+01 -0.57395627026E+02  0.76053364881E+02  0.10000000000E+01 0.  0.
<mgrwt>
<rscale>  0 0.18918995E+03</rscale>
<asrwt>0</asrwt>
<pdfrwt beam="2">  1        1 0.50836616E-01 0.19390733E+03</pdfrwt>
<pdfrwt beam="1">  1       -1 0.16568531E-01 0.19390733E+03</pdfrwt>
<totfact> 0.20982580E+03</totfact>
</mgrwt>
</event>
<event>
 8    2  0.7478846E-004  0.1505441E+03  0.7818608E-02  0.1208577E+00
         -1   -1    0    0    0  501 -0.00000000000E+00  0.00000000000E+00  0.19507230190E+02  0.19507230841E+02  0.50400000000E-02 0.  1.
          1   -1    0    0  501    0  0.00000000000E+00 -0.00000000000E+00 -0.10989568906E+04  0.10989568906E+04  0.50400000000E-02 0. -1.
         25    2    1    2    0    0 -0.70554563248E+02  0.45395435506E+02 -0.39399216313E+03  0.42177405712E+03  0.12499935478E+03 0.  0.
         23    2    1    2    0    0  0.70554563248E+02 -0.45395435506E+02 -0.68545749728E+03  0.69669006433E+03  0.92121513220E+02 0.  0.
        -11    1    4    4    0    0  0.26862161728E+02 -0.33186385792E+01 -0.51588899085E+03  0.51659852882E+03  0.51100000000E-03 0. -1.
         11    1    4    4    0    0  0.43692401520E+02 -0.42076796927E+02 -0.16956850643E+03  0.18009153551E+03  0.51100000000E-03 0.  1.
    9000005    1    3    3    0    0 -0.67180066609E+02 -0.27593775710E+02 -0.14341050774E+03  0.16075494250E+03  0.10000000000E+01 0.  0.
    9000005    1    3    3    0    0 -0.33744966392E+01  0.72989211216E+02 -0.25058165538E+03  0.26101911462E+03  0.10000000000E+01 0.  0.
<mgrwt>
<rscale>  0 0.14359093E+03</rscale>
<asrwt>0</asrwt>
<pdfrwt beam="2">  1        1 0.16907024E+00 0.15054412E+03</pdfrwt>
<pdfrwt beam="1">  1       -1 0.30011133E-02 0.15054412E+03</pdfrwt>
<totfact> 0.50018875E+03</totfact>
</mgrwt>
</event>
<event>
 8    2  0.7478846E-004  0.1457100E+03  0.7818608E-02  0.1215518E+00
          1   -1    0    0  501    0  0.00000000000E+00  0.00000000000E+00  0.17186831767E+04  0.17186831767E+04  0.50400000000E-02 0. -1.
         -1   -1    0    0    0  501 -0.00000000000E+00 -0.00000000000E+00 -0.10350979775E+02  0.10350981003E+02  0.50400000000E-02 0.  1.
         25    2    1    2    0    0  0.50376781043E+02 -0.55407970613E+02  0.10578233571E+04  0.10678116232E+04  0.12499417803E+03 0.  0.
         23    2    1    2    0    0 -0.50376781043E+02  0.55407970613E+02  0.65050883982E+03  0.66122253450E+03  0.91900088014E+02 0.  0.
        -11    1    4    4    0    0 -0.27838045180E+02  0.49277558792E+02  0.62106775381E+03  0.62364123451E+03  0.51100000000E-03 0. -1.
         11    1    4    4    0    0 -0.22538735863E+02  0.61304118208E+01  0.29441086006E+02  0.37581299989E+02  0.51100000000E-03 0.  1.
    9000005    1    3    3    0    0  0.73146509563E+02 -0.21053226891E+02  0.93820065730E+03  0.94128376358E+03  0.10000000000E+01 0.  0.
    9000005    1    3    3    0    0 -0.22769728520E+02 -0.34354743722E+02  0.11962269985E+03  0.12652785967E+03  0.10000000000E+01 0.  0.
<mgrwt>
<rscale>  0 0.13838533E+03</rscale>
<asrwt>0</asrwt>
<pdfrwt beam="1">  1        1 0.26441291E+00 0.14571001E+03</pdfrwt>
<pdfrwt beam="2">  1       -1 0.15924578E-02 0.14571001E+03</pdfrwt>
<totfact> 0.48588377E+03</totfact>
</mgrwt>
</event>
<event>
 8    2  0.7478846E-004  0.1778665E+03  0.7818608E-02  0.1175557E+00
          1   -1    0    0  501    0  0.00000000000E+00  0.00000000000E+00  0.82231347072E+02  0.82231347226E+02  0.50400000000E-02 0. -1.
         -1   -1    0    0    0  501 -0.00000000000E+00 -0.00000000000E+00 -0.51130103602E+03  0.51130103604E+03  0.50400000000E-02 0.  1.
         25    2    1    2    0    0  0.96448150933E+02  0.81914937654E+02 -0.51948437332E+02  0.18529739912E+03  0.12499673256E+03 0.  0.
         23    2    1    2    0    0 -0.96448150933E+02 -0.81914937654E+02 -0.37712125161E+03  0.40823498415E+03  0.91777235932E+02 0.  0.
        -11    1    4    4    0    0 -0.56689410299E+02 -0.54512012576E+02 -0.33515765386E+03  0.34426138572E+03  0.51100000000E-03 0.  1.
         11    1    4    4    0    0 -0.39758740634E+02 -0.27402925078E+02 -0.41963597755E+02  0.63973598433E+02  0.51100000000E-03 0. -1.
    9000005    1    3    3    0    0  0.23618890256E+02  0.98344752712E+02 -0.43679977482E+02  0.11017478294E+03  0.10000000000E+01 0.  0.
    9000005    1    3    3    0    0  0.72829260676E+02 -0.16429815058E+02 -0.82684598500E+01  0.75122616180E+02  0.10000000000E+01 0.  0.
<mgrwt>
<rscale>  0 0.17221578E+03</rscale>
<asrwt>0</asrwt>
<pdfrwt beam="1">  1        1 0.12650977E-01 0.17786648E+03</pdfrwt>
<pdfrwt beam="2">  1       -1 0.78661696E-01 0.17786648E+03</pdfrwt>
<totfact> 0.78618251E+02</totfact>
</mgrwt>
</event>
<event>
 8    2  0.7478846E-004  0.1292681E+03  0.7818608E-02  0.1242061E+00
          1   -1    0    0  501    0  0.00000000000E+00  0.00000000000E+00  0.72840916820E+02  0.72840916994E+02  0.50400000000E-02 0. -1.
         -1   -1    0    0    0  501 -0.00000000000E+00 -0.00000000000E+00 -0.18896871211E+03  0.18896871218E+03  0.50400000000E-02 0.  1.
         25    2    1    2    0    0  0.13186327139E+01  0.32915454012E+02 -0.97769018897E+02  0.16207721820E+03  0.12500031079E+03 0.  0.
         23    2    1    2    0    0 -0.13186327139E+01 -0.32915454012E+02 -0.18358776391E+02  0.99732410971E+02  0.92327369845E+02 0.  0.
        -11    1    4    4    0    0 -0.33035282687E+02 -0.79371503081E+01 -0.41156705715E+02  0.53368555187E+02  0.51100000000E-03 0.  1.
         11    1    4    4    0    0  0.31716649973E+02 -0.24978303704E+02  0.22797929324E+02  0.46363855784E+02  0.51100000000E-03 0. -1.
    9000005    1    3    3    0    0  0.87669833178E+00  0.54871199587E+02 -0.11929125421E+03  0.13131268208E+03  0.10000000000E+01 0.  0.
    9000005    1    3    3    0    0  0.44193438215E+00 -0.21955745575E+02  0.21522235313E+02  0.30764536119E+02  0.10000000000E+01 0.  0.
<mgrwt>
<rscale>  0 0.12063024E+03</rscale>
<asrwt>0</asrwt>
<pdfrwt beam="1">  1        1 0.11206295E-01 0.12926811E+03</pdfrwt>
<pdfrwt beam="2">  1       -1 0.29072109E-01 0.12926811E+03</pdfrwt>
<totfact> 0.56245482E+03</totfact>
</mgrwt>
</event>
<event>
 8    2  0.7478846E-004  0.1365686E+03  0.7818608E-02  0.1229371E+00
          1   -1    0    0  501    0  0.00000000000E+00  0.00000000000E+00  0.23157570552E+03  0.23157570557E+03  0.50400000000E-02 0. -1.
         -1   -1    0    0    0  501 -0.00000000000E+00 -0.00000000000E+00 -0.65111276355E+02  0.65111276550E+02  0.50400000000E-02 0.  1.
         25    2    1    2    0    0 -0.47072788981E+02  0.28465242249E+02  0.78113908395E+02  0.15733008425E+03  0.12499942099E+03 0.  0.
         23    2    1    2    0    0  0.47072788981E+02 -0.28465242249E+02  0.88350520768E+02  0.13935689787E+03  0.92673690899E+02 0.  0.
        -11    1    4    4    0    0  0.35712430516E+02 -0.59822726360E+02  0.39150932110E+02  0.79918281813E+02  0.51100000000E-03 0.  1.
         11    1    4    4    0    0  0.11360358465E+02  0.31357484111E+02  0.49199588658E+02  0.59438616056E+02  0.51100000000E-03 0. -1.
    9000005    1    3    3    0    0 -0.47535339898E+02 -0.43336007919E+02  0.43129906063E+02  0.77451965234E+02  0.10000000000E+01 0.  0.
    9000005    1    3    3    0    0  0.46255091702E+00  0.71801250168E+02  0.34984002332E+02  0.79878119020E+02  0.10000000000E+01 0.  0.
<mgrwt>
<rscale>  0 0.12871770E+03</rscale>
<asrwt>0</asrwt>
<pdfrwt beam="1">  1        1 0.35627031E-01 0.13656856E+03</pdfrwt>
<pdfrwt beam="2">  1       -1 0.10017120E-01 0.13656856E+03</pdfrwt>
<totfact> 0.70345769E+03</totfact>
</mgrwt>
</event>
<event>
 8    2  0.7478846E-004  0.1306109E+03  0.7818608E-02  0.1238591E+00
         -1   -1    0    0    0  501 -0.00000000000E+00  0.00000000000E+00  0.27666864319E+03  0.27666864323E+03  0.50400000000E-02 0.  1.
          1   -1    0    0  501    0  0.00000000000E+00 -0.00000000000E+00 -0.58254262540E+02  0.58254262758E+02  0.50400000000E-02 0. -1.
         25    2    1    2    0    0 -0.12898785888E+02  0.35612246233E+02  0.53742792468E+02  0.14123561779E+03  0.12499840492E+03 0.  0.
         23    2    1    2    0    0  0.12898785888E+02 -0.35612246233E+02  0.16467158818E+03  0.19368728820E+03  0.94675355272E+02 0.  0.
        -11    1    4    4    0    0  0.38455432157E+02 -0.17370183328E+02  0.15528345010E+03  0.16091455312E+03  0.51100000000E-03 0.  1.
         11    1    4    4    0    0 -0.25556646269E+02 -0.18242062905E+02  0.93881380851E+01  0.32772735079E+02  0.51100000000E-03 0. -1.
    9000005    1    3    3    0    0 -0.21220310991E+01  0.14345426175E+02  0.93632073066E+02  0.94753677368E+02  0.10000000000E+01 0.  0.
    9000005    1    3    3    0    0 -0.10776754789E+02  0.21266820059E+02 -0.39889280598E+02  0.46481940427E+02  0.10000000000E+01 0.  0.
<mgrwt>
<rscale>  0 0.12277318E+03</rscale>
<asrwt>0</asrwt>
<pdfrwt beam="2">  1        1 0.89621942E-02 0.13061092E+03</pdfrwt>
<pdfrwt beam="1">  1       -1 0.42564407E-01 0.13061092E+03</pdfrwt>
<totfact> 0.39315908E+03</totfact>
</mgrwt>
</event>
<event>
 8    2  0.7478846E-004  0.1282512E+03  0.7818608E-02  0.1245288E+00
         -1   -1    0    0    0  501 -0.00000000000E+00  0.00000000000E+00  0.12585403617E+02  0.12585404626E+02  0.50400000000E-02 0.  1.
          1   -1    0    0  501    0  0.00000000000E+00 -0.00000000000E+00 -0.98481010987E+03  0.98481010988E+03  0.50400000000E-02 0. -1.
         25    2    1    2    0    0 -0.23955428968E+02 -0.15792813077E+02 -0.53264695766E+03  0.54786964537E+03  0.12500036519E+03 0.  0.
         23    2    1    2    0    0  0.23955428968E+02  0.15792813077E+02 -0.43957774859E+03  0.44952586913E+03  0.89563577645E+02 0.  0.
        -11    1    4    4    0    0  0.31810117306E+02  0.26346261568E+02 -0.43272619639E+03  0.43469296073E+03  0.51100000000E-03 0. -1.
         11    1    4    4    0    0 -0.78546883380E+01 -0.10553448491E+02 -0.68515521983E+01  0.14832908404E+02  0.51100000000E-03 0.  1.
    9000005    1    3    3    0    0 -0.11719133849E+02  0.20690724329E+02 -0.13628973072E+02  0.27426138599E+02  0.10000000000E+01 0.  0.
    9000005    1    3    3    0    0 -0.12236295119E+02 -0.36483537407E+02 -0.51901798459E+03  0.52044350677E+03  0.10000000000E+01 0.  0.
<mgrwt>
<rscale>  0 0.11868142E+03</rscale>
<asrwt>0</asrwt>
<pdfrwt beam="2">  1        1 0.15150919E+00 0.12825119E+03</pdfrwt>
<pdfrwt beam="1">  1       -1 0.19362168E-02 0.12825119E+03</pdfrwt>
<totfact> 0.11319707E+04</totfact>
</mgrwt>
</event>
<event>
 8    2  0.7478846E-004  0.1500527E+03  0.7818608E-02  0.1209388E+00
          1   -1    0    0  501    0  0.00000000000E+00  0.00000000000E+00  0.11901774035E+02  0.11901775102E+02  0.50400000000E-02 0. -1.
         -1   -1    0    0    0  501 -0.00000000000E+00 -0.00000000000E+00 -0.16642306114E+04  0.16642306114E+04  0.50400000000E-02 0.  1.
         25    2    1    2    0    0 -0.77080153497E+02  0.30793838248E+02 -0.70691310106E+03  0.72266309602E+03  0.12500482935E+03 0.  0.
         23    2    1    2    0    0  0.77080153497E+02 -0.30793838248E+02 -0.94541573628E+03  0.95346929047E+03  0.91668767420E+02 0.  0.
        -11    1    4    4    0    0  0.45751674276E+02 -0.26967004609E+02 -0.87125288324E+03  0.87286999124E+03  0.51100000000E-03 0.  1.
         11    1    4    4    0    0  0.31328479221E+02 -0.38268336388E+01 -0.74162853036E+02  0.80599299232E+02  0.51100000000E-03 0. -1.
    9000005    1    3    3    0    0 -0.76554866992E+01  0.35121592034E+02 -0.54814026883E+03  0.54931856606E+03  0.10000000000E+01 0.  0.
    9000005    1    3    3    0    0 -0.69424666798E+02 -0.43277537858E+01 -0.15877283223E+03  0.17334452996E+03  0.10000000000E+01 0.  0.
<mgrwt>
<rscale>  0 0.14296959E+03</rscale>
<asrwt>0</asrwt>
<pdfrwt beam="1">  1        1 0.18310436E-02 0.15005272E+03</pdfrwt>
<pdfrwt beam="2">  1       -1 0.25603529E+00 0.15005272E+03</pdfrwt>
<totfact> 0.49574614E+02</totfact>
</mgrwt>
</event>
<event>
 8    2  0.7478846E-004  0.2083247E+03  0.7818608E-02  0.1146847E+00
          1   -1    0    0  501    0  0.00000000000E+00  0.00000000000E+00  0.89569490633E+03  0.89569490635E+03  0.50400000000E-02 0. -1.
         -1   -1    0    0    0  501 -0.00000000000E+00 -0.00000000000E+00 -0.45452584001E+02  0.45452584280E+02  0.50400000000E-02 0.  1.
         25    2    1    2    0    0  0.13465780945E+03  0.98192230267E+02  0.52304293186E+03  0.56300362540E+03  0.12499893567E+03 0.  0.
         23    2    1    2    0    0 -0.13465780945E+03 -0.98192230267E+02  0.32719939047E+03  0.37814386522E+03  0.90326640303E+02 0.  0.
        -11    1    4    4    0    0 -0.12000462298E+03 -0.85728093442E+02  0.19467739677E+03  0.24423288959E+03  0.51100000000E-03 0.  1.
         11    1    4    4    0    0 -0.14653186470E+02 -0.12464136825E+02  0.13252199370E+03  0.13391097564E+03  0.51100000000E-03 0. -1.
    9000005    1    3    3    0    0  0.32623609865E+02  0.99009269601E+02  0.30348533646E+03  0.32089170265E+03  0.10000000000E+01 0.  0.
    9000005    1    3    3    0    0  0.10203419959E+03 -0.81703933363E+00  0.21955759540E+03  0.24211192275E+03  0.10000000000E+01 0.  0.
<mgrwt>
<rscale>  0 0.20346642E+03</rscale>
<asrwt>0</asrwt>
<pdfrwt beam="1">  1        1 0.13779922E+00 0.20832468E+03</pdfrwt>
<pdfrwt beam="2">  1       -1 0.69927051E-02 0.20832468E+03</pdfrwt>
<totfact> 0.20298881E+03</totfact>
</mgrwt>
</event>
<event>
 8    2  0.7478846E-004  0.1353900E+03  0.7818608E-02  0.1231423E+00
         -1   -1    0    0    0  501 -0.00000000000E+00  0.00000000000E+00  0.92033036063E+02  0.92033036201E+02  0.50400000000E-02 0.  1.
          1   -1    0    0  501    0  0.00000000000E+00 -0.00000000000E+00 -0.16421639439E+03  0.16421639446E+03  0.50400000000E-02 0. -1.
         25    2    1    2    0    0 -0.85010913312E+01  0.51303015433E+02 -0.64442119102E+02  0.14994413153E+03  0.12500475159E+03 0.  0.
         23    2    1    2    0    0  0.85010913312E+01 -0.51303015433E+02 -0.77412392219E+01  0.10630529913E+03  0.92393841205E+02 0.  0.
        -11    1    4    4    0    0 -0.36829780296E+02 -0.45896992209E+02 -0.13255377028E+02  0.60321402760E+02  0.51100000000E-03 0.  1.
         11    1    4    4    0    0  0.45330871627E+02 -0.54060232233E+01  0.55141378063E+01  0.45983896373E+02  0.51100000000E-03 0. -1.
    9000005    1    3    3    0    0 -0.12585464116E+02  0.45775425277E+02  0.29397416077E+02  0.55847932265E+02  0.10000000000E+01 0.  0.
    9000005    1    3    3    0    0  0.40843727843E+01  0.55275901558E+01 -0.93839535179E+02  0.94096199268E+02  0.10000000000E+01 0.  0.
<mgrwt>
<rscale>  0 0.12736206E+03</rscale>
<asrwt>0</asrwt>
<pdfrwt beam="2">  1        1 0.25264061E-01 0.13539001E+03</pdfrwt>
<pdfrwt beam="1">  1       -1 0.14158929E-01 0.13539001E+03</pdfrwt>
<totfact> 0.63235182E+03</totfact>
</mgrwt>
</event>
<event>
 8    2  0.7478846E-004  0.1565726E+03  0.7818608E-02  0.1200339E+00
          1   -1    0    0  501    0  0.00000000000E+00  0.00000000000E+00  0.15490653738E+03  0.15490653746E+03  0.50400000000E-02 0. -1.
         -1   -1    0    0    0  501 -0.00000000000E+00 -0.00000000000E+00 -0.31298510109E+03  0.31298510113E+03  0.50400000000E-02 0.  1.
         25    2    1    2    0    0  0.91415611648E+02  0.23106898931E+02  0.94422839878E+02  0.18284049378E+03  0.12499692254E+03 0.  0.
         23    2    1    2    0    0 -0.91415611648E+02 -0.23106898931E+02 -0.25250140359E+03  0.28505114481E+03  0.92770973424E+02 0.  0.
        -11    1    4    4    0    0 -0.35142439914E+02  0.36206010890E+02 -0.92201796802E+02  0.10510488876E+03  0.51100000000E-03 0. -1.
         11    1    4    4    0    0 -0.56273171733E+02 -0.59312909822E+02 -0.16029960679E+03  0.17994625605E+03  0.51100000000E-03 0.  1.
    9000005    1    3    3    0    0  0.59676229903E+02 -0.44595455271E+02  0.19565767007E+02  0.77031333136E+02  0.10000000000E+01 0.  0.
    9000005    1    3    3    0    0  0.31739381745E+02  0.67702354202E+02  0.74857072871E+02  0.10580916065E+03  0.10000000000E+01 0.  0.
<mgrwt>
<rscale>  0 0.15010938E+03</rscale>
<asrwt>0</asrwt>
<pdfrwt beam="1">  1        1 0.23831775E-01 0.15657258E+03</pdfrwt>
<pdfrwt beam="2">  1       -1 0.48151554E-01 0.15657258E+03</pdfrwt>
<totfact> 0.89147631E+02</totfact>
</mgrwt>
</event>
<event>
 8    2  0.7478846E-004  0.1349878E+03  0.7818608E-02  0.1231565E+00
         -1   -1    0    0    0  501 -0.00000000000E+00  0.00000000000E+00  0.99363991272E+02  0.99363991400E+02  0.50400000000E-02 0.  1.
          1   -1    0    0  501    0  0.00000000000E+00 -0.00000000000E+00 -0.14904593595E+03  0.14904593604E+03  0.50400000000E-02 0. -1.
         25    2    1    2    0    0  0.48778848395E+02  0.14741719393E+02 -0.12979959290E+02  0.13561043575E+03  0.12500006640E+03 0.  0.
         23    2    1    2    0    0 -0.48778848395E+02 -0.14741719393E+02 -0.36701985388E+02  0.11279949168E+03  0.93701628863E+02 0.  0.
        -11    1    4    4    0    0 -0.46782413084E+02  0.82894425761E+01 -0.62273041419E+02  0.78327777448E+02  0.51100000000E-03 0. -1.
         11    1    4    4    0    0 -0.19964353102E+01 -0.23031161969E+02  0.25571056031E+02  0.34471714236E+02  0.51100000000E-03 0.  1.
    9000005    1    3    3    0    0  0.45126848362E+02 -0.45077968837E+02 -0.33755490526E+02  0.72172632335E+02  0.10000000000E+01 0.  0.
    9000005    1    3    3    0    0  0.36520000330E+01  0.59819688230E+02  0.20775531235E+02  0.63437803416E+02  0.10000000000E+01 0.  0.
<mgrwt>
<rscale>  0 0.12726908E+03</rscale>
<asrwt>0</asrwt>
<pdfrwt beam="2">  1        1 0.22930144E-01 0.13498782E+03</pdfrwt>
<pdfrwt beam="1">  1       -1 0.15286768E-01 0.13498782E+03</pdfrwt>
<totfact> 0.63347741E+03</totfact>
</mgrwt>
</event>
<event>
 8    2  0.7478846E-004  0.1453506E+03  0.7818608E-02  0.1217457E+00
          1   -1    0    0  501    0  0.00000000000E+00  0.00000000000E+00  0.11124666621E+03  0.11124666633E+03  0.50400000000E-02 0. -1.
         -1   -1    0    0    0  501 -0.00000000000E+00 -0.00000000000E+00 -0.16329616710E+03  0.16329616718E+03  0.50400000000E-02 0.  1.
         25    2    1    2    0    0 -0.44856214539E+02  0.59002885709E+02  0.71423008249E+01  0.14552600553E+03  0.12503353678E+03 0.  0.
         23    2    1    2    0    0  0.44856214539E+02 -0.59002885709E+02 -0.59191801712E+02  0.12901682797E+03  0.87454285230E+02 0.  0.
        -11    1    4    4    0    0  0.15047836004E+02  0.17928478424E+02  0.56530695537E+01  0.24079553622E+02  0.51100000000E-03 0.  1.
         11    1    4    4    0    0  0.29808378535E+02 -0.76931364133E+02 -0.64844871266E+02  0.10493727435E+03  0.51100000000E-03 0. -1.
    9000005    1    3    3    0    0 -0.57441882460E+02 -0.22851816516E+02 -0.39967994287E+01  0.61957645084E+02  0.10000000000E+01 0.  0.
    9000005    1    3    3    0    0  0.12585667921E+02  0.81854702225E+02  0.11139100254E+02  0.83568360448E+02  0.10000000000E+01 0.  0.
<mgrwt>
<rscale>  0 0.13697586E+03</rscale>
<asrwt>0</asrwt>
<pdfrwt beam="1">  1        1 0.17114872E-01 0.14535063E+03</pdfrwt>
<pdfrwt beam="2">  1       -1 0.25122487E-01 0.14535063E+03</pdfrwt>
<totfact> 0.41607018E+03</totfact>
</mgrwt>
</event>
<event>
 8    2  0.7478846E-004  0.2693276E+03  0.7818608E-02  0.1104063E+00
          1   -1    0    0  501    0  0.00000000000E+00  0.00000000000E+00  0.36226665002E+02  0.36226665353E+02  0.50400000000E-02 0. -1.
         -1   -1    0    0    0  501 -0.00000000000E+00 -0.00000000000E+00 -0.19062953741E+04  0.19062953741E+04  0.50400000000E-02 0.  1.
         25    2    1    2    0    0  0.68698284774E+02 -0.22845720941E+03 -0.85856165958E+03  0.89981413247E+03  0.12500079532E+03 0.  0.
         23    2    1    2    0    0 -0.68698284774E+02  0.22845720941E+03 -0.10115070495E+04  0.10427079070E+04  0.84741472779E+02 0.  0.
        -11    1    4    4    0    0 -0.14694963632E+02  0.16404787041E+03 -0.75589156649E+03  0.77362762750E+03  0.51100000000E-03 0.  1.
         11    1    4    4    0    0 -0.54003321142E+02  0.64409338997E+02 -0.25561548301E+03  0.26908027947E+03  0.51100000000E-03 0. -1.
    9000005    1    3    3    0    0  0.62169383958E+02 -0.22605483921E+03 -0.64755207418E+03  0.68868752814E+03  0.10000000000E+01 0.  0.
    9000005    1    3    3    0    0  0.65289008159E+01 -0.24023702000E+01 -0.21100958540E+03  0.21112660434E+03  0.10000000000E+01 0.  0.
<mgrwt>
<rscale>  0 0.26519308E+03</rscale>
<asrwt>0</asrwt>
<pdfrwt beam="1">  1        1 0.55733346E-02 0.26932759E+03</pdfrwt>
<pdfrwt beam="2">  1       -1 0.29327613E+00 0.26932759E+03</pdfrwt>
<totfact> 0.60902647E+01</totfact>
</mgrwt>
</event>
<event>
 8    2  0.7478846E-004  0.1302859E+03  0.7818608E-02  0.1239132E+00
          1   -1    0    0  501    0  0.00000000000E+00  0.00000000000E+00  0.24102018308E+03  0.24102018313E+03  0.50400000000E-02 0. -1.
         -1   -1    0    0    0  501 -0.00000000000E+00 -0.00000000000E+00 -0.57076487876E+02  0.57076488098E+02  0.50400000000E-02 0.  1.
         25    2    1    2    0    0 -0.20303850365E+02  0.30618639863E+02  0.80791231475E+02  0.15330246993E+03  0.12499870703E+03 0.  0.
         23    2    1    2    0    0  0.20303850365E+02 -0.30618639863E+02  0.10315246373E+03  0.14479420129E+03  0.94737439846E+02 0.  0.
        -11    1    4    4    0    0  0.16763135162E+02 -0.37523243799E+02 -0.25282863663E+00  0.41098180595E+02  0.51100000000E-03 0.  1.
         11    1    4    4    0    0  0.35407152031E+01  0.69046039364E+01  0.10340529236E+03  0.10369602070E+03  0.51100000000E-03 0. -1.
    9000005    1    3    3    0    0 -0.70804314503E+02  0.40273916180E+01  0.58802426707E+02  0.92131407360E+02  0.10000000000E+01 0.  0.
    9000005    1    3    3    0    0  0.50500464138E+02  0.26591248245E+02  0.21988804769E+02  0.61171062575E+02  0.10000000000E+01 0.  0.
<mgrwt>
<rscale>  0 0.12243597E+03</rscale>
<asrwt>0</asrwt>
<pdfrwt beam="1">  1        1 0.37080029E-01 0.13028593E+03</pdfrwt>
<pdfrwt beam="2">  1       -1 0.87809981E-02 0.13028593E+03</pdfrwt>
<totfact> 0.81524539E+03</totfact>
</mgrwt>
</event>
<event>
 8    2  0.7478846E-004  0.1801356E+03  0.7818608E-02  0.1173509E+00
          1   -1    0    0  501    0  0.00000000000E+00  0.00000000000E+00  0.16015165568E+03  0.16015165575E+03  0.50400000000E-02 0.  1.
         -1   -1    0    0    0  501 -0.00000000000E+00 -0.00000000000E+00 -0.24785857376E+03  0.24785857381E+03  0.50400000000E-02 0. -1.
         25    2    1    2    0    0 -0.76723166124E+02 -0.10455962459E+03 -0.15400456399E+03  0.23699419790E+03  0.12501873777E+03 0.  0.
         23    2    1    2    0    0  0.76723166124E+02  0.10455962459E+03  0.66297645905E+02  0.17101603167E+03  0.89621124298E+02 0.  0.
        -11    1    4    4    0    0  0.84147385504E+02  0.72765648468E+02  0.17961751784E+02  0.11268649702E+03  0.51100000000E-03 0. -1.
         11    1    4    4    0    0 -0.74242193803E+01  0.31793976120E+02  0.48335894121E+02  0.58329534643E+02  0.51100000000E-03 0.  1.
    9000005    1    3    3    0    0 -0.11145624874E+03 -0.83317284572E+02 -0.11379114536E+03  0.17976009027E+03  0.10000000000E+01 0.  0.
    9000005    1    3    3    0    0  0.34733082621E+02 -0.21242340016E+02 -0.40213418631E+02  0.57234107626E+02  0.10000000000E+01 0.  0.
<mgrwt>
<rscale>  0 0.17422799E+03</rscale>
<asrwt>0</asrwt>
<pdfrwt beam="1">  1        1 0.24638716E-01 0.18013563E+03</pdfrwt>
<pdfrwt beam="2">  1       -1 0.38132088E-01 0.18013563E+03</pdfrwt>
<totfact> 0.12992372E+03</totfact>
</mgrwt>
</event>
<event>
 8    2  0.7478846E-004  0.1562142E+03  0.7818608E-02  0.1199981E+00
          1   -1    0    0  501    0  0.00000000000E+00  0.00000000000E+00  0.10112960290E+03  0.10112960303E+03  0.50400000000E-02 0. -1.
         -1   -1    0    0    0  501 -0.00000000000E+00 -0.00000000000E+00 -0.20944588172E+03  0.20944588178E+03  0.50400000000E-02 0.  1.
         25    2    1    2    0    0  0.72426427321E+02  0.59444198038E+02 -0.48035442943E+02  0.16343279027E+03  0.12499469230E+03 0.  0.
         23    2    1    2    0    0 -0.72426427321E+02 -0.59444198038E+02 -0.60280835875E+02  0.14714269454E+03  0.96114480319E+02 0.  0.
        -11    1    4    4    0    0 -0.61434486231E+02 -0.43829102657E+02  0.83292655783E+01  0.75924719318E+02  0.51100000000E-03 0. -1.
         11    1    4    4    0    0 -0.10991941090E+02 -0.15615095382E+02 -0.68610101453E+02  0.71217975220E+02  0.51100000000E-03 0.  1.
    9000005    1    3    3    0    0  0.98915326522E+02  0.13121849971E+02 -0.46374244461E+02  0.11003633635E+03  0.10000000000E+01 0.  0.
    9000005    1    3    3    0    0 -0.26488899201E+02  0.46322348067E+02 -0.16611984820E+01  0.53396453925E+02  0.10000000000E+01 0.  0.
<mgrwt>
<rscale>  0 0.15040118E+03</rscale>
<asrwt>0</asrwt>
<pdfrwt beam="1">  1        1 0.15558400E-01 0.15621419E+03</pdfrwt>
<pdfrwt beam="2">  1       -1 0.32222443E-01 0.15621419E+03</pdfrwt>
<totfact> 0.31149221E+03</totfact>
</mgrwt>
</event>
<event>
 8    2  0.7478846E-004  0.1659151E+03  0.7818608E-02  0.1188946E+00
         -1   -1    0    0    0  501 -0.00000000000E+00  0.00000000000E+00  0.13268652973E+03  0.13268652983E+03  0.50400000000E-02 0.  1.
          1   -1    0    0  501    0  0.00000000000E+00 -0.00000000000E+00 -0.26958294925E+03  0.26958294930E+03  0.50400000000E-02 0. -1.
         25    2    1    2    0    0  0.69988056297E+02 -0.83752493702E+02  0.44205326867E+02  0.17170306927E+03  0.12496009303E+03 0.  0.
         23    2    1    2    0    0 -0.69988056297E+02  0.83752493702E+02 -0.18110174639E+03  0.23056640985E+03  0.91925070471E+02 0.  0.
        -11    1    4    4    0    0 -0.12584816739E+02  0.25484708696E+02 -0.13230291005E+03  0.13532149865E+03  0.51100000000E-03 0. -1.
         11    1    4    4    0    0 -0.57403239557E+02  0.58267785006E+02 -0.48798836343E+02  0.95244911202E+02  0.51100000000E-03 0.  1.
    9000005    1    3    3    0    0  0.67796955257E+02 -0.63114237825E+02  0.85127785468E+02  0.12580768664E+03  0.10000000000E+01 0.  0.
    9000005    1    3    3    0    0  0.21911010392E+01 -0.20638255877E+02 -0.40922458600E+02  0.45895382636E+02  0.10000000000E+01 0.  0.
<mgrwt>
<rscale>  0 0.15977904E+03</rscale>
<asrwt>0</asrwt>
<pdfrwt beam="2">  1        1 0.41474300E-01 0.16591514E+03</pdfrwt>
<pdfrwt beam="1">  1       -1 0.20413312E-01 0.16591514E+03</pdfrwt>
<totfact> 0.19268919E+03</totfact>
</mgrwt>
</event>
<event>
 8    2  0.7478846E-004  0.1359992E+03  0.7818608E-02  0.1231081E+00
          1   -1    0    0  501    0  0.00000000000E+00  0.00000000000E+00  0.56601912453E+03  0.56601912456E+03  0.50400000000E-02 0. -1.
         -1   -1    0    0    0  501 -0.00000000000E+00 -0.00000000000E+00 -0.28861310316E+02  0.28861310756E+02  0.50400000000E-02 0.  1.
         25    2    1    2    0    0 -0.74844352236E+01 -0.53053980458E+02  0.20166761949E+03  0.24323981259E+03  0.12500014426E+03 0.  0.
         23    2    1    2    0    0  0.74844352236E+01  0.53053980458E+02  0.33549019472E+03  0.35164062272E+03  0.90701241325E+02 0.  0.
        -11    1    4    4    0    0 -0.28327702447E+02  0.46987983652E+02  0.10664846094E+03  0.11993424679E+03  0.51100000000E-03 0.  1.
         11    1    4    4    0    0  0.35812137670E+02  0.60659968056E+01  0.22884173379E+03  0.23170637593E+03  0.51100000000E-03 0. -1.
    9000005    1    3    3    0    0  0.26424827241E+02 -0.72162652016E+02  0.63510484844E+02  0.99701060806E+02  0.10000000000E+01 0.  0.
    9000005    1    3    3    0    0 -0.33909262465E+02  0.19108671559E+02  0.13815713465E+03  0.14353875178E+03  0.10000000000E+01 0.  0.
<mgrwt>
<rscale>  0 0.12758663E+03</rscale>
<asrwt>0</asrwt>
<pdfrwt beam="1">  1        1 0.87079860E-01 0.13599918E+03</pdfrwt>
<pdfrwt beam="2">  1       -1 0.44402019E-02 0.13599918E+03</pdfrwt>
<totfact> 0.76928966E+03</totfact>
</mgrwt>
</event>
<event>
 8    2  0.7478846E-004  0.1508949E+03  0.7818608E-02  0.1207586E+00
         -1   -1    0    0    0  501 -0.00000000000E+00  0.00000000000E+00  0.12691276099E+02  0.12691277100E+02  0.50400000000E-02 0.  1.
          1   -1    0    0  501    0  0.00000000000E+00 -0.00000000000E+00 -0.15164686007E+04  0.15164686007E+04  0.50400000000E-02 0. -1.
         25    2    1    2    0    0  0.84393963508E+02  0.46796684978E+01 -0.79119552963E+03  0.80545616016E+03  0.12500007783E+03 0.  0.
         23    2    1    2    0    0 -0.84393963508E+02 -0.46796684978E+01 -0.71258179492E+03  0.72370371760E+03  0.93968165039E+02 0.  0.
        -11    1    4    4    0    0 -0.62128204999E+02 -0.52192544369E-01 -0.17606420299E+03  0.18670436566E+03  0.51100000000E-03 0.  1.
         11    1    4    4    0    0 -0.22265758508E+02 -0.46274759534E+01 -0.53651759193E+03  0.53699935194E+03  0.51100000000E-03 0. -1.
    9000005    1    3    3    0    0  0.12479368039E+02  0.30149036729E+02 -0.57970913755E+03  0.58062757702E+03  0.10000000000E+01 0.  0.
    9000005    1    3    3    0    0  0.71914595469E+02 -0.25469368231E+02 -0.21148639209E+03  0.22482858314E+03  0.10000000000E+01 0.  0.
<mgrwt>
<rscale>  0 0.14435553E+03</rscale>
<asrwt>0</asrwt>
<pdfrwt beam="2">  1        1 0.23330272E+00 0.15089486E+03</pdfrwt>
<pdfrwt beam="1">  1       -1 0.19525053E-02 0.15089486E+03</pdfrwt>
<totfact> 0.48914125E+03</totfact>
</mgrwt>
</event>
<event>
 8    2  0.7478846E-004  0.1311076E+03  0.7818608E-02  0.1238896E+00
          1   -1    0    0  501    0  0.00000000000E+00  0.00000000000E+00  0.57869049421E+03  0.57869049424E+03  0.50400000000E-02 0. -1.
         -1   -1    0    0    0  501 -0.00000000000E+00 -0.00000000000E+00 -0.48276309938E+02  0.48276310201E+02  0.50400000000E-02 0.  1.
         25    2    1    2    0    0 -0.24232726928E+02  0.31249688039E+02  0.50753476198E+03  0.52419533353E+03  0.12500178009E+03 0.  0.
         23    2    1    2    0    0  0.24232726928E+02 -0.31249688039E+02  0.22879422300E+02  0.10277147090E+03  0.92058346770E+02 0.  0.
        -11    1    4    4    0    0  0.20246484124E+02  0.16251345129E+02 -0.24403234932E+02  0.35630663947E+02  0.51100000000E-03 0.  1.
         11    1    4    4    0    0  0.39862428037E+01 -0.47501033168E+02  0.47282657232E+02  0.67140806957E+02  0.51100000000E-03 0. -1.
    9000005    1    3    3    0    0 -0.39447416569E+02  0.72049358507E+02  0.25420847016E+03  0.26715193250E+03  0.10000000000E+01 0.  0.
    9000005    1    3    3    0    0  0.15214689641E+02 -0.40799670468E+02  0.25332629182E+03  0.25704340104E+03  0.10000000000E+01 0.  0.
<mgrwt>
<rscale>  0 0.12258283E+03</rscale>
<asrwt>0</asrwt>
<pdfrwt beam="1">  1        1 0.89029304E-01 0.13110764E+03</pdfrwt>
<pdfrwt beam="2">  1       -1 0.74271248E-02 0.13110764E+03</pdfrwt>
<totfact> 0.34688546E+03</totfact>
</mgrwt>
</event>
<event>
 8    2  0.7478846E-004  0.1353029E+03  0.7818608E-02  0.1232379E+00
          1   -1    0    0  501    0  0.00000000000E+00  0.00000000000E+00  0.84546491249E+03  0.84546491250E+03  0.50400000000E-02 0. -1.
         -1   -1    0    0    0  501 -0.00000000000E+00 -0.00000000000E+00 -0.20200780301E+02  0.20200780930E+02  0.50400000000E-02 0.  1.
         25    2    1    2    0    0 -0.49626137783E+02 -0.15287839535E+02  0.62991676857E+03  0.64428410934E+03  0.12494161291E+03 0.  0.
         23    2    1    2    0    0  0.49626137783E+02  0.15287839535E+02  0.19534736362E+03  0.22138158409E+03  0.90292534097E+02 0.  0.
        -11    1    4    4    0    0  0.12182290534E+02 -0.26322424221E+02  0.13885762727E+03  0.14185456944E+03  0.51100000000E-03 0. -1.
         11    1    4    4    0    0  0.37443847249E+02  0.41610263756E+02  0.56489736349E+02  0.79527014654E+02  0.51100000000E-03 0.  1.
    9000005    1    3    3    0    0  0.14016876119E+02  0.44892896023E+02  0.19057320786E+03  0.19629312898E+03  0.10000000000E+01 0.  0.
    9000005    1    3    3    0    0 -0.63643013903E+02 -0.60180735558E+02  0.43934356071E+03  0.44799098036E+03  0.10000000000E+01 0.  0.
<mgrwt>
<rscale>  0 0.12673750E+03</rscale>
<asrwt>0</asrwt>
<pdfrwt beam="1">  1        1 0.13007150E+00 0.13530291E+03</pdfrwt>
<pdfrwt beam="2">  1       -1 0.31078130E-02 0.13530291E+03</pdfrwt>
<totfact> 0.73085789E+03</totfact>
</mgrwt>
</event>
<event>
 8    2  0.7478846E-004  0.1523622E+03  0.7818608E-02  0.1206772E+00
          1   -1    0    0  501    0  0.00000000000E+00  0.00000000000E+00  0.42325601079E+03  0.42325601082E+03  0.50400000000E-02 0. -1.
         -1   -1    0    0    0  501 -0.00000000000E+00 -0.00000000000E+00 -0.54150555701E+02  0.54150555936E+02  0.50400000000E-02 0.  1.
         25    2    1    2    0    0  0.72676766811E+02 -0.48026812357E+02  0.10439900239E+03  0.18469809219E+03  0.12500298564E+03 0.  0.
         23    2    1    2    0    0 -0.72676766811E+02  0.48026812357E+02  0.26470645270E+03  0.29270847457E+03  0.89555892284E+02 0.  0.
        -11    1    4    4    0    0 -0.10459805638E+02 -0.25327114774E+02  0.42378626672E+02  0.50466011093E+02  0.51100000000E-03 0. -1.
         11    1    4    4    0    0 -0.62216961172E+02  0.73353927131E+02  0.22232782603E+03  0.24224246348E+03  0.51100000000E-03 0.  1.
    9000005    1    3    3    0    0  0.17458323858E+02  0.58463935728E+01  0.10593833657E+03  0.10753094692E+03  0.10000000000E+01 0.  0.
    9000005    1    3    3    0    0  0.55218442953E+02 -0.53873205930E+02 -0.15393341838E+01  0.77167145270E+02  0.10000000000E+01 0.  0.
<mgrwt>
<rscale>  0 0.14498694E+03</rscale>
<asrwt>0</asrwt>
<pdfrwt beam="1">  1        1 0.65116307E-01 0.15236218E+03</pdfrwt>
<pdfrwt beam="2">  1       -1 0.83308551E-02 0.15236218E+03</pdfrwt>
<totfact> 0.44180372E+03</totfact>
</mgrwt>
</event>
<event>
 8    2  0.7478846E-004  0.2081208E+03  0.7818608E-02  0.1147316E+00
          1   -1    0    0  501    0  0.00000000000E+00  0.00000000000E+00  0.11331112554E+04  0.11331112554E+04  0.50400000000E-02 0. -1.
         -1   -1    0    0    0  501 -0.00000000000E+00 -0.00000000000E+00 -0.38669060992E+02  0.38669061320E+02  0.50400000000E-02 0.  1.
         25    2    1    2    0    0 -0.15041738718E+03  0.71167011035E+02  0.38274293448E+03  0.43566778682E+03  0.12499653096E+03 0.  0.
         23    2    1    2    0    0  0.15041738718E+03 -0.71167011035E+02  0.71169925992E+03  0.73611252990E+03  0.87496778682E+02 0.  0.
        -11    1    4    4    0    0  0.49049204567E+02 -0.44664755297E+02  0.43888641418E+03  0.44387165869E+03  0.51100000000E-03 0.  1.
         11    1    4    4    0    0  0.10136818262E+03 -0.26502255739E+02  0.27281284574E+03  0.29224087121E+03  0.51100000000E-03 0. -1.
    9000005    1    3    3    0    0 -0.73630748570E+02  0.10936561725E+02  0.29559605100E+03  0.30482637826E+03  0.10000000000E+01 0.  0.
    9000005    1    3    3    0    0 -0.76786638615E+02  0.60230449310E+02  0.87146883480E+02  0.13084140856E+03  0.10000000000E+01 0.  0.
<mgrwt>
<rscale>  0 0.20289852E+03</rscale>
<asrwt>0</asrwt>
<pdfrwt beam="1">  1        1 0.17432481E+00 0.20812080E+03</pdfrwt>
<pdfrwt beam="2">  1       -1 0.59490863E-02 0.20812080E+03</pdfrwt>
<totfact> 0.17276822E+03</totfact>
</mgrwt>
</event>
<event>
 8    2  0.7478846E-004  0.1659371E+03  0.7818608E-02  0.1189059E+00
          1   -1    0    0  501    0  0.00000000000E+00  0.00000000000E+00  0.13561892236E+04  0.13561892236E+04  0.50400000000E-02 0. -1.
         -1   -1    0    0    0  501 -0.00000000000E+00 -0.00000000000E+00 -0.17572388539E+02  0.17572389262E+02  0.50400000000E-02 0.  1.
         25    2    1    2    0    0 -0.14255301442E+02 -0.10820120856E+03  0.68063345365E+03  0.70056906251E+03  0.12499759185E+03 0.  0.
         23    2    1    2    0    0  0.14255301442E+02  0.10820120856E+03  0.65798338139E+03  0.67319255034E+03  0.91298217363E+02 0.  0.
        -11    1    4    4    0    0 -0.12385362230E+02 -0.12084501623E+02  0.51724643025E+02  0.54542378692E+02  0.51100000000E-03 0.  1.
         11    1    4    4    0    0  0.26640663672E+02  0.12028571018E+03  0.60625873836E+03  0.61865017165E+03  0.51100000000E-03 0. -1.
    9000005    1    3    3    0    0 -0.63639533453E+02 -0.95257988724E+02  0.45052628343E+03  0.46486450358E+03  0.10000000000E+01 0.  0.
    9000005    1    3    3    0    0  0.49384232011E+02 -0.12943219836E+02  0.23010717022E+03  0.23570455893E+03  0.10000000000E+01 0.  0.
<mgrwt>
<rscale>  0 0.15967988E+03</rscale>
<asrwt>0</asrwt>
<pdfrwt beam="1">  1        1 0.20864464E+00 0.16593708E+03</pdfrwt>
<pdfrwt beam="2">  1       -1 0.27034425E-02 0.16593708E+03</pdfrwt>
<totfact> 0.38951703E+03</totfact>
</mgrwt>
</event>
<event>
 8    2  0.7478846E-004  0.1298278E+03  0.7818608E-02  0.1241479E+00
         -1   -1    0    0    0  501 -0.00000000000E+00  0.00000000000E+00  0.10959848071E+02  0.10959849230E+02  0.50400000000E-02 0.  1.
          1   -1    0    0  501    0  0.00000000000E+00 -0.00000000000E+00 -0.12101248485E+04  0.12101248485E+04  0.50400000000E-02 0. -1.
         25    2    1    2    0    0 -0.16948184633E+02 -0.30691309101E+02 -0.59133811726E+03  0.60542219871E+03  0.12500428936E+03 0.  0.
         23    2    1    2    0    0  0.16948184633E+02  0.30691309101E+02 -0.60782688318E+03  0.61566249904E+03  0.91419885061E+02 0.  0.
        -11    1    4    4    0    0  0.33739475981E+02 -0.48827322566E+01 -0.88362088777E+02  0.94710358710E+02  0.51100000000E-03 0.  1.
         11    1    4    4    0    0 -0.16791291349E+02  0.35574041358E+02 -0.51946479441E+03  0.52095214033E+03  0.51100000000E-03 0. -1.
    9000005    1    3    3    0    0  0.40521033531E+02  0.26751588696E+02 -0.21999258879E+03  0.22528945998E+03  0.10000000000E+01 0.  0.
    9000005    1    3    3    0    0 -0.57469218164E+02 -0.57442897797E+02 -0.37134552846E+03  0.38013273873E+03  0.10000000000E+01 0.  0.
<mgrwt>
<rscale>  0 0.12098598E+03</rscale>
<asrwt>0</asrwt>
<pdfrwt beam="2">  1        1 0.18617295E+00 0.12982785E+03</pdfrwt>
<pdfrwt beam="1">  1       -1 0.16861315E-02 0.12982785E+03</pdfrwt>
<totfact> 0.95852161E+03</totfact>
</mgrwt>
</event>
<event>
 8    2  0.7478846E-004  0.2080314E+03  0.7818608E-02  0.1147010E+00
          1   -1    0    0  501    0  0.00000000000E+00  0.00000000000E+00  0.29552598216E+02  0.29552598646E+02  0.50400000000E-02 0. -1.
         -1   -1    0    0    0  501 -0.00000000000E+00 -0.00000000000E+00 -0.13797271008E+04  0.13797271008E+04  0.50400000000E-02 0.  1.
         25    2    1    2    0    0  0.23723292342E+02  0.16456628210E+03 -0.58254990764E+03  0.61858019244E+03  0.12502881178E+03 0.  0.
         23    2    1    2    0    0 -0.23723292342E+02 -0.16456628210E+03 -0.76762459490E+03  0.79069950698E+03  0.91177496324E+02 0.  0.
        -11    1    4    4    0    0 -0.22578569754E+02  0.12813109012E+01 -0.12428120296E+03  0.12632201304E+03  0.51100000000E-03 0. -1.
         11    1    4    4    0    0 -0.11447225879E+01 -0.16584759300E+03 -0.64334339194E+03  0.66437749394E+03  0.51100000000E-03 0.  1.
    9000005    1    3    3    0    0 -0.42789420577E+02  0.10302393902E+03 -0.24731837263E+03  0.27131576431E+03  0.10000000000E+01 0.  0.
    9000005    1    3    3    0    0  0.66512712919E+02  0.61542343082E+02 -0.33523153501E+03  0.34726442812E+03  0.10000000000E+01 0.  0.
<mgrwt>
<rscale>  0 0.20326911E+03</rscale>
<asrwt>0</asrwt>
<pdfrwt beam="1">  1        1 0.45465547E-02 0.20803139E+03</pdfrwt>
<pdfrwt beam="2">  1       -1 0.21226566E+00 0.20803139E+03</pdfrwt>
<totfact> 0.26395690E+02</totfact>
</mgrwt>
</event>
<event>
 8    2  0.7478846E-004  0.1411600E+03  0.7818608E-02  0.1222783E+00
          1   -1    0    0  501    0  0.00000000000E+00  0.00000000000E+00  0.19885294070E+03  0.19885294076E+03  0.50400000000E-02 0. -1.
         -1   -1    0    0    0  501 -0.00000000000E+00 -0.00000000000E+00 -0.85547646393E+02  0.85547646542E+02  0.50400000000E-02 0.  1.
         25    2    1    2    0    0 -0.54380554359E+02  0.36661305690E+02  0.28557445993E+02  0.14401971340E+03  0.12499941640E+03 0.  0.
         23    2    1    2    0    0  0.54380554359E+02 -0.36661305690E+02  0.84747848309E+02  0.14038087390E+03  0.90682390441E+02 0.  0.
        -11    1    4    4    0    0  0.46801515755E+02 -0.15121007228E+02 -0.34215829006E+01  0.49302474241E+02  0.51100000000E-03 0.  1.
         11    1    4    4    0    0  0.75790386048E+01 -0.21540298462E+02  0.88169431210E+02  0.91078399657E+02  0.51100000000E-03 0. -1.
    9000005    1    3    3    0    0 -0.36569910639E+02  0.50001595316E+02  0.72128798783E+02  0.95084601867E+02  0.10000000000E+01 0.  0.
    9000005    1    3    3    0    0 -0.17810643721E+02 -0.13340289627E+02 -0.43571352790E+02  0.48935111536E+02  0.10000000000E+01 0.  0.
<mgrwt>
<rscale>  0 0.13320000E+03</rscale>
<asrwt>0</asrwt>
<pdfrwt beam="1">  1        1 0.30592760E-01 0.14116002E+03</pdfrwt>
<pdfrwt beam="2">  1       -1 0.13161177E-01 0.14116002E+03</pdfrwt>
<totfact> 0.55940463E+03</totfact>
</mgrwt>
</event>
<event>
 8    2  0.7478846E-004  0.1321379E+03  0.7818608E-02  0.1233387E+00
          1   -1    0    0  501    0  0.00000000000E+00  0.00000000000E+00  0.68787832684E+02  0.68787832869E+02  0.50400000000E-02 0. -1.
         -1   -1    0    0    0  501 -0.00000000000E+00 -0.00000000000E+00 -0.25177666347E+03  0.25177666352E+03  0.50400000000E-02 0.  1.
         25    2    1    2    0    0  0.37742360144E+02 -0.20283343765E+02 -0.16197421732E+03  0.20903606713E+03  0.12499812200E+03 0.  0.
         23    2    1    2    0    0 -0.37742360144E+02  0.20283343765E+02 -0.21014613464E+02  0.11152842925E+03  0.10080216649E+03 0.  0.
        -11    1    4    4    0    0  0.11011609469E+02  0.37903596064E+02 -0.40118617254E+02  0.56280028325E+02  0.51100000000E-03 0.  1.
         11    1    4    4    0    0 -0.48753969613E+02 -0.17620252299E+02  0.19104003790E+02  0.55248400929E+02  0.51100000000E-03 0. -1.
    9000005    1    3    3    0    0  0.19452233259E+02 -0.47183138321E+02 -0.80102184022E+01  0.51670122116E+02  0.10000000000E+01 0.  0.
    9000005    1    3    3    0    0  0.18290126885E+02  0.26899794556E+02 -0.15396399892E+03  0.15736594502E+03  0.10000000000E+01 0.  0.
<mgrwt>
<rscale>  0 0.12608243E+03</rscale>
<asrwt>0</asrwt>
<pdfrwt beam="1">  1        1 0.10582744E-01 0.13213792E+03</pdfrwt>
<pdfrwt beam="2">  1       -1 0.38734871E-01 0.13213792E+03</pdfrwt>
<totfact> 0.37242200E+03</totfact>
</mgrwt>
</event>
<event>
 8    2  0.7478846E-004  0.1263136E+03  0.7818608E-02  0.1247953E+00
          1   -1    0    0  501    0  0.00000000000E+00  0.00000000000E+00  0.97898992944E+02  0.97898993073E+02  0.50400000000E-02 0. -1.
         -1   -1    0    0    0  501 -0.00000000000E+00 -0.00000000000E+00 -0.12435289805E+03  0.12435289815E+03  0.50400000000E-02 0.  1.
         25    2    1    2    0    0  0.17545211615E+02 -0.47357740270E+01 -0.25892943178E+02  0.12894017848E+03  0.12499945246E+03 0.  0.
         23    2    1    2    0    0 -0.17545211615E+02  0.47357740270E+01 -0.56096192397E+00  0.93311712739E+02  0.91523215906E+02 0.  0.
        -11    1    4    4    0    0  0.24889473080E+00 -0.10267771071E+02 -0.43378016454E+02  0.44577364021E+02  0.51100000000E-03 0.  1.
         11    1    4    4    0    0 -0.17794106346E+02  0.15003545098E+02  0.42817054530E+02  0.48734348718E+02  0.51100000000E-03 0. -1.
    9000005    1    3    3    0    0  0.11274306136E+02  0.55338191877E+02  0.11845268413E+02  0.57712527608E+02  0.10000000000E+01 0.  0.
    9000005    1    3    3    0    0  0.62709054785E+01 -0.60073965904E+02 -0.37738211591E+02  0.71227650874E+02  0.10000000000E+01 0.  0.
<mgrwt>
<rscale>  0 0.11710344E+03</rscale>
<asrwt>0</asrwt>
<pdfrwt beam="1">  1        1 0.15061384E-01 0.12631360E+03</pdfrwt>
<pdfrwt beam="2">  1       -1 0.19131215E-01 0.12631360E+03</pdfrwt>
<totfact> 0.75574314E+03</totfact>
</mgrwt>
</event>
<event>
 8    2  0.7478846E-004  0.1517035E+03  0.7818608E-02  0.1202012E+00
         -1   -1    0    0    0  501 -0.00000000000E+00  0.00000000000E+00  0.11691800618E+02  0.11691801704E+02  0.50400000000E-02 0.  1.
          1   -1    0    0  501    0  0.00000000000E+00 -0.00000000000E+00 -0.24473568412E+04  0.24473568412E+04  0.50400000000E-02 0. -1.
         25    2    1    2    0    0  0.56512382125E+02  0.64775206916E+02 -0.18743203265E+04  0.18804495802E+04  0.12499784109E+03 0.  0.
         23    2    1    2    0    0 -0.56512382125E+02 -0.64775206916E+02 -0.56134471400E+03  0.57859906270E+03  0.11081295351E+03 0.  0.
        -11    1    4    4    0    0 -0.84613291543E+02 -0.21557773838E+02 -0.31240452666E+03  0.32437745759E+03  0.51100000000E-03 0.  1.
         11    1    4    4    0    0  0.28100909418E+02 -0.43217433078E+02 -0.24894018734E+03  0.25422160511E+03  0.51100000000E-03 0. -1.
    9000005    1    3    3    0    0  0.48334611027E+02 -0.12839333072E+02 -0.29570050561E+03  0.29990143734E+03  0.10000000000E+01 0.  0.
    9000005    1    3    3    0    0  0.81777710987E+01  0.77614539987E+02 -0.15786198209E+04  0.15805481428E+04  0.10000000000E+01 0.  0.
<mgrwt>
<rscale>  0 0.14875424E+03</rscale>
<asrwt>0</asrwt>
<pdfrwt beam="2">  1        1 0.37651603E+00 0.15170345E+03</pdfrwt>
<pdfrwt beam="1">  1       -1 0.17987406E-02 0.15170345E+03</pdfrwt>
<totfact> 0.13908074E+03</totfact>
</mgrwt>
</event>
<event>
 8    2  0.7478846E-004  0.1342489E+03  0.7818608E-02  0.1233925E+00
         -1   -1    0    0    0  501 -0.00000000000E+00  0.00000000000E+00  0.78014390003E+02  0.78014390166E+02  0.50400000000E-02 0.  1.
          1   -1    0    0  501    0  0.00000000000E+00 -0.00000000000E+00 -0.18792675634E+03  0.18792675641E+03  0.50400000000E-02 0. -1.
         25    2    1    2    0    0 -0.48486321439E+02 -0.69991401312E+01 -0.87478919304E+02  0.16023523206E+03  0.12499142747E+03 0.  0.
         23    2    1    2    0    0  0.48486321439E+02  0.69991401312E+01 -0.22433447031E+02  0.10570591451E+03  0.90942671435E+02 0.  0.
        -11    1    4    4    0    0  0.65662432217E+02 -0.15996871490E+02 -0.32885892992E+02  0.75159409658E+02  0.51100000000E-03 0.  1.
         11    1    4    4    0    0 -0.17176110778E+02  0.22996011621E+02  0.10452445961E+02  0.30546504853E+02  0.51100000000E-03 0. -1.
    9000005    1    3    3    0    0 -0.43497994071E+02 -0.58739188173E+02 -0.78874184972E+02  0.10753838743E+03  0.10000000000E+01 0.  0.
    9000005    1    3    3    0    0 -0.49883273680E+01  0.51740048042E+02 -0.86047343319E+01  0.52696844633E+02  0.10000000000E+01 0.  0.
<mgrwt>
<rscale>  0 0.12573496E+03</rscale>
<asrwt>0</asrwt>
<pdfrwt beam="2">  1        1 0.28911809E-01 0.13424890E+03</pdfrwt>
<pdfrwt beam="1">  1       -1 0.12002214E-01 0.13424890E+03</pdfrwt>
<totfact> 0.68999173E+03</totfact>
</mgrwt>
</event>
<event>
 8    2  0.7478846E-004  0.1566926E+03  0.7818608E-02  0.1200829E+00
          1   -1    0    0  501    0  0.00000000000E+00  0.00000000000E+00  0.21910966361E+03  0.21910966366E+03  0.50400000000E-02 0. -1.
         -1   -1    0    0    0  501 -0.00000000000E+00 -0.00000000000E+00 -0.10016776879E+03  0.10016776892E+03  0.50400000000E-02 0.  1.
         25    2    1    2    0    0  0.21375874039E+02  0.92034530532E+02  0.25604136880E+02  0.15877076274E+03  0.12500120189E+03 0.  0.
         23    2    1    2    0    0 -0.21375874039E+02 -0.92034530532E+02  0.93337757934E+02  0.16050666984E+03  0.90128636991E+02 0.  0.
        -11    1    4    4    0    0 -0.43210969611E+02 -0.21765023557E+02  0.66377536354E+02  0.82139402712E+02  0.51100000000E-03 0. -1.
         11    1    4    4    0    0  0.21835095572E+02 -0.70269506975E+02  0.26960221580E+02  0.78367267128E+02  0.51100000000E-03 0.  1.
    9000005    1    3    3    0    0 -0.23919777410E+02  0.48078805435E+02  0.65032021957E+02  0.84343886342E+02  0.10000000000E+01 0.  0.
    9000005    1    3    3    0    0  0.45295651449E+02  0.43955725098E+02 -0.39427885078E+02  0.74426876400E+02  0.10000000000E+01 0.  0.
<mgrwt>
<rscale>  0 0.14971091E+03</rscale>
<asrwt>0</asrwt>
<pdfrwt beam="1">  1        1 0.33709179E-01 0.15669264E+03</pdfrwt>
<pdfrwt beam="2">  1       -1 0.15410426E-01 0.15669264E+03</pdfrwt>
<totfact> 0.38962010E+03</totfact>
</mgrwt>
</event>
<event>
 8    2  0.7478846E-004  0.1510807E+03  0.7818608E-02  0.1207909E+00
          1   -1    0    0  501    0  0.00000000000E+00  0.00000000000E+00  0.10148723911E+04  0.10148723911E+04  0.50400000000E-02 0. -1.
         -1   -1    0    0    0  501 -0.00000000000E+00 -0.00000000000E+00 -0.29460465599E+02  0.29460466030E+02  0.50400000000E-02 0.  1.
         25    2    1    2    0    0  0.28064889149E+02 -0.80070942616E+02  0.20885324431E+03  0.25776941126E+03  0.12500559134E+03 0.  0.
         23    2    1    2    0    0 -0.28064889149E+02  0.80070942616E+02  0.77655868122E+03  0.78656344592E+03  0.91867704956E+02 0.  0.
        -11    1    4    4    0    0 -0.32642915190E+02  0.53732560891E+02  0.20603894352E+03  0.21541772039E+03  0.51100000000E-03 0.  1.
         11    1    4    4    0    0  0.45780260405E+01  0.26338381725E+02  0.57051973771E+03  0.57114572553E+03  0.51100000000E-03 0. -1.
    9000005    1    3    3    0    0  0.49877633860E+02 -0.77028259450E+02  0.65545228686E+02  0.11277547658E+03  0.10000000000E+01 0.  0.
    9000005    1    3    3    0    0 -0.21812744711E+02 -0.30426831667E+01  0.14330801562E+03  0.14499393468E+03  0.10000000000E+01 0.  0.
<mgrwt>
<rscale>  0 0.14410592E+03</rscale>
<asrwt>0</asrwt>
<pdfrwt beam="1">  1        1 0.15613420E+00 0.15108075E+03</pdfrwt>
<pdfrwt beam="2">  1       -1 0.45323797E-02 0.15108075E+03</pdfrwt>
<totfact> 0.31377762E+03</totfact>
</mgrwt>
</event>
<event>
 8    2  0.7478846E-004  0.1382294E+03  0.7818608E-02  0.1226883E+00
         -1   -1    0    0    0  501 -0.00000000000E+00  0.00000000000E+00  0.16979766743E+03  0.16979766751E+03  0.50400000000E-02 0.  1.
          1   -1    0    0  501    0  0.00000000000E+00 -0.00000000000E+00 -0.10582632145E+03  0.10582632157E+03  0.50400000000E-02 0. -1.
         25    2    1    2    0    0  0.34670721947E+02  0.47763451543E+02 -0.17312474400E+02  0.13930930022E+03  0.12499581230E+03 0.  0.
         23    2    1    2    0    0 -0.34670721947E+02 -0.47763451543E+02  0.81283820382E+02  0.13631468886E+03  0.92147863129E+02 0.  0.
        -11    1    4    4    0    0 -0.20472601426E+02 -0.53361087576E+02  0.98144113859E+02  0.11357288480E+03  0.51100000000E-03 0.  1.
         11    1    4    4    0    0 -0.14198120521E+02  0.55976360322E+01 -0.16860293477E+02  0.22741804059E+02  0.51100000000E-03 0. -1.
    9000005    1    3    3    0    0  0.65003006603E+01 -0.62223218075E+01 -0.62702923897E+02  0.63353199309E+02  0.10000000000E+01 0.  0.
    9000005    1    3    3    0    0  0.28170421287E+02  0.53985773351E+02  0.45390449498E+02  0.75956100910E+02  0.10000000000E+01 0.  0.
<mgrwt>
<rscale>  0 0.13038662E+03</rscale>
<asrwt>0</asrwt>
<pdfrwt beam="2">  1        1 0.16280972E-01 0.13822937E+03</pdfrwt>
<pdfrwt beam="1">  1       -1 0.26122718E-01 0.13822937E+03</pdfrwt>
<totfact> 0.41484826E+03</totfact>
</mgrwt>
</event>
<event>
 8    2  0.7478846E-004  0.1399691E+03  0.7818608E-02  0.1224369E+00
          1   -1    0    0  501    0  0.00000000000E+00  0.00000000000E+00  0.30582137682E+03  0.30582137686E+03  0.50400000000E-02 0. -1.
         -1   -1    0    0    0  501 -0.00000000000E+00 -0.00000000000E+00 -0.69135985564E+02  0.69135985747E+02  0.50400000000E-02 0.  1.
         25    2    1    2    0    0 -0.30177076638E+02 -0.55280417142E+02  0.22268565566E+03  0.26302138716E+03  0.12499907357E+03 0.  0.
         23    2    1    2    0    0  0.30177076638E+02  0.55280417142E+02  0.13999735592E+02  0.11193597545E+03  0.91471796358E+02 0.  0.
        -11    1    4    4    0    0  0.14657681904E+02  0.15660859213E+02 -0.38673052715E+02  0.44223468392E+02  0.51100000000E-03 0.  1.
         11    1    4    4    0    0  0.15519394735E+02  0.39619557929E+02  0.52672788307E+02  0.67712507055E+02  0.51100000000E-03 0. -1.
    9000005    1    3    3    0    0  0.17483844112E+02 -0.44523609230E+02  0.15713941961E+02  0.50358361329E+02  0.10000000000E+01 0.  0.
    9000005    1    3    3    0    0 -0.47660920750E+02 -0.10756807912E+02  0.20697171370E+03  0.21266302583E+03  0.10000000000E+01 0.  0.
<mgrwt>
<rscale>  0 0.13210239E+03</rscale>
<asrwt>0</asrwt>
<pdfrwt beam="1">  1        1 0.47049442E-01 0.13996910E+03</pdfrwt>
<pdfrwt beam="2">  1       -1 0.10636306E-01 0.13996910E+03</pdfrwt>
<totfact> 0.45562041E+03</totfact>
</mgrwt>
</event>
<event>
 8    2  0.7478846E-004  0.1576014E+03  0.7818608E-02  0.1199343E+00
          1   -1    0    0  501    0  0.00000000000E+00  0.00000000000E+00  0.20138609965E+04  0.20138609965E+04  0.50400000000E-02 0. -1.
         -1   -1    0    0    0  501 -0.00000000000E+00 -0.00000000000E+00 -0.10492240113E+02  0.10492241324E+02  0.50400000000E-02 0.  1.
         25    2    1    2    0    0  0.92457938347E+02  0.25938955312E+02  0.10241720350E+04  0.10362270780E+04  0.12496759668E+03 0.  0.
         23    2    1    2    0    0 -0.92457938347E+02 -0.25938955312E+02  0.97919672141E+03  0.98812615982E+03  0.91355288423E+02 0.  0.
        -11    1    4    4    0    0 -0.65243548183E+02 -0.52462672685E+02  0.46118310314E+03  0.46872050011E+03  0.51100000000E-03 0.  1.
         11    1    4    4    0    0 -0.27214390164E+02  0.26523717373E+02  0.51801361827E+03  0.51940565970E+03  0.51100000000E-03 0. -1.
    9000005    1    3    3    0    0  0.90339374013E+02  0.69451411910E+02  0.75458612139E+03  0.76314213335E+03  0.10000000000E+01 0.  0.
    9000005    1    3    3    0    0  0.21185643341E+01 -0.43512456598E+02  0.26958591361E+03  0.27308494468E+03  0.10000000000E+01 0.  0.
<mgrwt>
<rscale>  0 0.15092373E+03</rscale>
<asrwt>0</asrwt>
<pdfrwt beam="1">  1        1 0.30982502E+00 0.15760140E+03</pdfrwt>
<pdfrwt beam="2">  1       -1 0.16141896E-02 0.15760140E+03</pdfrwt>
<totfact> 0.30916640E+03</totfact>
</mgrwt>
</event>
<event>
 8    2  0.7478846E-004  0.1268939E+03  0.7818608E-02  0.1243576E+00
         -1   -1    0    0    0  501 -0.00000000000E+00  0.00000000000E+00  0.24498717647E+02  0.24498718165E+02  0.50400000000E-02 0.  1.
          1   -1    0    0  501    0  0.00000000000E+00 -0.00000000000E+00 -0.55236426427E+03  0.55236426429E+03  0.50400000000E-02 0. -1.
         25    2    1    2    0    0 -0.19021649695E+02  0.10751997496E+02 -0.23262880144E+03  0.26498721940E+03  0.12499855430E+03 0.  0.
         23    2    1    2    0    0  0.19021649695E+02 -0.10751997496E+02 -0.29523674518E+03  0.31187576306E+03  0.98103655747E+02 0.  0.
        -11    1    4    4    0    0 -0.32843681755E+02 -0.33251295092E+01 -0.42761903045E+02  0.54021701841E+02  0.51100000000E-03 0.  1.
         11    1    4    4    0    0  0.51865331450E+02 -0.74268679867E+01 -0.25247484214E+03  0.25785406122E+03  0.51100000000E-03 0. -1.
    9000005    1    3    3    0    0  0.53031982986E+02  0.12801143975E+02 -0.92214565843E+02  0.10714843284E+03  0.10000000000E+01 0.  0.
    9000005    1    3    3    0    0 -0.72053632680E+02 -0.20491464794E+01 -0.14041423559E+03  0.15783878656E+03  0.10000000000E+01 0.  0.
<mgrwt>
<rscale>  0 0.11970994E+03</rscale>
<asrwt>0</asrwt>
<pdfrwt beam="2">  1        1 0.84979109E-01 0.12689392E+03</pdfrwt>
<pdfrwt beam="1">  1       -1 0.37690339E-02 0.12689392E+03</pdfrwt>
<totfact> 0.10063265E+04</totfact>
</mgrwt>
</event>
<event>
 8    2  0.7478846E-004  0.1578499E+03  0.7818608E-02  0.1198015E+00
         -1   -1    0    0    0  501 -0.00000000000E+00  0.00000000000E+00  0.38762127013E+02  0.38762127341E+02  0.50400000000E-02 0.  1.
          1   -1    0    0  501    0  0.00000000000E+00 -0.00000000000E+00 -0.64433568089E+03  0.64433568091E+03  0.50400000000E-02 0. -1.
         25    2    1    2    0    0  0.15644309237E+02  0.95117789082E+02 -0.19633400791E+03  0.25191991054E+03  0.12499784179E+03 0.  0.
         23    2    1    2    0    0 -0.15644309237E+02 -0.95117789082E+02 -0.40923954597E+03  0.43117789772E+03  0.95630723518E+02 0.  0.
        -11    1    4    4    0    0 -0.19498916599E+02 -0.90112867283E+02 -0.18359585911E+03  0.20544579841E+03  0.51100000000E-03 0.  1.
         11    1    4    4    0    0  0.38546073623E+01 -0.50049217987E+01 -0.22564368686E+03  0.22573209931E+03  0.51100000000E-03 0. -1.
    9000005    1    3    3    0    0  0.34094925995E+02  0.92653300376E+02 -0.62627265151E+02  0.11691994009E+03  0.10000000000E+01 0.  0.
    9000005    1    3    3    0    0 -0.18450616759E+02  0.24644887056E+01 -0.13370674276E+03  0.13499997045E+03  0.10000000000E+01 0.  0.
<mgrwt>
<rscale>  0 0.15201823E+03</rscale>
<asrwt>0</asrwt>
<pdfrwt beam="2">  1        1 0.99128558E-01 0.15784992E+03</pdfrwt>
<pdfrwt beam="1">  1       -1 0.59634047E-02 0.15784992E+03</pdfrwt>
<totfact> 0.41910127E+03</totfact>
</mgrwt>
</event>
<event>
 8    2  0.7478846E-004  0.1589672E+03  0.7818608E-02  0.1197423E+00
          1   -1    0    0  501    0  0.00000000000E+00  0.00000000000E+00  0.27116460331E+02  0.27116460799E+02  0.50400000000E-02 0. -1.
         -1   -1    0    0    0  501 -0.00000000000E+00 -0.00000000000E+00 -0.79661944200E+03  0.79661944201E+03  0.50400000000E-02 0.  1.
         25    2    1    2    0    0 -0.92554418776E+02  0.32884538277E+02 -0.43545479274E+03  0.46356386465E+03  0.12499146688E+03 0.  0.
         23    2    1    2    0    0  0.92554418776E+02 -0.32884538277E+02 -0.33404818892E+03  0.36017203816E+03  0.92130295010E+02 0.  0.
        -11    1    4    4    0    0  0.77571746867E+02 -0.10928675567E+02 -0.32126315845E+03  0.33067632035E+03  0.51100000000E-03 0.  1.
         11    1    4    4    0    0  0.14982671909E+02 -0.21955862710E+02 -0.12785030472E+02  0.29495717813E+02  0.51100000000E-03 0. -1.
    9000005    1    3    3    0    0 -0.46087140187E+02 -0.44793152245E+02 -0.13070848171E+03  0.14565767460E+03  0.10000000000E+01 0.  0.
    9000005    1    3    3    0    0 -0.46467278590E+02  0.77677690522E+02 -0.30474631103E+03  0.31790619005E+03  0.10000000000E+01 0.  0.
<mgrwt>
<rscale>  0 0.15250971E+03</rscale>
<asrwt>0</asrwt>
<pdfrwt beam="1">  1        1 0.41717638E-02 0.15896723E+03</pdfrwt>
<pdfrwt beam="2">  1       -1 0.12255682E+00 0.15896723E+03</pdfrwt>
<totfact> 0.13253984E+03</totfact>
</mgrwt>
</event>
<event>
 8    2  0.7478846E-004  0.1510463E+03  0.7818608E-02  0.1208200E+00
         -1   -1    0    0    0  501 -0.00000000000E+00  0.00000000000E+00  0.17674818204E+03  0.17674818211E+03  0.50400000000E-02 0.  1.
          1   -1    0    0  501    0  0.00000000000E+00 -0.00000000000E+00 -0.11333542440E+03  0.11333542451E+03  0.50400000000E-02 0. -1.
         25    2    1    2    0    0  0.78094106663E+02  0.33027199223E+02  0.67978307275E+02  0.16563822416E+03  0.12500194263E+03 0.  0.
         23    2    1    2    0    0 -0.78094106663E+02 -0.33027199223E+02 -0.45655496354E+01  0.12444538246E+03  0.90974301804E+02 0.  0.
        -11    1    4    4    0    0 -0.47501187291E+02 -0.29520030871E+02  0.41073884354E+02  0.69389184985E+02  0.51100000000E-03 0.  1.
         11    1    4    4    0    0 -0.30592919372E+02 -0.35071683527E+01 -0.45639433989E+02  0.55056197478E+02  0.51100000000E-03 0. -1.
    9000005    1    3    3    0    0  0.94595499665E+02  0.63907549842E+02  0.40556867885E+02  0.12115421172E+03  0.10000000000E+01 0.  0.
    9000005    1    3    3    0    0 -0.16501393002E+02 -0.30880350619E+02  0.27421439390E+02  0.44484012449E+02  0.10000000000E+01 0.  0.
<mgrwt>
<rscale>  0 0.14388120E+03</rscale>
<asrwt>0</asrwt>
<pdfrwt beam="2">  1        1 0.17436219E-01 0.15104625E+03</pdfrwt>
<pdfrwt beam="1">  1       -1 0.27192028E-01 0.15104625E+03</pdfrwt>
<totfact> 0.35711291E+03</totfact>
</mgrwt>
</event>
<event>
 8    2  0.7478846E-004  0.1966976E+03  0.7818608E-02  0.1156465E+00
         -1   -1    0    0    0  501 -0.00000000000E+00  0.00000000000E+00  0.23142597630E+03  0.23142597635E+03  0.50400000000E-02 0.  1.
          1   -1    0    0  501    0  0.00000000000E+00 -0.00000000000E+00 -0.16720581350E+03  0.16720581358E+03  0.50400000000E-02 0. -1.
         25    2    1    2    0    0 -0.15152931256E+03  0.10177048700E+02  0.91855021450E+02  0.21708824196E+03  0.12500101977E+03 0.  0.
         23    2    1    2    0    0  0.15152931256E+03 -0.10177048700E+02 -0.27634858659E+02  0.18154354797E+03  0.95549304090E+02 0.  0.
        -11    1    4    4    0    0  0.11651194800E+02  0.30028729824E+02  0.44255607218E+01  0.32512467503E+02  0.51100000000E-03 0.  1.
         11    1    4    4    0    0  0.13987811776E+03 -0.40205778524E+02 -0.32060419381E+02  0.14903108047E+03  0.51100000000E-03 0. -1.
    9000005    1    3    3    0    0 -0.16665744875E+03 -0.91809279759E+01  0.95388607209E+02  0.19224718736E+03  0.10000000000E+01 0.  0.
    9000005    1    3    3    0    0  0.15128136184E+02  0.19357976676E+02 -0.35335857586E+01  0.24841054601E+02  0.10000000000E+01 0.  0.
<mgrwt>
<rscale>  0 0.19223030E+03</rscale>
<asrwt>0</asrwt>
<pdfrwt beam="2">  1        1 0.25723971E-01 0.19669764E+03</pdfrwt>
<pdfrwt beam="1">  1       -1 0.35603997E-01 0.19669764E+03</pdfrwt>
<totfact> 0.13892833E+03</totfact>
</mgrwt>
</event>
<event>
 8    2  0.7478846E-004  0.1342527E+03  0.7818608E-02  0.1233568E+00
          1   -1    0    0  501    0  0.00000000000E+00  0.00000000000E+00  0.82152072862E+03  0.82152072864E+03  0.50400000000E-02 0. -1.
         -1   -1    0    0    0  501 -0.00000000000E+00 -0.00000000000E+00 -0.20839540737E+02  0.20839541346E+02  0.50400000000E-02 0.  1.
         25    2    1    2    0    0 -0.27398001667E+01 -0.48872757330E+02  0.61528873618E+03  0.62976504106E+03  0.12501090016E+03 0.  0.
         23    2    1    2    0    0  0.27398001667E+01  0.48872757330E+02  0.18539245170E+03  0.21259522892E+03  0.91816759349E+02 0.  0.
        -11    1    4    4    0    0  0.25523075438E+01 -0.22097955627E+02  0.12077267635E+02  0.25311940078E+02  0.51100000000E-03 0.  1.
         11    1    4    4    0    0  0.18749262291E+00  0.70970712957E+02  0.17331518407E+03  0.18728328884E+03  0.51100000000E-03 0. -1.
    9000005    1    3    3    0    0  0.24492781860E+02 -0.59004504394E+02  0.14350486490E+03  0.15708619975E+03  0.10000000000E+01 0.  0.
    9000005    1    3    3    0    0 -0.27232582027E+02  0.10131747064E+02  0.47178387128E+03  0.47267884131E+03  0.10000000000E+01 0.  0.
<mgrwt>
<rscale>  0 0.12596577E+03</rscale>
<asrwt>0</asrwt>
<pdfrwt beam="1">  1        1 0.12638778E+00 0.13425267E+03</pdfrwt>
<pdfrwt beam="2">  1       -1 0.32060839E-02 0.13425267E+03</pdfrwt>
<totfact> 0.72959767E+03</totfact>
</mgrwt>
</event>
<event>
 8    2  0.7478846E-004  0.1628672E+03  0.7818608E-02  0.1192741E+00
         -1   -1    0    0    0  501 -0.00000000000E+00  0.00000000000E+00  0.29520173190E+02  0.29520173621E+02  0.50400000000E-02 0.  1.
          1   -1    0    0  501    0  0.00000000000E+00 -0.00000000000E+00 -0.93553146308E+03  0.93553146309E+03  0.50400000000E-02 0. -1.
         25    2    1    2    0    0 -0.48868974718E+02  0.92262742207E+02 -0.28065370175E+03  0.32448765177E+03  0.12500058224E+03 0.  0.
         23    2    1    2    0    0  0.48868974718E+02 -0.92262742207E+02 -0.62535758814E+03  0.64056398494E+03  0.91375683128E+02 0.  0.
        -11    1    4    4    0    0  0.17480630112E+02 -0.24973262693E+02 -0.43756414398E+03  0.43862468738E+03  0.51100000000E-03 0. -1.
         11    1    4    4    0    0  0.31388344606E+02 -0.67289479514E+02 -0.18779344416E+03  0.20193929756E+03  0.51100000000E-03 0.  1.
    9000005    1    3    3    0    0 -0.26865794841E+02 -0.17180873859E+02 -0.14661972377E+03  0.15005098053E+03  0.10000000000E+01 0.  0.
    9000005    1    3    3    0    0 -0.22003179877E+02  0.10944361607E+03 -0.13403397797E+03  0.17443667124E+03  0.10000000000E+01 0.  0.
<mgrwt>
<rscale>  0 0.15646940E+03</rscale>
<asrwt>0</asrwt>
<pdfrwt beam="2">  1        1 0.14392789E+00 0.16286723E+03</pdfrwt>
<pdfrwt beam="1">  1       -1 0.45415659E-02 0.16286723E+03</pdfrwt>
<totfact> 0.35914694E+03</totfact>
</mgrwt>
</event>
<event>
 8    2  0.7478846E-004  0.2073669E+03  0.7818608E-02  0.1147555E+00
          1   -1    0    0  501    0  0.00000000000E+00  0.00000000000E+00  0.12420776663E+04  0.12420776663E+04  0.50400000000E-02 0. -1.
         -1   -1    0    0    0  501 -0.00000000000E+00 -0.00000000000E+00 -0.36019291651E+02  0.36019292004E+02  0.50400000000E-02 0.  1.
         25    2    1    2    0    0  0.14114905042E+03  0.86332633234E+02  0.85070691321E+03  0.87561594755E+03  0.12499862966E+03 0.  0.
         23    2    1    2    0    0 -0.14114905042E+03 -0.86332633234E+02  0.35535146145E+03  0.40248101078E+03  0.91323189227E+02 0.  0.
        -11    1    4    4    0    0  0.11139371596E+01 -0.32307642671E+02  0.33977141195E+02  0.46898515489E+02  0.51100000000E-03 0.  1.
         11    1    4    4    0    0 -0.14226298758E+03 -0.54024990563E+02  0.32137432026E+03  0.35558249530E+03  0.51100000000E-03 0. -1.
    9000005    1    3    3    0    0  0.14734002131E+03  0.69728079316E+02  0.53196273743E+03  0.55637796590E+03  0.10000000000E+01 0.  0.
    9000005    1    3    3    0    0 -0.61909708928E+01  0.16604553919E+02  0.31874417578E+03  0.31923798164E+03  0.10000000000E+01 0.  0.
<mgrwt>
<rscale>  0 0.20261095E+03</rscale>
<asrwt>0</asrwt>
<pdfrwt beam="1">  1        1 0.19108884E+00 0.20736691E+03</pdfrwt>
<pdfrwt beam="2">  1       -1 0.55414304E-02 0.20736691E+03</pdfrwt>
<totfact> 0.16135958E+03</totfact>
</mgrwt>
</event>
<event>
 8    2  0.7478846E-004  0.1483914E+03  0.7818608E-02  0.1211260E+00
          1   -1    0    0  501    0  0.00000000000E+00  0.00000000000E+00  0.26751005816E+03  0.26751005821E+03  0.50400000000E-02 0. -1.
         -1   -1    0    0    0  501 -0.00000000000E+00 -0.00000000000E+00 -0.81616994950E+02  0.81616995106E+02  0.50400000000E-02 0.  1.
         25    2    1    2    0    0  0.79725807346E+02  0.63445821717E+01  0.16934523337E+03  0.22516176276E+03  0.12499421293E+03 0.  0.
         23    2    1    2    0    0 -0.79725807346E+02 -0.63445821717E+01  0.16547829845E+02  0.12396529055E+03  0.93258267778E+02 0.  0.
        -11    1    4    4    0    0 -0.88861703880E+01 -0.39092348480E+02  0.22005359691E+02  0.45731953700E+02  0.51100000000E-03 0.  1.
         11    1    4    4    0    0 -0.70839636958E+02  0.32747766308E+02 -0.54575298456E+01  0.78233336851E+02  0.51100000000E-03 0. -1.
    9000005    1    3    3    0    0  0.23249743992E+02 -0.15131523835E+02  0.16191461276E+03  0.16427676475E+03  0.10000000000E+01 0.  0.
    9000005    1    3    3    0    0  0.56476063355E+02  0.21476106006E+02  0.74306206052E+01  0.60884998019E+02  0.10000000000E+01 0.  0.
<mgrwt>
<rscale>  0 0.14154859E+03</rscale>
<asrwt>0</asrwt>
<pdfrwt beam="1">  1        1 0.41155394E-01 0.14839141E+03</pdfrwt>
<pdfrwt beam="2">  1       -1 0.12556461E-01 0.14839141E+03</pdfrwt>
<totfact> 0.41767580E+03</totfact>
</mgrwt>
</event>
<event>
 8    2  0.7478846E-004  0.1437692E+03  0.7818608E-02  0.1218591E+00
          1   -1    0    0  501    0  0.00000000000E+00  0.00000000000E+00  0.38473282299E+02  0.38473282629E+02  0.50400000000E-02 0. -1.
         -1   -1    0    0    0  501 -0.00000000000E+00 -0.00000000000E+00 -0.44392646904E+03  0.44392646907E+03  0.50400000000E-02 0.  1.
         25    2    1    2    0    0 -0.63001836435E+02 -0.32805654707E+02 -0.19520030953E+03  0.24243088239E+03  0.12499651802E+03 0.  0.
         23    2    1    2    0    0  0.63001836435E+02  0.32805654707E+02 -0.21025287721E+03  0.23996886931E+03  0.91287148546E+02 0.  0.
        -11    1    4    4    0    0  0.57570037321E+02  0.13283507233E+02 -0.47090877133E+02  0.75553368363E+02  0.51100000000E-03 0. -1.
         11    1    4    4    0    0  0.54317991140E+01  0.19522147474E+02 -0.16316200008E+03  0.16441550095E+03  0.51100000000E-03 0.  1.
    9000005    1    3    3    0    0 -0.26666478730E+01 -0.59619637410E+02 -0.35089381117E+02  0.69237828122E+02  0.10000000000E+01 0.  0.
    9000005    1    3    3    0    0 -0.60335188562E+02  0.26813982703E+02 -0.16011092842E+03  0.17319305427E+03  0.10000000000E+01 0.  0.
<mgrwt>
<rscale>  0 0.13616058E+03</rscale>
<asrwt>0</asrwt>
<pdfrwt beam="1">  1        1 0.59189669E-02 0.14376916E+03</pdfrwt>
<pdfrwt beam="2">  1       -1 0.68296376E-01 0.14376916E+03</pdfrwt>
<totfact> 0.28703207E+03</totfact>
</mgrwt>
</event>
<event>
 8    2  0.7478846E-004  0.1887518E+03  0.7818608E-02  0.1165254E+00
          1   -1    0    0  501    0  0.00000000000E+00  0.00000000000E+00  0.16450851001E+04  0.16450851001E+04  0.50400000000E-02 0. -1.
         -1   -1    0    0    0  501 -0.00000000000E+00 -0.00000000000E+00 -0.22366814205E+02  0.22366814772E+02  0.50400000000E-02 0.  1.
         25    2    1    2    0    0 -0.12841566436E+03  0.59260147943E+02  0.11759653381E+04  0.11910170907E+04  0.12499954409E+03 0.  0.
         23    2    1    2    0    0  0.12841566436E+03 -0.59260147943E+02  0.44675294777E+03  0.47643482412E+03  0.86020912015E+02 0.  0.
        -11    1    4    4    0    0  0.66659457658E+02 -0.24460619097E+02  0.10082446264E+03  0.12331819593E+03  0.51100000000E-03 0.  1.
         11    1    4    4    0    0  0.61756206705E+02 -0.34799528846E+02  0.34592848513E+03  0.35311662819E+03  0.51100000000E-03 0. -1.
    9000005    1    3    3    0    0 -0.52655645667E+02  0.86313972067E+02  0.48809989441E+03  0.49846286293E+03  0.10000000000E+01 0.  0.
    9000005    1    3    3    0    0 -0.75760018697E+02 -0.27053824124E+02  0.68786544369E+03  0.69255422781E+03  0.10000000000E+01 0.  0.
<mgrwt>
<rscale>  0 0.18265895E+03</rscale>
<asrwt>0</asrwt>
<pdfrwt beam="1">  1        1 0.25308995E+00 0.18875178E+03</pdfrwt>
<pdfrwt beam="2">  1       -1 0.34410492E-02 0.18875178E+03</pdfrwt>
<totfact> 0.17704122E+03</totfact>
</mgrwt>
</event>
<event>
 8    2  0.7478846E-004  0.1880577E+03  0.7818608E-02  0.1165079E+00
         -1   -1    0    0    0  501 -0.00000000000E+00  0.00000000000E+00  0.80844363810E+02  0.80844363967E+02  0.50400000000E-02 0.  1.
          1   -1    0    0  501    0  0.00000000000E+00 -0.00000000000E+00 -0.40045769580E+03  0.40045769583E+03  0.50400000000E-02 0. -1.
         25    2    1    2    0    0 -0.14037414318E+03  0.59832931022E+01 -0.20319808189E+03  0.27686667812E+03  0.12499998839E+03 0.  0.
         23    2    1    2    0    0  0.14037414318E+03 -0.59832931022E+01 -0.11641525010E+03  0.20443538168E+03  0.92198779592E+02 0.  0.
        -11    1    4    4    0    0  0.42206048175E+02  0.25547490479E+02 -0.82070920431E+02  0.95758345604E+02  0.51100000000E-03 0. -1.
         11    1    4    4    0    0  0.98168095003E+02 -0.31530783581E+02 -0.34344329666E+02  0.10867703608E+03  0.51100000000E-03 0.  1.
    9000005    1    3    3    0    0 -0.11969649304E+03  0.43398091898E+01 -0.63378982777E+02  0.13551376258E+03  0.10000000000E+01 0.  0.
    9000005    1    3    3    0    0 -0.20677650137E+02  0.16434839124E+01 -0.13981909911E+03  0.14135291554E+03  0.10000000000E+01 0.  0.
<mgrwt>
<rscale>  0 0.18284326E+03</rscale>
<asrwt>0</asrwt>
<pdfrwt beam="2">  1        1 0.61608875E-01 0.18805770E+03</pdfrwt>
<pdfrwt beam="1">  1       -1 0.12437595E-01 0.18805770E+03</pdfrwt>
<totfact> 0.25828464E+03</totfact>
</mgrwt>
</event>
<event>
 8    2  0.7478846E-004  0.1466315E+03  0.7818608E-02  0.1214788E+00
         -1   -1    0    0    0  501 -0.00000000000E+00  0.00000000000E+00  0.22565064122E+03  0.22565064128E+03  0.50400000000E-02 0.  1.
          1   -1    0    0  501    0  0.00000000000E+00 -0.00000000000E+00 -0.80745155387E+02  0.80745155544E+02  0.50400000000E-02 0. -1.
         25    2    1    2    0    0  0.19143265014E+02 -0.74218852970E+02  0.50214957078E+02  0.15499145458E+03  0.12500362534E+03 0.  0.
         23    2    1    2    0    0 -0.19143265014E+02  0.74218852970E+02  0.94690528760E+02  0.15140434224E+03  0.89900366413E+02 0.  0.
        -11    1    4    4    0    0 -0.48188754690E+02  0.53806402287E+02  0.90297550801E+02  0.11563274920E+03  0.51100000000E-03 0.  1.
         11    1    4    4    0    0  0.29045489676E+02  0.20412450683E+02  0.43929779586E+01  0.35771593045E+02  0.51100000000E-03 0. -1.
    9000005    1    3    3    0    0 -0.28731082718E+02 -0.76093970658E+02 -0.54676025654E+01  0.81527063988E+02  0.10000000000E+01 0.  0.
    9000005    1    3    3    0    0  0.47874347732E+02  0.18751176884E+01  0.55682559643E+02  0.73464390595E+02  0.10000000000E+01 0.  0.
<mgrwt>
<rscale>  0 0.13892150E+03</rscale>
<asrwt>0</asrwt>
<pdfrwt beam="2">  1        1 0.12422332E-01 0.14663154E+03</pdfrwt>
<pdfrwt beam="1">  1       -1 0.34715483E-01 0.14663154E+03</pdfrwt>
<totfact> 0.36661097E+03</totfact>
</mgrwt>
</event>
<event>
 8    2  0.7478846E-004  0.1616143E+03  0.7818608E-02  0.1193845E+00
         -1   -1    0    0    0  501 -0.00000000000E+00  0.00000000000E+00  0.22940757403E+03  0.22940757409E+03  0.50400000000E-02 0.  1.
          1   -1    0    0  501    0  0.00000000000E+00 -0.00000000000E+00 -0.98433377261E+02  0.98433377390E+02  0.50400000000E-02 0. -1.
         25    2    1    2    0    0  0.18334387806E+02  0.10078895119E+03  0.62819808472E+02  0.17339406551E+03  0.12499844464E+03 0.  0.
         23    2    1    2    0    0 -0.18334387806E+02 -0.10078895119E+03  0.68154388298E+02  0.15444688596E+03  0.93350187370E+02 0.  0.
        -11    1    4    4    0    0 -0.44797819140E+02 -0.43377468074E+02  0.66564185839E+02  0.91209868835E+02  0.51100000000E-03 0. -1.
         11    1    4    4    0    0  0.26463431334E+02 -0.57411483112E+02  0.15902024587E+01  0.63237017128E+02  0.51100000000E-03 0.  1.
    9000005    1    3    3    0    0 -0.47603992680E+02  0.57434216605E+02  0.57687870488E+02  0.94306520229E+02  0.10000000000E+01 0.  0.
    9000005    1    3    3    0    0  0.65938380486E+02  0.43354734580E+02  0.51319379839E+01  0.79087545284E+02  0.10000000000E+01 0.  0.
<mgrwt>
<rscale>  0 0.15552398E+03</rscale>
<asrwt>0</asrwt>
<pdfrwt beam="2">  1        1 0.15143597E-01 0.16161427E+03</pdfrwt>
<pdfrwt beam="1">  1       -1 0.35293473E-01 0.16161427E+03</pdfrwt>
<totfact> 0.27646294E+03</totfact>
</mgrwt>
</event>
<event>
 8    2  0.7478846E-004  0.1324368E+03  0.7818608E-02  0.1237430E+00
         -1   -1    0    0    0  501 -0.00000000000E+00  0.00000000000E+00  0.62642805256E+02  0.62642805459E+02  0.50400000000E-02 0.  1.
          1   -1    0    0  501    0  0.00000000000E+00 -0.00000000000E+00 -0.22103646304E+03  0.22103646310E+03  0.50400000000E-02 0. -1.
         25    2    1    2    0    0  0.43314822727E+02 -0.61735542144E+01 -0.68514222993E+02  0.14910968111E+03  0.12500084643E+03 0.  0.
         23    2    1    2    0    0 -0.43314822727E+02  0.61735542144E+01 -0.89879434789E+02  0.13456958744E+03  0.90090923112E+02 0.  0.
        -11    1    4    4    0    0 -0.13491043407E+02  0.15052926841E+01  0.18000758929E+02  0.22545542365E+02  0.51100000000E-03 0.  1.
         11    1    4    4    0    0 -0.29823779320E+02  0.46682615303E+01 -0.10788019372E+03  0.11202404508E+03  0.51100000000E-03 0. -1.
    9000005    1    3    3    0    0  0.49157680326E+02  0.27798725795E+02  0.15266519379E+02  0.58509087370E+02  0.10000000000E+01 0.  0.
    9000005    1    3    3    0    0 -0.58428575998E+01 -0.33972280010E+02 -0.83780742372E+02  0.90600593742E+02  0.10000000000E+01 0.  0.
<mgrwt>
<rscale>  0 0.12350161E+03</rscale>
<asrwt>0</asrwt>
<pdfrwt beam="2">  1        1 0.34005609E-01 0.13243677E+03</pdfrwt>
<pdfrwt beam="1">  1       -1 0.96373548E-02 0.13243677E+03</pdfrwt>
<totfact> 0.78878248E+03</totfact>
</mgrwt>
</event>
<event>
 8    2  0.7478846E-004  0.1473228E+03  0.7818608E-02  0.1214089E+00
         -1   -1    0    0    0  501 -0.00000000000E+00  0.00000000000E+00  0.22935710274E+02  0.22935710828E+02  0.50400000000E-02 0.  1.
          1   -1    0    0  501    0  0.00000000000E+00 -0.00000000000E+00 -0.85335824660E+03  0.85335824661E+03  0.50400000000E-02 0. -1.
         25    2    1    2    0    0  0.28912175251E+02 -0.72401906528E+02 -0.59353255026E+03  0.61154304003E+03  0.12500420654E+03 0.  0.
         23    2    1    2    0    0 -0.28912175251E+02  0.72401906528E+02 -0.23688998607E+03  0.26475091741E+03  0.88872002469E+02 0.  0.
        -11    1    4    4    0    0  0.28188336099E+02  0.23648749099E+02 -0.41667935160E+02  0.55588330131E+02  0.51100000000E-03 0.  1.
         11    1    4    4    0    0 -0.57100511350E+02  0.48753157429E+02 -0.19522205091E+03  0.20916258728E+03  0.51100000000E-03 0. -1.
    9000005    1    3    3    0    0  0.10712990278E+02 -0.10009198937E+03 -0.53397096872E+03  0.54337755745E+03  0.10000000000E+01 0.  0.
    9000005    1    3    3    0    0  0.18199184973E+02  0.27690082843E+02 -0.59561581534E+02  0.68165482587E+02  0.10000000000E+01 0.  0.
<mgrwt>
<rscale>  0 0.13943635E+03</rscale>
<asrwt>0</asrwt>
<pdfrwt beam="2">  1        1 0.13128586E+00 0.14732278E+03</pdfrwt>
<pdfrwt beam="1">  1       -1 0.35285715E-02 0.14732278E+03</pdfrwt>
<totfact> 0.60089778E+03</totfact>
</mgrwt>
</event>
<event>
 8    2  0.7478846E-004  0.1527408E+03  0.7818608E-02  0.1206665E+00
         -1   -1    0    0    0  501 -0.00000000000E+00  0.00000000000E+00  0.39321905958E+02  0.39321906281E+02  0.50400000000E-02 0.  1.
          1   -1    0    0  501    0  0.00000000000E+00 -0.00000000000E+00 -0.51461432291E+03  0.51461432294E+03  0.50400000000E-02 0. -1.
         25    2    1    2    0    0 -0.87642028490E+02 -0.46233194410E+01 -0.19804603026E+03  0.25010395273E+03  0.12500902699E+03 0.  0.
         23    2    1    2    0    0  0.87642028490E+02  0.46233194410E+01 -0.27724638669E+03  0.30383227648E+03  0.88011323480E+02 0.  0.
        -11    1    4    4    0    0  0.95012552470E+02  0.20254276679E+02 -0.17518614359E+03  0.20031925958E+03  0.51100000000E-03 0. -1.
         11    1    4    4    0    0 -0.73705239802E+01 -0.15630957238E+02 -0.10206024309E+03  0.10351301690E+03  0.51100000000E-03 0.  1.
    9000005    1    3    3    0    0 -0.37107308380E+02 -0.25823011548E+02 -0.18926823958E+03  0.19459508415E+03  0.10000000000E+01 0.  0.
    9000005    1    3    3    0    0 -0.50534720110E+02  0.21199692107E+02 -0.87777906808E+01  0.55508868582E+02  0.10000000000E+01 0.  0.
<mgrwt>
<rscale>  0 0.14506983E+03</rscale>
<asrwt>0</asrwt>
<pdfrwt beam="2">  1        1 0.79171430E-01 0.15274082E+03</pdfrwt>
<pdfrwt beam="1">  1       -1 0.60495244E-02 0.15274082E+03</pdfrwt>
<totfact> 0.55537124E+03</totfact>
</mgrwt>
</event>
<event>
 8    2  0.7478846E-004  0.1461943E+03  0.7818608E-02  0.1215051E+00
         -1   -1    0    0    0  501 -0.00000000000E+00  0.00000000000E+00  0.12825555602E+02  0.12825556592E+02  0.50400000000E-02 0.  1.
          1   -1    0    0  501    0  0.00000000000E+00 -0.00000000000E+00 -0.13930327871E+04  0.13930327871E+04  0.50400000000E-02 0. -1.
         25    2    1    2    0    0 -0.16568124933E+02  0.73984019721E+02 -0.66357680688E+03  0.67949020561E+03  0.12499849184E+03 0.  0.
         23    2    1    2    0    0  0.16568124933E+02 -0.73984019721E+02 -0.71663042459E+03  0.72636813805E+03  0.91122821497E+02 0.  0.
        -11    1    4    4    0    0 -0.27837259346E+02 -0.33014280235E+02 -0.48739532821E+03  0.48930467162E+03  0.51100000000E-03 0.  1.
         11    1    4    4    0    0  0.44405384280E+02 -0.40969739486E+02 -0.22923509638E+03  0.23706346644E+03  0.51100000000E-03 0. -1.
    9000005    1    3    3    0    0  0.40712689880E+02 -0.12041425204E+02 -0.21592489161E+03  0.22006153198E+03  0.10000000000E+01 0.  0.
    9000005    1    3    3    0    0 -0.57280814813E+02  0.86025444925E+02 -0.44765191526E+03  0.45942867364E+03  0.10000000000E+01 0.  0.
<mgrwt>
<rscale>  0 0.13872767E+03</rscale>
<asrwt>0</asrwt>
<pdfrwt beam="2">  1        1 0.21431262E+00 0.14619426E+03</pdfrwt>
<pdfrwt beam="1">  1       -1 0.19731636E-02 0.14619426E+03</pdfrwt>
<totfact> 0.57961673E+03</totfact>
</mgrwt>
</event>
<event>
 8    2  0.7478846E-004  0.2713130E+03  0.7818608E-02  0.1102725E+00
          1   -1    0    0  501    0  0.00000000000E+00  0.00000000000E+00  0.58653894931E+03  0.58653894934E+03  0.50400000000E-02 0. -1.
         -1   -1    0    0    0  501 -0.00000000000E+00 -0.00000000000E+00 -0.12279508889E+03  0.12279508900E+03  0.50400000000E-02 0.  1.
         25    2    1    2    0    0  0.15817770636E+03 -0.18156720893E+03  0.17324589759E+03  0.32190823478E+03  0.12499572969E+03 0.  0.
         23    2    1    2    0    0 -0.15817770636E+03  0.18156720893E+03  0.29049796283E+03  0.38742580355E+03  0.87879740006E+02 0.  0.
        -11    1    4    4    0    0 -0.12216423608E+03  0.12071382121E+03  0.25719230762E+03  0.30926333490E+03  0.51100000000E-03 0. -1.
         11    1    4    4    0    0 -0.36013470276E+02  0.60853387715E+02  0.33305655207E+02  0.78162468658E+02  0.51100000000E-03 0.  1.
    9000005    1    3    3    0    0  0.55277575621E+01 -0.51547365971E+02 -0.69525755970E+01  0.52316587710E+02  0.10000000000E+01 0.  0.
    9000005    1    3    3    0    0  0.15264994880E+03 -0.13001984296E+03  0.18019847319E+03  0.26959164707E+03  0.10000000000E+01 0.  0.
<mgrwt>
<rscale>  0 0.26748947E+03</rscale>
<asrwt>0</asrwt>
<pdfrwt beam="1">  1        1 0.90236761E-01 0.27131305E+03</pdfrwt>
<pdfrwt beam="2">  1       -1 0.18891552E-01 0.27131305E+03</pdfrwt>
<totfact> 0.80605456E+02</totfact>
</mgrwt>
</event>
<event>
 8    2  0.7478846E-004  0.1492728E+03  0.7818608E-02  0.1210805E+00
         -1   -1    0    0    0  501 -0.00000000000E+00  0.00000000000E+00  0.23052480654E+02  0.23052481205E+02  0.50400000000E-02 0.  1.
          1   -1    0    0  501    0  0.00000000000E+00 -0.00000000000E+00 -0.88498381339E+03  0.88498381340E+03  0.50400000000E-02 0. -1.
         25    2    1    2    0    0 -0.70746414340E+01  0.81282046061E+02 -0.61246493624E+03  0.63039326072E+03  0.12500217388E+03 0.  0.
         23    2    1    2    0    0  0.70746414340E+01 -0.81282046061E+02 -0.24946639649E+03  0.27764303389E+03  0.90528170879E+02 0.  0.
        -11    1    4    4    0    0 -0.26690620124E+02 -0.67786522490E+02 -0.21697600182E+03  0.22887985320E+03  0.51100000000E-03 0. -1.
         11    1    4    4    0    0  0.33765261558E+02 -0.13495523571E+02 -0.32490394674E+02  0.48763180688E+02  0.51100000000E-03 0.  1.
    9000005    1    3    3    0    0  0.22068351290E+02  0.89332168208E+02 -0.24544552043E+03  0.26212926564E+03  0.10000000000E+01 0.  0.
    9000005    1    3    3    0    0 -0.29142992724E+02 -0.80501221467E+01 -0.36701941581E+03  0.36826399508E+03  0.10000000000E+01 0.  0.
<mgrwt>
<rscale>  0 0.14189243E+03</rscale>
<asrwt>0</asrwt>
<pdfrwt beam="2">  1        1 0.13615133E+00 0.14927279E+03</pdfrwt>
<pdfrwt beam="1">  1       -1 0.35465362E-02 0.14927279E+03</pdfrwt>
<totfact> 0.56364850E+03</totfact>
</mgrwt>
</event>
<event>
 8    2  0.7478846E-004  0.1294605E+03  0.7818608E-02  0.1241695E+00
         -1   -1    0    0    0  501 -0.00000000000E+00  0.00000000000E+00  0.13152938445E+03  0.13152938454E+03  0.50400000000E-02 0.  1.
          1   -1    0    0  501    0  0.00000000000E+00 -0.00000000000E+00 -0.11056142974E+03  0.11056142985E+03  0.50400000000E-02 0. -1.
         25    2    1    2    0    0  0.49331620949E+01 -0.33334677312E+02 -0.27693631357E+02  0.13238940850E+03  0.12499792584E+03 0.  0.
         23    2    1    2    0    0 -0.49331620949E+01  0.33334677312E+02  0.48661586066E+02  0.10970140590E+03  0.92362934653E+02 0.  0.
        -11    1    4    4    0    0  0.87842687718E+01 -0.30917923936E+02  0.21132963574E+02  0.38466655015E+02  0.51100000000E-03 0. -1.
         11    1    4    4    0    0 -0.13717430867E+02  0.64252601248E+02  0.27528622492E+02  0.71234750882E+02  0.51100000000E-03 0.  1.
    9000005    1    3    3    0    0  0.27175949635E+02  0.31892035787E+02 -0.44828086005E+02  0.61369304054E+02  0.10000000000E+01 0.  0.
    9000005    1    3    3    0    0 -0.22242787540E+02 -0.65226713100E+02  0.17134454648E+02  0.71020104445E+02  0.10000000000E+01 0.  0.
<mgrwt>
<rscale>  0 0.12085408E+03</rscale>
<asrwt>0</asrwt>
<pdfrwt beam="2">  1        1 0.17009451E-01 0.12946049E+03</pdfrwt>
<pdfrwt beam="1">  1       -1 0.20235290E-01 0.12946049E+03</pdfrwt>
<totfact> 0.59180485E+03</totfact>
</mgrwt>
</event>
<event>
 8    2  0.7478846E-004  0.1433377E+03  0.7818608E-02  0.1219621E+00
         -1   -1    0    0    0  501 -0.00000000000E+00  0.00000000000E+00  0.59645130200E+02  0.59645130413E+02  0.50400000000E-02 0.  1.
          1   -1    0    0  501    0  0.00000000000E+00 -0.00000000000E+00 -0.29630443162E+03  0.29630443166E+03  0.50400000000E-02 0. -1.
         25    2    1    2    0    0  0.60509988849E+02  0.35554223446E+02 -0.86949508121E+02  0.16764814859E+03  0.12498049130E+03 0.  0.
         23    2    1    2    0    0 -0.60509988849E+02 -0.35554223446E+02 -0.14970979329E+03  0.18830141349E+03  0.90104597867E+02 0.  0.
        -11    1    4    4    0    0 -0.15075076311E+02 -0.60506678846E+02 -0.83497146018E+02  0.10421175320E+03  0.51100000000E-03 0. -1.
         11    1    4    4    0    0 -0.45434912538E+02  0.24952455400E+02 -0.66212647277E+02  0.84089660289E+02  0.51100000000E-03 0.  1.
    9000005    1    3    3    0    0  0.68999177766E+02 -0.29543485451E+02 -0.62184850031E+02  0.97476456842E+02  0.10000000000E+01 0.  0.
    9000005    1    3    3    0    0 -0.84891889170E+01  0.65097708897E+02 -0.24764658089E+02  0.70171691745E+02  0.10000000000E+01 0.  0.
<mgrwt>
<rscale>  0 0.13542481E+03</rscale>
<asrwt>0</asrwt>
<pdfrwt beam="2">  1        1 0.45585296E-01 0.14333766E+03</pdfrwt>
<pdfrwt beam="1">  1       -1 0.91761741E-02 0.14333766E+03</pdfrwt>
<totfact> 0.59447059E+03</totfact>
</mgrwt>
</event>
<event>
 8    2  0.7478846E-004  0.1302808E+03  0.7818608E-02  0.1242004E+00
         -1   -1    0    0    0  501 -0.00000000000E+00  0.00000000000E+00  0.10685674884E+02  0.10685676073E+02  0.50400000000E-02 0.  1.
          1   -1    0    0  501    0  0.00000000000E+00 -0.00000000000E+00 -0.14352141403E+04  0.14352141403E+04  0.50400000000E-02 0. -1.
         25    2    1    2    0    0  0.34007984422E+02 -0.14011142259E+02 -0.51067199006E+03  0.52702843910E+03  0.12498095486E+03 0.  0.
         23    2    1    2    0    0 -0.34007984422E+02  0.14011142259E+02 -0.91385647534E+03  0.91887137727E+03  0.88533018258E+02 0.  0.
        -11    1    4    4    0    0 -0.27849509969E+02  0.22252976796E+02 -0.90373838815E+03  0.90444118902E+03  0.51100000000E-03 0. -1.
         11    1    4    4    0    0 -0.61584744529E+01 -0.82418345376E+01 -0.10118087197E+02  0.14430188250E+02  0.51100000000E-03 0.  1.
    9000005    1    3    3    0    0 -0.34359524891E+02 -0.40872388361E+02 -0.15784449506E+03  0.16663437131E+03  0.10000000000E+01 0.  0.
    9000005    1    3    3    0    0  0.68367509312E+02  0.26861246103E+02 -0.35282749500E+03  0.36039406779E+03  0.10000000000E+01 0.  0.
<mgrwt>
<rscale>  0 0.12066476E+03</rscale>
<asrwt>0</asrwt>
<pdfrwt beam="2">  1        1 0.22080202E+00 0.13028083E+03</pdfrwt>
<pdfrwt beam="1">  1       -1 0.16439512E-02 0.13028083E+03</pdfrwt>
<totfact> 0.70430638E+03</totfact>
</mgrwt>
</event>
<event>
 8    2  0.7478846E-004  0.1256815E+03  0.7818608E-02  0.1249116E+00
         -1   -1    0    0    0  501 -0.00000000000E+00  0.00000000000E+00  0.85618863057E+02  0.85618863206E+02  0.50400000000E-02 0.  1.
          1   -1    0    0  501    0  0.00000000000E+00 -0.00000000000E+00 -0.14380445702E+03  0.14380445711E+03  0.50400000000E-02 0. -1.
         25    2    1    2    0    0  0.12103576173E+02  0.49338898242E+01 -0.53979357979E+02  0.13678308577E+03  0.12500000656E+03 0.  0.
         23    2    1    2    0    0 -0.12103576173E+02 -0.49338898242E+01 -0.42062359868E+01  0.92640234548E+02  0.91617033410E+02 0.  0.
        -11    1    4    4    0    0  0.29146340727E+02 -0.15289656136E+02 -0.28606836030E+02  0.43607726729E+02  0.51100000000E-03 0.  1.
         11    1    4    4    0    0 -0.41249916901E+02  0.10355766311E+02  0.24400600044E+02  0.49032507818E+02  0.51100000000E-03 0. -1.
    9000005    1    3    3    0    0  0.14166077690E+02  0.45608479896E+02  0.20428055965E+02  0.51953023647E+02  0.10000000000E+01 0.  0.
    9000005    1    3    3    0    0 -0.20625015164E+01 -0.40674590072E+02 -0.74407413943E+02  0.84830062123E+02  0.10000000000E+01 0.  0.
<mgrwt>
<rscale>  0 0.11642371E+03</rscale>
<asrwt>0</asrwt>
<pdfrwt beam="2">  1        1 0.22123763E-01 0.12568151E+03</pdfrwt>
<pdfrwt beam="1">  1       -1 0.13172133E-01 0.12568151E+03</pdfrwt>
<totfact> 0.83151589E+03</totfact>
</mgrwt>
</event>
<event>
 8    2  0.7478846E-004  0.2231944E+03  0.7818608E-02  0.1134712E+00
         -1   -1    0    0    0  501 -0.00000000000E+00  0.00000000000E+00  0.94328060660E+02  0.94328060795E+02  0.50400000000E-02 0.  1.
          1   -1    0    0  501    0  0.00000000000E+00 -0.00000000000E+00 -0.48945742824E+03  0.48945742827E+03  0.50400000000E-02 0. -1.
         25    2    1    2    0    0  0.16543783751E+03 -0.82593720102E+02 -0.19991181362E+03  0.29963392791E+03  0.12499742737E+03 0.  0.
         23    2    1    2    0    0 -0.16543783751E+03  0.82593720102E+02 -0.19521755396E+03  0.28415156115E+03  0.91873911682E+02 0.  0.
        -11    1    4    4    0    0 -0.22720808247E+02  0.16116966307E+02  0.61646089150E+01  0.28530582428E+02  0.51100000000E-03 0.  1.
         11    1    4    4    0    0 -0.14271702927E+03  0.66476753795E+02 -0.20138216287E+03  0.25562097872E+03  0.51100000000E-03 0. -1.
    9000005    1    3    3    0    0  0.89599489873E+02  0.11843219157E+02 -0.39522735588E+02  0.98647742265E+02  0.10000000000E+01 0.  0.
    9000005    1    3    3    0    0  0.75838347640E+02 -0.94436939259E+02 -0.16038907803E+03  0.20098618565E+03  0.10000000000E+01 0.  0.
<mgrwt>
<rscale>  0 0.21889194E+03</rscale>
<asrwt>0</asrwt>
<pdfrwt beam="2">  1        1 0.75301141E-01 0.22319444E+03</pdfrwt>
<pdfrwt beam="1">  1       -1 0.14512010E-01 0.22319444E+03</pdfrwt>
<totfact> 0.15691611E+03</totfact>
</mgrwt>
</event>
<event>
 8    2  0.7478846E-004  0.1282769E+03  0.7818608E-02  0.1245300E+00
         -1   -1    0    0    0  501 -0.00000000000E+00  0.00000000000E+00  0.35412471303E+02  0.35412471661E+02  0.50400000000E-02 0.  1.
          1   -1    0    0  501    0  0.00000000000E+00 -0.00000000000E+00 -0.40490131426E+03  0.40490131429E+03  0.50400000000E-02 0. -1.
         25    2    1    2    0    0 -0.36752600019E+01  0.28563226910E+02 -0.29047968624E+03  0.31754276579E+03  0.12500237806E+03 0.  0.
         23    2    1    2    0    0  0.36752600019E+01 -0.28563226910E+02 -0.79009156714E+02  0.12277102016E+03  0.89447812037E+02 0.  0.
        -11    1    4    4    0    0 -0.10355869958E+02  0.24214831480E+01  0.17480626673E+02  0.20461669833E+02  0.51100000000E-03 0.  1.
         11    1    4    4    0    0  0.14031129960E+02 -0.30984710058E+02 -0.96489783387E+02  0.10230935032E+03  0.51100000000E-03 0. -1.
    9000005    1    3    3    0    0 -0.25265321330E+02  0.28041869586E+02 -0.14078697891E+02  0.40297551366E+02  0.10000000000E+01 0.  0.
    9000005    1    3    3    0    0  0.21590061329E+02  0.52135732497E+00 -0.27640098835E+03  0.27724521442E+03  0.10000000000E+01 0.  0.
<mgrwt>
<rscale>  0 0.11867469E+03</rscale>
<asrwt>0</asrwt>
<pdfrwt beam="2">  1        1 0.62292507E-01 0.12827689E+03</pdfrwt>
<pdfrwt beam="1">  1       -1 0.54480728E-02 0.12827689E+03</pdfrwt>
<totfact> 0.87405598E+03</totfact>
</mgrwt>
</event>
<event>
 8    2  0.7478846E-004  0.1283499E+03  0.7818608E-02  0.1244322E+00
          1   -1    0    0  501    0  0.00000000000E+00  0.00000000000E+00  0.79503638610E+03  0.79503638611E+03  0.50400000000E-02 0. -1.
         -1   -1    0    0    0  501 -0.00000000000E+00 -0.00000000000E+00 -0.16178079942E+02  0.16178080728E+02  0.50400000000E-02 0.  1.
         25    2    1    2    0    0 -0.58646102444E+01 -0.28493090452E+02  0.38198997170E+03  0.40297647122E+03  0.12500979171E+03 0.  0.
         23    2    1    2    0    0  0.58646102444E+01  0.28493090452E+02  0.39686833446E+03  0.40823799562E+03  0.91145687314E+02 0.  0.
        -11    1    4    4    0    0 -0.27493805819E+01 -0.22719092272E+02  0.27254713154E+03  0.27350622508E+03  0.51100000000E-03 0. -1.
         11    1    4    4    0    0  0.86139908263E+01  0.51212182725E+02  0.12432120292E+03  0.13473177054E+03  0.51100000000E-03 0.  1.
    9000005    1    3    3    0    0 -0.60711934962E+02  0.55188085023E+01  0.22788867778E+03  0.23590389093E+03  0.10000000000E+01 0.  0.
    9000005    1    3    3    0    0  0.54847324717E+02 -0.34011898955E+02  0.15410129392E+03  0.16707258029E+03  0.10000000000E+01 0.  0.
<mgrwt>
<rscale>  0 0.11926054E+03</rscale>
<asrwt>0</asrwt>
<pdfrwt beam="1">  1        1 0.12231332E+00 0.12834990E+03</pdfrwt>
<pdfrwt beam="2">  1       -1 0.24889348E-02 0.12834990E+03</pdfrwt>
<totfact> 0.11044657E+04</totfact>
</mgrwt>
</event>
<event>
 8    2  0.7478846E-004  0.1350930E+03  0.7818608E-02  0.1232562E+00
         -1   -1    0    0    0  501 -0.00000000000E+00  0.00000000000E+00  0.64009630685E+02  0.64009630883E+02  0.50400000000E-02 0.  1.
          1   -1    0    0  501    0  0.00000000000E+00 -0.00000000000E+00 -0.24654242881E+03  0.24654242886E+03  0.50400000000E-02 0. -1.
         25    2    1    2    0    0 -0.11549675073E+01 -0.51214983560E+02 -0.14880670734E+03  0.20098147479E+03  0.12500323423E+03 0.  0.
         23    2    1    2    0    0  0.11549675073E+01  0.51214983560E+02 -0.33726090783E+02  0.10957058495E+03  0.90796230079E+02 0.  0.
        -11    1    4    4    0    0 -0.37897211516E+02  0.36092230577E+02  0.49469626599E+01  0.52567292004E+02  0.51100000000E-03 0.  1.
         11    1    4    4    0    0  0.39052179024E+02  0.15122752983E+02 -0.38673053443E+02  0.57003292950E+02  0.51100000000E-03 0. -1.
    9000005    1    3    3    0    0  0.35524218761E+02  0.23630478101E+02 -0.88003067398E+02  0.97805467563E+02  0.10000000000E+01 0.  0.
    9000005    1    3    3    0    0 -0.36679186268E+02 -0.74845461661E+02 -0.60803639940E+02  0.10317600722E+03  0.10000000000E+01 0.  0.
<mgrwt>
<rscale>  0 0.12661776E+03</rscale>
<asrwt>0</asrwt>
<pdfrwt beam="2">  1        1 0.37929604E-01 0.13509299E+03</pdfrwt>
<pdfrwt beam="1">  1       -1 0.98476356E-02 0.13509299E+03</pdfrwt>
<totfact> 0.66769326E+03</totfact>
</mgrwt>
</event>
<event>
 8    2  0.7478846E-004  0.1602060E+03  0.7818608E-02  0.1195754E+00
          1   -1    0    0  501    0  0.00000000000E+00  0.00000000000E+00  0.16824449353E+04  0.16824449353E+04  0.50400000000E-02 0. -1.
         -1   -1    0    0    0  501 -0.00000000000E+00 -0.00000000000E+00 -0.13538430756E+02  0.13538431694E+02  0.50400000000E-02 0.  1.
         25    2    1    2    0    0  0.77364739957E+02 -0.63693016230E+02  0.74294318972E+03  0.76002009036E+03  0.12499540509E+03 0.  0.
         23    2    1    2    0    0 -0.77364739957E+02  0.63693016230E+02  0.92596331483E+03  0.93596327665E+03  0.92612588335E+02 0.  0.
        -11    1    4    4    0    0 -0.58694566109E+00  0.43032454032E+02  0.15350195764E+03  0.15942078787E+03  0.51100000000E-03 0.  1.
         11    1    4    4    0    0 -0.76777794296E+02  0.20660562197E+02  0.77246135719E+03  0.77654248878E+03  0.51100000000E-03 0. -1.
    9000005    1    3    3    0    0  0.10884819051E+03 -0.41397558308E+02  0.46264032605E+03  0.47707311568E+03  0.10000000000E+01 0.  0.
    9000005    1    3    3    0    0 -0.31483450550E+02 -0.22295457921E+02  0.28030286367E+03  0.28294697468E+03  0.10000000000E+01 0.  0.
<mgrwt>
<rscale>  0 0.15390550E+03</rscale>
<asrwt>0</asrwt>
<pdfrwt beam="1">  1        1 0.25883759E+00 0.16020598E+03</pdfrwt>
<pdfrwt beam="2">  1       -1 0.20828363E-02 0.16020598E+03</pdfrwt>
<totfact> 0.34848433E+03</totfact>
</mgrwt>
</event>
<event>
 8    2  0.7478846E-004  0.1308025E+03  0.7818608E-02  0.1240310E+00
          1   -1    0    0  501    0  0.00000000000E+00  0.00000000000E+00  0.71844608751E+03  0.71844608753E+03  0.50400000000E-02 0. -1.
         -1   -1    0    0    0  501 -0.00000000000E+00 -0.00000000000E+00 -0.21908941339E+02  0.21908941918E+02  0.50400000000E-02 0.  1.
         25    2    1    2    0    0 -0.15784924078E+02 -0.35143724305E+02  0.23919910691E+03  0.27262705198E+03  0.12500020614E+03 0.  0.
         23    2    1    2    0    0  0.15784924078E+02  0.35143724305E+02  0.45733803926E+03  0.46772797747E+03  0.90150616018E+02 0.  0.
        -11    1    4    4    0    0  0.25431598020E+02  0.65866138667E+01  0.32354755354E+02  0.41677090282E+02  0.51100000000E-03 0.  1.
         11    1    4    4    0    0 -0.96466739421E+01  0.28557110438E+02  0.42498328390E+03  0.42605088719E+03  0.51100000000E-03 0. -1.
    9000005    1    3    3    0    0 -0.23573074431E+02 -0.60722542651E+02  0.23698815298E+03  0.24577896916E+03  0.10000000000E+01 0.  0.
    9000005    1    3    3    0    0  0.77881503531E+01  0.25578818346E+02  0.22109539288E+01  0.26848082821E+02  0.10000000000E+01 0.  0.
<mgrwt>
<rscale>  0 0.12170552E+03</rscale>
<asrwt>0</asrwt>
<pdfrwt beam="1">  1        1 0.11053015E+00 0.13080251E+03</pdfrwt>
<pdfrwt beam="2">  1       -1 0.33706070E-02 0.13080251E+03</pdfrwt>
<totfact> 0.82590286E+03</totfact>
</mgrwt>
</event>
<event>
 8    2  0.7478846E-004  0.1467202E+03  0.7818608E-02  0.1215685E+00
          1   -1    0    0  501    0  0.00000000000E+00  0.00000000000E+00  0.65945752402E+02  0.65945752595E+02  0.50400000000E-02 0. -1.
         -1   -1    0    0    0  501 -0.00000000000E+00 -0.00000000000E+00 -0.26185647643E+03  0.26185647648E+03  0.50400000000E-02 0.  1.
         25    2    1    2    0    0 -0.46944351266E+02  0.60813448799E+02 -0.11838553691E+03  0.18852576537E+03  0.12499912474E+03 0.  0.
         23    2    1    2    0    0  0.46944351266E+02 -0.60813448799E+02 -0.77525187120E+02  0.13927646371E+03  0.86520119248E+02 0.  0.
        -11    1    4    4    0    0 -0.20031867049E+02 -0.36311102551E+02 -0.14000819449E+02  0.43769793368E+02  0.51100000000E-03 0. -1.
         11    1    4    4    0    0  0.66976218314E+02 -0.24502346248E+02 -0.63524367671E+02  0.95506670341E+02  0.51100000000E-03 0.  1.
    9000005    1    3    3    0    0 -0.59168478549E+02  0.92455771205E+02 -0.72894239961E+02  0.13177081886E+03  0.10000000000E+01 0.  0.
    9000005    1    3    3    0    0  0.12224127283E+02 -0.31642322407E+02 -0.45491296948E+02  0.56754946508E+02  0.10000000000E+01 0.  0.
<mgrwt>
<rscale>  0 0.13826304E+03</rscale>
<asrwt>0</asrwt>
<pdfrwt beam="1">  1        1 0.10145501E-01 0.14672024E+03</pdfrwt>
<pdfrwt beam="2">  1       -1 0.40285611E-01 0.14672024E+03</pdfrwt>
<totfact> 0.36986275E+03</totfact>
</mgrwt>
</event>
<event>
 8    2  0.7478846E-004  0.1312503E+03  0.7818608E-02  0.1238976E+00
          1   -1    0    0  501    0  0.00000000000E+00  0.00000000000E+00  0.70783756042E+03  0.70783756044E+03  0.50400000000E-02 0. -1.
         -1   -1    0    0    0  501 -0.00000000000E+00 -0.00000000000E+00 -0.19045625054E+02  0.19045625721E+02  0.50400000000E-02 0.  1.
         25    2    1    2    0    0 -0.28759513740E+02 -0.27836043223E+02  0.35341041154E+03  0.37699542958E+03  0.12499872002E+03 0.  0.
         23    2    1    2    0    0  0.28759513740E+02  0.27836043223E+02  0.33538152383E+03  0.34988775658E+03  0.91316596233E+02 0.  0.
        -11    1    4    4    0    0  0.17140642884E+02 -0.17893522999E+01  0.49543794091E+01  0.17931795664E+02  0.51100000000E-03 0.  1.
         11    1    4    4    0    0  0.11618870856E+02  0.29625395523E+02  0.33042714442E+03  0.33195596092E+03  0.51100000000E-03 0. -1.
    9000005    1    3    3    0    0 -0.33946149882E+01  0.31094088511E+02  0.26976386147E+03  0.27157302279E+03  0.10000000000E+01 0.  0.
    9000005    1    3    3    0    0 -0.25364898752E+02 -0.58930131734E+02  0.83646550070E+02  0.10542240679E+03  0.10000000000E+01 0.  0.
<mgrwt>
<rscale>  0 0.12253274E+03</rscale>
<asrwt>0</asrwt>
<pdfrwt beam="1">  1        1 0.10889809E+00 0.13125028E+03</pdfrwt>
<pdfrwt beam="2">  1       -1 0.29300961E-02 0.13125028E+03</pdfrwt>
<totfact> 0.10349337E+04</totfact>
</mgrwt>
</event>
<event>
 8    2  0.7478846E-004  0.1962030E+03  0.7818608E-02  0.1157390E+00
          1   -1    0    0  501    0  0.00000000000E+00  0.00000000000E+00  0.42706691920E+03  0.42706691923E+03  0.50400000000E-02 0. -1.
         -1   -1    0    0    0  501 -0.00000000000E+00 -0.00000000000E+00 -0.96759289227E+02  0.96759289358E+02  0.50400000000E-02 0.  1.
         25    2    1    2    0    0 -0.79253838459E+02 -0.12880040324E+03  0.27624777904E+03  0.33883397257E+03  0.12499964303E+03 0.  0.
         23    2    1    2    0    0  0.79253838459E+02  0.12880040324E+03  0.54059850931E+02  0.18499223601E+03  0.91809286663E+02 0.  0.
        -11    1    4    4    0    0 -0.54436185890E+01  0.30519003131E+02 -0.18736873309E+02  0.36223099772E+02  0.51100000000E-03 0.  1.
         11    1    4    4    0    0  0.84697457048E+02  0.98281400111E+02  0.72796724240E+02  0.14876913624E+03  0.51100000000E-03 0. -1.
    9000005    1    3    3    0    0 -0.93633983937E+02 -0.82370108654E+02  0.11227545468E+03  0.16780624384E+03  0.10000000000E+01 0.  0.
    9000005    1    3    3    0    0  0.14380145479E+02 -0.46430294588E+02  0.16397232436E+03  0.17102772873E+03  0.10000000000E+01 0.  0.
<mgrwt>
<rscale>  0 0.19119288E+03</rscale>
<asrwt>0</asrwt>
<pdfrwt beam="1">  1        1 0.65702604E-01 0.19620302E+03</pdfrwt>
<pdfrwt beam="2">  1       -1 0.14886044E-01 0.19620302E+03</pdfrwt>
<totfact> 0.17960835E+03</totfact>
</mgrwt>
</event>
<event>
 8    2  0.7478846E-004  0.1549966E+03  0.7818608E-02  0.1202777E+00
         -1   -1    0    0    0  501 -0.00000000000E+00  0.00000000000E+00  0.38928906769E+03  0.38928906773E+03  0.50400000000E-02 0.  1.
          1   -1    0    0  501    0  0.00000000000E+00 -0.00000000000E+00 -0.65564897956E+02  0.65564898150E+02  0.50400000000E-02 0. -1.
         25    2    1    2    0    0  0.89301138992E+02 -0.20594493063E+02  0.27684754591E+03  0.31728298824E+03  0.12500041753E+03 0.  0.
         23    2    1    2    0    0 -0.89301138992E+02  0.20594493063E+02  0.46876623827E+02  0.13757097763E+03  0.91266255843E+02 0.  0.
        -11    1    4    4    0    0 -0.68997930007E+01  0.38728481542E+02  0.34444304500E+02  0.52286829496E+02  0.51100000000E-03 0.  1.
         11    1    4    4    0    0 -0.82401345992E+02 -0.18133988479E+02  0.12432319327E+02  0.85284148137E+02  0.51100000000E-03 0. -1.
    9000005    1    3    3    0    0  0.21794689762E+02 -0.10549321278E+01  0.23389528827E+03  0.23491302062E+03  0.10000000000E+01 0.  0.
    9000005    1    3    3    0    0  0.67506449231E+02 -0.19539560935E+02  0.42952257642E+02  0.82369967621E+02  0.10000000000E+01 0.  0.
<mgrwt>
<rscale>  0 0.14814029E+03</rscale>
<asrwt>0</asrwt>
<pdfrwt beam="2">  1        1 0.10086907E-01 0.15499655E+03</pdfrwt>
<pdfrwt beam="1">  1       -1 0.59890626E-01 0.15499655E+03</pdfrwt>
<totfact> 0.18113395E+03</totfact>
</mgrwt>
</event>
<event>
 8    2  0.7478846E-004  0.1400194E+03  0.7818608E-02  0.1225851E+00
         -1   -1    0    0    0  501 -0.00000000000E+00  0.00000000000E+00  0.32007121502E+02  0.32007121899E+02  0.50400000000E-02 0.  1.
          1   -1    0    0  501    0  0.00000000000E+00 -0.00000000000E+00 -0.10287206748E+04  0.10287206748E+04  0.50400000000E-02 0. -1.
         25    2    1    2    0    0 -0.48768915483E+02  0.40024578646E+02 -0.91497722573E+03  0.92562884026E+03  0.12500020925E+03 0.  0.
         23    2    1    2    0    0  0.48768915483E+02 -0.40024578646E+02 -0.81736327586E+02  0.13509895646E+03  0.87123629270E+02 0.  0.
        -11    1    4    4    0    0  0.25528175873E+02 -0.13271015694E+02  0.14734348731E+02  0.32325046849E+02  0.51100000000E-03 0.  1.
         11    1    4    4    0    0  0.23240739610E+02 -0.26753562952E+02 -0.96470676317E+02  0.10277390962E+03  0.51100000000E-03 0. -1.
    9000005    1    3    3    0    0 -0.17354156482E+02  0.37106822729E+02 -0.86838144508E+03  0.86934769638E+03  0.10000000000E+01 0.  0.
    9000005    1    3    3    0    0 -0.31414759001E+02  0.29177559171E+01 -0.46595780649E+02  0.56281143884E+02  0.10000000000E+01 0.  0.
<mgrwt>
<rscale>  0 0.13108772E+03</rscale>
<asrwt>0</asrwt>
<pdfrwt beam="2">  1        1 0.15826469E+00 0.14001938E+03</pdfrwt>
<pdfrwt beam="1">  1       -1 0.49241733E-02 0.14001938E+03</pdfrwt>
<totfact> 0.27071011E+03</totfact>
</mgrwt>
</event>
<event>
 8    2  0.7478846E-004  0.1391950E+03  0.7818608E-02  0.1225755E+00
          1   -1    0    0  501    0  0.00000000000E+00  0.00000000000E+00  0.16192582122E+03  0.16192582130E+03  0.50400000000E-02 0. -1.
         -1   -1    0    0    0  501 -0.00000000000E+00 -0.00000000000E+00 -0.96030505938E+02  0.96030506070E+02  0.50400000000E-02 0.  1.
         25    2    1    2    0    0  0.61251408783E+02  0.22735665387E+00  0.28782358270E+02  0.14213961082E+03  0.12499383203E+03 0.  0.
         23    2    1    2    0    0 -0.61251408783E+02 -0.22735665387E+00  0.37112957016E+02  0.11581671656E+03  0.91018423884E+02 0.  0.
        -11    1    4    4    0    0 -0.58130413190E+02 -0.39263276606E+02  0.19034594517E+02  0.72684700014E+02  0.51100000000E-03 0.  1.
         11    1    4    4    0    0 -0.31209955927E+01  0.39035919952E+02  0.18078362500E+02  0.43132016541E+02  0.51100000000E-03 0. -1.
    9000005    1    3    3    0    0  0.43202968836E+02 -0.56417675436E+02 -0.90867665396E+01  0.71645097138E+02  0.10000000000E+01 0.  0.
    9000005    1    3    3    0    0  0.18048439947E+02  0.56645032089E+02  0.37869124809E+02  0.70494513678E+02  0.10000000000E+01 0.  0.
<mgrwt>
<rscale>  0 0.13115311E+03</rscale>
<asrwt>0</asrwt>
<pdfrwt beam="1">  1        1 0.24911664E-01 0.13919499E+03</pdfrwt>
<pdfrwt beam="2">  1       -1 0.14773924E-01 0.13919499E+03</pdfrwt>
<totfact> 0.60330351E+03</totfact>
</mgrwt>
</event>
<event>
 8    2  0.7478846E-004  0.1295545E+03  0.7818608E-02  0.1240938E+00
         -1   -1    0    0    0  501 -0.00000000000E+00  0.00000000000E+00  0.18037492600E+03  0.18037492607E+03  0.50400000000E-02 0.  1.
          1   -1    0    0  501    0  0.00000000000E+00 -0.00000000000E+00 -0.81056149055E+02  0.81056149211E+02  0.50400000000E-02 0. -1.
         25    2    1    2    0    0  0.29459334201E+02 -0.17062654155E+02  0.14071827545E+02  0.13031649803E+03  0.12500154715E+03 0.  0.
         23    2    1    2    0    0 -0.29459334201E+02  0.17062654155E+02  0.85246949402E+02  0.13111457725E+03  0.93621597119E+02 0.  0.
        -11    1    4    4    0    0 -0.26321907908E+02 -0.60689361915E+01  0.99943844466E+02  0.10352993224E+03  0.51100000000E-03 0.  1.
         11    1    4    4    0    0 -0.31374262933E+01  0.23131590347E+02 -0.14696895064E+02  0.27584645013E+02  0.51100000000E-03 0. -1.
    9000005    1    3    3    0    0 -0.15365061743E+01 -0.68971688778E+02  0.50595513784E+01  0.69181310802E+02  0.10000000000E+01 0.  0.
    9000005    1    3    3    0    0  0.30995840375E+02  0.51909034623E+02  0.90122761668E+01  0.61135187231E+02  0.10000000000E+01 0.  0.
<mgrwt>
<rscale>  0 0.12131799E+03</rscale>
<asrwt>0</asrwt>
<pdfrwt beam="2">  1        1 0.12470177E-01 0.12955452E+03</pdfrwt>
<pdfrwt beam="1">  1       -1 0.27749988E-01 0.12955452E+03</pdfrwt>
<totfact> 0.52840645E+03</totfact>
</mgrwt>
</event>
<event>
 8    2  0.7478846E-004  0.1251239E+03  0.7818608E-02  0.1249474E+00
          1   -1    0    0  501    0  0.00000000000E+00  0.00000000000E+00  0.38931454150E+03  0.38931454153E+03  0.50400000000E-02 0. -1.
         -1   -1    0    0    0  501 -0.00000000000E+00 -0.00000000000E+00 -0.31026391967E+02  0.31026392377E+02  0.50400000000E-02 0.  1.
         25    2    1    2    0    0  0.40771938281E+00 -0.55226448074E+01  0.18025944240E+03  0.21942982624E+03  0.12500126490E+03 0.  0.
         23    2    1    2    0    0 -0.40771938281E+00  0.55226448074E+01  0.17802870713E+03  0.20091110767E+03  0.92953680843E+02 0.  0.
        -11    1    4    4    0    0  0.10545967645E+01 -0.34750456310E+02  0.25412788454E+02  0.43064094155E+02  0.51100000000E-03 0.  1.
         11    1    4    4    0    0 -0.14623161473E+01  0.40273101117E+02  0.15261591868E+03  0.15784701352E+03  0.51100000000E-03 0. -1.
    9000005    1    3    3    0    0 -0.21787018745E+02  0.55113427826E+02  0.10194747555E+03  0.11792562013E+03  0.10000000000E+01 0.  0.
    9000005    1    3    3    0    0  0.22194738128E+02 -0.60636072633E+02  0.78311966845E+02  0.10150420610E+03  0.10000000000E+01 0.  0.
<mgrwt>
<rscale>  0 0.11621551E+03</rscale>
<asrwt>0</asrwt>
<pdfrwt beam="1">  1        1 0.59894546E-01 0.12512387E+03</pdfrwt>
<pdfrwt beam="2">  1       -1 0.47732910E-02 0.12512387E+03</pdfrwt>
<totfact> 0.11143210E+04</totfact>
</mgrwt>
</event>
<event>
 8    2  0.7478846E-004  0.1314171E+03  0.7818608E-02  0.1238641E+00
          1   -1    0    0  501    0  0.00000000000E+00  0.00000000000E+00  0.69060881477E+03  0.69060881479E+03  0.50400000000E-02 0. -1.
         -1   -1    0    0    0  501 -0.00000000000E+00 -0.00000000000E+00 -0.19476159034E+02  0.19476159686E+02  0.50400000000E-02 0.  1.
         25    2    1    2    0    0 -0.40499954381E+02  0.34806032441E+01  0.35713754355E+03  0.38054916493E+03  0.12497232098E+03 0.  0.
         23    2    1    2    0    0  0.40499954381E+02 -0.34806032441E+01  0.31399511219E+03  0.32953580955E+03  0.91370445943E+02 0.  0.
        -11    1    4    4    0    0  0.76669688950E+01 -0.44778577650E+02  0.11453359290E+03  0.12321463927E+03  0.51100000000E-03 0. -1.
         11    1    4    4    0    0  0.32832985486E+02  0.41297974406E+02  0.19946151929E+03  0.20632117027E+03  0.51100000000E-03 0.  1.
    9000005    1    3    3    0    0 -0.22203854405E+02 -0.53071317271E+02  0.26294423096E+03  0.26916583079E+03  0.10000000000E+01 0.  0.
    9000005    1    3    3    0    0 -0.18296099976E+02  0.56551920515E+02  0.94193312584E+02  0.11138333414E+03  0.10000000000E+01 0.  0.
<mgrwt>
<rscale>  0 0.12274217E+03</rscale>
<asrwt>0</asrwt>
<pdfrwt beam="1">  1        1 0.10624749E+00 0.13141705E+03</pdfrwt>
<pdfrwt beam="2">  1       -1 0.29963327E-02 0.13141705E+03</pdfrwt>
<totfact> 0.10377644E+04</totfact>
</mgrwt>
</event>
<event>
 8    2  0.7478846E-004  0.1332163E+03  0.7818608E-02  0.1246737E+00
          1   -1    0    0  501    0  0.00000000000E+00  0.00000000000E+00  0.70342970665E+03  0.70342970667E+03  0.50400000000E-02 0.  1.
         -1   -1    0    0    0  501 -0.00000000000E+00 -0.00000000000E+00 -0.19075826188E+02  0.19075826854E+02  0.50400000000E-02 0. -1.
         25    2    1    2    0    0  0.45708713092E+02  0.56843944460E+01  0.28074123514E+03  0.31074461180E+03  0.12499989545E+03 0.  0.
         23    2    1    2    0    0 -0.45708713092E+02 -0.56843944460E+01  0.40361264532E+03  0.41176092172E+03  0.67247976925E+02 0.  0.
        -11    1    4    4    0    0 -0.60498149931E+02 -0.92098740293E+01  0.24929061100E+03  0.25669175417E+03  0.51100000000E-03 0.  1.
         11    1    4    4    0    0  0.14789436839E+02  0.35254795832E+01  0.15432203432E+03  0.15506916755E+03  0.51100000000E-03 0. -1.
    9000005    1    3    3    0    0 -0.19737727691E+02 -0.19185297737E+02  0.73193777252E+01  0.28499593575E+02  0.10000000000E+01 0.  0.
    9000005    1    3    3    0    0  0.65446440783E+02  0.24869692183E+02  0.27342185742E+03  0.28224501823E+03  0.10000000000E+01 0.  0.
<mgrwt>
<rscale>  0 0.11782046E+03</rscale>
<asrwt>0</asrwt>
<pdfrwt beam="1">  1        1 0.10821996E+00 0.13321626E+03</pdfrwt>
<pdfrwt beam="2">  1       -1 0.29347425E-02 0.13321626E+03</pdfrwt>
<totfact> 0.10428616E+04</totfact>
</mgrwt>
</event>
<event>
 8    2  0.7478846E-004  0.1491291E+03  0.7818608E-02  0.1211151E+00
         -1   -1    0    0    0  501 -0.00000000000E+00  0.00000000000E+00  0.26556704643E+02  0.26556705121E+02  0.50400000000E-02 0.  1.
          1   -1    0    0  501    0  0.00000000000E+00 -0.00000000000E+00 -0.75459604717E+03  0.75459604719E+03  0.50400000000E-02 0. -1.
         25    2    1    2    0    0 -0.75216047728E+02 -0.30936651663E+02 -0.51313943800E+03  0.53437025458E+03  0.12499982357E+03 0.  0.
         23    2    1    2    0    0  0.75216047728E+02  0.30936651663E+02 -0.21489990453E+03  0.24678249773E+03  0.90028339812E+02 0.  0.
        -11    1    4    4    0    0  0.36969183584E+02  0.47138172071E+02 -0.18795643578E+03  0.19727227264E+03  0.51100000000E-03 0. -1.
         11    1    4    4    0    0  0.38246864144E+02 -0.16201520408E+02 -0.26943468749E+02  0.49510225094E+02  0.51100000000E-03 0.  1.
    9000005    1    3    3    0    0 -0.55235544553E+02  0.32469410314E+02 -0.38202060966E+03  0.38735768250E+03  0.10000000000E+01 0.  0.
    9000005    1    3    3    0    0 -0.19980503175E+02 -0.63406061978E+02 -0.13111882834E+03  0.14701257208E+03  0.10000000000E+01 0.  0.
<mgrwt>
<rscale>  0 0.14163119E+03</rscale>
<asrwt>0</asrwt>
<pdfrwt beam="2">  1        1 0.11609168E+00 0.14912909E+03</pdfrwt>
<pdfrwt beam="1">  1       -1 0.40856475E-02 0.14912909E+03</pdfrwt>
<totfact> 0.58400958E+03</totfact>
</mgrwt>
</event>
<event>
 8    2  0.7478846E-004  0.1456321E+03  0.7818608E-02  0.1216048E+00
         -1   -1    0    0    0  501 -0.00000000000E+00  0.00000000000E+00  0.32164598230E+02  0.32164598625E+02  0.50400000000E-02 0.  1.
          1   -1    0    0  501    0  0.00000000000E+00 -0.00000000000E+00 -0.56774454982E+03  0.56774454984E+03  0.50400000000E-02 0. -1.
         25    2    1    2    0    0 -0.74256486585E+02 -0.83100294923E+01 -0.22649791774E+03  0.26927685945E+03  0.12500255160E+03 0.  0.
         23    2    1    2    0    0  0.74256486585E+02  0.83100294923E+01 -0.30908203385E+03  0.33063228901E+03  0.90569997790E+02 0.  0.
        -11    1    4    4    0    0  0.44198043588E+02 -0.30910821999E+02 -0.23817555237E+03  0.24420593711E+03  0.51100000000E-03 0. -1.
         11    1    4    4    0    0  0.30058442997E+02  0.39220851491E+02 -0.70906481485E+02  0.86426351907E+02  0.51100000000E-03 0.  1.
    9000005    1    3    3    0    0  0.18687341656E+02 -0.25664041055E+02 -0.13134975648E+03  0.13513555517E+03  0.10000000000E+01 0.  0.
    9000005    1    3    3    0    0 -0.92943828241E+02  0.17354011563E+02 -0.95148161255E+02  0.13414130429E+03  0.10000000000E+01 0.  0.
<mgrwt>
<rscale>  0 0.13799798E+03</rscale>
<asrwt>0</asrwt>
<pdfrwt beam="2">  1        1 0.87345308E-01 0.14563214E+03</pdfrwt>
<pdfrwt beam="1">  1       -1 0.49484002E-02 0.14563214E+03</pdfrwt>
<totfact> 0.65540513E+03</totfact>
</mgrwt>
</event>
<event>
 8    2  0.7478846E-004  0.1399041E+03  0.7818608E-02  0.1225217E+00
         -1   -1    0    0    0  501 -0.00000000000E+00  0.00000000000E+00  0.13024174051E+03  0.13024174061E+03  0.50400000000E-02 0.  1.
          1   -1    0    0  501    0  0.00000000000E+00 -0.00000000000E+00 -0.11984360157E+03  0.11984360167E+03  0.50400000000E-02 0. -1.
         25    2    1    2    0    0  0.15044734771E+02 -0.61004148709E+02  0.15116106721E+02  0.14071837695E+03  0.12500125889E+03 0.  0.
         23    2    1    2    0    0 -0.15044734771E+02  0.61004148709E+02 -0.47179677791E+01  0.10936696533E+03  0.89392525873E+02 0.  0.
        -11    1    4    4    0    0  0.11978035556E+02  0.55265237189E+02 -0.36462818406E+02  0.67284893577E+02  0.51100000000E-03 0. -1.
         11    1    4    4    0    0 -0.27022770327E+02  0.57389115198E+01  0.31744850627E+02  0.42082071755E+02  0.51100000000E-03 0.  1.
    9000005    1    3    3    0    0 -0.39086278563E+02 -0.69948293533E+02  0.27021802066E+02  0.84567598564E+02  0.10000000000E+01 0.  0.
    9000005    1    3    3    0    0  0.54131013333E+02  0.89441448242E+01 -0.11905695345E+02  0.56150778381E+02  0.10000000000E+01 0.  0.
<mgrwt>
<rscale>  0 0.13152046E+03</rscale>
<asrwt>0</asrwt>
<pdfrwt beam="2">  1        1 0.18437477E-01 0.13990413E+03</pdfrwt>
<pdfrwt beam="1">  1       -1 0.20037191E-01 0.13990413E+03</pdfrwt>
<totfact> 0.54504122E+03</totfact>
</mgrwt>
</event>
<event>
 8    2  0.7478846E-004  0.1725368E+03  0.7818608E-02  0.1181448E+00
          1   -1    0    0  501    0  0.00000000000E+00  0.00000000000E+00  0.31129615715E+03  0.31129615719E+03  0.50400000000E-02 0. -1.
         -1   -1    0    0    0  501 -0.00000000000E+00 -0.00000000000E+00 -0.87200151552E+02  0.87200151698E+02  0.50400000000E-02 0.  1.
         25    2    1    2    0    0 -0.46653336317E+02 -0.10939394399E+03  0.16036555962E+03  0.23555480059E+03  0.12500153038E+03 0.  0.
         23    2    1    2    0    0  0.46653336317E+02  0.10939394399E+03  0.63730445974E+02  0.16294150830E+03  0.91349858298E+02 0.  0.
        -11    1    4    4    0    0 -0.22729040340E+02  0.61683231311E+02  0.29267120075E+02  0.71958283870E+02  0.51100000000E-03 0.  1.
         11    1    4    4    0    0  0.69382376657E+02  0.47710712675E+02  0.34463325899E+02  0.90983224425E+02  0.51100000000E-03 0. -1.
    9000005    1    3    3    0    0  0.42167756156E+02 -0.34185528357E+02  0.67700922792E+02  0.86782400031E+02  0.10000000000E+01 0.  0.
    9000005    1    3    3    0    0 -0.88821092473E+02 -0.75208415629E+02  0.92664636829E+02  0.14877240056E+03  0.10000000000E+01 0.  0.
<mgrwt>
<rscale>  0 0.16659274E+03</rscale>
<asrwt>0</asrwt>
<pdfrwt beam="1">  1        1 0.47891716E-01 0.17253681E+03</pdfrwt>
<pdfrwt beam="2">  1       -1 0.13415408E-01 0.17253681E+03</pdfrwt>
<totfact> 0.31423445E+03</totfact>
</mgrwt>
</event>
<event>
 8    2  0.7478846E-004  0.2800442E+03  0.7818608E-02  0.1097452E+00
         -1   -1    0    0    0  501 -0.00000000000E+00  0.00000000000E+00  0.69645788613E+03  0.69645788615E+03  0.50400000000E-02 0.  1.
          1   -1    0    0  501    0  0.00000000000E+00 -0.00000000000E+00 -0.12831121523E+03  0.12831121533E+03  0.50400000000E-02 0. -1.
         25    2    1    2    0    0 -0.24732139282E+03 -0.40381981221E+02  0.45555842925E+03  0.53475062551E+03  0.12500469299E+03 0.  0.
         23    2    1    2    0    0  0.24732139282E+03  0.40381981221E+02  0.11258824165E+03  0.29001847597E+03  0.92930234541E+02 0.  0.
        -11    1    4    4    0    0  0.99828855761E+02 -0.21800894430E+01  0.90810213111E+02  0.13497054508E+03  0.51100000000E-03 0.  1.
         11    1    4    4    0    0  0.14749253706E+03  0.42562070664E+02  0.21778028541E+02  0.15504793089E+03  0.51100000000E-03 0. -1.
    9000005    1    3    3    0    0 -0.13113402548E+03 -0.93388677088E+01  0.11892290354E+03  0.17727663150E+03  0.10000000000E+01 0.  0.
    9000005    1    3    3    0    0 -0.11618736734E+03 -0.31043113512E+02  0.33663552571E+03  0.35747399401E+03  0.10000000000E+01 0.  0.
<mgrwt>
<rscale>  0 0.27679517E+03</rscale>
<asrwt>0</asrwt>
<pdfrwt beam="2">  1        1 0.19740188E-01 0.28004419E+03</pdfrwt>
<pdfrwt beam="1">  1       -1 0.10714736E+00 0.28004419E+03</pdfrwt>
<totfact> 0.22471347E+02</totfact>
</mgrwt>
</event>
<event>
 8    2  0.7478846E-004  0.1295319E+03  0.7818608E-02  0.1240460E+00
         -1   -1    0    0    0  501 -0.00000000000E+00  0.00000000000E+00  0.89957976774E+02  0.89957976915E+02  0.50400000000E-02 0.  1.
          1   -1    0    0  501    0  0.00000000000E+00 -0.00000000000E+00 -0.20372603660E+03  0.20372603666E+03  0.50400000000E-02 0. -1.
         25    2    1    2    0    0 -0.31982109059E+02 -0.11451793289E+02 -0.13892562591E+03  0.18994432555E+03  0.12499807360E+03 0.  0.
         23    2    1    2    0    0  0.31982109059E+02  0.11451793289E+02  0.25157566084E+02  0.10373968803E+03  0.94736586765E+02 0.  0.
        -11    1    4    4    0    0  0.76979825203E+01 -0.47155343009E+00  0.59513306677E+02  0.60010957078E+02  0.51100000000E-03 0.  1.
         11    1    4    4    0    0  0.24284126538E+02  0.11923346719E+02 -0.34355740593E+02  0.43728730952E+02  0.51100000000E-03 0. -1.
    9000005    1    3    3    0    0 -0.57672339151E+02 -0.54368710558E+02 -0.79510281495E+02  0.11227172509E+03  0.10000000000E+01 0.  0.
    9000005    1    3    3    0    0  0.25690230092E+02  0.42916917269E+02 -0.59415344413E+02  0.77672600457E+02  0.10000000000E+01 0.  0.
<mgrwt>
<rscale>  0 0.12161258E+03</rscale>
<asrwt>0</asrwt>
<pdfrwt beam="2">  1        1 0.31342467E-01 0.12953192E+03</pdfrwt>
<pdfrwt beam="1">  1       -1 0.13839689E-01 0.12953192E+03</pdfrwt>
<totfact> 0.49937782E+03</totfact>
</mgrwt>
</event>
<event>
 8    2  0.7478846E-004  0.1482530E+03  0.7818608E-02  0.1206747E+00
          1   -1    0    0  501    0  0.00000000000E+00  0.00000000000E+00  0.11065029654E+03  0.11065029666E+03  0.50400000000E-02 0. -1.
         -1   -1    0    0    0  501 -0.00000000000E+00 -0.00000000000E+00 -0.18670247162E+03  0.18670247168E+03  0.50400000000E-02 0.  1.
         25    2    1    2    0    0 -0.47611484754E+02  0.63927752304E+02 -0.16487291972E+02  0.14916691976E+03  0.12500131262E+03 0.  0.
         23    2    1    2    0    0  0.47611484754E+02 -0.63927752304E+02 -0.59564883102E+02  0.14818584859E+03  0.10980646350E+03 0.  0.
        -11    1    4    4    0    0  0.42366140534E+02 -0.38980414340E+01 -0.74780488459E+02  0.86036074092E+02  0.51100000000E-03 0.  1.
         11    1    4    4    0    0  0.52453442204E+01 -0.60029710870E+02  0.15215605357E+02  0.62149774495E+02  0.51100000000E-03 0. -1.
    9000005    1    3    3    0    0 -0.17250254781E+02 -0.36458051272E+02  0.87687820545E+01  0.41287435514E+02  0.10000000000E+01 0.  0.
    9000005    1    3    3    0    0 -0.30361229973E+02  0.10038580358E+03 -0.25256074027E+02  0.10787948424E+03  0.10000000000E+01 0.  0.
<mgrwt>
<rscale>  0 0.14500648E+03</rscale>
<asrwt>0</asrwt>
<pdfrwt beam="1">  1        1 0.17023123E-01 0.14825296E+03</pdfrwt>
<pdfrwt beam="2">  1       -1 0.28723457E-01 0.14825296E+03</pdfrwt>
<totfact> 0.33579118E+03</totfact>
</mgrwt>
</event>
<event>
 8    2  0.7478846E-004  0.1608859E+03  0.7818608E-02  0.1195002E+00
         -1   -1    0    0    0  501 -0.00000000000E+00  0.00000000000E+00  0.40786335208E+02  0.40786335519E+02  0.50400000000E-02 0.  1.
          1   -1    0    0  501    0  0.00000000000E+00 -0.00000000000E+00 -0.62572294068E+03  0.62572294070E+03  0.50400000000E-02 0. -1.
         25    2    1    2    0    0  0.53836394971E+02  0.85797440957E+02 -0.19262279713E+03  0.25097374500E+03  0.12499888164E+03 0.  0.
         23    2    1    2    0    0 -0.53836394971E+02 -0.85797440957E+02 -0.39231380835E+03  0.41553553122E+03  0.92195960785E+02 0.  0.
        -11    1    4    4    0    0 -0.44091913303E+02 -0.83871315294E+01 -0.64594187131E+02  0.78656530596E+02  0.51100000000E-03 0.  1.
         11    1    4    4    0    0 -0.97444816681E+01 -0.77410309428E+02 -0.32771962122E+03  0.33687900062E+03  0.51100000000E-03 0. -1.
    9000005    1    3    3    0    0  0.11925161192E+02  0.79088207627E+02 -0.19256483895E+03  0.20851707665E+03  0.10000000000E+01 0.  0.
    9000005    1    3    3    0    0  0.41911233778E+02  0.67092333304E+01 -0.57958177746E-01  0.42456668356E+02  0.10000000000E+01 0.  0.
<mgrwt>
<rscale>  0 0.15454026E+03</rscale>
<asrwt>0</asrwt>
<pdfrwt beam="2">  1        1 0.96265061E-01 0.16088592E+03</pdfrwt>
<pdfrwt beam="1">  1       -1 0.62748213E-02 0.16088592E+03</pdfrwt>
<totfact> 0.40484265E+03</totfact>
</mgrwt>
</event>
<event>
 8    2  0.7478846E-004  0.1265947E+03  0.7818608E-02  0.1246743E+00
         -1   -1    0    0    0  501 -0.00000000000E+00  0.00000000000E+00  0.73094940629E+03  0.73094940630E+03  0.50400000000E-02 0.  1.
          1   -1    0    0  501    0  0.00000000000E+00 -0.00000000000E+00 -0.25880784115E+02  0.25880784606E+02  0.50400000000E-02 0. -1.
         25    2    1    2    0    0 -0.11577833892E+02  0.16338297668E+02  0.60796884633E+03  0.62100912690E+03  0.12500092551E+03 0.  0.
         23    2    1    2    0    0  0.11577833892E+02 -0.16338297668E+02  0.97099775845E+02  0.13582106401E+03  0.92833230860E+02 0.  0.
        -11    1    4    4    0    0 -0.62051769027E+01 -0.33626768178E+02  0.10448908347E+03  0.10994194979E+03  0.51100000000E-03 0.  1.
         11    1    4    4    0    0  0.17783010794E+02  0.17288470509E+02 -0.73893076272E+01  0.25879114222E+02  0.51100000000E-03 0. -1.
    9000005    1    3    3    0    0  0.47847112483E+02  0.37008048254E+02  0.22923956912E+03  0.23708800446E+03  0.10000000000E+01 0.  0.
    9000005    1    3    3    0    0 -0.59424946375E+02 -0.20669750585E+02  0.37872927720E+03  0.38392112243E+03  0.10000000000E+01 0.  0.
<mgrwt>
<rscale>  0 0.11781658E+03</rscale>
<asrwt>0</asrwt>
<pdfrwt beam="2">  1        1 0.39816591E-02 0.12659470E+03</pdfrwt>
<pdfrwt beam="1">  1       -1 0.11245376E+00 0.12659470E+03</pdfrwt>
<totfact> 0.17115824E+03</totfact>
</mgrwt>
</event>
<event>
 8    2  0.7478846E-004  0.1326295E+03  0.7818608E-02  0.1234675E+00
          1   -1    0    0  501    0  0.00000000000E+00  0.00000000000E+00  0.78533942571E+02  0.78533942732E+02  0.50400000000E-02 0. -1.
         -1   -1    0    0    0  501 -0.00000000000E+00 -0.00000000000E+00 -0.20233730824E+03  0.20233730831E+03  0.50400000000E-02 0.  1.
         25    2    1    2    0    0 -0.79233035006E+01  0.43612568196E+02 -0.11405818335E+03  0.17492812181E+03  0.12500297503E+03 0.  0.
         23    2    1    2    0    0  0.79233035006E+01 -0.43612568196E+02 -0.97451823237E+01  0.10594312923E+03  0.95729531545E+02 0.  0.
        -11    1    4    4    0    0 -0.10157047304E+02 -0.52022037834E+02 -0.42267959598E+02  0.67794088526E+02  0.51100000000E-03 0.  1.
         11    1    4    4    0    0  0.18080350804E+02  0.84094696373E+01  0.32522777274E+02  0.38149040705E+02  0.51100000000E-03 0. -1.
    9000005    1    3    3    0    0 -0.48270480695E+02 -0.88799832123E+01 -0.77694367503E+01  0.49701685643E+02  0.10000000000E+01 0.  0.
    9000005    1    3    3    0    0  0.40347177194E+02  0.52492551409E+02 -0.10628874660E+03  0.12522643617E+03  0.10000000000E+01 0.  0.
<mgrwt>
<rscale>  0 0.12525266E+03</rscale>
<asrwt>0</asrwt>
<pdfrwt beam="1">  1        1 0.12082145E-01 0.13262948E+03</pdfrwt>
<pdfrwt beam="2">  1       -1 0.31128816E-01 0.13262948E+03</pdfrwt>
<totfact> 0.45508076E+03</totfact>
</mgrwt>
</event>
<event>
 8    2  0.7478846E-004  0.1605247E+03  0.7818608E-02  0.1195627E+00
         -1   -1    0    0    0  501 -0.00000000000E+00  0.00000000000E+00  0.12715329829E+03  0.12715329839E+03  0.50400000000E-02 0.  1.
          1   -1    0    0  501    0  0.00000000000E+00 -0.00000000000E+00 -0.17441763896E+03  0.17441763903E+03  0.50400000000E-02 0. -1.
         25    2    1    2    0    0  0.91690940969E+02 -0.41684638784E+02 -0.39594676224E+02  0.16533572566E+03  0.12499330393E+03 0.  0.
         23    2    1    2    0    0 -0.91690940969E+02  0.41684638784E+02 -0.76696644440E+01  0.13623521177E+03  0.91413190549E+02 0.  0.
        -11    1    4    4    0    0 -0.90250847733E+02  0.19433361027E+02  0.25946405865E+02  0.95896230452E+02  0.51100000000E-03 0.  1.
         11    1    4    4    0    0 -0.14400932367E+01  0.22251277757E+02 -0.33616070309E+02  0.40338981316E+02  0.51100000000E-03 0. -1.
    9000005    1    3    3    0    0  0.10613994730E+03 -0.35140677827E+02  0.10955632503E+02  0.11234581227E+03  0.10000000000E+01 0.  0.
    9000005    1    3    3    0    0 -0.14449006327E+02 -0.65439609577E+01 -0.50550308727E+02  0.52989913392E+02  0.10000000000E+01 0.  0.
<mgrwt>
<rscale>  0 0.15401262E+03</rscale>
<asrwt>0</asrwt>
<pdfrwt beam="2">  1        1 0.26833483E-01 0.16052465E+03</pdfrwt>
<pdfrwt beam="1">  1       -1 0.19562046E-01 0.16052465E+03</pdfrwt>
<totfact> 0.35487731E+03</totfact>
</mgrwt>
</event>
<event>
 8    2  0.7478846E-004  0.1991370E+03  0.7818608E-02  0.1154862E+00
          1   -1    0    0  501    0  0.00000000000E+00  0.00000000000E+00  0.94548431603E+02  0.94548431737E+02  0.50400000000E-02 0. -1.
         -1   -1    0    0    0  501 -0.00000000000E+00 -0.00000000000E+00 -0.39527643162E+03  0.39527643166E+03  0.50400000000E-02 0.  1.
         25    2    1    2    0    0  0.15058963519E+03  0.36794486802E+02 -0.20721050494E+03  0.28738776340E+03  0.12499784282E+03 0.  0.
         23    2    1    2    0    0 -0.15058963519E+03 -0.36794486802E+02 -0.93517495081E+02  0.20243709999E+03  0.90576956686E+02 0.  0.
        -11    1    4    4    0    0 -0.20227172247E+02  0.12318428414E+02 -0.51897125038E+02  0.57045541133E+02  0.51100000000E-03 0.  1.
         11    1    4    4    0    0 -0.13036246294E+03 -0.49112915216E+02 -0.41620370043E+02  0.14539155886E+03  0.51100000000E-03 0. -1.
    9000005    1    3    3    0    0  0.59197288726E+02  0.67262000109E+02 -0.15172523519E+03  0.17621022287E+03  0.10000000000E+01 0.  0.
    9000005    1    3    3    0    0  0.91392346461E+02 -0.30467513307E+02 -0.55485269749E+02  0.11117754053E+03  0.10000000000E+01 0.  0.
<mgrwt>
<rscale>  0 0.19404628E+03</rscale>
<asrwt>0</asrwt>
<pdfrwt beam="1">  1        1 0.14545913E-01 0.19913697E+03</pdfrwt>
<pdfrwt beam="2">  1       -1 0.60811758E-01 0.19913697E+03</pdfrwt>
<totfact> 0.10924856E+03</totfact>
</mgrwt>
</event>
<event>
 8    2  0.7478846E-004  0.1373869E+03  0.7818608E-02  0.1234466E+00
          1   -1    0    0  501    0  0.00000000000E+00  0.00000000000E+00  0.90219864115E+02  0.90219864256E+02  0.50400000000E-02 0. -1.
         -1   -1    0    0    0  501 -0.00000000000E+00 -0.00000000000E+00 -0.15062804676E+03  0.15062804685E+03  0.50400000000E-02 0.  1.
         25    2    1    2    0    0 -0.54283398909E+02  0.17432639252E+02 -0.42959823581E+02  0.14394684722E+03  0.12499825628E+03 0.  0.
         23    2    1    2    0    0  0.54283398909E+02 -0.17432639252E+02 -0.17448359067E+02  0.96901063884E+02  0.76385775111E+02 0.  0.
        -11    1    4    4    0    0 -0.89548070511E+01  0.11479004228E+02  0.14349338113E+02  0.20441614710E+02  0.51100000000E-03 0.  1.
         11    1    4    4    0    0  0.63238205960E+02 -0.28911643480E+02 -0.31797697180E+02  0.76459449174E+02  0.51100000000E-03 0. -1.
    9000005    1    3    3    0    0 -0.80537561540E+02  0.28140794257E+02 -0.65621748647E+02  0.10763557505E+03  0.10000000000E+01 0.  0.
    9000005    1    3    3    0    0  0.26254162631E+02 -0.10708155005E+02  0.22661925067E+02  0.36311272173E+02  0.10000000000E+01 0.  0.
<mgrwt>
<rscale>  0 0.12538677E+03</rscale>
<asrwt>0</asrwt>
<pdfrwt beam="1">  1        1 0.13879979E-01 0.13738686E+03</pdfrwt>
<pdfrwt beam="2">  1       -1 0.23173546E-01 0.13738686E+03</pdfrwt>
<totfact> 0.62055954E+03</totfact>
</mgrwt>
</event>
<event>
 8    2  0.7478846E-004  0.2260998E+03  0.7818608E-02  0.1132451E+00
         -1   -1    0    0    0  501 -0.00000000000E+00  0.00000000000E+00  0.42905162235E+02  0.42905162531E+02  0.50400000000E-02 0.  1.
          1   -1    0    0  501    0  0.00000000000E+00 -0.00000000000E+00 -0.12242334813E+04  0.12242334813E+04  0.50400000000E-02 0. -1.
         25    2    1    2    0    0 -0.67355989707E+02  0.17595573100E+03 -0.80600384455E+03  0.83711606879E+03  0.12499546621E+03 0.  0.
         23    2    1    2    0    0  0.67355989707E+02 -0.17595573100E+03 -0.37532447451E+03  0.43002257505E+03  0.92486243640E+02 0.  0.
        -11    1    4    4    0    0  0.20212208643E+02 -0.74834315964E+02 -0.68152148426E+02  0.10321542307E+03  0.51100000000E-03 0. -1.
         11    1    4    4    0    0  0.47143781064E+02 -0.10112141504E+03 -0.30717232609E+03  0.32680715198E+03  0.51100000000E-03 0.  1.
    9000005    1    3    3    0    0 -0.72748296547E+01  0.11195035564E+03 -0.24732536761E+03  0.27158174227E+03  0.10000000000E+01 0.  0.
    9000005    1    3    3    0    0 -0.60081160052E+02  0.64005375368E+02 -0.55867847695E+03  0.56553432652E+03  0.10000000000E+01 0.  0.
<mgrwt>
<rscale>  0 0.22193180E+03</rscale>
<asrwt>0</asrwt>
<pdfrwt beam="2">  1        1 0.18834359E+00 0.22609979E+03</pdfrwt>
<pdfrwt beam="1">  1       -1 0.66007951E-02 0.22609979E+03</pdfrwt>
<totfact> 0.12748676E+03</totfact>
</mgrwt>
</event>
<event>
 8    2  0.7478846E-004  0.1364205E+03  0.7818608E-02  0.1230990E+00
          1   -1    0    0  501    0  0.00000000000E+00  0.00000000000E+00  0.11421990977E+04  0.11421990977E+04  0.50400000000E-02 0. -1.
         -1   -1    0    0    0  501 -0.00000000000E+00 -0.00000000000E+00 -0.17990694528E+02  0.17990695234E+02  0.50400000000E-02 0.  1.
         25    2    1    2    0    0  0.44741472089E+02 -0.31358771654E+02  0.92689708849E+03  0.93688247593E+03  0.12500155666E+03 0.  0.
         23    2    1    2    0    0 -0.44741472089E+02  0.31358771654E+02  0.19731131467E+03  0.22330731700E+03  0.89158460317E+02 0.  0.
        -11    1    4    4    0    0 -0.43370210764E+02 -0.19442085910E+02  0.57821321942E+02  0.74848347728E+02  0.51100000000E-03 0.  1.
         11    1    4    4    0    0 -0.13712613254E+01  0.50800857565E+02  0.13948999272E+03  0.14845896927E+03  0.51100000000E-03 0. -1.
    9000005    1    3    3    0    0  0.22469874962E+02  0.79201428622E+01  0.27693028789E+02  0.36544873612E+02  0.10000000000E+01 0.  0.
    9000005    1    3    3    0    0  0.22271597127E+02 -0.39278914517E+02  0.89920405970E+03  0.90033760231E+03  0.10000000000E+01 0.  0.
<mgrwt>
<rscale>  0 0.12764658E+03</rscale>
<asrwt>0</asrwt>
<pdfrwt beam="1">  1        1 0.17572293E+00 0.13642053E+03</pdfrwt>
<pdfrwt beam="2">  1       -1 0.27677994E-02 0.13642053E+03</pdfrwt>
<totfact> 0.52292615E+03</totfact>
</mgrwt>
</event>
<event>
 8    2  0.7478846E-004  0.3353425E+03  0.7818608E-02  0.1069450E+00
          1   -1    0    0  501    0  0.00000000000E+00  0.00000000000E+00  0.24428482571E+03  0.24428482576E+03  0.50400000000E-02 0. -1.
         -1   -1    0    0    0  501 -0.00000000000E+00 -0.00000000000E+00 -0.49221242350E+03  0.49221242353E+03  0.50400000000E-02 0.  1.
         25    2    1    2    0    0 -0.45231373513E+02  0.30786845966E+03 -0.19986124928E+02  0.33593750794E+03  0.12500279377E+03 0.  0.
         23    2    1    2    0    0  0.45231373513E+02 -0.30786845966E+03 -0.22794147286E+03  0.40055974135E+03  0.10799039652E+03 0.  0.
        -11    1    4    4    0    0 -0.15583119144E+02 -0.12700683097E+03 -0.14241533070E+03  0.19145677093E+03  0.51100000000E-03 0.  1.
         11    1    4    4    0    0  0.60814492656E+02 -0.18086162868E+03 -0.85526142164E+02  0.20910297042E+03  0.51100000000E-03 0. -1.
    9000005    1    3    3    0    0  0.26744837224E+02  0.55485426032E+02  0.30402167252E+02  0.68696510783E+02  0.10000000000E+01 0.  0.
    9000005    1    3    3    0    0 -0.71976210736E+02  0.25238303362E+03 -0.50388292180E+02  0.26724099716E+03  0.10000000000E+01 0.  0.
<mgrwt>
<rscale>  0 0.33384165E+03</rscale>
<asrwt>0</asrwt>
<pdfrwt beam="1">  1        1 0.37582281E-01 0.33534246E+03</pdfrwt>
<pdfrwt beam="2">  1       -1 0.75724988E-01 0.33534246E+03</pdfrwt>
<totfact> 0.20818366E+02</totfact>
</mgrwt>
</event>
<event>
 8    2  0.7478846E-004  0.2073794E+03  0.7818608E-02  0.1147712E+00
         -1   -1    0    0    0  501 -0.00000000000E+00  0.00000000000E+00  0.36073466979E+02  0.36073467331E+02  0.50400000000E-02 0.  1.
          1   -1    0    0  501    0  0.00000000000E+00 -0.00000000000E+00 -0.10954638937E+04  0.10954638937E+04  0.50400000000E-02 0. -1.
         25    2    1    2    0    0  0.10906292962E+03 -0.12444442517E+03 -0.61102088400E+03  0.64525401580E+03  0.12500034663E+03 0.  0.
         23    2    1    2    0    0 -0.10906292962E+03  0.12444442517E+03 -0.44836954275E+03  0.48628334527E+03  0.89750250388E+02 0.  0.
        -11    1    4    4    0    0 -0.78432396891E+01  0.48850012624E+02 -0.21803848735E+03  0.22358135457E+03  0.51100000000E-03 0. -1.
         11    1    4    4    0    0 -0.10121968993E+03  0.75594412545E+02 -0.23033105540E+03  0.26270199070E+03  0.51100000000E-03 0.  1.
    9000005    1    3    3    0    0 -0.70316674067E+01 -0.85372460304E+01  0.14434959862E+01  0.11198776583E+02  0.10000000000E+01 0.  0.
    9000005    1    3    3    0    0  0.11609459702E+03 -0.11590717914E+03 -0.61246437998E+03  0.63405523922E+03  0.10000000000E+01 0.  0.
<mgrwt>
<rscale>  0 0.20242083E+03</rscale>
<asrwt>0</asrwt>
<pdfrwt beam="2">  1        1 0.16853288E+00 0.20737942E+03</pdfrwt>
<pdfrwt beam="1">  1       -1 0.55497650E-02 0.20737942E+03</pdfrwt>
<totfact> 0.20399742E+03</totfact>
</mgrwt>
</event>
<event>
 8    2  0.7478846E-004  0.1409332E+03  0.7818608E-02  0.1222770E+00
          1   -1    0    0  501    0  0.00000000000E+00  0.00000000000E+00  0.58137355517E+03  0.58137355519E+03  0.50400000000E-02 0. -1.
         -1   -1    0    0    0  501 -0.00000000000E+00 -0.00000000000E+00 -0.28254775659E+02  0.28254776109E+02  0.50400000000E-02 0.  1.
         25    2    1    2    0    0 -0.64834803099E+02  0.58078482505E+01  0.35244059955E+03  0.37957416516E+03  0.12499955139E+03 0.  0.
         23    2    1    2    0    0  0.64834803099E+02 -0.58078482505E+01  0.20067817996E+03  0.23005416614E+03  0.91738239864E+02 0.  0.
        -11    1    4    4    0    0  0.44385596212E+02 -0.36976306158E+02  0.55295303374E+02  0.79968112042E+02  0.51100000000E-03 0.  1.
         11    1    4    4    0    0  0.20449206887E+02  0.31168457908E+02  0.14538287658E+03  0.15008605410E+03  0.51100000000E-03 0. -1.
    9000005    1    3    3    0    0 -0.72077782684E+02 -0.18682274854E+02  0.34501394401E+03  0.35295871672E+03  0.10000000000E+01 0.  0.
    9000005    1    3    3    0    0  0.72429795843E+01  0.24490123104E+02  0.74266555448E+01  0.26615448437E+02  0.10000000000E+01 0.  0.
<mgrwt>
<rscale>  0 0.13320944E+03</rscale>
<asrwt>0</asrwt>
<pdfrwt beam="1">  1        1 0.89442079E-01 0.14093321E+03</pdfrwt>
<pdfrwt beam="2">  1       -1 0.43468889E-02 0.14093321E+03</pdfrwt>
<totfact> 0.76729942E+03</totfact>
</mgrwt>
</event>
<event>
 8    2  0.7478846E-004  0.1358684E+03  0.7818608E-02  0.1230571E+00
         -1   -1    0    0    0  501 -0.00000000000E+00  0.00000000000E+00  0.10902948000E+02  0.10902949165E+02  0.50400000000E-02 0.  1.
          1   -1    0    0  501    0  0.00000000000E+00 -0.00000000000E+00 -0.14980933302E+04  0.14980933302E+04  0.50400000000E-02 0. -1.
         25    2    1    2    0    0 -0.44722335006E+02 -0.28808691535E+02 -0.58820186138E+03  0.60369001983E+03  0.12502072771E+03 0.  0.
         23    2    1    2    0    0  0.44722335006E+02  0.28808691535E+02 -0.89898852084E+03  0.90530625956E+03  0.92569082536E+02 0.  0.
        -11    1    4    4    0    0  0.68626751469E+01  0.47361062527E+02 -0.71276664813E+03  0.71437137488E+03  0.51100000000E-03 0. -1.
         11    1    4    4    0    0  0.37859659860E+02 -0.18552370992E+02 -0.18622187271E+03  0.19093488468E+03  0.51100000000E-03 0.  1.
    9000005    1    3    3    0    0 -0.77059149003E+02 -0.54449191063E+02 -0.39273282643E+03  0.40390951933E+03  0.10000000000E+01 0.  0.
    9000005    1    3    3    0    0  0.32336813996E+02  0.25640499528E+02 -0.19546903495E+03  0.19978050050E+03  0.10000000000E+01 0.  0.
<mgrwt>
<rscale>  0 0.12792263E+03</rscale>
<asrwt>0</asrwt>
<pdfrwt beam="2">  1        1 0.23047573E+00 0.13586836E+03</pdfrwt>
<pdfrwt beam="1">  1       -1 0.16773779E-02 0.13586836E+03</pdfrwt>
<totfact> 0.62375193E+03</totfact>
</mgrwt>
</event>
<event>
 8    2  0.7478846E-004  0.1253581E+03  0.7818608E-02  0.1250583E+00
          1   -1    0    0  501    0  0.00000000000E+00  0.00000000000E+00  0.62503410889E+03  0.62503410891E+03  0.50400000000E-02 0. -1.
         -1   -1    0    0    0  501 -0.00000000000E+00 -0.00000000000E+00 -0.30667131327E+02  0.30667131741E+02  0.50400000000E-02 0.  1.
         25    2    1    2    0    0  0.61507316959E+01  0.71953947811E+01  0.12268640946E+03  0.17540411300E+03  0.12500017033E+03 0.  0.
         23    2    1    2    0    0 -0.61507316959E+01 -0.71953947811E+01  0.47168056810E+03  0.48029712766E+03  0.90073121978E+02 0.  0.
        -11    1    4    4    0    0  0.38607219318E+02 -0.20712202818E+02  0.22640711998E+03  0.23060723473E+03  0.51100000000E-03 0.  1.
         11    1    4    4    0    0 -0.44757951014E+02  0.13516808037E+02  0.24527344812E+03  0.24968989293E+03  0.51100000000E-03 0. -1.
    9000005    1    3    3    0    0  0.41608538468E+02  0.10731666259E+02  0.13178196042E+03  0.13861430022E+03  0.10000000000E+01 0.  0.
    9000005    1    3    3    0    0 -0.35457806772E+02 -0.35362714780E+01 -0.90955509532E+01  0.36789812778E+02  0.10000000000E+01 0.  0.
<mgrwt>
<rscale>  0 0.11557378E+03</rscale>
<asrwt>0</asrwt>
<pdfrwt beam="1">  1        1 0.96159094E-01 0.12535808E+03</pdfrwt>
<pdfrwt beam="2">  1       -1 0.47180202E-02 0.12535808E+03</pdfrwt>
<totfact> 0.61200556E+03</totfact>
</mgrwt>
</event>
<event>
 8    2  0.7478846E-004  0.1755681E+03  0.7818608E-02  0.1178443E+00
          1   -1    0    0  501    0  0.00000000000E+00  0.00000000000E+00  0.34079862188E+03  0.34079862192E+03  0.50400000000E-02 0. -1.
         -1   -1    0    0    0  501 -0.00000000000E+00 -0.00000000000E+00 -0.96852498598E+02  0.96852498729E+02  0.50400000000E-02 0.  1.
         25    2    1    2    0    0  0.69300767567E+02 -0.10196581766E+03  0.34866141074E+02  0.17899666654E+03  0.12499813791E+03 0.  0.
         23    2    1    2    0    0 -0.69300767567E+02  0.10196581766E+03  0.20907998221E+03  0.25865445411E+03  0.89375966085E+02 0.  0.
        -11    1    4    4    0    0 -0.28868934471E+02 -0.55865220874E+01  0.14748806788E+02  0.32896077402E+02  0.51100000000E-03 0.  1.
         11    1    4    4    0    0 -0.40431833096E+02  0.10755233975E+03  0.19433117542E+03  0.22575837671E+03  0.51100000000E-03 0. -1.
    9000005    1    3    3    0    0  0.47252740135E+02 -0.17958757368E+02  0.69111615899E+02  0.85631500446E+02  0.10000000000E+01 0.  0.
    9000005    1    3    3    0    0  0.22048027432E+02 -0.84007060295E+02 -0.34245474826E+02  0.93365166091E+02  0.10000000000E+01 0.  0.
<mgrwt>
<rscale>  0 0.16943042E+03</rscale>
<asrwt>0</asrwt>
<pdfrwt beam="1">  1        1 0.52430557E-01 0.17556810E+03</pdfrwt>
<pdfrwt beam="2">  1       -1 0.14900384E-01 0.17556810E+03</pdfrwt>
<totfact> 0.23807270E+03</totfact>
</mgrwt>
</event>
<event>
 8    2  0.7478846E-004  0.1287919E+03  0.7818608E-02  0.1243071E+00
         -1   -1    0    0    0  501 -0.00000000000E+00  0.00000000000E+00  0.13521703061E+02  0.13521704001E+02  0.50400000000E-02 0.  1.
          1   -1    0    0  501    0  0.00000000000E+00 -0.00000000000E+00 -0.97257545150E+03  0.97257545152E+03  0.50400000000E-02 0. -1.
         25    2    1    2    0    0 -0.30051556438E+02 -0.78272759090E+01 -0.62910920029E+03  0.64215709014E+03  0.12499192070E+03 0.  0.
         23    2    1    2    0    0  0.30051556438E+02  0.78272759090E+01 -0.32994454815E+03  0.34394006537E+03  0.92016310626E+02 0.  0.
        -11    1    4    4    0    0  0.38133127068E+02  0.44252439334E+02 -0.17202849655E+03  0.18167613325E+03  0.51100000000E-03 0. -1.
         11    1    4    4    0    0 -0.80815706297E+01 -0.36425163425E+02 -0.15791605160E+03  0.16226393212E+03  0.51100000000E-03 0.  1.
    9000005    1    3    3    0    0 -0.66187425647E+02  0.27536471033E+02 -0.46308226069E+03  0.46859920264E+03  0.10000000000E+01 0.  0.
    9000005    1    3    3    0    0  0.36135869209E+02 -0.35363746942E+02 -0.16602693960E+03  0.17355788750E+03  0.10000000000E+01 0.  0.
<mgrwt>
<rscale>  0 0.12001571E+03</rscale>
<asrwt>0</asrwt>
<pdfrwt beam="2">  1        1 0.14962694E+00 0.12879186E+03</pdfrwt>
<pdfrwt beam="1">  1       -1 0.20802628E-02 0.12879186E+03</pdfrwt>
<totfact> 0.10424964E+04</totfact>
</mgrwt>
</event>
<event>
 8    2  0.7478846E-004  0.1265422E+03  0.7818608E-02  0.1246093E+00
          1   -1    0    0  501    0  0.00000000000E+00  0.00000000000E+00  0.20849418396E+04  0.20849418396E+04  0.50400000000E-02 0. -1.
         -1   -1    0    0    0  501 -0.00000000000E+00 -0.00000000000E+00 -0.60314266855E+01  0.60314287913E+01  0.50400000000E-02 0.  1.
         25    2    1    2    0    0  0.94981225227E+01  0.17256375272E+02  0.10630778779E+04  0.10705827810E+04  0.12499967841E+03 0.  0.
         23    2    1    2    0    0 -0.94981225227E+01 -0.17256375272E+02  0.10158325350E+04  0.10203904874E+04  0.94302761501E+02 0.  0.
        -11    1    4    4    0    0 -0.29660653119E+02  0.23957437965E+02  0.22335617337E+03  0.22658705471E+03  0.51100000000E-03 0.  1.
         11    1    4    4    0    0  0.20162530596E+02 -0.41213813237E+02  0.79247636164E+03  0.79380343272E+03  0.51100000000E-03 0. -1.
    9000005    1    3    3    0    0 -0.37362427076E+01 -0.53130074948E+02  0.37032390575E+03  0.37413575015E+03  0.10000000000E+01 0.  0.
    9000005    1    3    3    0    0  0.13234365230E+02  0.70386450221E+02  0.69275397219E+03  0.69644703085E+03  0.10000000000E+01 0.  0.
<mgrwt>
<rscale>  0 0.11820227E+03</rscale>
<asrwt>0</asrwt>
<pdfrwt beam="1">  1        1 0.32076036E+00 0.12654215E+03</pdfrwt>
<pdfrwt beam="2">  1       -1 0.92791173E-03 0.12654215E+03</pdfrwt>
<totfact> 0.61293348E+03</totfact>
</mgrwt>
</event>
<event>
 8    2  0.7478846E-004  0.1406329E+03  0.7818608E-02  0.1223586E+00
          1   -1    0    0  501    0  0.00000000000E+00  0.00000000000E+00  0.54203590551E+03  0.54203590554E+03  0.50400000000E-02 0. -1.
         -1   -1    0    0    0  501 -0.00000000000E+00 -0.00000000000E+00 -0.29308873067E+02  0.29308873501E+02  0.50400000000E-02 0.  1.
         25    2    1    2    0    0  0.56325978564E+02  0.31309801242E+02  0.27622475741E+03  0.30996409054E+03  0.12499880521E+03 0.  0.
         23    2    1    2    0    0 -0.56325978564E+02 -0.31309801242E+02  0.23650227504E+03  0.26138068849E+03  0.90739289755E+02 0.  0.
        -11    1    4    4    0    0  0.19253397125E+02 -0.16441374609E+02  0.11319243026E+03  0.11598938903E+03  0.51100000000E-03 0. -1.
         11    1    4    4    0    0 -0.75579375688E+02 -0.14868426633E+02  0.12330984478E+03  0.14539129946E+03  0.51100000000E-03 0.  1.
    9000005    1    3    3    0    0 -0.41708886363E+00 -0.62013876744E+01 -0.12144547802E+02  0.13679225619E+02  0.10000000000E+01 0.  0.
    9000005    1    3    3    0    0  0.56743067427E+02  0.37511188916E+02  0.28836930521E+03  0.29628486492E+03  0.10000000000E+01 0.  0.
<mgrwt>
<rscale>  0 0.13264290E+03</rscale>
<asrwt>0</asrwt>
<pdfrwt beam="1">  1        1 0.83390140E-01 0.14063293E+03</pdfrwt>
<pdfrwt beam="2">  1       -1 0.45090574E-02 0.14063293E+03</pdfrwt>
<totfact> 0.79839280E+03</totfact>
</mgrwt>
</event>
<event>
 8    2  0.7478846E-004  0.1694501E+03  0.7818608E-02  0.1183671E+00
         -1   -1    0    0    0  501 -0.00000000000E+00  0.00000000000E+00  0.20170447016E+02  0.20170447646E+02  0.50400000000E-02 0.  1.
          1   -1    0    0  501    0  0.00000000000E+00 -0.00000000000E+00 -0.12850601316E+04  0.12850601316E+04  0.50400000000E-02 0. -1.
         25    2    1    2    0    0  0.11309032505E+03  0.17279191835E+02 -0.59814627446E+03  0.62168505414E+03  0.12500139522E+03 0.  0.
         23    2    1    2    0    0 -0.11309032505E+03 -0.17279191835E+02 -0.66674341011E+03  0.68354552509E+03  0.97978149914E+02 0.  0.
        -11    1    4    4    0    0 -0.68820660884E+01  0.32322403854E+02 -0.16703326946E+03  0.17027100085E+03  0.51100000000E-03 0.  1.
         11    1    4    4    0    0 -0.10620825897E+03 -0.49601595689E+02 -0.49971014065E+03  0.51327452424E+03  0.51100000000E-03 0. -1.
    9000005    1    3    3    0    0  0.76013779238E+02  0.55907596205E+02 -0.21477059543E+03  0.23458721749E+03  0.10000000000E+01 0.  0.
    9000005    1    3    3    0    0  0.37076545817E+02 -0.38628404370E+02 -0.38337567903E+03  0.38709783666E+03  0.10000000000E+01 0.  0.
<mgrwt>
<rscale>  0 0.16453384E+03</rscale>
<asrwt>0</asrwt>
<pdfrwt beam="2">  1        1 0.19770149E+00 0.16945011E+03</pdfrwt>
<pdfrwt beam="1">  1       -1 0.31031467E-02 0.16945011E+03</pdfrwt>
<totfact> 0.35551941E+03</totfact>
</mgrwt>
</event>
<event>
 8    2  0.7478846E-004  0.1295870E+03  0.7818608E-02  0.1240192E+00
          1   -1    0    0  501    0  0.00000000000E+00  0.00000000000E+00  0.34984470613E+03  0.34984470616E+03  0.50400000000E-02 0. -1.
         -1   -1    0    0    0  501 -0.00000000000E+00 -0.00000000000E+00 -0.56597988007E+02  0.56597988231E+02  0.50400000000E-02 0.  1.
         25    2    1    2    0    0  0.32790230875E+02 -0.95231918419E+01  0.42961452021E+02  0.13652281224E+03  0.12500760569E+03 0.  0.
         23    2    1    2    0    0 -0.32790230875E+02  0.95231918419E+01  0.25028526610E+03  0.26991988215E+03  0.95121700625E+02 0.  0.
        -11    1    4    4    0    0 -0.53597844968E+01  0.31125667701E+02  0.20854756476E+02  0.37847791846E+02  0.51100000000E-03 0.  1.
         11    1    4    4    0    0 -0.27430446378E+02 -0.21602475859E+02  0.22943050962E+03  0.23207209030E+03  0.51100000000E-03 0. -1.
    9000005    1    3    3    0    0 -0.36046622301E+02  0.26942746385E+02  0.37214808969E+02  0.58405586793E+02  0.10000000000E+01 0.  0.
    9000005    1    3    3    0    0  0.68836853176E+02 -0.36465938227E+02  0.57466430527E+01  0.78117225452E+02  0.10000000000E+01 0.  0.
<mgrwt>
<rscale>  0 0.12177853E+03</rscale>
<asrwt>0</asrwt>
<pdfrwt beam="1">  1        1 0.53822261E-01 0.12958701E+03</pdfrwt>
<pdfrwt beam="2">  1       -1 0.87073830E-02 0.12958701E+03</pdfrwt>
<totfact> 0.52061346E+03</totfact>
</mgrwt>
</event>
<event>
 8    2  0.7478846E-004  0.1564674E+03  0.7818608E-02  0.1200558E+00
         -1   -1    0    0    0  501 -0.00000000000E+00  0.00000000000E+00  0.77470573219E+02  0.77470573383E+02  0.50400000000E-02 0.  1.
          1   -1    0    0  501    0  0.00000000000E+00 -0.00000000000E+00 -0.57779903356E+03  0.57779903359E+03  0.50400000000E-02 0. -1.
         25    2    1    2    0    0  0.93984236108E+02  0.47765007272E+01 -0.20699141999E+02  0.15783063928E+03  0.12500481839E+03 0.  0.
         23    2    1    2    0    0 -0.93984236108E+02 -0.47765007272E+01 -0.47962931835E+03  0.49743896769E+03  0.92441289257E+02 0.  0.
        -11    1    4    4    0    0 -0.84624213836E+02 -0.11539533851E+02 -0.19876759887E+03  0.21633995648E+03  0.51100000000E-03 0.  1.
         11    1    4    4    0    0 -0.93600222722E+01  0.67630331241E+01 -0.28086171947E+03  0.28109901120E+03  0.51100000000E-03 0. -1.
    9000005    1    3    3    0    0  0.12773144221E+02  0.43753538055E+02 -0.45481812941E+02  0.64398141386E+02  0.10000000000E+01 0.  0.
    9000005    1    3    3    0    0  0.81211091886E+02 -0.38977037328E+02  0.24782670942E+02  0.93432497897E+02  0.10000000000E+01 0.  0.
<mgrwt>
<rscale>  0 0.14993067E+03</rscale>
<asrwt>0</asrwt>
<pdfrwt beam="2">  1        1 0.88892156E-01 0.15646743E+03</pdfrwt>
<pdfrwt beam="1">  1       -1 0.11918550E-01 0.15646743E+03</pdfrwt>
<totfact> 0.16999955E+03</totfact>
</mgrwt>
</event>
<event>
 8    2  0.7478846E-004  0.1640946E+03  0.7818608E-02  0.1194002E+00
          1   -1    0    0  501    0  0.00000000000E+00  0.00000000000E+00  0.22295365558E+03  0.22295365564E+03  0.50400000000E-02 0. -1.
         -1   -1    0    0    0  501 -0.00000000000E+00 -0.00000000000E+00 -0.10131825254E+03  0.10131825266E+03  0.50400000000E-02 0.  1.
         25    2    1    2    0    0  0.24376346662E+02 -0.10347666642E+03  0.39280512587E+02  0.16873051836E+03  0.12500160954E+03 0.  0.
         23    2    1    2    0    0 -0.24376346662E+02  0.10347666642E+03  0.82354890452E+02  0.15554138994E+03  0.78161174718E+02 0.  0.
        -11    1    4    4    0    0 -0.48215966388E+02  0.75002485753E+02  0.77408279880E+02  0.11807706838E+03  0.51100000000E-03 0. -1.
         11    1    4    4    0    0  0.23839619726E+02  0.28474180664E+02  0.49466105722E+01  0.37464321555E+02  0.51100000000E-03 0.  1.
    9000005    1    3    3    0    0  0.69234936594E+02 -0.33551937352E+02  0.37581067092E+02  0.85630284065E+02  0.10000000000E+01 0.  0.
    9000005    1    3    3    0    0 -0.44858589932E+02 -0.69924729064E+02  0.16994454959E+01  0.83100234298E+02  0.10000000000E+01 0.  0.
<mgrwt>
<rscale>  0 0.15538997E+03</rscale>
<asrwt>0</asrwt>
<pdfrwt beam="1">  1        1 0.34300563E-01 0.16409457E+03</pdfrwt>
<pdfrwt beam="2">  1       -1 0.15587423E-01 0.16409457E+03</pdfrwt>
<totfact> 0.37531396E+03</totfact>
</mgrwt>
</event>
<event>
 8    2  0.7478846E-004  0.2356185E+03  0.7818608E-02  0.1125845E+00
         -1   -1    0    0    0  501 -0.00000000000E+00  0.00000000000E+00  0.85652153051E+03  0.85652153053E+03  0.50400000000E-02 0.  1.
          1   -1    0    0  501    0  0.00000000000E+00 -0.00000000000E+00 -0.60418348529E+02  0.60418348739E+02  0.50400000000E-02 0. -1.
         25    2    1    2    0    0 -0.38638672633E+02  0.19595433661E+03  0.44612116881E+03  0.50451974020E+03  0.12500008774E+03 0.  0.
         23    2    1    2    0    0  0.38638672633E+02 -0.19595433661E+03  0.34998201317E+03  0.41242013906E+03  0.87817495422E+02 0.  0.
        -11    1    4    4    0    0  0.23060148627E+02 -0.19980334805E+03  0.31228717927E+03  0.37145178783E+03  0.51100000000E-03 0. -1.
         11    1    4    4    0    0  0.15578524007E+02  0.38490114442E+01  0.37694833903E+02  0.40968351231E+02  0.51100000000E-03 0.  1.
    9000005    1    3    3    0    0  0.43852375876E+02  0.43263273426E+02  0.13110489274E+03  0.14485936144E+03  0.10000000000E+01 0.  0.
    9000005    1    3    3    0    0 -0.82491048509E+02  0.15269106318E+03  0.31501627608E+03  0.35966037876E+03  0.10000000000E+01 0.  0.
<mgrwt>
<rscale>  0 0.23113263E+03</rscale>
<asrwt>0</asrwt>
<pdfrwt beam="2">  1        1 0.92951296E-02 0.23561849E+03</pdfrwt>
<pdfrwt beam="1">  1       -1 0.13177256E+00 0.23561849E+03</pdfrwt>
<totfact> 0.37362160E+02</totfact>
</mgrwt>
</event>
<event>
 8    2  0.7478846E-004  0.1354028E+03  0.7818608E-02  0.1232416E+00
          1   -1    0    0  501    0  0.00000000000E+00  0.00000000000E+00  0.12967218337E+04  0.12967218337E+04  0.50400000000E-02 0. -1.
         -1   -1    0    0    0  501 -0.00000000000E+00 -0.00000000000E+00 -0.11105355327E+02  0.11105356470E+02  0.50400000000E-02 0.  1.
         25    2    1    2    0    0 -0.10116622498E+02 -0.51056685825E+02  0.77834909515E+03  0.79003875770E+03  0.12499917412E+03 0.  0.
         23    2    1    2    0    0  0.10116622498E+02  0.51056685825E+02  0.50726738319E+03  0.51778843244E+03  0.89863961123E+02 0.  0.
        -11    1    4    4    0    0  0.41485077314E+02 -0.82318781362E+00  0.16142952230E+03  0.16667687287E+03  0.51100000000E-03 0. -1.
         11    1    4    4    0    0 -0.31368454816E+02  0.51879873638E+02  0.34583786089E+03  0.35111155958E+03  0.51100000000E-03 0.  1.
    9000005    1    3    3    0    0 -0.36568226099E+02 -0.71253288707E+02  0.70440739888E+03  0.70894643655E+03  0.10000000000E+01 0.  0.
    9000005    1    3    3    0    0  0.26451603601E+02  0.20196602883E+02  0.73941696276E+02  0.81092321148E+02  0.10000000000E+01 0.  0.
<mgrwt>
<rscale>  0 0.12671313E+03</rscale>
<asrwt>0</asrwt>
<pdfrwt beam="1">  1        1 0.19949571E+00 0.13540282E+03</pdfrwt>
<pdfrwt beam="2">  1       -1 0.17085159E-02 0.13540282E+03</pdfrwt>
<totfact> 0.82388003E+03</totfact>
</mgrwt>
</event>
<event>
 8    2  0.7478846E-004  0.1739592E+03  0.7818608E-02  0.1179011E+00
         -1   -1    0    0    0  501 -0.00000000000E+00  0.00000000000E+00  0.26583421194E+02  0.26583421671E+02  0.50400000000E-02 0.  1.
          1   -1    0    0  501    0  0.00000000000E+00 -0.00000000000E+00 -0.10202510314E+04  0.10202510314E+04  0.50400000000E-02 0. -1.
         25    2    1    2    0    0  0.11946735130E+03 -0.19087621989E+02 -0.56387315465E+03  0.59009723292E+03  0.12500009767E+03 0.  0.
         23    2    1    2    0    0 -0.11946735130E+03  0.19087621989E+02 -0.42979445551E+03  0.45673722013E+03  0.96170831961E+02 0.  0.
        -11    1    4    4    0    0 -0.12146888872E+03  0.36553470615E+02 -0.41436464392E+03  0.43334617256E+03  0.51100000000E-03 0.  1.
         11    1    4    4    0    0  0.20015374223E+01 -0.17465848626E+02 -0.15429811597E+02  0.23391047571E+02  0.51100000000E-03 0. -1.
    9000005    1    3    3    0    0 -0.15110183634E+02  0.16524372703E+02 -0.25198544559E+02  0.33724459827E+02  0.10000000000E+01 0.  0.
    9000005    1    3    3    0    0  0.13457753494E+03 -0.35611994692E+02 -0.53867461009E+03  0.55637277309E+03  0.10000000000E+01 0.  0.
<mgrwt>
<rscale>  0 0.16888950E+03</rscale>
<asrwt>0</asrwt>
<pdfrwt beam="2">  1        1 0.15696167E+00 0.17395922E+03</pdfrwt>
<pdfrwt beam="1">  1       -1 0.40897579E-02 0.17395922E+03</pdfrwt>
<totfact> 0.36329134E+03</totfact>
</mgrwt>
</event>
<event>
 8    2  0.7478846E-004  0.1761267E+03  0.7818608E-02  0.1177769E+00
         -1   -1    0    0    0  501 -0.00000000000E+00  0.00000000000E+00  0.17338720448E+03  0.17338720455E+03  0.50400000000E-02 0.  1.
          1   -1    0    0  501    0  0.00000000000E+00 -0.00000000000E+00 -0.23504648884E+03  0.23504648889E+03  0.50400000000E-02 0. -1.
         25    2    1    2    0    0  0.12367120199E+03 -0.10053619204E+02 -0.15025550878E+03  0.23151097694E+03  0.12499989226E+03 0.  0.
         23    2    1    2    0    0 -0.12367120199E+03  0.10053619204E+02  0.88596224419E+02  0.17692271650E+03  0.89759206617E+02 0.  0.
        -11    1    4    4    0    0 -0.62348582166E+02  0.24574503767E+02  0.91989922514E+02  0.11381299477E+03  0.51100000000E-03 0.  1.
         11    1    4    4    0    0 -0.61322619821E+02 -0.14520884563E+02 -0.33936980949E+01  0.63109721733E+02  0.51100000000E-03 0. -1.
    9000005    1    3    3    0    0  0.14398397053E+03 -0.30037937799E+02 -0.11894111136E+03  0.18916038023E+03  0.10000000000E+01 0.  0.
    9000005    1    3    3    0    0 -0.20312768548E+02  0.19984318595E+02 -0.31314397427E+02  0.42350596714E+02  0.10000000000E+01 0.  0.
<mgrwt>
<rscale>  0 0.17007568E+03</rscale>
<asrwt>0</asrwt>
<pdfrwt beam="2">  1        1 0.36160998E-01 0.17612670E+03</pdfrwt>
<pdfrwt beam="1">  1       -1 0.26674955E-01 0.17612670E+03</pdfrwt>
<totfact> 0.14760374E+03</totfact>
</mgrwt>
</event>
<event>
 8    2  0.7478846E-004  0.1552472E+03  0.7818608E-02  0.1201516E+00
          1   -1    0    0  501    0  0.00000000000E+00  0.00000000000E+00  0.99294407298E+02  0.99294407426E+02  0.50400000000E-02 0. -1.
         -1   -1    0    0    0  501 -0.00000000000E+00 -0.00000000000E+00 -0.20815120661E+03  0.20815120667E+03  0.50400000000E-02 0.  1.
         25    2    1    2    0    0 -0.47141901502E+02 -0.79078589029E+02 -0.57516272164E+02  0.16555909009E+03  0.12500363445E+03 0.  0.
         23    2    1    2    0    0  0.47141901502E+02  0.79078589029E+02 -0.51340527146E+02  0.14188652401E+03  0.94974490510E+02 0.  0.
        -11    1    4    4    0    0  0.30914978228E+02  0.67147071452E+02 -0.78660785671E+02  0.10794435736E+03  0.51100000000E-03 0.  1.
         11    1    4    4    0    0  0.16226923274E+02  0.11931517577E+02  0.27320258525E+02  0.33942166648E+02  0.51100000000E-03 0. -1.
    9000005    1    3    3    0    0 -0.66733214842E+02 -0.10229932834E+03 -0.57866837994E+02  0.13515933369E+03  0.10000000000E+01 0.  0.
    9000005    1    3    3    0    0  0.19591313340E+02  0.23220739315E+02  0.35056582998E+00  0.30399756399E+02  0.10000000000E+01 0.  0.
<mgrwt>
<rscale>  0 0.14915402E+03</rscale>
<asrwt>0</asrwt>
<pdfrwt beam="1">  1        1 0.15276063E-01 0.15524719E+03</pdfrwt>
<pdfrwt beam="2">  1       -1 0.32023262E-01 0.15524719E+03</pdfrwt>
<totfact> 0.32226256E+03</totfact>
</mgrwt>
</event>
<event>
 8    2  0.7478846E-004  0.1992827E+03  0.7818608E-02  0.1154882E+00
         -1   -1    0    0    0  501 -0.00000000000E+00  0.00000000000E+00  0.14226528220E+03  0.14226528228E+03  0.50400000000E-02 0.  1.
          1   -1    0    0  501    0  0.00000000000E+00 -0.00000000000E+00 -0.30189884173E+03  0.30189884177E+03  0.50400000000E-02 0. -1.
         25    2    1    2    0    0 -0.89289220772E+02 -0.12694738992E+03  0.72185754101E+01  0.19941342017E+03  0.12500159823E+03 0.  0.
         23    2    1    2    0    0  0.89289220772E+02  0.12694738992E+03 -0.16685213495E+03  0.24475070389E+03  0.89303232675E+02 0.  0.
        -11    1    4    4    0    0  0.51932707826E+02  0.11906768091E+03 -0.87295638562E+02  0.15650765889E+03  0.51100000000E-03 0.  1.
         11    1    4    4    0    0  0.37356512947E+02  0.78797090061E+01 -0.79556496385E+02  0.88243045000E+02  0.51100000000E-03 0. -1.
    9000005    1    3    3    0    0 -0.13643606311E+02 -0.51837635688E+02  0.59995046002E+02  0.80459269271E+02  0.10000000000E+01 0.  0.
    9000005    1    3    3    0    0 -0.75645614461E+02 -0.75109754229E+02 -0.52776470592E+02  0.11895415090E+03  0.10000000000E+01 0.  0.
<mgrwt>
<rscale>  0 0.19402300E+03</rscale>
<asrwt>0</asrwt>
<pdfrwt beam="2">  1        1 0.46445975E-01 0.19928272E+03</pdfrwt>
<pdfrwt beam="1">  1       -1 0.21886967E-01 0.19928272E+03</pdfrwt>
<totfact> 0.15007502E+03</totfact>
</mgrwt>
</event>
<event>
 8    2  0.7478846E-004  0.1315458E+03  0.7818608E-02  0.1237799E+00
         -1   -1    0    0    0  501 -0.00000000000E+00  0.00000000000E+00  0.20592110991E+02  0.20592111608E+02  0.50400000000E-02 0.  1.
          1   -1    0    0  501    0  0.00000000000E+00 -0.00000000000E+00 -0.67576682108E+03  0.67576682110E+03  0.50400000000E-02 0. -1.
         25    2    1    2    0    0 -0.40964391316E+02  0.11796966130E+01 -0.42328892195E+03  0.44325817515E+03  0.12499930140E+03 0.  0.
         23    2    1    2    0    0  0.40964391316E+02 -0.11796966130E+01 -0.23188578814E+03  0.25310075756E+03  0.92787400521E+02 0.  0.
        -11    1    4    4    0    0 -0.26445638156E+02  0.77623264323E+01 -0.11131291689E+03  0.11467428201E+03  0.51100000000E-03 0. -1.
         11    1    4    4    0    0  0.67410029472E+02 -0.89420230453E+01 -0.12057287126E+03  0.13842647555E+03  0.51100000000E-03 0.  1.
    9000005    1    3    3    0    0 -0.44618219249E+02 -0.42598098841E+02 -0.36544786198E+03  0.37061910817E+03  0.10000000000E+01 0.  0.
    9000005    1    3    3    0    0  0.36538279331E+01  0.43777795454E+02 -0.57841059974E+02  0.72639066984E+02  0.10000000000E+01 0.  0.
<mgrwt>
<rscale>  0 0.12326911E+03</rscale>
<asrwt>0</asrwt>
<pdfrwt beam="2">  1        1 0.10396411E+00 0.13154580E+03</pdfrwt>
<pdfrwt beam="1">  1       -1 0.31680176E-02 0.13154580E+03</pdfrwt>
<totfact> 0.98684976E+03</totfact>
</mgrwt>
</event>
<event>
 8    2  0.7478846E-004  0.1299431E+03  0.7818608E-02  0.1241830E+00
          1   -1    0    0  501    0  0.00000000000E+00  0.00000000000E+00  0.14971046536E+03  0.14971046544E+03  0.50400000000E-02 0. -1.
         -1   -1    0    0    0  501 -0.00000000000E+00 -0.00000000000E+00 -0.18209511578E+03  0.18209511585E+03  0.50400000000E-02 0.  1.
         25    2    1    2    0    0 -0.50364508391E+01 -0.35124949063E+02  0.10262858859E+03  0.16558328672E+03  0.12500427898E+03 0.  0.
         23    2    1    2    0    0  0.50364508391E+01  0.35124949063E+02 -0.13501323902E+03  0.16622229457E+03  0.90233855165E+02 0.  0.
        -11    1    4    4    0    0  0.13127494646E+02  0.15202531803E+02  0.79860309011E+01  0.21615382919E+02  0.51100000000E-03 0. -1.
         11    1    4    4    0    0 -0.80910438073E+01  0.19922417260E+02 -0.14299926992E+03  0.14460691165E+03  0.51100000000E-03 0.  1.
    9000005    1    3    3    0    0  0.24570599405E+02 -0.75105079246E+02  0.73502546036E+02  0.10792641733E+03  0.10000000000E+01 0.  0.
    9000005    1    3    3    0    0 -0.29607050244E+02  0.39980130183E+02  0.29126042554E+02  0.57656869395E+02  0.10000000000E+01 0.  0.
<mgrwt>
<rscale>  0 0.12077114E+03</rscale>
<asrwt>0</asrwt>
<pdfrwt beam="1">  1        1 0.23032379E-01 0.12994306E+03</pdfrwt>
<pdfrwt beam="2">  1       -1 0.28014633E-01 0.12994306E+03</pdfrwt>
<totfact> 0.23678511E+03</totfact>
</mgrwt>
</event>
<event>
 8    2  0.7478846E-004  0.1259894E+03  0.7818608E-02  0.1233825E+00
         -1   -1    0    0    0  501 -0.00000000000E+00  0.00000000000E+00  0.14863353001E+03  0.14863353009E+03  0.50400000000E-02 0.  1.
          1   -1    0    0  501    0  0.00000000000E+00 -0.00000000000E+00 -0.13824088104E+03  0.13824088114E+03  0.50400000000E-02 0. -1.
         25    2    1    2    0    0  0.13646272747E+02  0.78861364360E+01  0.74312501804E+02  0.14627262600E+03  0.12499968514E+03 0.  0.
         23    2    1    2    0    0 -0.13646272747E+02 -0.78861364360E+01 -0.63919852839E+02  0.14060178523E+03  0.12423647820E+03 0.  0.
        -11    1    4    4    0    0 -0.25891992034E+02 -0.49081157424E+02 -0.77690039861E+02  0.95473020060E+02  0.51100000000E-03 0. -1.
         11    1    4    4    0    0  0.12245719288E+02  0.41195020988E+02  0.13770187022E+02  0.45128765172E+02  0.51100000000E-03 0.  1.
    9000005    1    3    3    0    0 -0.19921307991E+02 -0.27418994236E+02 -0.20535631407E+02  0.39640533729E+02  0.10000000000E+01 0.  0.
    9000005    1    3    3    0    0  0.33567580738E+02  0.35305130672E+02  0.94848133211E+02  0.10663209227E+03  0.10000000000E+01 0.  0.
<mgrwt>
<rscale>  0 0.12579970E+03</rscale>
<asrwt>0</asrwt>
<pdfrwt beam="2">  1        1 0.21267828E-01 0.12598942E+03</pdfrwt>
<pdfrwt beam="1">  1       -1 0.22866697E-01 0.12598942E+03</pdfrwt>
<totfact> 0.36492040E+03</totfact>
</mgrwt>
</event>
<event>
 8    2  0.7478846E-004  0.1418632E+03  0.7818608E-02  0.1221813E+00
          1   -1    0    0  501    0  0.00000000000E+00  0.00000000000E+00  0.21954265529E+02  0.21954266107E+02  0.50400000000E-02 0. -1.
         -1   -1    0    0    0  501 -0.00000000000E+00 -0.00000000000E+00 -0.99543346833E+03  0.99543346835E+03  0.50400000000E-02 0.  1.
         25    2    1    2    0    0 -0.55081576107E+02 -0.38299833314E+02 -0.27032553544E+03  0.30528850695E+03  0.12499728038E+03 0.  0.
         23    2    1    2    0    0  0.55081576107E+02  0.38299833314E+02 -0.70315366736E+03  0.71209922751E+03  0.90329245724E+02 0.  0.
        -11    1    4    4    0    0  0.50646170377E+02  0.33831175504E+02 -0.70317021100E+03  0.70580303814E+03  0.51100000000E-03 0.  1.
         11    1    4    4    0    0  0.44354057296E+01  0.44686578105E+01  0.16543636050E-01  0.62961893687E+01  0.51100000000E-03 0. -1.
    9000005    1    3    3    0    0 -0.11025345203E+02  0.45304353780E+02 -0.10423027519E+03  0.11418840998E+03  0.10000000000E+01 0.  0.
    9000005    1    3    3    0    0 -0.44056230904E+02 -0.83604187094E+02 -0.16609526025E+03  0.19110009696E+03  0.10000000000E+01 0.  0.
<mgrwt>
<rscale>  0 0.13387750E+03</rscale>
<asrwt>0</asrwt>
<pdfrwt beam="1">  1        1 0.33775801E-02 0.14186323E+03</pdfrwt>
<pdfrwt beam="2">  1       -1 0.15314358E+00 0.14186323E+03</pdfrwt>
<totfact> 0.10145832E+03</totfact>
</mgrwt>
</event>
<event>
 8    2  0.7478846E-004  0.1290696E+03  0.7818608E-02  0.1242824E+00
          1   -1    0    0  501    0  0.00000000000E+00  0.00000000000E+00  0.79310219551E+02  0.79310219712E+02  0.50400000000E-02 0. -1.
         -1   -1    0    0    0  501 -0.00000000000E+00 -0.00000000000E+00 -0.22849549366E+03  0.22849549371E+03  0.50400000000E-02 0.  1.
         25    2    1    2    0    0  0.24407680455E+02 -0.20948517985E+02 -0.16507120261E+03  0.20954109000E+03  0.12499756477E+03 0.  0.
         23    2    1    2    0    0 -0.24407680455E+02  0.20948517985E+02  0.15885928502E+02  0.98264623421E+02  0.91482228989E+02 0.  0.
        -11    1    4    4    0    0 -0.52242891174E+02 -0.11190563890E+02  0.17416150140E+01  0.53456352490E+02  0.51100000000E-03 0. -1.
         11    1    4    4    0    0  0.27835210719E+02  0.32139081875E+02  0.14144313488E+02  0.44808270931E+02  0.51100000000E-03 0.  1.
    9000005    1    3    3    0    0  0.47987622355E+01  0.16206696607E+02  0.16217415457E+02  0.23445462206E+02  0.10000000000E+01 0.  0.
    9000005    1    3    3    0    0  0.19608918220E+02 -0.37155214593E+02 -0.18128861806E+03  0.18609562780E+03  0.10000000000E+01 0.  0.
<mgrwt>
<rscale>  0 0.12016546E+03</rscale>
<asrwt>0</asrwt>
<pdfrwt beam="1">  1        1 0.12201572E-01 0.12906962E+03</pdfrwt>
<pdfrwt beam="2">  1       -1 0.35153153E-01 0.12906962E+03</pdfrwt>
<totfact> 0.36472157E+03</totfact>
</mgrwt>
</event>
<event>
 8    2  0.7478846E-004  0.1500414E+03  0.7818608E-02  0.1208467E+00
          1   -1    0    0  501    0  0.00000000000E+00  0.00000000000E+00  0.10733814599E+03  0.10733814611E+03  0.50400000000E-02 0. -1.
         -1   -1    0    0    0  501 -0.00000000000E+00 -0.00000000000E+00 -0.19108240211E+03  0.19108240218E+03  0.50400000000E-02 0.  1.
         25    2    1    2    0    0  0.44556370245E+02  0.70016654803E+02 -0.58498597592E+01  0.15015536947E+03  0.12499924817E+03 0.  0.
         23    2    1    2    0    0 -0.44556370245E+02 -0.70016654803E+02 -0.77894396367E+02  0.14826517882E+03  0.95012758013E+02 0.  0.
        -11    1    4    4    0    0 -0.12118161676E+02  0.14857130677E+02  0.10193373046E+02  0.21713798117E+02  0.51100000000E-03 0. -1.
         11    1    4    4    0    0 -0.32438208569E+02 -0.84873785480E+02 -0.88087769413E+02  0.12655138070E+03  0.51100000000E-03 0.  1.
    9000005    1    3    3    0    0  0.51968186383E+02  0.95022340122E+02 -0.32272656411E+02  0.11301531697E+03  0.10000000000E+01 0.  0.
    9000005    1    3    3    0    0 -0.74118161381E+01 -0.25005685319E+02  0.26422796652E+02  0.37140052499E+02  0.10000000000E+01 0.  0.
<mgrwt>
<rscale>  0 0.14367599E+03</rscale>
<asrwt>0</asrwt>
<pdfrwt beam="1">  1        1 0.16513561E-01 0.15004137E+03</pdfrwt>
<pdfrwt beam="2">  1       -1 0.29397293E-01 0.15004137E+03</pdfrwt>
<totfact> 0.33609486E+03</totfact>
</mgrwt>
</event>
<event>
 8    2  0.7478846E-004  0.1382463E+03  0.7818608E-02  0.1228333E+00
         -1   -1    0    0    0  501 -0.00000000000E+00  0.00000000000E+00  0.27299373320E+02  0.27299373786E+02  0.50400000000E-02 0.  1.
          1   -1    0    0  501    0  0.00000000000E+00 -0.00000000000E+00 -0.63402359918E+03  0.63402359920E+03  0.50400000000E-02 0. -1.
         25    2    1    2    0    0  0.31487566925E+02  0.49955780702E+02 -0.21613145815E+03  0.25656356010E+03  0.12500002508E+03 0.  0.
         23    2    1    2    0    0 -0.31487566925E+02 -0.49955780702E+02 -0.39059276770E+03  0.40475941288E+03  0.88206718792E+02 0.  0.
        -11    1    4    4    0    0  0.90400707187E+00  0.15389786277E+02 -0.20150060015E+03  0.20208947180E+03  0.51100000000E-03 0. -1.
         11    1    4    4    0    0 -0.32391573996E+02 -0.65345566980E+02 -0.18909216755E+03  0.20266994109E+03  0.51100000000E-03 0.  1.
    9000005    1    3    3    0    0 -0.25237601694E+02  0.12672617670E+02 -0.17483033217E+03  0.17709934169E+03  0.10000000000E+01 0.  0.
    9000005    1    3    3    0    0  0.56725168619E+02  0.37283163033E+02 -0.41301125980E+02  0.79464218412E+02  0.10000000000E+01 0.  0.
<mgrwt>
<rscale>  0 0.12941022E+03</rscale>
<asrwt>0</asrwt>
<pdfrwt beam="2">  1        1 0.97542081E-01 0.13824635E+03</pdfrwt>
<pdfrwt beam="1">  1       -1 0.41999041E-02 0.13824635E+03</pdfrwt>
<totfact> 0.71613515E+03</totfact>
</mgrwt>
</event>
<event>
 8    2  0.7478846E-004  0.1303627E+03  0.7818608E-02  0.1240034E+00
         -1   -1    0    0    0  501 -0.00000000000E+00  0.00000000000E+00  0.83326076002E+01  0.83326091244E+01  0.50400000000E-02 0.  1.
          1   -1    0    0  501    0  0.00000000000E+00 -0.00000000000E+00 -0.15892265882E+04  0.15892265882E+04  0.50400000000E-02 0. -1.
         25    2    1    2    0    0 -0.35703229741E+02  0.95932997858E+01 -0.86310265472E+03  0.87289210722E+03  0.12501074451E+03 0.  0.
         23    2    1    2    0    0  0.35703229741E+02 -0.95932997858E+01 -0.71779132588E+03  0.72466709011E+03  0.92472979685E+02 0.  0.
        -11    1    4    4    0    0  0.30669329164E+02 -0.31421831472E+02 -0.67445969078E+03  0.67588742681E+03  0.51100000000E-03 0. -1.
         11    1    4    4    0    0  0.50339005770E+01  0.21828531686E+02 -0.43331635103E+02  0.48779663299E+02  0.51100000000E-03 0.  1.
    9000005    1    3    3    0    0 -0.50267273705E+02  0.55923894929E+02 -0.38116712649E+03  0.38851468331E+03  0.10000000000E+01 0.  0.
    9000005    1    3    3    0    0  0.14564043964E+02 -0.46330595143E+02 -0.48193552823E+03  0.48437742391E+03  0.10000000000E+01 0.  0.
<mgrwt>
<rscale>  0 0.12187597E+03</rscale>
<asrwt>0</asrwt>
<pdfrwt beam="2">  1        1 0.24449616E+00 0.13036272E+03</pdfrwt>
<pdfrwt beam="1">  1       -1 0.12819410E-02 0.13036272E+03</pdfrwt>
<totfact> 0.79968830E+03</totfact>
</mgrwt>
</event>
<event>
 8    2  0.7478846E-004  0.1641797E+03  0.7818608E-02  0.1191172E+00
          1   -1    0    0  501    0  0.00000000000E+00  0.00000000000E+00  0.14744492218E+03  0.14744492226E+03  0.50400000000E-02 0. -1.
         -1   -1    0    0    0  501 -0.00000000000E+00 -0.00000000000E+00 -0.24852927212E+03  0.24852927217E+03  0.50400000000E-02 0.  1.
         25    2    1    2    0    0  0.35482744816E+02  0.10035696407E+03  0.66795653644E+02  0.17724739334E+03  0.12499773471E+03 0.  0.
         23    2    1    2    0    0 -0.35482744816E+02 -0.10035696407E+03 -0.16788000359E+03  0.21872680109E+03  0.91253342378E+02 0.  0.
        -11    1    4    4    0    0 -0.11578097514E+02 -0.13561723623E+02 -0.11058681133E+03  0.11201524687E+03  0.51100000000E-03 0.  1.
         11    1    4    4    0    0 -0.23904647302E+02 -0.86795240444E+02 -0.57293192256E+02  0.10671155423E+03  0.51100000000E-03 0. -1.
    9000005    1    3    3    0    0 -0.46429163357E+02  0.35498753909E+02  0.13665362985E+02  0.60029749996E+02  0.10000000000E+01 0.  0.
    9000005    1    3    3    0    0  0.81911908173E+02  0.64858210159E+02  0.53130290659E+02  0.11721764334E+03  0.10000000000E+01 0.  0.
<mgrwt>
<rscale>  0 0.15782699E+03</rscale>
<asrwt>0</asrwt>
<pdfrwt beam="1">  1        1 0.22683834E-01 0.16417972E+03</pdfrwt>
<pdfrwt beam="2">  1       -1 0.38235273E-01 0.16417972E+03</pdfrwt>
<totfact> 0.14327183E+03</totfact>
</mgrwt>
</event>
<event>
 8    2  0.7478846E-004  0.1350630E+03  0.7818608E-02  0.1233488E+00
          1   -1    0    0  501    0  0.00000000000E+00  0.00000000000E+00  0.40014043508E+02  0.40014043825E+02  0.50400000000E-02 0. -1.
         -1   -1    0    0    0  501 -0.00000000000E+00 -0.00000000000E+00 -0.35268076373E+03  0.35268076376E+03  0.50400000000E-02 0.  1.
         25    2    1    2    0    0 -0.48037531027E+02 -0.17543731188E+02 -0.17045056268E+03  0.21747509617E+03  0.12500654481E+03 0.  0.
         23    2    1    2    0    0  0.48037531027E+02  0.17543731188E+02 -0.14221615754E+03  0.17521971142E+03  0.88662985021E+02 0.  0.
        -11    1    4    4    0    0  0.16419489830E+02 -0.23192700879E+02 -0.11179097528E+03  0.11534610168E+03  0.51100000000E-03 0.  1.
         11    1    4    4    0    0  0.31618041196E+02  0.40736432067E+02 -0.30425182267E+02  0.59873609736E+02  0.51100000000E-03 0. -1.
    9000005    1    3    3    0    0 -0.80702905587E+02  0.14920612758E+02 -0.73665278063E+02  0.11028670295E+03  0.10000000000E+01 0.  0.
    9000005    1    3    3    0    0  0.32665374561E+02 -0.32464343946E+02 -0.96785284613E+02  0.10718839322E+03  0.10000000000E+01 0.  0.
<mgrwt>
<rscale>  0 0.12601710E+03</rscale>
<asrwt>0</asrwt>
<pdfrwt beam="1">  1        1 0.61560070E-02 0.13506303E+03</pdfrwt>
<pdfrwt beam="2">  1       -1 0.54258577E-01 0.13506303E+03</pdfrwt>
<totfact> 0.42059039E+03</totfact>
</mgrwt>
</event>
<event>
 8    2  0.7478846E-004  0.1281113E+03  0.7818608E-02  0.1244838E+00
         -1   -1    0    0    0  501 -0.00000000000E+00  0.00000000000E+00  0.30170221406E+03  0.30170221410E+03  0.50400000000E-02 0.  1.
          1   -1    0    0  501    0  0.00000000000E+00 -0.00000000000E+00 -0.41491145606E+02  0.41491145912E+02  0.50400000000E-02 0. -1.
         25    2    1    2    0    0 -0.18068756576E+02  0.21529859832E+02  0.13854845796E+03  0.18870129446E+03  0.12498995359E+03 0.  0.
         23    2    1    2    0    0  0.18068756576E+02 -0.21529859832E+02  0.12166261049E+03  0.15449206555E+03  0.90972483191E+02 0.  0.
        -11    1    4    4    0    0  0.33699952917E+02 -0.41041251704E+02  0.33347870770E+02  0.62706870861E+02  0.51100000000E-03 0. -1.
         11    1    4    4    0    0 -0.15631196341E+02  0.19511391872E+02  0.88314739724E+02  0.91785194691E+02  0.51100000000E-03 0.  1.
    9000005    1    3    3    0    0  0.12899093146E+02  0.67043931047E+02  0.50784648368E+02  0.85096156224E+02  0.10000000000E+01 0.  0.
    9000005    1    3    3    0    0 -0.30967849722E+02 -0.45514071215E+02  0.87763809590E+02  0.10360513823E+03  0.10000000000E+01 0.  0.
<mgrwt>
<rscale>  0 0.11895086E+03</rscale>
<asrwt>0</asrwt>
<pdfrwt beam="2">  1        1 0.63832536E-02 0.12811129E+03</pdfrwt>
<pdfrwt beam="1">  1       -1 0.46415723E-01 0.12811129E+03</pdfrwt>
<totfact> 0.53059725E+03</totfact>
</mgrwt>
</event>
<event>
 8    2  0.7478846E-004  0.1369821E+03  0.7818608E-02  0.1229173E+00
          1   -1    0    0  501    0  0.00000000000E+00  0.00000000000E+00  0.11389052317E+04  0.11389052317E+04  0.50400000000E-02 0. -1.
         -1   -1    0    0    0  501 -0.00000000000E+00 -0.00000000000E+00 -0.16120995029E+02  0.16120995817E+02  0.50400000000E-02 0.  1.
         25    2    1    2    0    0  0.46878144443E+02  0.30702921266E+02  0.36810436114E+03  0.39276571826E+03  0.12499543573E+03 0.  0.
         23    2    1    2    0    0 -0.46878144443E+02 -0.30702921266E+02  0.75467987550E+03  0.76226050923E+03  0.91428330682E+02 0.  0.
        -11    1    4    4    0    0  0.24593974658E+02 -0.15607489644E+02  0.33560564256E+03  0.33686733982E+03  0.51100000000E-03 0. -1.
         11    1    4    4    0    0 -0.71472119101E+02 -0.15095431622E+02  0.41907423294E+03  0.42539316941E+03  0.51100000000E-03 0.  1.
    9000005    1    3    3    0    0  0.61806601565E+02 -0.33956572817E+02  0.18265211012E+03  0.19579555196E+03  0.10000000000E+01 0.  0.
    9000005    1    3    3    0    0 -0.14928457122E+02  0.64659494083E+02  0.18545225102E+03  0.19697016631E+03  0.10000000000E+01 0.  0.
<mgrwt>
<rscale>  0 0.12884930E+03</rscale>
<asrwt>0</asrwt>
<pdfrwt beam="1">  1        1 0.17521618E+00 0.13698207E+03</pdfrwt>
<pdfrwt beam="2">  1       -1 0.24801533E-02 0.13698207E+03</pdfrwt>
<totfact> 0.61655268E+03</totfact>
</mgrwt>
</event>
<event>
 8    2  0.7478846E-004  0.2130808E+03  0.7818608E-02  0.1142915E+00
         -1   -1    0    0    0  501 -0.00000000000E+00  0.00000000000E+00  0.95332855638E+02  0.95332855771E+02  0.50400000000E-02 0.  1.
          1   -1    0    0  501    0  0.00000000000E+00 -0.00000000000E+00 -0.44234844820E+03  0.44234844823E+03  0.50400000000E-02 0. -1.
         25    2    1    2    0    0  0.13199542159E+03  0.11115613034E+03 -0.14876710696E+03  0.25987513235E+03  0.12499982266E+03 0.  0.
         23    2    1    2    0    0 -0.13199542159E+03 -0.11115613034E+03 -0.19824848561E+03  0.27780617166E+03  0.89974053669E+02 0.  0.
        -11    1    4    4    0    0 -0.12614762109E+03 -0.69364972542E+02 -0.18322056587E+03  0.23301179687E+03  0.51100000000E-03 0. -1.
         11    1    4    4    0    0 -0.58478004971E+01 -0.41791157795E+02 -0.15027919733E+02  0.44794374783E+02  0.51100000000E-03 0.  1.
    9000005    1    3    3    0    0  0.72388543018E+02  0.20315591011E+02  0.56846394682E+00  0.75194065920E+02  0.10000000000E+01 0.  0.
    9000005    1    3    3    0    0  0.59606878574E+02  0.90840539325E+02 -0.14933557091E+03  0.18468106642E+03  0.10000000000E+01 0.  0.
<mgrwt>
<rscale>  0 0.20830545E+03</rscale>
<asrwt>0</asrwt>
<pdfrwt beam="2">  1        1 0.68053607E-01 0.21308081E+03</pdfrwt>
<pdfrwt beam="1">  1       -1 0.14666593E-01 0.21308081E+03</pdfrwt>
<totfact> 0.17600706E+03</totfact>
</mgrwt>
</event>
<event>
 8    2  0.7478846E-004  0.1311655E+03  0.7818608E-02  0.1244463E+00
         -1   -1    0    0    0  501 -0.00000000000E+00  0.00000000000E+00  0.10959892988E+03  0.10959893000E+03  0.50400000000E-02 0.  1.
          1   -1    0    0  501    0  0.00000000000E+00 -0.00000000000E+00 -0.11099726722E+03  0.11099726733E+03  0.50400000000E-02 0. -1.
         25    2    1    2    0    0  0.24574997221E+02 -0.31229883734E+02 -0.27646299100E+01  0.13119458881E+03  0.12500056331E+03 0.  0.
         23    2    1    2    0    0 -0.24574997221E+02  0.31229883734E+02  0.13662925737E+01  0.89401608517E+02  0.80072122012E+02 0.  0.
        -11    1    4    4    0    0 -0.14651535377E+02  0.49107309655E+02  0.25936830119E+02  0.57436177688E+02  0.51100000000E-03 0.  1.
         11    1    4    4    0    0 -0.99234618440E+01 -0.17877425921E+02 -0.24570537546E+02  0.31965430829E+02  0.51100000000E-03 0. -1.
    9000005    1    3    3    0    0 -0.17703323830E+02  0.42144370457E+02 -0.76795044697E+01  0.46363028641E+02  0.10000000000E+01 0.  0.
    9000005    1    3    3    0    0  0.42278321051E+02 -0.73374254191E+02  0.49148745597E+01  0.84831560170E+02  0.10000000000E+01 0.  0.
<mgrwt>
<rscale>  0 0.11917585E+03</rscale>
<asrwt>0</asrwt>
<pdfrwt beam="2">  1        1 0.17076503E-01 0.13116546E+03</pdfrwt>
<pdfrwt beam="1">  1       -1 0.16861374E-01 0.13116546E+03</pdfrwt>
<totfact> 0.78804128E+03</totfact>
</mgrwt>
</event>
<event>
 8    2  0.7478846E-004  0.1676279E+03  0.7818608E-02  0.1186655E+00
         -1   -1    0    0    0  501 -0.00000000000E+00  0.00000000000E+00  0.36139665679E+03  0.36139665683E+03  0.50400000000E-02 0.  1.
          1   -1    0    0  501    0  0.00000000000E+00 -0.00000000000E+00 -0.68189901714E+02  0.68189901901E+02  0.50400000000E-02 0. -1.
         25    2    1    2    0    0 -0.11169098887E+03  0.17562197942E+00  0.14202074421E+03  0.21970210526E+03  0.12499686169E+03 0.  0.
         23    2    1    2    0    0  0.11169098887E+03 -0.17562197942E+00  0.15118601087E+03  0.20988445347E+03  0.93377545935E+02 0.  0.
        -11    1    4    4    0    0  0.12265241590E+03  0.66066654531E+01  0.15370060057E+03  0.19675146192E+03  0.51100000000E-03 0.  1.
         11    1    4    4    0    0 -0.10961427024E+02 -0.67822874325E+01 -0.25145896974E+01  0.13132991542E+02  0.51100000000E-03 0. -1.
    9000005    1    3    3    0    0 -0.30271486000E+01 -0.47493190150E+02  0.28485690968E+02  0.55472527698E+02  0.10000000000E+01 0.  0.
    9000005    1    3    3    0    0 -0.10866384027E+03  0.47668812130E+02  0.11353505324E+03  0.16422957756E+03  0.10000000000E+01 0.  0.
<mgrwt>
<rscale>  0 0.16182183E+03</rscale>
<asrwt>0</asrwt>
<pdfrwt beam="2">  1        1 0.10490754E-01 0.16762793E+03</pdfrwt>
<pdfrwt beam="1">  1       -1 0.55599486E-01 0.16762793E+03</pdfrwt>
<totfact> 0.19844384E+03</totfact>
</mgrwt>
</event>
<event>
 8    2  0.7478846E-004  0.1437794E+03  0.7818608E-02  0.1226341E+00
         -1   -1    0    0    0  501 -0.00000000000E+00  0.00000000000E+00  0.66258617907E+01  0.66258637076E+01  0.50400000000E-02 0.  1.
          1   -1    0    0  501    0  0.00000000000E+00 -0.00000000000E+00 -0.23757313497E+04  0.23757313497E+04  0.50400000000E-02 0. -1.
         25    2    1    2    0    0  0.57119665612E+02  0.42242712284E+02 -0.16992033510E+04  0.17052755014E+04  0.12500161840E+03 0.  0.
         23    2    1    2    0    0 -0.57119665612E+02 -0.42242712284E+02 -0.66990213690E+03  0.67708171203E+03  0.67997564653E+02 0.  0.
        -11    1    4    4    0    0 -0.27944159267E+02  0.60610691193E+01 -0.89828936187E+02  0.94270092674E+02  0.51100000000E-03 0.  1.
         11    1    4    4    0    0 -0.29175506345E+02 -0.48303781404E+02 -0.58007320071E+03  0.58281161936E+03  0.51100000000E-03 0. -1.
    9000005    1    3    3    0    0  0.88741765430E+01  0.62230189100E+02 -0.39033119153E+03  0.39536158959E+03  0.10000000000E+01 0.  0.
    9000005    1    3    3    0    0  0.48245489069E+02 -0.19987476815E+02 -0.13088721595E+04  0.13099139118E+04  0.10000000000E+01 0.  0.
<mgrwt>
<rscale>  0 0.13075403E+03</rscale>
<asrwt>0</asrwt>
<pdfrwt beam="2">  1        1 0.36549645E+00 0.14377937E+03</pdfrwt>
<pdfrwt beam="1">  1       -1 0.10193654E-02 0.14377937E+03</pdfrwt>
<totfact> 0.34989470E+03</totfact>
</mgrwt>
</event>
<event>
 8    2  0.7478846E-004  0.1696990E+03  0.7818608E-02  0.1184669E+00
         -1   -1    0    0    0  501 -0.00000000000E+00  0.00000000000E+00  0.10945060847E+03  0.10945060858E+03  0.50400000000E-02 0.  1.
          1   -1    0    0  501    0  0.00000000000E+00 -0.00000000000E+00 -0.24002057129E+03  0.24002057134E+03  0.50400000000E-02 0. -1.
         25    2    1    2    0    0 -0.90698430830E+02  0.70345910445E+02 -0.31800636231E+02  0.17265291429E+03  0.12499198325E+03 0.  0.
         23    2    1    2    0    0  0.90698430830E+02 -0.70345910445E+02 -0.98769326587E+02  0.17681826563E+03  0.91293848177E+02 0.  0.
        -11    1    4    4    0    0  0.40912539750E+02 -0.56728024630E+02 -0.54226604793E+01  0.70152048681E+02  0.51100000000E-03 0.  1.
         11    1    4    4    0    0  0.49785891080E+02 -0.13617885815E+02 -0.93346666108E+02  0.10666621695E+03  0.51100000000E-03 0. -1.
    9000005    1    3    3    0    0 -0.95528853857E+02 -0.28358843896E+01 -0.98038293516E+01  0.96077672898E+02  0.10000000000E+01 0.  0.
    9000005    1    3    3    0    0  0.48304230268E+01  0.73181794835E+02 -0.21996806880E+02  0.76575241395E+02  0.10000000000E+01 0.  0.
<mgrwt>
<rscale>  0 0.16362053E+03</rscale>
<asrwt>0</asrwt>
<pdfrwt beam="2">  1        1 0.36926242E-01 0.16969899E+03</pdfrwt>
<pdfrwt beam="1">  1       -1 0.16838555E-01 0.16969899E+03</pdfrwt>
<totfact> 0.30338940E+03</totfact>
</mgrwt>
</event>
<event>
 8    2  0.7478846E-004  0.1559124E+03  0.7818608E-02  0.1201514E+00
         -1   -1    0    0    0  501 -0.00000000000E+00  0.00000000000E+00  0.21524936311E+02  0.21524936902E+02  0.50400000000E-02 0.  1.
          1   -1    0    0  501    0  0.00000000000E+00 -0.00000000000E+00 -0.10211600161E+04  0.10211600162E+04  0.50400000000E-02 0. -1.
         25    2    1    2    0    0  0.87479824842E+02 -0.32103952107E+02 -0.67489357285E+03  0.69266875713E+03  0.12500115575E+03 0.  0.
         23    2    1    2    0    0 -0.87479824842E+02  0.32103952107E+02 -0.32474150698E+03  0.35001619592E+03  0.91492663949E+02 0.  0.
        -11    1    4    4    0    0 -0.91921383678E+02  0.27758467681E+02 -0.17073141671E+03  0.19588080548E+03  0.51100000000E-03 0.  1.
         11    1    4    4    0    0  0.44415588351E+01  0.43454844263E+01 -0.15401009028E+03  0.15413539044E+03  0.51100000000E-03 0. -1.
    9000005    1    3    3    0    0  0.10629396960E+03 -0.83145203365E+01 -0.62678085659E+03  0.63578516923E+03  0.10000000000E+01 0.  0.
    9000005    1    3    3    0    0 -0.18814144762E+02 -0.23789431770E+02 -0.48112716259E+02  0.56883587904E+02  0.10000000000E+01 0.  0.
<mgrwt>
<rscale>  0 0.14915564E+03</rscale>
<asrwt>0</asrwt>
<pdfrwt beam="2">  1        1 0.15710150E+00 0.15591239E+03</pdfrwt>
<pdfrwt beam="1">  1       -1 0.33115295E-02 0.15591239E+03</pdfrwt>
<totfact> 0.49319920E+03</totfact>
</mgrwt>
</event>
<event>
 8    2  0.7478846E-004  0.1800093E+03  0.7818608E-02  0.1172786E+00
          1   -1    0    0  501    0  0.00000000000E+00  0.00000000000E+00  0.17050055953E+03  0.17050055960E+03  0.50400000000E-02 0. -1.
         -1   -1    0    0    0  501 -0.00000000000E+00 -0.00000000000E+00 -0.18104884261E+03  0.18104884268E+03  0.50400000000E-02 0.  1.
         25    2    1    2    0    0  0.24817749892E+02 -0.12713086010E+03  0.37599243787E+02  0.18389416366E+03  0.12500073598E+03 0.  0.
         23    2    1    2    0    0 -0.24817749892E+02  0.12713086010E+03 -0.48147526870E+02  0.16765523863E+03  0.94931124477E+02 0.  0.
        -11    1    4    4    0    0 -0.35485398618E+01  0.11182592525E+03  0.10807956999E+01  0.11188743367E+03  0.51100000000E-03 0. -1.
         11    1    4    4    0    0 -0.21269210030E+02  0.15304934851E+02 -0.49228322570E+02  0.55767804954E+02  0.51100000000E-03 0.  1.
    9000005    1    3    3    0    0 -0.37387016665E+02 -0.47403715671E+02  0.54528763792E+02  0.81359002915E+02  0.10000000000E+01 0.  0.
    9000005    1    3    3    0    0  0.62204766558E+02 -0.79727144433E+02 -0.16929520005E+02  0.10253516075E+03  0.10000000000E+01 0.  0.
<mgrwt>
<rscale>  0 0.17494554E+03</rscale>
<asrwt>0</asrwt>
<pdfrwt beam="1">  1        1 0.26230855E-01 0.18000933E+03</pdfrwt>
<pdfrwt beam="2">  1       -1 0.27853668E-01 0.18000933E+03</pdfrwt>
<totfact> 0.20546831E+03</totfact>
</mgrwt>
</event>
<event>
 8    2  0.7478846E-004  0.1667395E+03  0.7818608E-02  0.1187904E+00
         -1   -1    0    0    0  501 -0.00000000000E+00  0.00000000000E+00  0.19353605474E+02  0.19353606130E+02  0.50400000000E-02 0.  1.
          1   -1    0    0  501    0  0.00000000000E+00 -0.00000000000E+00 -0.14115267795E+04  0.14115267795E+04  0.50400000000E-02 0. -1.
         25    2    1    2    0    0 -0.57641498461E+02 -0.94099521319E+02 -0.98548753816E+03  0.99949374010E+03  0.12499914550E+03 0.  0.
         23    2    1    2    0    0  0.57641498461E+02  0.94099521319E+02 -0.40668563585E+03  0.43138664552E+03  0.92325344679E+02 0.  0.
        -11    1    4    4    0    0  0.23613489122E+02  0.40590876854E+02 -0.48043965629E+02  0.67182131448E+02  0.51100000000E-03 0.  1.
         11    1    4    4    0    0  0.34028009338E+02  0.53508644465E+02 -0.35864167022E+03  0.36420451407E+03  0.51100000000E-03 0. -1.
    9000005    1    3    3    0    0 -0.87683350651E+02 -0.30032276029E+02 -0.65405989388E+03  0.66059492306E+03  0.10000000000E+01 0.  0.
    9000005    1    3    3    0    0  0.30041852190E+02 -0.64067245289E+02 -0.33142764428E+03  0.33889881704E+03  0.10000000000E+01 0.  0.
<mgrwt>
<rscale>  0 0.16070461E+03</rscale>
<asrwt>0</asrwt>
<pdfrwt beam="2">  1        1 0.21715788E+00 0.16673946E+03</pdfrwt>
<pdfrwt beam="1">  1       -1 0.29774789E-02 0.16673946E+03</pdfrwt>
<totfact> 0.31086665E+03</totfact>
</mgrwt>
</event>
<event>
 8    2  0.7478846E-004  0.1758060E+03  0.7818608E-02  0.1177889E+00
          1   -1    0    0  501    0  0.00000000000E+00  0.00000000000E+00  0.31179584077E+03  0.31179584081E+03  0.50400000000E-02 0. -1.
         -1   -1    0    0    0  501 -0.00000000000E+00 -0.00000000000E+00 -0.12849596803E+03  0.12849596813E+03  0.50400000000E-02 0.  1.
         25    2    1    2    0    0  0.66900719603E+02  0.10395402601E+03  0.22077242991E+03  0.28222016577E+03  0.12500244140E+03 0.  0.
         23    2    1    2    0    0 -0.66900719603E+02 -0.10395402601E+03 -0.37472557164E+02  0.15807164316E+03  0.91106015308E+02 0.  0.
        -11    1    4    4    0    0 -0.72837206505E+02 -0.30902475750E+02 -0.29097388895E+02  0.84302311354E+02  0.51100000000E-03 0.  1.
         11    1    4    4    0    0  0.59364869017E+01 -0.73051550256E+02 -0.83751682697E+01  0.73769331808E+02  0.51100000000E-03 0. -1.
    9000005    1    3    3    0    0  0.61268306754E+02  0.12256815753E+03  0.12830006354E+03  0.18771964457E+03  0.10000000000E+01 0.  0.
    9000005    1    3    3    0    0  0.56324128494E+01 -0.18614131522E+02  0.92472366364E+02  0.94500521203E+02  0.10000000000E+01 0.  0.
<mgrwt>
<rscale>  0 0.16996086E+03</rscale>
<asrwt>0</asrwt>
<pdfrwt beam="1">  1        1 0.47968591E-01 0.17580602E+03</pdfrwt>
<pdfrwt beam="2">  1       -1 0.19768610E-01 0.17580602E+03</pdfrwt>
<totfact> 0.16956907E+03</totfact>
</mgrwt>
</event>
<event>
 8    2  0.7478846E-004  0.1752326E+03  0.7818608E-02  0.1178146E+00
         -1   -1    0    0    0  501 -0.00000000000E+00  0.00000000000E+00  0.66094050394E+02  0.66094050586E+02  0.50400000000E-02 0.  1.
          1   -1    0    0  501    0  0.00000000000E+00 -0.00000000000E+00 -0.45417550646E+03  0.45417550648E+03  0.50400000000E-02 0. -1.
         25    2    1    2    0    0  0.11963338816E+03  0.27745404857E+02 -0.28580972452E+03  0.33525165875E+03  0.12499808402E+03 0.  0.
         23    2    1    2    0    0 -0.11963338816E+03 -0.27745404857E+02 -0.10227173155E+03  0.18501789833E+03  0.93221030750E+02 0.  0.
        -11    1    4    4    0    0 -0.76491007076E+02 -0.35894805970E+02 -0.12939696204E+02  0.85479512149E+02  0.51100000000E-03 0.  1.
         11    1    4    4    0    0 -0.43142381085E+02  0.81494011126E+01 -0.89332035341E+02  0.99538386177E+02  0.51100000000E-03 0. -1.
    9000005    1    3    3    0    0 -0.24902187530E+02  0.15590660495E+02 -0.60929145597E+02  0.67650191586E+02  0.10000000000E+01 0.  0.
    9000005    1    3    3    0    0  0.14453557569E+03  0.12154744362E+02 -0.22488057892E+03  0.26760146716E+03  0.10000000000E+01 0.  0.
<mgrwt>
<rscale>  0 0.16971480E+03</rscale>
<asrwt>0</asrwt>
<pdfrwt beam="2">  1        1 0.69873153E-01 0.17523263E+03</pdfrwt>
<pdfrwt beam="1">  1       -1 0.10168316E-01 0.17523263E+03</pdfrwt>
<totfact> 0.29944611E+03</totfact>
</mgrwt>
</event>
<event>
 8    2  0.7478846E-004  0.1600993E+03  0.7818608E-02  0.1196213E+00
         -1   -1    0    0    0  501 -0.00000000000E+00  0.00000000000E+00  0.54439741869E+02  0.54439742103E+02  0.50400000000E-02 0.  1.
          1   -1    0    0  501    0  0.00000000000E+00 -0.00000000000E+00 -0.63047787601E+03  0.63047787603E+03  0.50400000000E-02 0. -1.
         25    2    1    2    0    0  0.75438347555E+02  0.65695022854E+02 -0.50954979473E+03  0.53410932336E+03  0.12499998273E+03 0.  0.
         23    2    1    2    0    0 -0.75438347555E+02 -0.65695022854E+02 -0.66488339407E+02  0.15080829477E+03  0.91190252681E+02 0.  0.
        -11    1    4    4    0    0  0.82440437221E+01 -0.19670511512E+02  0.14332289912E+02  0.25696455289E+02  0.51100000000E-03 0.  1.
         11    1    4    4    0    0 -0.83682391277E+02 -0.46024511342E+02 -0.80820629319E+02  0.12511183948E+03  0.51100000000E-03 0. -1.
    9000005    1    3    3    0    0  0.34237864987E+02  0.61504362690E+02 -0.99019876794E+02  0.12149466667E+03  0.10000000000E+01 0.  0.
    9000005    1    3    3    0    0  0.41200482568E+02  0.41906601640E+01 -0.41052991794E+03  0.41261465669E+03  0.10000000000E+01 0.  0.
<mgrwt>
<rscale>  0 0.15351999E+03</rscale>
<asrwt>0</asrwt>
<pdfrwt beam="2">  1        1 0.96996591E-01 0.16009927E+03</pdfrwt>
<pdfrwt beam="1">  1       -1 0.83753454E-02 0.16009927E+03</pdfrwt>
<totfact> 0.25913223E+03</totfact>
</mgrwt>
</event>
<event>
 8    2  0.7478846E-004  0.1636137E+03  0.7818608E-02  0.1190830E+00
          1   -1    0    0  501    0  0.00000000000E+00  0.00000000000E+00  0.88295941846E+03  0.88295941847E+03  0.50400000000E-02 0. -1.
         -1   -1    0    0    0  501 -0.00000000000E+00 -0.00000000000E+00 -0.27278077125E+02  0.27278077590E+02  0.50400000000E-02 0.  1.
         25    2    1    2    0    0 -0.63038410418E+02 -0.84679553863E+02  0.52923697045E+03  0.55395054633E+03  0.12499987547E+03 0.  0.
         23    2    1    2    0    0  0.63038410418E+02  0.84679553863E+02  0.32644437089E+03  0.35628694973E+03  0.96072864182E+02 0.  0.
        -11    1    4    4    0    0  0.26646291759E+02  0.95156835301E+02  0.27636791526E+03  0.29350310519E+03  0.51100000000E-03 0. -1.
         11    1    4    4    0    0  0.36392118660E+02 -0.10477281438E+02  0.50076455623E+02  0.62783844538E+02  0.51100000000E-03 0.  1.
    9000005    1    3    3    0    0 -0.84425911953E+02 -0.67990511852E+02  0.23886852516E+03  0.26231587184E+03  0.10000000000E+01 0.  0.
    9000005    1    3    3    0    0  0.21387501534E+02 -0.16689042011E+02  0.29036844529E+03  0.29163467449E+03  0.10000000000E+01 0.  0.
<mgrwt>
<rscale>  0 0.15812498E+03</rscale>
<asrwt>0</asrwt>
<pdfrwt beam="1">  1        1 0.13583990E+00 0.16361368E+03</pdfrwt>
<pdfrwt beam="2">  1       -1 0.41966277E-02 0.16361368E+03</pdfrwt>
<totfact> 0.44317719E+03</totfact>
</mgrwt>
</event>
<event>
 8    2  0.7478846E-004  0.1298381E+03  0.7818608E-02  0.1239122E+00
          1   -1    0    0  501    0  0.00000000000E+00  0.00000000000E+00  0.48207951737E+02  0.48207952001E+02  0.50400000000E-02 0.  1.
         -1   -1    0    0    0  501 -0.00000000000E+00 -0.00000000000E+00 -0.32114823167E+03  0.32114823171E+03  0.50400000000E-02 0. -1.
         25    2    1    2    0    0  0.19882670000E+02 -0.28941975973E+02 -0.84984288327E+02  0.15517814847E+03  0.12499987984E+03 0.  0.
         23    2    1    2    0    0 -0.19882670000E+02  0.28941975973E+02 -0.18795599160E+03  0.21417803524E+03  0.96497758841E+02 0.  0.
        -11    1    4    4    0    0 -0.29681838876E+02  0.45874357927E+02 -0.47600540295E+02  0.72465714037E+02  0.51100000000E-03 0.  1.
         11    1    4    4    0    0  0.97991688760E+01 -0.16932381954E+02 -0.14035545131E+03  0.14171232120E+03  0.51100000000E-03 0. -1.
    9000005    1    3    3    0    0  0.40373772482E+02 -0.23683459846E+02  0.17909902027E+02  0.50126962459E+02  0.10000000000E+01 0.  0.
    9000005    1    3    3    0    0 -0.20491102482E+02 -0.52585161272E+01 -0.10289419035E+03  0.10505118601E+03  0.10000000000E+01 0.  0.
<mgrwt>
<rscale>  0 0.12244223E+03</rscale>
<asrwt>0</asrwt>
<pdfrwt beam="1">  1        1 0.74166082E-02 0.12983809E+03</pdfrwt>
<pdfrwt beam="2">  1       -1 0.49407419E-01 0.12983809E+03</pdfrwt>
<totfact> 0.38749200E+03</totfact>
</mgrwt>
</event>
<event>
 8    2  0.7478846E-004  0.1344726E+03  0.7818608E-02  0.1233820E+00
         -1   -1    0    0    0  501 -0.00000000000E+00  0.00000000000E+00  0.41471770287E+02  0.41471770593E+02  0.50400000000E-02 0.  1.
          1   -1    0    0  501    0  0.00000000000E+00 -0.00000000000E+00 -0.37660103184E+03  0.37660103187E+03  0.50400000000E-02 0. -1.
         25    2    1    2    0    0  0.41837702685E+02 -0.26609134053E+02 -0.25228511422E+03  0.28588573113E+03  0.12499773208E+03 0.  0.
         23    2    1    2    0    0 -0.41837702685E+02  0.26609134053E+02 -0.82844147330E+02  0.13218707133E+03  0.90287483627E+02 0.  0.
        -11    1    4    4    0    0 -0.40863194142E+02 -0.16831623745E+02 -0.69537753852E+01  0.44737670768E+02  0.51100000000E-03 0.  1.
         11    1    4    4    0    0 -0.97450854311E+00  0.43440757798E+02 -0.75890371944E+02  0.87449400564E+02  0.51100000000E-03 0. -1.
    9000005    1    3    3    0    0  0.83352098079E+02 -0.36701383721E+02 -0.18444377255E+03  0.20570626888E+03  0.10000000000E+01 0.  0.
    9000005    1    3    3    0    0 -0.41514395394E+02  0.10092249668E+02 -0.67841341667E+02  0.80179462255E+02  0.10000000000E+01 0.  0.
<mgrwt>
<rscale>  0 0.12580302E+03</rscale>
<asrwt>0</asrwt>
<pdfrwt beam="2">  1        1 0.57938618E-01 0.13447257E+03</pdfrwt>
<pdfrwt beam="1">  1       -1 0.63802726E-02 0.13447257E+03</pdfrwt>
<totfact> 0.75938056E+03</totfact>
</mgrwt>
</event>
<event>
 8    2  0.7478846E-004  0.1353957E+03  0.7818608E-02  0.1232265E+00
         -1   -1    0    0    0  501 -0.00000000000E+00  0.00000000000E+00  0.16465295470E+02  0.16465296241E+02  0.50400000000E-02 0.  1.
          1   -1    0    0  501    0  0.00000000000E+00 -0.00000000000E+00 -0.10213609660E+04  0.10213609660E+04  0.50400000000E-02 0. -1.
         25    2    1    2    0    0  0.49478100159E+02  0.16078732949E+02 -0.36099850908E+03  0.38555403902E+03  0.12500154158E+03 0.  0.
         23    2    1    2    0    0 -0.49478100159E+02 -0.16078732949E+02 -0.64389716145E+03  0.65227222323E+03  0.90271205988E+02 0.  0.
        -11    1    4    4    0    0  0.68578954464E+01 -0.13733884702E+02 -0.17241706471E+02  0.23085206546E+02  0.51100000000E-03 0.  1.
         11    1    4    4    0    0 -0.56335995605E+02 -0.23448482472E+01 -0.62665545498E+03  0.62918701669E+03  0.51100000000E-03 0. -1.
    9000005    1    3    3    0    0  0.69125292375E+02 -0.21371859887E+02 -0.11447610710E+03  0.13542836313E+03  0.10000000000E+01 0.  0.
    9000005    1    3    3    0    0 -0.19647192216E+02  0.37450592836E+02 -0.24652240197E+03  0.25012567589E+03  0.10000000000E+01 0.  0.
<mgrwt>
<rscale>  0 0.12681186E+03</rscale>
<asrwt>0</asrwt>
<pdfrwt beam="2">  1        1 0.15713241E+00 0.13539569E+03</pdfrwt>
<pdfrwt beam="1">  1       -1 0.25331233E-02 0.13539569E+03</pdfrwt>
<totfact> 0.72423872E+03</totfact>
</mgrwt>
</event>
<event>
 8    2  0.7478846E-004  0.1409961E+03  0.7818608E-02  0.1221766E+00
         -1   -1    0    0    0  501 -0.00000000000E+00  0.00000000000E+00  0.19974424816E+02  0.19974425452E+02  0.50400000000E-02 0.  1.
          1   -1    0    0  501    0  0.00000000000E+00 -0.00000000000E+00 -0.10035078198E+04  0.10035078198E+04  0.50400000000E-02 0. -1.
         25    2    1    2    0    0  0.51831095294E+02  0.39598992413E+02 -0.31415608599E+03  0.34434566077E+03  0.12500138034E+03 0.  0.
         23    2    1    2    0    0 -0.51831095294E+02 -0.39598992413E+02 -0.66937730898E+03  0.67913658448E+03  0.94371478538E+02 0.  0.
        -11    1    4    4    0    0 -0.46776019886E+02 -0.55655498255E+02 -0.64731929655E+03  0.65138913271E+03  0.51100000000E-03 0. -1.
         11    1    4    4    0    0 -0.50550754073E+01  0.16056505842E+02 -0.22058012431E+02  0.27747451773E+02  0.51100000000E-03 0.  1.
    9000005    1    3    3    0    0 -0.75273411193E+01 -0.34299238788E+02 -0.15643744609E+03  0.16033331901E+03  0.10000000000E+01 0.  0.
    9000005    1    3    3    0    0  0.59358436413E+02  0.73898231201E+02 -0.15771863989E+03  0.18401234176E+03  0.10000000000E+01 0.  0.
<mgrwt>
<rscale>  0 0.13391041E+03</rscale>
<asrwt>0</asrwt>
<pdfrwt beam="2">  1        1 0.15438578E+00 0.14099606E+03</pdfrwt>
<pdfrwt beam="1">  1       -1 0.30729893E-02 0.14099606E+03</pdfrwt>
<totfact> 0.56451824E+03</totfact>
</mgrwt>
</event>
<event>
 8    2  0.7478846E-004  0.1289072E+03  0.7818608E-02  0.1242267E+00
          1   -1    0    0  501    0  0.00000000000E+00  0.00000000000E+00  0.12657443832E+04  0.12657443833E+04  0.50400000000E-02 0. -1.
         -1   -1    0    0    0  501 -0.00000000000E+00 -0.00000000000E+00 -0.11186395710E+02  0.11186396846E+02  0.50400000000E-02 0.  1.
         25    2    1    2    0    0  0.21620899346E+02 -0.22906380449E+02  0.51681957862E+03  0.53265329528E+03  0.12499956229E+03 0.  0.
         23    2    1    2    0    0 -0.21620899346E+02  0.22906380449E+02  0.73773840892E+03  0.74427748482E+03  0.93267619620E+02 0.  0.
        -11    1    4    4    0    0  0.11764568937E+02 -0.12553641595E+02  0.55174617239E+03  0.55201434560E+03  0.51100000000E-03 0. -1.
         11    1    4    4    0    0 -0.33385468283E+02  0.35460022044E+02  0.18599223653E+03  0.19226313922E+03  0.51100000000E-03 0.  1.
    9000005    1    3    3    0    0 -0.44510710789E+02 -0.12372425840E+02  0.96053815975E+02  0.10659088075E+03  0.10000000000E+01 0.  0.
    9000005    1    3    3    0    0  0.66131610135E+02 -0.10533954609E+02  0.42076576264E+03  0.42606241452E+03  0.10000000000E+01 0.  0.
<mgrwt>
<rscale>  0 0.12050469E+03</rscale>
<asrwt>0</asrwt>
<pdfrwt beam="1">  1        1 0.19472981E+00 0.12890716E+03</pdfrwt>
<pdfrwt beam="2">  1       -1 0.17209849E-02 0.12890716E+03</pdfrwt>
<totfact> 0.85323010E+03</totfact>
</mgrwt>
</event>
<event>
 8    2  0.7478846E-004  0.3288982E+03  0.7818608E-02  0.1072924E+00
         -1   -1    0    0    0  501 -0.00000000000E+00  0.00000000000E+00  0.28397172920E+03  0.28397172925E+03  0.50400000000E-02 0.  1.
          1   -1    0    0  501    0  0.00000000000E+00 -0.00000000000E+00 -0.36827423256E+03  0.36827423260E+03  0.50400000000E-02 0. -1.
         25    2    1    2    0    0  0.52562476931E+02  0.29964591190E+03 -0.30804830294E+02  0.33033762323E+03  0.12499408485E+03 0.  0.
         23    2    1    2    0    0 -0.52562476931E+02 -0.29964591190E+03 -0.53497673066E+02  0.32190833862E+03  0.90622794847E+02 0.  0.
        -11    1    4    4    0    0  0.15559181379E+02 -0.11948340501E+03 -0.46551056899E+02  0.12917187425E+03  0.51100000000E-03 0.  1.
         11    1    4    4    0    0 -0.68121658310E+02 -0.18016250689E+03 -0.69466161672E+01  0.19273646437E+03  0.51100000000E-03 0. -1.
    9000005    1    3    3    0    0 -0.87464045919E+01  0.48736314650E+02  0.38704365227E+02  0.62855038355E+02  0.10000000000E+01 0.  0.
    9000005    1    3    3    0    0  0.61308881523E+02  0.25090959725E+03 -0.69509195521E+02  0.26748258487E+03  0.10000000000E+01 0.  0.
<mgrwt>
<rscale>  0 0.32599333E+03</rscale>
<asrwt>0</asrwt>
<pdfrwt beam="2">  1        1 0.56657574E-01 0.32889817E+03</pdfrwt>
<pdfrwt beam="1">  1       -1 0.43687958E-01 0.32889817E+03</pdfrwt>
<totfact> 0.35611493E+02</totfact>
</mgrwt>
</event>
<event>
 8    2  0.7478846E-004  0.1407466E+03  0.7818608E-02  0.1223096E+00
          1   -1    0    0  501    0  0.00000000000E+00  0.00000000000E+00  0.84029971216E+03  0.84029971218E+03  0.50400000000E-02 0. -1.
         -1   -1    0    0    0  501 -0.00000000000E+00 -0.00000000000E+00 -0.37293678242E+02  0.37293678583E+02  0.50400000000E-02 0.  1.
         25    2    1    2    0    0 -0.69490192121E+01  0.64312995628E+02  0.73072147726E+03  0.74415286906E+03  0.12500065971E+03 0.  0.
         23    2    1    2    0    0  0.69490192121E+01 -0.64312995628E+02  0.72284556660E+02  0.13344052170E+03  0.91634411795E+02 0.  0.
        -11    1    4    4    0    0  0.15671924039E+02 -0.78709830066E+02  0.81389499644E+02  0.11430265616E+03  0.51100000000E-03 0. -1.
         11    1    4    4    0    0 -0.87229048267E+01  0.14396834438E+02 -0.91049429844E+01  0.19137865541E+02  0.51100000000E-03 0.  1.
    9000005    1    3    3    0    0 -0.56074346078E+02  0.27457865858E+02  0.19101699656E+03  0.20096457315E+03  0.10000000000E+01 0.  0.
    9000005    1    3    3    0    0  0.49125326866E+02  0.36855129770E+02  0.53970448070E+03  0.54318829591E+03  0.10000000000E+01 0.  0.
<mgrwt>
<rscale>  0 0.13298243E+03</rscale>
<asrwt>0</asrwt>
<pdfrwt beam="1">  1        1 0.12927689E+00 0.14074663E+03</pdfrwt>
<pdfrwt beam="2">  1       -1 0.57374887E-02 0.14074663E+03</pdfrwt>
<totfact> 0.29972371E+03</totfact>
</mgrwt>
</event>
<event>
 8    2  0.7478846E-004  0.1261741E+03  0.7818608E-02  0.1247697E+00
         -1   -1    0    0    0  501 -0.00000000000E+00  0.00000000000E+00  0.68173603683E+02  0.68173603869E+02  0.50400000000E-02 0.  1.
          1   -1    0    0  501    0  0.00000000000E+00 -0.00000000000E+00 -0.18842587390E+03  0.18842587397E+03  0.50400000000E-02 0. -1.
         25    2    1    2    0    0  0.97513487408E+00  0.17129737897E+02 -0.98362240654E+02  0.15998449364E+03  0.12500211602E+03 0.  0.
         23    2    1    2    0    0 -0.97513487408E+00 -0.17129737897E+02 -0.21890029566E+02  0.96614984203E+02  0.92525147770E+02 0.  0.
        -11    1    4    4    0    0 -0.23404409798E+02 -0.17701470440E+02  0.28840339255E+02  0.41144545475E+02  0.51100000000E-03 0.  1.
         11    1    4    4    0    0  0.22429274924E+02  0.57173254294E+00 -0.50730368822E+02  0.55470438729E+02  0.51100000000E-03 0. -1.
    9000005    1    3    3    0    0 -0.17250811259E+02 -0.47349395845E+02 -0.14129935697E+02  0.52347023400E+02  0.10000000000E+01 0.  0.
    9000005    1    3    3    0    0  0.18225946133E+02  0.64479133742E+02 -0.84232304957E+02  0.10763747024E+03  0.10000000000E+01 0.  0.
<mgrwt>
<rscale>  0 0.11725409E+03</rscale>
<asrwt>0</asrwt>
<pdfrwt beam="2">  1        1 0.28988596E-01 0.12617412E+03</pdfrwt>
<pdfrwt beam="1">  1       -1 0.10488247E-01 0.12617412E+03</pdfrwt>
<totfact> 0.84199783E+03</totfact>
</mgrwt>
</event>
<event>
 8    2  0.7478846E-004  0.1836466E+03  0.7818608E-02  0.1169367E+00
          1   -1    0    0  501    0  0.00000000000E+00  0.00000000000E+00  0.60955834717E+03  0.60955834719E+03  0.50400000000E-02 0. -1.
         -1   -1    0    0    0  501 -0.00000000000E+00 -0.00000000000E+00 -0.49970128143E+02  0.49970128398E+02  0.50400000000E-02 0.  1.
         25    2    1    2    0    0  0.13417993583E+03 -0.98161396362E+01  0.33005931244E+03  0.37771050505E+03  0.12500185646E+03 0.  0.
         23    2    1    2    0    0 -0.13417993583E+03  0.98161396362E+01  0.22952890659E+03  0.28181797054E+03  0.92936740760E+02 0.  0.
        -11    1    4    4    0    0 -0.14527653994E+03 -0.36666729684E+01  0.19579789529E+03  0.24383505356E+03  0.51100000000E-03 0.  1.
         11    1    4    4    0    0  0.11096604108E+02  0.13482812605E+02  0.33731011298E+02  0.37982916975E+02  0.51100000000E-03 0. -1.
    9000005    1    3    3    0    0  0.84744177404E+02  0.31351502512E+02  0.28546810827E+03  0.29942867791E+03  0.10000000000E+01 0.  0.
    9000005    1    3    3    0    0  0.49435758426E+02 -0.41167642149E+02  0.44591204166E+02  0.78281827139E+02  0.10000000000E+01 0.  0.
<mgrwt>
<rscale>  0 0.17839307E+03</rscale>
<asrwt>0</asrwt>
<pdfrwt beam="1">  1        1 0.93778208E-01 0.18364661E+03</pdfrwt>
<pdfrwt beam="2">  1       -1 0.76877120E-02 0.18364661E+03</pdfrwt>
<totfact> 0.31050384E+03</totfact>
</mgrwt>
</event>
<event>
 8    2  0.7478846E-004  0.1251183E+03  0.7818608E-02  0.1249847E+00
          1   -1    0    0  501    0  0.00000000000E+00  0.00000000000E+00  0.10717754396E+03  0.10717754408E+03  0.50400000000E-02 0. -1.
         -1   -1    0    0    0  501 -0.00000000000E+00 -0.00000000000E+00 -0.12125869943E+03  0.12125869954E+03  0.50400000000E-02 0.  1.
         25    2    1    2    0    0  0.53468550501E+01 -0.12279205703E+01  0.25816436127E+02  0.12775396424E+03  0.12499796141E+03 0.  0.
         23    2    1    2    0    0 -0.53468550501E+01  0.12279205703E+01 -0.39897591597E+02  0.10068227938E+03  0.92276795122E+02 0.  0.
        -11    1    4    4    0    0 -0.24638607291E+02 -0.32572298723E+02 -0.45748740011E+02  0.61326689347E+02  0.51100000000E-03 0.  1.
         11    1    4    4    0    0  0.19291752241E+02  0.33800219293E+02  0.58511484136E+01  0.39355590033E+02  0.51100000000E-03 0. -1.
    9000005    1    3    3    0    0 -0.56178611818E+02 -0.19223905082E+02  0.22671766473E+02  0.63565745079E+02  0.10000000000E+01 0.  0.
    9000005    1    3    3    0    0  0.61525466868E+02  0.17995984512E+02  0.31446696547E+01  0.64188219162E+02  0.10000000000E+01 0.  0.
<mgrwt>
<rscale>  0 0.11599927E+03</rscale>
<asrwt>0</asrwt>
<pdfrwt beam="1">  1        1 0.16488853E-01 0.12511829E+03</pdfrwt>
<pdfrwt beam="2">  1       -1 0.18655185E-01 0.12511829E+03</pdfrwt>
<totfact> 0.69963618E+03</totfact>
</mgrwt>
</event>
<event>
 8    2  0.7478846E-004  0.1292081E+03  0.7818608E-02  0.1242467E+00
          1   -1    0    0  501    0  0.00000000000E+00  0.00000000000E+00  0.42918009417E+02  0.42918009713E+02  0.50400000000E-02 0. -1.
         -1   -1    0    0    0  501 -0.00000000000E+00 -0.00000000000E+00 -0.41494188945E+03  0.41494188948E+03  0.50400000000E-02 0.  1.
         25    2    1    2    0    0  0.93654175362E+01  0.31326532053E+02 -0.84716853675E+02  0.15450463341E+03  0.12500269514E+03 0.  0.
         23    2    1    2    0    0 -0.93654175362E+01 -0.31326532053E+02 -0.28730702636E+03  0.30335526578E+03  0.91706200592E+02 0.  0.
        -11    1    4    4    0    0  0.16825952728E+02 -0.11634788901E+02 -0.77363889423E+01  0.21870818734E+02  0.51100000000E-03 0. -1.
         11    1    4    4    0    0 -0.26191370264E+02 -0.19691743152E+02 -0.27957063742E+03  0.28148444705E+03  0.51100000000E-03 0.  1.
    9000005    1    3    3    0    0 -0.38825216675E+02 -0.21350560615E+02 -0.80697742674E+00  0.44327137298E+02  0.10000000000E+01 0.  0.
    9000005    1    3    3    0    0  0.48190634211E+02  0.52677092669E+02 -0.83909876248E+02  0.11017749611E+03  0.10000000000E+01 0.  0.
<mgrwt>
<rscale>  0 0.12038245E+03</rscale>
<asrwt>0</asrwt>
<pdfrwt beam="1">  1        1 0.66027710E-02 0.12920811E+03</pdfrwt>
<pdfrwt beam="2">  1       -1 0.63837211E-01 0.12920811E+03</pdfrwt>
<totfact> 0.28060081E+03</totfact>
</mgrwt>
</event>
<event>
 8    2  0.7478846E-004  0.2141879E+03  0.7818608E-02  0.1141734E+00
          1   -1    0    0  501    0  0.00000000000E+00  0.00000000000E+00  0.82325854950E+03  0.82325854952E+03  0.50400000000E-02 0. -1.
         -1   -1    0    0    0  501 -0.00000000000E+00 -0.00000000000E+00 -0.53008964002E+02  0.53008964242E+02  0.50400000000E-02 0.  1.
         25    2    1    2    0    0  0.16356024685E+03  0.59157536230E+02  0.47748592779E+03  0.52332521089E+03  0.12499958671E+03 0.  0.
         23    2    1    2    0    0 -0.16356024685E+03 -0.59157536230E+02  0.29276365772E+03  0.35294230287E+03  0.92769291445E+02 0.  0.
        -11    1    4    4    0    0 -0.53004091762E+02 -0.56211446613E+02  0.70087491513E+02  0.10431403041E+03  0.51100000000E-03 0.  1.
         11    1    4    4    0    0 -0.11055615509E+03 -0.29460896179E+01  0.22267616620E+03  0.24862827246E+03  0.51100000000E-03 0. -1.
    9000005    1    3    3    0    0  0.13247222150E+03  0.33869207308E+01  0.40786566612E+03  0.42885401048E+03  0.10000000000E+01 0.  0.
    9000005    1    3    3    0    0  0.31088025348E+02  0.55770615500E+02  0.69620261664E+02  0.94471200412E+02  0.10000000000E+01 0.  0.
<mgrwt>
<rscale>  0 0.20978811E+03</rscale>
<asrwt>0</asrwt>
<pdfrwt beam="1">  1        1 0.12665516E+00 0.21418792E+03</pdfrwt>
<pdfrwt beam="2">  1       -1 0.81552251E-02 0.21418792E+03</pdfrwt>
<totfact> 0.18364305E+03</totfact>
</mgrwt>
</event>
<event>
 8    2  0.7478846E-004  0.1312687E+03  0.7818608E-02  0.1238497E+00
          1   -1    0    0  501    0  0.00000000000E+00  0.00000000000E+00  0.13035906800E+02  0.13035907774E+02  0.50400000000E-02 0. -1.
         -1   -1    0    0    0  501 -0.00000000000E+00 -0.00000000000E+00 -0.10506856596E+04  0.10506856596E+04  0.50400000000E-02 0.  1.
         25    2    1    2    0    0  0.11222747768E+02 -0.38480087764E+02 -0.51465008591E+03  0.53112727039E+03  0.12499919683E+03 0.  0.
         23    2    1    2    0    0 -0.11222747768E+02  0.38480087764E+02 -0.52299966690E+03  0.53259429701E+03  0.92311247411E+02 0.  0.
        -11    1    4    4    0    0 -0.62416071055E+00  0.56451206156E+02 -0.49199532704E+03  0.49522371721E+03  0.51100000000E-03 0.  1.
         11    1    4    4    0    0 -0.10598587058E+02 -0.17971118392E+02 -0.31004339861E+02  0.37370579797E+02  0.51100000000E-03 0. -1.
    9000005    1    3    3    0    0  0.59238521015E+01 -0.36086755355E+02 -0.52110204141E+03  0.52238461261E+03  0.10000000000E+01 0.  0.
    9000005    1    3    3    0    0  0.52988956669E+01 -0.23933324097E+01  0.64519554987E+01  0.87426577806E+01  0.10000000000E+01 0.  0.
<mgrwt>
<rscale>  0 0.12283199E+03</rscale>
<asrwt>0</asrwt>
<pdfrwt beam="1">  1        1 0.20055250E-02 0.13126868E+03</pdfrwt>
<pdfrwt beam="2">  1       -1 0.16164388E+00 0.13126868E+03</pdfrwt>
<totfact> 0.18077223E+03</totfact>
</mgrwt>
</event>
<event>
 8    2  0.7478846E-004  0.1283301E+03  0.7818608E-02  0.1243859E+00
         -1   -1    0    0    0  501 -0.00000000000E+00  0.00000000000E+00  0.60556236793E+01  0.60556257767E+01  0.50400000000E-02 0.  1.
          1   -1    0    0  501    0  0.00000000000E+00 -0.00000000000E+00 -0.25103264541E+04  0.25103264541E+04  0.50400000000E-02 0. -1.
         25    2    1    2    0    0  0.25297699857E+02 -0.14441171359E+02 -0.88788008308E+03  0.89710627098E+03  0.12498039230E+03 0.  0.
         23    2    1    2    0    0 -0.25297699857E+02  0.14441171359E+02 -0.16163907473E+04  0.16192758089E+04  0.92122614734E+02 0.  0.
        -11    1    4    4    0    0 -0.57151511721E+02  0.18057846681E+02 -0.79330082701E+03  0.79556180354E+03  0.51100000000E-03 0.  1.
         11    1    4    4    0    0  0.31853811865E+02 -0.36166753218E+01 -0.82308992031E+03  0.82371400533E+03  0.51100000000E-03 0. -1.
    9000005    1    3    3    0    0  0.33677470453E+01 -0.69104077034E+02 -0.45267850072E+03  0.45793617480E+03  0.10000000000E+01 0.  0.
    9000005    1    3    3    0    0  0.21929952812E+02  0.54662905674E+02 -0.43520158236E+03  0.43917009618E+03  0.10000000000E+01 0.  0.
<mgrwt>
<rscale>  0 0.11953946E+03</rscale>
<asrwt>0</asrwt>
<pdfrwt beam="2">  1        1 0.38620324E+00 0.12833012E+03</pdfrwt>
<pdfrwt beam="1">  1       -1 0.93163658E-03 0.12833012E+03</pdfrwt>
<totfact> 0.32495054E+03</totfact>
</mgrwt>
</event>
<event>
 8    2  0.7478846E-004  0.1459950E+03  0.7818608E-02  0.1215082E+00
          1   -1    0    0  501    0  0.00000000000E+00  0.00000000000E+00  0.58382399023E+03  0.58382399025E+03  0.50400000000E-02 0. -1.
         -1   -1    0    0    0  501 -0.00000000000E+00 -0.00000000000E+00 -0.30352092900E+02  0.30352093318E+02  0.50400000000E-02 0.  1.
         25    2    1    2    0    0  0.44044667769E+02 -0.61273652161E+02  0.27465411418E+03  0.31104568949E+03  0.12498057970E+03 0.  0.
         23    2    1    2    0    0 -0.44044667769E+02  0.61273652161E+02  0.27881778314E+03  0.30313039408E+03  0.91947193597E+02 0.  0.
        -11    1    4    4    0    0  0.16509681796E+02  0.13317717958E+02  0.10029521481E+02  0.23463216020E+02  0.51100000000E-03 0.  1.
         11    1    4    4    0    0 -0.60554349565E+02  0.47955934204E+02  0.26878826166E+03  0.27966717806E+03  0.51100000000E-03 0. -1.
    9000005    1    3    3    0    0 -0.10974368464E+02  0.42140712574E-01  0.19864834704E+03  0.19895377433E+03  0.10000000000E+01 0.  0.
    9000005    1    3    3    0    0  0.55019036233E+02 -0.61315792874E+02  0.76005767141E+02  0.11209191515E+03  0.10000000000E+01 0.  0.
<mgrwt>
<rscale>  0 0.13870527E+03</rscale>
<asrwt>0</asrwt>
<pdfrwt beam="1">  1        1 0.89819080E-01 0.14599499E+03</pdfrwt>
<pdfrwt beam="2">  1       -1 0.46695526E-02 0.14599499E+03</pdfrwt>
<totfact> 0.68782594E+03</totfact>
</mgrwt>
</event>
<event>
 8    2  0.7478846E-004  0.1409671E+03  0.7818608E-02  0.1222244E+00
          1   -1    0    0  501    0  0.00000000000E+00  0.00000000000E+00  0.48760530314E+02  0.48760530575E+02  0.50400000000E-02 0. -1.
         -1   -1    0    0    0  501 -0.00000000000E+00 -0.00000000000E+00 -0.34203888684E+03  0.34203888687E+03  0.50400000000E-02 0.  1.
         25    2    1    2    0    0  0.56184248189E+02  0.33006570020E+02 -0.19457456713E+03  0.24027271254E+03  0.12500244321E+03 0.  0.
         23    2    1    2    0    0 -0.56184248189E+02 -0.33006570020E+02 -0.98703789389E+02  0.15052670491E+03  0.93111478568E+02 0.  0.
        -11    1    4    4    0    0 -0.42459942212E+02  0.23938126000E+02 -0.69994373830E+02  0.85294155352E+02  0.51100000000E-03 0. -1.
         11    1    4    4    0    0 -0.13724305978E+02 -0.56944696020E+02 -0.28709415558E+02  0.65232549554E+02  0.51100000000E-03 0.  1.
    9000005    1    3    3    0    0  0.17531925834E+02 -0.46309695964E+02 -0.46699977922E+02  0.68072346086E+02  0.10000000000E+01 0.  0.
    9000005    1    3    3    0    0  0.38652322355E+02  0.79316265984E+02 -0.14787458921E+03  0.17220036646E+03  0.10000000000E+01 0.  0.
<mgrwt>
<rscale>  0 0.13357606E+03</rscale>
<asrwt>0</asrwt>
<pdfrwt beam="1">  1        1 0.75016203E-02 0.14096707E+03</pdfrwt>
<pdfrwt beam="2">  1       -1 0.52621366E-01 0.14096707E+03</pdfrwt>
<totfact> 0.34162596E+03</totfact>
</mgrwt>
</event>
<event>
 8    2  0.7478846E-004  0.1394623E+03  0.7818608E-02  0.1225629E+00
         -1   -1    0    0    0  501 -0.00000000000E+00  0.00000000000E+00  0.14629040802E+03  0.14629040811E+03  0.50400000000E-02 0.  1.
          1   -1    0    0  501    0  0.00000000000E+00 -0.00000000000E+00 -0.11037256268E+03  0.11037256279E+03  0.50400000000E-02 0. -1.
         25    2    1    2    0    0 -0.56558372287E+02  0.25010155875E+02  0.45951047575E+02  0.14683744547E+03  0.12500151698E+03 0.  0.
         23    2    1    2    0    0  0.56558372287E+02 -0.25010155875E+02 -0.10033202232E+02  0.10982552543E+03  0.90203234508E+02 0.  0.
        -11    1    4    4    0    0 -0.15882701787E+02  0.91497764407E+01  0.17294132649E+02  0.25200508909E+02  0.51100000000E-03 0.  1.
         11    1    4    4    0    0  0.72441074073E+02 -0.34159932316E+02 -0.27327334881E+02  0.84625016518E+02  0.51100000000E-03 0. -1.
    9000005    1    3    3    0    0  0.12469219028E+02  0.44936380905E+01  0.69736800769E+02  0.70992222024E+02  0.10000000000E+01 0.  0.
    9000005    1    3    3    0    0 -0.69027591314E+02  0.20516517785E+02 -0.23785753194E+02  0.75845223447E+02  0.10000000000E+01 0.  0.
<mgrwt>
<rscale>  0 0.13123918E+03</rscale>
<asrwt>0</asrwt>
<pdfrwt beam="2">  1        1 0.16980394E-01 0.13946231E+03</pdfrwt>
<pdfrwt beam="1">  1       -1 0.22506217E-01 0.13946231E+03</pdfrwt>
<totfact> 0.50191285E+03</totfact>
</mgrwt>
</event>
<event>
 8    2  0.7478846E-004  0.1327862E+03  0.7818608E-02  0.1235519E+00
         -1   -1    0    0    0  501 -0.00000000000E+00  0.00000000000E+00  0.23733539423E+02  0.23733539958E+02  0.50400000000E-02 0.  1.
          1   -1    0    0  501    0  0.00000000000E+00 -0.00000000000E+00 -0.63489478096E+03  0.63489478098E+03  0.50400000000E-02 0. -1.
         25    2    1    2    0    0  0.38158707908E+02 -0.23461501213E+02 -0.43045295181E+03  0.45046855875E+03  0.12500259867E+03 0.  0.
         23    2    1    2    0    0 -0.38158707908E+02  0.23461501213E+02 -0.18070828973E+03  0.20815976218E+03  0.93104627102E+02 0.  0.
        -11    1    4    4    0    0  0.27001848645E+02 -0.11501592706E+02 -0.53317514468E+02  0.60861677715E+02  0.51100000000E-03 0.  1.
         11    1    4    4    0    0 -0.65160556552E+02  0.34963093920E+02 -0.12739077526E+03  0.14729808447E+03  0.51100000000E-03 0. -1.
    9000005    1    3    3    0    0 -0.10918800158E+02 -0.25119636729E+01  0.46009672739E+01  0.12153150136E+02  0.10000000000E+01 0.  0.
    9000005    1    3    3    0    0  0.49077508066E+02 -0.20949537540E+02 -0.43505391908E+03  0.43831540862E+03  0.10000000000E+01 0.  0.
<mgrwt>
<rscale>  0 0.12471271E+03</rscale>
<asrwt>0</asrwt>
<pdfrwt beam="2">  1        1 0.97676108E-01 0.13278621E+03</pdfrwt>
<pdfrwt beam="1">  1       -1 0.36513143E-02 0.13278621E+03</pdfrwt>
<totfact> 0.87561981E+03</totfact>
</mgrwt>
</event>
<event>
 8    2  0.7478846E-004  0.1305069E+03  0.7818608E-02  0.1240053E+00
         -1   -1    0    0    0  501 -0.00000000000E+00  0.00000000000E+00  0.15985719490E+03  0.15985719498E+03  0.50400000000E-02 0.  1.
          1   -1    0    0  501    0  0.00000000000E+00 -0.00000000000E+00 -0.86869971958E+02  0.86869972104E+02  0.50400000000E-02 0. -1.
         25    2    1    2    0    0 -0.37131808193E+02  0.53215534438E+01  0.68532708138E+02  0.14740682949E+03  0.12499980474E+03 0.  0.
         23    2    1    2    0    0  0.37131808193E+02 -0.53215534438E+01  0.44545148089E+01  0.99320337601E+02  0.91856391439E+02 0.  0.
        -11    1    4    4    0    0  0.26306129135E+02 -0.97724770592E+01 -0.42499933493E+02  0.50928951346E+02  0.51100000000E-03 0. -1.
         11    1    4    4    0    0  0.10825679058E+02  0.44509236153E+01  0.46954448302E+02  0.48391386256E+02  0.51100000000E-03 0.  1.
    9000005    1    3    3    0    0 -0.21523738241E+02 -0.53539928806E+02  0.64231963468E+02  0.86351261805E+02  0.10000000000E+01 0.  0.
    9000005    1    3    3    0    0 -0.15608069952E+02  0.58861482250E+02  0.43007446698E+01  0.61055567682E+02  0.10000000000E+01 0.  0.
<mgrwt>
<rscale>  0 0.12186395E+03</rscale>
<asrwt>0</asrwt>
<pdfrwt beam="2">  1        1 0.13364611E-01 0.13050686E+03</pdfrwt>
<pdfrwt beam="1">  1       -1 0.24593415E-01 0.13050686E+03</pdfrwt>
<totfact> 0.58943443E+03</totfact>
</mgrwt>
</event>
<event>
 8    2  0.7478846E-004  0.1375679E+03  0.7818608E-02  0.1230302E+00
          1   -1    0    0  501    0  0.00000000000E+00  0.00000000000E+00  0.12028610998E+04  0.12028610998E+04  0.50400000000E-02 0. -1.
         -1   -1    0    0    0  501 -0.00000000000E+00 -0.00000000000E+00 -0.12340724530E+02  0.12340725559E+02  0.50400000000E-02 0.  1.
         25    2    1    2    0    0  0.22229368450E+02 -0.52913145023E+02  0.76664759066E+03  0.77889245187E+03  0.12502390804E+03 0.  0.
         23    2    1    2    0    0 -0.22229368450E+02  0.52913145023E+02  0.42387278463E+03  0.43630937351E+03  0.86045256298E+02 0.  0.
        -11    1    4    4    0    0  0.11361614753E+02 -0.10096487417E+02  0.21562580017E+03  0.21616084532E+03  0.51100000000E-03 0. -1.
         11    1    4    4    0    0 -0.33590983203E+02  0.63009632440E+02  0.20824698445E+03  0.22014852819E+03  0.51100000000E-03 0.  1.
    9000005    1    3    3    0    0 -0.71910863928E+01 -0.34119750612E+02  0.47686560127E+02  0.59083645132E+02  0.10000000000E+01 0.  0.
    9000005    1    3    3    0    0  0.29420454843E+02 -0.18793394412E+02  0.71896103053E+03  0.71980880674E+03  0.10000000000E+01 0.  0.
<mgrwt>
<rscale>  0 0.12810004E+03</rscale>
<asrwt>0</asrwt>
<pdfrwt beam="1">  1        1 0.18505559E+00 0.13756789E+03</pdfrwt>
<pdfrwt beam="2">  1       -1 0.18985727E-02 0.13756789E+03</pdfrwt>
<totfact> 0.81975772E+03</totfact>
</mgrwt>
</event>
<event>
 8    2  0.7478846E-004  0.1485578E+03  0.7818608E-02  0.1211438E+00
          1   -1    0    0  501    0  0.00000000000E+00  0.00000000000E+00  0.69476141925E+03  0.69476141927E+03  0.50400000000E-02 0. -1.
         -1   -1    0    0    0  501 -0.00000000000E+00 -0.00000000000E+00 -0.35309984166E+02  0.35309984525E+02  0.50400000000E-02 0.  1.
         25    2    1    2    0    0 -0.76044058413E+02 -0.25734834110E+02  0.53723670585E+03  0.55739815307E+03  0.12499776971E+03 0.  0.
         23    2    1    2    0    0  0.76044058413E+02  0.25734834110E+02  0.12221472924E+03  0.17267325072E+03  0.91840246983E+02 0.  0.
        -11    1    4    4    0    0  0.23110102926E+02  0.37782463638E+02  0.63785299927E+01  0.44746810623E+02  0.51100000000E-03 0.  1.
         11    1    4    4    0    0  0.52933955488E+02 -0.12047629528E+02  0.11583619925E+03  0.12792644010E+03  0.51100000000E-03 0. -1.
    9000005    1    3    3    0    0  0.33459815683E+02 -0.91687189356E+00  0.83275095585E+02  0.89756010742E+02  0.10000000000E+01 0.  0.
    9000005    1    3    3    0    0 -0.10950387410E+03 -0.24817962217E+02  0.45396161026E+03  0.46764214233E+03  0.10000000000E+01 0.  0.
<mgrwt>
<rscale>  0 0.14141503E+03</rscale>
<asrwt>0</asrwt>
<pdfrwt beam="1">  1        1 0.10688636E+00 0.14855781E+03</pdfrwt>
<pdfrwt beam="2">  1       -1 0.54323060E-02 0.14855781E+03</pdfrwt>
<totfact> 0.43187037E+03</totfact>
</mgrwt>
</event>
<event>
 8    2  0.7478846E-004  0.1286043E+03  0.7818608E-02  0.1243372E+00
         -1   -1    0    0    0  501 -0.00000000000E+00  0.00000000000E+00  0.13292824551E+02  0.13292825507E+02  0.50400000000E-02 0.  1.
          1   -1    0    0  501    0  0.00000000000E+00 -0.00000000000E+00 -0.10009468362E+04  0.10009468362E+04  0.50400000000E-02 0. -1.
         25    2    1    2    0    0  0.29424239868E+02 -0.68538557690E+01 -0.66556823543E+03  0.67787915555E+03  0.12500524901E+03 0.  0.
         23    2    1    2    0    0 -0.29424239868E+02  0.68538557690E+01 -0.32208577623E+03  0.33636050619E+03  0.92121559045E+02 0.  0.
        -11    1    4    4    0    0 -0.21444902284E+01 -0.19255612495E+02 -0.27644872215E+03  0.27712681831E+03  0.51100000000E-03 0. -1.
         11    1    4    4    0    0 -0.27279749640E+02  0.26109468264E+02 -0.45637054084E+02  0.59233687874E+02  0.51100000000E-03 0.  1.
    9000005    1    3    3    0    0  0.52814420395E+02 -0.53732909432E+02 -0.35339090113E+03  0.36133463376E+03  0.10000000000E+01 0.  0.
    9000005    1    3    3    0    0 -0.23390180527E+02  0.46879053663E+02 -0.31217733431E+03  0.31654452179E+03  0.10000000000E+01 0.  0.
<mgrwt>
<rscale>  0 0.11983336E+03</rscale>
<asrwt>0</asrwt>
<pdfrwt beam="2">  1        1 0.15399176E+00 0.12860433E+03</pdfrwt>
<pdfrwt beam="1">  1       -1 0.20450508E-02 0.12860433E+03</pdfrwt>
<totfact> 0.10183175E+04</totfact>
</mgrwt>
</event>
<event>
 8    2  0.7478846E-004  0.1609268E+03  0.7818608E-02  0.1195076E+00
         -1   -1    0    0    0  501 -0.00000000000E+00  0.00000000000E+00  0.15215431562E+03  0.15215431570E+03  0.50400000000E-02 0.  1.
          1   -1    0    0  501    0  0.00000000000E+00 -0.00000000000E+00 -0.15182373093E+03  0.15182373101E+03  0.50400000000E-02 0. -1.
         25    2    1    2    0    0  0.80977288089E+02  0.60946110961E+02  0.31126780694E+02  0.16390946430E+03  0.12500274550E+03 0.  0.
         23    2    1    2    0    0 -0.80977288089E+02 -0.60946110961E+02 -0.30796196005E+02  0.14006858241E+03  0.91646344511E+02 0.  0.
        -11    1    4    4    0    0 -0.74702323604E+02 -0.20707885099E+02 -0.52787392947E+02  0.93785726587E+02  0.51100000000E-03 0. -1.
         11    1    4    4    0    0 -0.62749644846E+01 -0.40238225863E+02  0.21991196942E+02  0.46282855822E+02  0.51100000000E-03 0.  1.
    9000005    1    3    3    0    0 -0.28819086252E+02 -0.62127886482E+01 -0.56778747112E+01  0.30039586156E+02  0.10000000000E+01 0.  0.
    9000005    1    3    3    0    0  0.10979637434E+03  0.67158899609E+02  0.36804655405E+02  0.13386987814E+03  0.10000000000E+01 0.  0.
<mgrwt>
<rscale>  0 0.15447801E+03</rscale>
<asrwt>0</asrwt>
<pdfrwt beam="2">  1        1 0.23357497E-01 0.16092680E+03</pdfrwt>
<pdfrwt beam="1">  1       -1 0.23408356E-01 0.16092680E+03</pdfrwt>
<totfact> 0.31592880E+03</totfact>
</mgrwt>
</event>
<event>
 8    2  0.7478846E-004  0.1298824E+03  0.7818608E-02  0.1241572E+00
         -1   -1    0    0    0  501 -0.00000000000E+00  0.00000000000E+00  0.26141149032E+02  0.26141149518E+02  0.50400000000E-02 0.  1.
          1   -1    0    0  501    0  0.00000000000E+00 -0.00000000000E+00 -0.65392440830E+03  0.65392440832E+03  0.50400000000E-02 0. -1.
         25    2    1    2    0    0  0.26014626901E+02 -0.23835957783E+02 -0.18120736146E+03  0.22294738568E+03  0.12499806093E+03 0.  0.
         23    2    1    2    0    0 -0.26014626901E+02  0.23835957783E+02 -0.44657589781E+03  0.45711817216E+03  0.91005918066E+02 0.  0.
        -11    1    4    4    0    0  0.86338243880E+01  0.44853196741E+02 -0.34076161350E+03  0.34380929222E+03  0.51100000000E-03 0. -1.
         11    1    4    4    0    0 -0.34648451289E+02 -0.21017238959E+02 -0.10581428431E+03  0.11330887994E+03  0.51100000000E-03 0.  1.
    9000005    1    3    3    0    0  0.57817666661E+02 -0.57884722728E+02 -0.13093911867E+03  0.15440070111E+03  0.10000000000E+01 0.  0.
    9000005    1    3    3    0    0 -0.31803039760E+02  0.34048764945E+02 -0.50268242788E+02  0.68546684568E+02  0.10000000000E+01 0.  0.
<mgrwt>
<rscale>  0 0.12092946E+03</rscale>
<asrwt>0</asrwt>
<pdfrwt beam="2">  1        1 0.10060374E+00 0.12988237E+03</pdfrwt>
<pdfrwt beam="1">  1       -1 0.40217158E-02 0.12988237E+03</pdfrwt>
<totfact> 0.72851404E+03</totfact>
</mgrwt>
</event>
<event>
 8    2  0.7478846E-004  0.1287862E+03  0.7818608E-02  0.1241928E+00
         -1   -1    0    0    0  501 -0.00000000000E+00  0.00000000000E+00  0.38711360677E+03  0.38711360681E+03  0.50400000000E-02 0.  1.
          1   -1    0    0  501    0  0.00000000000E+00 -0.00000000000E+00 -0.39114757059E+02  0.39114757384E+02  0.50400000000E-02 0. -1.
         25    2    1    2    0    0 -0.97236849079E+01 -0.29425329153E+02  0.27252391221E+03  0.30142192443E+03  0.12500197500E+03 0.  0.
         23    2    1    2    0    0  0.97236849079E+01  0.29425329153E+02  0.75474937504E+02  0.12480643976E+03  0.94444593130E+02 0.  0.
        -11    1    4    4    0    0  0.30901810146E+02  0.15042677196E+02 -0.98268822658E+01  0.35745931557E+02  0.51100000000E-03 0. -1.
         11    1    4    4    0    0 -0.21178125238E+02  0.14382651958E+02  0.85301819769E+02  0.89060508207E+02  0.51100000000E-03 0.  1.
    9000005    1    3    3    0    0  0.30826049167E+01 -0.76713845936E+02  0.13338106232E+03  0.15390264584E+03  0.10000000000E+01 0.  0.
    9000005    1    3    3    0    0 -0.12806289825E+02  0.47288516783E+02  0.13914284989E+03  0.14751927859E+03  0.10000000000E+01 0.  0.
<mgrwt>
<rscale>  0 0.12071124E+03</rscale>
<asrwt>0</asrwt>
<pdfrwt beam="2">  1        1 0.60176553E-02 0.12878623E+03</pdfrwt>
<pdfrwt beam="1">  1       -1 0.59555936E-01 0.12878623E+03</pdfrwt>
<totfact> 0.36316851E+03</totfact>
</mgrwt>
</event>
<event>
 8    2  0.7478846E-004  0.1822428E+03  0.7818608E-02  0.1171123E+00
          1   -1    0    0  501    0  0.00000000000E+00  0.00000000000E+00  0.11089615706E+04  0.11089615706E+04  0.50400000000E-02 0. -1.
         -1   -1    0    0    0  501 -0.00000000000E+00 -0.00000000000E+00 -0.27215853592E+02  0.27215854059E+02  0.50400000000E-02 0.  1.
         25    2    1    2    0    0  0.31966515188E+02 -0.12871212240E+03  0.48324525662E+03  0.51646724820E+03  0.12499508740E+03 0.  0.
         23    2    1    2    0    0 -0.31966515188E+02  0.12871212240E+03  0.59850046040E+03  0.61971017648E+03  0.90825289375E+02 0.  0.
        -11    1    4    4    0    0  0.25893162185E+02  0.41588675384E+02  0.11452827474E+03  0.12456644605E+03  0.51100000000E-03 0. -1.
         11    1    4    4    0    0 -0.57859677373E+02  0.87123447015E+02  0.48397218567E+03  0.49514373043E+03  0.51100000000E-03 0.  1.
    9000005    1    3    3    0    0 -0.17242224862E+02 -0.93455373764E+02  0.41271159905E+03  0.42351276863E+03  0.10000000000E+01 0.  0.
    9000005    1    3    3    0    0  0.49208740050E+02 -0.35256748636E+02  0.70533657566E+02  0.92954479566E+02  0.10000000000E+01 0.  0.
<mgrwt>
<rscale>  0 0.17661190E+03</rscale>
<asrwt>0</asrwt>
<pdfrwt beam="1">  1        1 0.17060949E+00 0.18224281E+03</pdfrwt>
<pdfrwt beam="2">  1       -1 0.41870539E-02 0.18224281E+03</pdfrwt>
<totfact> 0.30314378E+03</totfact>
</mgrwt>
</event>
<event>
 8    2  0.7478846E-004  0.1332004E+03  0.7818608E-02  0.1233827E+00
         -1   -1    0    0    0  501 -0.00000000000E+00  0.00000000000E+00  0.73145782729E+02  0.73145782902E+02  0.50400000000E-02 0.  1.
          1   -1    0    0  501    0  0.00000000000E+00 -0.00000000000E+00 -0.21632879209E+03  0.21632879215E+03  0.50400000000E-02 0. -1.
         25    2    1    2    0    0  0.46420062487E+01  0.45774399902E+02 -0.34319624783E+02  0.13755067461E+03  0.12500203012E+03 0.  0.
         23    2    1    2    0    0 -0.46420062487E+01 -0.45774399902E+02 -0.10886338458E+03  0.15192390044E+03  0.95460940253E+02 0.  0.
        -11    1    4    4    0    0 -0.22701057428E+02  0.22586617253E+02 -0.52524891561E+02  0.61517131931E+02  0.51100000000E-03 0.  1.
         11    1    4    4    0    0  0.18059051180E+02 -0.68361017155E+02 -0.56338493016E+02  0.90406768506E+02  0.51100000000E-03 0. -1.
    9000005    1    3    3    0    0 -0.13536810006E+02 -0.29189287804E+02 -0.49385181600E+02  0.58950453003E+02  0.10000000000E+01 0.  0.
    9000005    1    3    3    0    0  0.18178816254E+02  0.74963687707E+02  0.15065556816E+02  0.78600221610E+02  0.10000000000E+01 0.  0.
<mgrwt>
<rscale>  0 0.12579834E+03</rscale>
<asrwt>0</asrwt>
<pdfrwt beam="2">  1        1 0.33281352E-01 0.13320042E+03</pdfrwt>
<pdfrwt beam="1">  1       -1 0.11253197E-01 0.13320042E+03</pdfrwt>
<totfact> 0.63941568E+03</totfact>
</mgrwt>
</event>
<event>
 8    2  0.7478846E-004  0.1414243E+03  0.7818608E-02  0.1222995E+00
          1   -1    0    0  501    0  0.00000000000E+00  0.00000000000E+00  0.97363314649E+03  0.97363314650E+03  0.50400000000E-02 0. -1.
         -1   -1    0    0    0  501 -0.00000000000E+00 -0.00000000000E+00 -0.27372299909E+02  0.27372300373E+02  0.50400000000E-02 0.  1.
         25    2    1    2    0    0 -0.61538103573E+02  0.24273022475E+02  0.82384600901E+03  0.83589656551E+03  0.12499881542E+03 0.  0.
         23    2    1    2    0    0  0.61538103573E+02 -0.24273022475E+02  0.12241483757E+03  0.16510888137E+03  0.88878751327E+02 0.  0.
        -11    1    4    4    0    0  0.58653273718E+02  0.17042015376E+02  0.40402633302E+02  0.73232571878E+02  0.51100000000E-03 0.  1.
         11    1    4    4    0    0  0.28848298546E+01 -0.41315037851E+02  0.82012204271E+02  0.91876309490E+02  0.51100000000E-03 0. -1.
    9000005    1    3    3    0    0 -0.23450692474E+02  0.53306005404E+02  0.70997917840E+03  0.71236430214E+03  0.10000000000E+01 0.  0.
    9000005    1    3    3    0    0 -0.38087411099E+02 -0.29032982929E+02  0.11386683061E+03  0.12353226337E+03  0.10000000000E+01 0.  0.
<mgrwt>
<rscale>  0 0.13305251E+03</rscale>
<asrwt>0</asrwt>
<pdfrwt beam="1">  1        1 0.14978971E+00 0.14142426E+03</pdfrwt>
<pdfrwt beam="2">  1       -1 0.42111232E-02 0.14142426E+03</pdfrwt>
<totfact> 0.37432641E+03</totfact>
</mgrwt>
</event>
<event>
 8    2  0.7478846E-004  0.1275887E+03  0.7818608E-02  0.1245232E+00
         -1   -1    0    0    0  501 -0.00000000000E+00  0.00000000000E+00  0.10303332104E+03  0.10303332117E+03  0.50400000000E-02 0.  1.
          1   -1    0    0  501    0  0.00000000000E+00 -0.00000000000E+00 -0.12144473657E+03  0.12144473668E+03  0.50400000000E-02 0. -1.
         25    2    1    2    0    0 -0.16720561963E+02 -0.19379647876E+02 -0.17977839951E+02  0.12884907931E+03  0.12499493816E+03 0.  0.
         23    2    1    2    0    0  0.16720561963E+02  0.19379647876E+02 -0.43357557662E+00  0.95628978532E+02  0.92138838733E+02 0.  0.
        -11    1    4    4    0    0 -0.17878632837E+02  0.18203201938E+02  0.36805051356E+02  0.44784080637E+02  0.51100000000E-03 0.  1.
         11    1    4    4    0    0  0.34599194799E+02  0.11764459377E+01 -0.37238626933E+02  0.50844897894E+02  0.51100000000E-03 0. -1.
    9000005    1    3    3    0    0  0.53886540333E+02 -0.17137303686E+02 -0.12963785061E+02  0.58021600545E+02  0.10000000000E+01 0.  0.
    9000005    1    3    3    0    0 -0.70607102296E+02 -0.22423441898E+01 -0.50140548908E+01  0.70827478767E+02  0.10000000000E+01 0.  0.
<mgrwt>
<rscale>  0 0.11871497E+03</rscale>
<asrwt>0</asrwt>
<pdfrwt beam="2">  1        1 0.18683806E-01 0.12758872E+03</pdfrwt>
<pdfrwt beam="1">  1       -1 0.15851280E-01 0.12758872E+03</pdfrwt>
<totfact> 0.77257418E+03</totfact>
</mgrwt>
</event>
<event>
 8    2  0.7478846E-004  0.1315980E+03  0.7818608E-02  0.1238502E+00
         -1   -1    0    0    0  501 -0.00000000000E+00  0.00000000000E+00  0.77882288336E+03  0.77882288337E+03  0.50400000000E-02 0.  1.
          1   -1    0    0  501    0  0.00000000000E+00 -0.00000000000E+00 -0.24758795932E+02  0.24758796445E+02  0.50400000000E-02 0. -1.
         25    2    1    2    0    0  0.85591544946E+01  0.40243868200E+02  0.63349520448E+03  0.64701948085E+03  0.12500082580E+03 0.  0.
         23    2    1    2    0    0 -0.85591544946E+01 -0.40243868200E+02  0.12056888295E+03  0.15656219897E+03  0.91005706178E+02 0.  0.
        -11    1    4    4    0    0 -0.14346669296E+02 -0.44385448282E+02  0.13371256375E+03  0.14161548165E+03  0.51100000000E-03 0.  1.
         11    1    4    4    0    0  0.57875148012E+01  0.41415800818E+01 -0.13143680803E+02  0.14946717314E+02  0.51100000000E-03 0. -1.
    9000005    1    3    3    0    0 -0.23451968816E+01 -0.29211847051E+02  0.44287240626E+03  0.44384208925E+03  0.10000000000E+01 0.  0.
    9000005    1    3    3    0    0  0.10904351376E+02  0.69455715252E+02  0.19062279821E+03  0.20317739160E+03  0.10000000000E+01 0.  0.
<mgrwt>
<rscale>  0 0.12282884E+03</rscale>
<asrwt>0</asrwt>
<pdfrwt beam="2">  1        1 0.38090459E-02 0.13159800E+03</pdfrwt>
<pdfrwt beam="1">  1       -1 0.11981889E+00 0.13159800E+03</pdfrwt>
<totfact> 0.15734233E+03</totfact>
</mgrwt>
</event>
<event>
 8    2  0.7478846E-004  0.1381832E+03  0.7818608E-02  0.1228538E+00
          1   -1    0    0  501    0  0.00000000000E+00  0.00000000000E+00  0.14327258259E+03  0.14327258268E+03  0.50400000000E-02 0. -1.
         -1   -1    0    0    0  501 -0.00000000000E+00 -0.00000000000E+00 -0.13543270293E+03  0.13543270303E+03  0.50400000000E-02 0.  1.
         25    2    1    2    0    0 -0.31199301342E+02  0.49965795316E+02 -0.62457681366E+02  0.15164290175E+03  0.12499852233E+03 0.  0.
         23    2    1    2    0    0  0.31199301342E+02 -0.49965795316E+02  0.70297561026E+02  0.12706238396E+03  0.87938189796E+02 0.  0.
        -11    1    4    4    0    0  0.19882227821E+02  0.97412012138E+01  0.61868194877E+02  0.65710482587E+02  0.51100000000E-03 0. -1.
         11    1    4    4    0    0  0.11317073521E+02 -0.59706996530E+02  0.84293661486E+01  0.61351901369E+02  0.51100000000E-03 0.  1.
    9000005    1    3    3    0    0 -0.54764892474E+02  0.57729617591E+02 -0.86178932345E+02  0.11730179272E+03  0.10000000000E+01 0.  0.
    9000005    1    3    3    0    0  0.23565591132E+02 -0.77638222751E+01  0.23721250979E+02  0.34341109034E+02  0.10000000000E+01 0.  0.
<mgrwt>
<rscale>  0 0.12927329E+03</rscale>
<asrwt>0</asrwt>
<pdfrwt beam="1">  1        1 0.22041936E-01 0.13818324E+03</pdfrwt>
<pdfrwt beam="2">  1       -1 0.20835800E-01 0.13818324E+03</pdfrwt>
<totfact> 0.40755975E+03</totfact>
</mgrwt>
</event>
<event>
 8    2  0.7478846E-004  0.1261448E+03  0.7818608E-02  0.1249021E+00
         -1   -1    0    0    0  501 -0.00000000000E+00  0.00000000000E+00  0.26424628524E+02  0.26424629004E+02  0.50400000000E-02 0.  1.
          1   -1    0    0  501    0  0.00000000000E+00 -0.00000000000E+00 -0.45026752480E+03  0.45026752483E+03  0.50400000000E-02 0. -1.
         25    2    1    2    0    0 -0.96237119078E+01 -0.13969552390E+02 -0.23280911076E+03  0.26478781357E+03  0.12499895975E+03 0.  0.
         23    2    1    2    0    0  0.96237119078E+01  0.13969552390E+02 -0.19103378551E+03  0.21190434026E+03  0.90120907600E+02 0.  0.
        -11    1    4    4    0    0 -0.12349792997E+02 -0.70788405755E+01 -0.17838480209E+03  0.17895185103E+03  0.51100000000E-03 0. -1.
         11    1    4    4    0    0  0.21973504904E+02  0.21048392966E+02 -0.12648983427E+02  0.32952489227E+02  0.51100000000E-03 0.  1.
    9000005    1    3    3    0    0  0.81473886734E+01 -0.61893213428E+02 -0.68384258746E+02  0.92598902018E+02  0.10000000000E+01 0.  0.
    9000005    1    3    3    0    0 -0.17771100581E+02  0.47923661038E+02 -0.16442485201E+03  0.17218891155E+03  0.10000000000E+01 0.  0.
<mgrwt>
<rscale>  0 0.11647923E+03</rscale>
<asrwt>0</asrwt>
<pdfrwt beam="2">  1        1 0.69271921E-01 0.12614477E+03</pdfrwt>
<pdfrwt beam="1">  1       -1 0.40653278E-02 0.12614477E+03</pdfrwt>
<totfact> 0.11746136E+04</totfact>
</mgrwt>
</event>
<event>
 8    2  0.7478846E-004  0.1632638E+03  0.7818608E-02  0.1192522E+00
          1   -1    0    0  501    0  0.00000000000E+00  0.00000000000E+00  0.12409141410E+04  0.12409141411E+04  0.50400000000E-02 0. -1.
         -1   -1    0    0    0  501 -0.00000000000E+00 -0.00000000000E+00 -0.18377937074E+02  0.18377937765E+02  0.50400000000E-02 0.  1.
         25    2    1    2    0    0 -0.21313430290E+02  0.10283935264E+03  0.69226953850E+03  0.71126098563E+03  0.12499952390E+03 0.  0.
         23    2    1    2    0    0  0.21313430290E+02 -0.10283935264E+03  0.53026666547E+03  0.54803109320E+03  0.90139601939E+02 0.  0.
        -11    1    4    4    0    0  0.40658293612E+02 -0.14976352445E+02  0.24851915714E+03  0.25226803095E+03  0.51100000000E-03 0. -1.
         11    1    4    4    0    0 -0.19344863322E+02 -0.87863000193E+02  0.28174750833E+03  0.29576306225E+03  0.51100000000E-03 0.  1.
    9000005    1    3    3    0    0  0.49445922868E+02  0.17727817753E+02  0.23007980858E+03  0.23600189221E+03  0.10000000000E+01 0.  0.
    9000005    1    3    3    0    0 -0.70759353158E+02  0.85111534885E+02  0.46218972992E+03  0.47525909342E+03  0.10000000000E+01 0.  0.
<mgrwt>
<rscale>  0 0.15665841E+03</rscale>
<asrwt>0</asrwt>
<pdfrwt beam="1">  1        1 0.19090985E+00 0.16326382E+03</pdfrwt>
<pdfrwt beam="2">  1       -1 0.28273753E-02 0.16326382E+03</pdfrwt>
<totfact> 0.43609268E+03</totfact>
</mgrwt>
</event>
<event>
 8    2  0.7478846E-004  0.1409068E+03  0.7818608E-02  0.1223358E+00
         -1   -1    0    0    0  501 -0.00000000000E+00  0.00000000000E+00  0.24725915107E+02  0.24725915621E+02  0.50400000000E-02 0.  1.
          1   -1    0    0  501    0  0.00000000000E+00 -0.00000000000E+00 -0.68995392695E+03  0.68995392697E+03  0.50400000000E-02 0. -1.
         25    2    1    2    0    0 -0.17368380360E+02 -0.62665505687E+02 -0.27604039773E+03  0.30992421453E+03  0.12500436528E+03 0.  0.
         23    2    1    2    0    0  0.17368380360E+02  0.62665505687E+02 -0.38918761412E+03  0.40475562805E+03  0.90174792598E+02 0.  0.
        -11    1    4    4    0    0  0.76057433806E+01  0.36304534515E+02 -0.36719599283E+03  0.36906471480E+03  0.51100000000E-03 0. -1.
         11    1    4    4    0    0  0.97626369797E+01  0.26360971172E+02 -0.21991621287E+02  0.35690913256E+02  0.51100000000E-03 0.  1.
    9000005    1    3    3    0    0 -0.32138558471E+02 -0.47125629102E+02 -0.32937186429E+02  0.65875413537E+02  0.10000000000E+01 0.  0.
    9000005    1    3    3    0    0  0.14770178111E+02 -0.15539876585E+02 -0.24310321130E+03  0.24404880100E+03  0.10000000000E+01 0.  0.
<mgrwt>
<rscale>  0 0.13280112E+03</rscale>
<asrwt>0</asrwt>
<pdfrwt beam="2">  1        1 0.10614674E+00 0.14090677E+03</pdfrwt>
<pdfrwt beam="1">  1       -1 0.38039875E-02 0.14090677E+03</pdfrwt>
<totfact> 0.73637239E+03</totfact>
</mgrwt>
</event>
<event>
 8    2  0.7478846E-004  0.1874349E+03  0.7818608E-02  0.1166184E+00
         -1   -1    0    0    0  501 -0.00000000000E+00  0.00000000000E+00  0.31102121147E+03  0.31102121151E+03  0.50400000000E-02 0.  1.
          1   -1    0    0  501    0  0.00000000000E+00 -0.00000000000E+00 -0.10025627832E+03  0.10025627845E+03  0.50400000000E-02 0. -1.
         25    2    1    2    0    0  0.94780745930E+02  0.10258419993E+03  0.11990535521E+03  0.22250644735E+03  0.12499966812E+03 0.  0.
         23    2    1    2    0    0 -0.94780745930E+02 -0.10258419993E+03  0.90859577934E+02  0.18877104260E+03  0.88725057048E+02 0.  0.
        -11    1    4    4    0    0 -0.82568941813E+02 -0.10428221109E+03  0.10539769604E+03  0.16970882132E+03  0.51100000000E-03 0.  1.
         11    1    4    4    0    0 -0.12211804118E+02  0.16980111674E+01 -0.14538118108E+02  0.19062221280E+02  0.51100000000E-03 0. -1.
    9000005    1    3    3    0    0  0.77385801484E+02  0.10552441416E+03  0.34557161943E+02  0.13534829773E+03  0.10000000000E+01 0.  0.
    9000005    1    3    3    0    0  0.17394944447E+02 -0.29402142353E+01  0.85348193271E+02  0.87158149628E+02  0.10000000000E+01 0.  0.
<mgrwt>
<rscale>  0 0.18168332E+03</rscale>
<asrwt>0</asrwt>
<pdfrwt beam="2">  1        1 0.15424043E-01 0.18743486E+03</pdfrwt>
<pdfrwt beam="1">  1       -1 0.47849417E-01 0.18743486E+03</pdfrwt>
<totfact> 0.15823893E+03</totfact>
</mgrwt>
</event>
<event>
 8    2  0.7478846E-004  0.1368762E+03  0.7818608E-02  0.1229700E+00
          1   -1    0    0  501    0  0.00000000000E+00  0.00000000000E+00  0.87685894056E+02  0.87685894201E+02  0.50400000000E-02 0. -1.
         -1   -1    0    0    0  501 -0.00000000000E+00 -0.00000000000E+00 -0.21200920857E+03  0.21200920863E+03  0.50400000000E-02 0.  1.
         25    2    1    2    0    0 -0.25513037880E+01 -0.55705164276E+02 -0.10149305596E+01  0.13687995705E+03  0.12500207231E+03 0.  0.
         23    2    1    2    0    0  0.25513037880E+01  0.55705164276E+02 -0.12330838396E+03  0.16281514578E+03  0.90522039653E+02 0.  0.
        -11    1    4    4    0    0  0.34740377985E+02  0.19107570249E+02 -0.12193939757E+02  0.41481143552E+02  0.51100000000E-03 0. -1.
         11    1    4    4    0    0 -0.32189074197E+02  0.36597594027E+02 -0.11111444420E+03  0.12133400223E+03  0.51100000000E-03 0.  1.
    9000005    1    3    3    0    0 -0.56857431623E+02 -0.48202259699E+02  0.21531917027E+02  0.77594128784E+02  0.10000000000E+01 0.  0.
    9000005    1    3    3    0    0  0.54306127835E+02 -0.75029045771E+01 -0.22546847587E+02  0.59285828270E+02  0.10000000000E+01 0.  0.
<mgrwt>
<rscale>  0 0.12849880E+03</rscale>
<asrwt>0</asrwt>
<pdfrwt beam="1">  1        1 0.13490138E-01 0.13687619E+03</pdfrwt>
<pdfrwt beam="2">  1       -1 0.32616801E-01 0.13687619E+03</pdfrwt>
<totfact> 0.36473922E+03</totfact>
</mgrwt>
</event>
<event>
 8    2  0.7478846E-004  0.1845297E+03  0.7818608E-02  0.1168569E+00
         -1   -1    0    0    0  501 -0.00000000000E+00  0.00000000000E+00  0.41889819563E+02  0.41889819866E+02  0.50400000000E-02 0.  1.
          1   -1    0    0  501    0  0.00000000000E+00 -0.00000000000E+00 -0.76127195246E+03  0.76127195247E+03  0.50400000000E-02 0. -1.
         25    2    1    2    0    0 -0.65950297084E+02 -0.11864759573E+03 -0.29294442868E+03  0.34621907502E+03  0.12499806381E+03 0.  0.
         23    2    1    2    0    0  0.65950297084E+02  0.11864759573E+03 -0.42643770422E+03  0.45694269732E+03  0.92308284551E+02 0.  0.
        -11    1    4    4    0    0  0.84370273173E+01  0.32830919649E+02 -0.24197289026E+02  0.41648067319E+02  0.51100000000E-03 0.  1.
         11    1    4    4    0    0  0.57513269766E+02  0.85816676085E+02 -0.40224041519E+03  0.41529463000E+03  0.51100000000E-03 0. -1.
    9000005    1    3    3    0    0 -0.42506349955E+02 -0.15763148822E+02 -0.13193002069E+02  0.47226284534E+02  0.10000000000E+01 0.  0.
    9000005    1    3    3    0    0 -0.23443947129E+02 -0.10288444691E+03 -0.27975142661E+03  0.29899279049E+03  0.10000000000E+01 0.  0.
<mgrwt>
<rscale>  0 0.17921095E+03</rscale>
<asrwt>0</asrwt>
<pdfrwt beam="2">  1        1 0.11711875E+00 0.18452970E+03</pdfrwt>
<pdfrwt beam="1">  1       -1 0.64445882E-02 0.18452970E+03</pdfrwt>
<totfact> 0.29478867E+03</totfact>
</mgrwt>
</event>
<event>
 8    2  0.7478846E-004  0.1399674E+03  0.7818608E-02  0.1223973E+00
         -1   -1    0    0    0  501 -0.00000000000E+00  0.00000000000E+00  0.48988624671E+03  0.48988624673E+03  0.50400000000E-02 0.  1.
          1   -1    0    0  501    0  0.00000000000E+00 -0.00000000000E+00 -0.37317609432E+02  0.37317609773E+02  0.50400000000E-02 0. -1.
         25    2    1    2    0    0  0.59446502284E+02 -0.20841736902E+02  0.34333022220E+03  0.37076476732E+03  0.12499042596E+03 0.  0.
         23    2    1    2    0    0 -0.59446502284E+02  0.20841736902E+02  0.10923841508E+03  0.15643908919E+03  0.92584516339E+02 0.  0.
        -11    1    4    4    0    0 -0.32469390592E+02  0.32828232549E+01  0.11852679039E+03  0.12293753818E+03  0.51100000000E-03 0.  1.
         11    1    4    4    0    0 -0.26977111692E+02  0.17558913647E+02 -0.92883753089E+01  0.33501551007E+02  0.51100000000E-03 0. -1.
    9000005    1    3    3    0    0 -0.19779245747E+02  0.30472782241E+02  0.16538867321E+03  0.16933464574E+03  0.10000000000E+01 0.  0.
    9000005    1    3    3    0    0  0.79225748031E+02 -0.51314519143E+02  0.17794154898E+03  0.20143012158E+03  0.10000000000E+01 0.  0.
<mgrwt>
<rscale>  0 0.13237563E+03</rscale>
<asrwt>0</asrwt>
<pdfrwt beam="2">  1        1 0.57411711E-02 0.13996739E+03</pdfrwt>
<pdfrwt beam="1">  1       -1 0.75367109E-01 0.13996739E+03</pdfrwt>
<totfact> 0.24564345E+03</totfact>
</mgrwt>
</event>
<event>
 8    2  0.7478846E-004  0.1424582E+03  0.7818608E-02  0.1220996E+00
         -1   -1    0    0    0  501 -0.00000000000E+00  0.00000000000E+00  0.92317279681E+02  0.92317279818E+02  0.50400000000E-02 0.  1.
          1   -1    0    0  501    0  0.00000000000E+00 -0.00000000000E+00 -0.24112332572E+03  0.24112332577E+03  0.50400000000E-02 0. -1.
         25    2    1    2    0    0  0.65291088293E+02 -0.20085954739E+02 -0.16639621388E+03  0.21904804026E+03  0.12501188808E+03 0.  0.
         23    2    1    2    0    0 -0.65291088293E+02  0.20085954739E+02  0.17590167837E+02  0.11439256533E+03  0.90054834459E+02 0.  0.
        -11    1    4    4    0    0 -0.59831963657E+02  0.36297756389E+02  0.44191015663E+02  0.82766157695E+02  0.51100000000E-03 0.  1.
         11    1    4    4    0    0 -0.54591246358E+01 -0.16211801649E+02 -0.26600847825E+02  0.31626407633E+02  0.51100000000E-03 0. -1.
    9000005    1    3    3    0    0  0.76530633370E+02  0.30329249373E+02 -0.13636885818E+03  0.15929302149E+03  0.10000000000E+01 0.  0.
    9000005    1    3    3    0    0 -0.11239545077E+02 -0.50415204112E+02 -0.30027355693E+02  0.59755018778E+02  0.10000000000E+01 0.  0.
<mgrwt>
<rscale>  0 0.13445162E+03</rscale>
<asrwt>0</asrwt>
<pdfrwt beam="2">  1        1 0.37095896E-01 0.14245822E+03</pdfrwt>
<pdfrwt beam="1">  1       -1 0.14202659E-01 0.14245822E+03</pdfrwt>
<totfact> 0.39129799E+03</totfact>
</mgrwt>
</event>
<event>
 8    2  0.7478846E-004  0.1447844E+03  0.7818608E-02  0.1215784E+00
         -1   -1    0    0    0  501 -0.00000000000E+00  0.00000000000E+00  0.13033328988E+03  0.13033328998E+03  0.50400000000E-02 0.  1.
          1   -1    0    0  501    0  0.00000000000E+00 -0.00000000000E+00 -0.14963791340E+03  0.14963791348E+03  0.50400000000E-02 0. -1.
         25    2    1    2    0    0  0.67447127133E+02 -0.28085469261E+02 -0.54596801225E+02  0.15473635604E+03  0.12499848253E+03 0.  0.
         23    2    1    2    0    0 -0.67447127133E+02  0.28085469261E+02  0.35292177708E+02  0.12523484742E+03  0.95395600839E+02 0.  0.
        -11    1    4    4    0    0  0.16956162348E+02  0.27863884721E+02  0.23068404593E+02  0.39950704675E+02  0.51100000000E-03 0.  1.
         11    1    4    4    0    0 -0.84403289480E+02  0.22158454066E+00  0.12223773115E+02  0.85284142748E+02  0.51100000000E-03 0. -1.
    9000005    1    3    3    0    0  0.45569083624E+02 -0.63640315036E+01 -0.94020167200E+02  0.10467967386E+03  0.10000000000E+01 0.  0.
    9000005    1    3    3    0    0  0.21878043508E+02 -0.21721437758E+02  0.39423365975E+02  0.50056682179E+02  0.10000000000E+01 0.  0.
<mgrwt>
<rscale>  0 0.13819127E+03</rscale>
<asrwt>0</asrwt>
<pdfrwt beam="2">  1        1 0.23021217E-01 0.14478442E+03</pdfrwt>
<pdfrwt beam="1">  1       -1 0.20051275E-01 0.14478442E+03</pdfrwt>
<totfact> 0.41143399E+03</totfact>
</mgrwt>
</event>
<event>
 8    2  0.7478846E-004  0.1734536E+03  0.7818608E-02  0.1180286E+00
         -1   -1    0    0    0  501 -0.00000000000E+00  0.00000000000E+00  0.25006854401E+02  0.25006854909E+02  0.50400000000E-02 0.  1.
          1   -1    0    0  501    0  0.00000000000E+00 -0.00000000000E+00 -0.10728475866E+04  0.10728475866E+04  0.50400000000E-02 0. -1.
         25    2    1    2    0    0 -0.89909207123E+02  0.79814427181E+02 -0.62809370629E+03  0.65160406187E+03  0.12502856174E+03 0.  0.
         23    2    1    2    0    0  0.89909207123E+02 -0.79814427181E+02 -0.41974702591E+03  0.44625037966E+03  0.92183660526E+02 0.  0.
        -11    1    4    4    0    0 -0.18753866128E+02 -0.19616932332E+02 -0.82767325589E+02  0.87103167074E+02  0.51100000000E-03 0. -1.
         11    1    4    4    0    0  0.10866307325E+03 -0.60197494849E+02 -0.33697970032E+03  0.35914721258E+03  0.51100000000E-03 0.  1.
    9000005    1    3    3    0    0 -0.34266583335E+02  0.93742835440E+02 -0.51726976899E+03  0.52681204603E+03  0.10000000000E+01 0.  0.
    9000005    1    3    3    0    0 -0.55642623788E+02 -0.13928408259E+02 -0.11082393730E+03  0.12479201584E+03  0.10000000000E+01 0.  0.
<mgrwt>
<rscale>  0 0.16768324E+03</rscale>
<asrwt>0</asrwt>
<pdfrwt beam="2">  1        1 0.16505344E+00 0.17345359E+03</pdfrwt>
<pdfrwt beam="1">  1       -1 0.38472093E-02 0.17345359E+03</pdfrwt>
<totfact> 0.36416732E+03</totfact>
</mgrwt>
</event>
<event>
 8    2  0.7478846E-004  0.1252840E+03  0.7818608E-02  0.1254322E+00
          1   -1    0    0  501    0  0.00000000000E+00  0.00000000000E+00  0.15840946270E+03  0.15840946278E+03  0.50400000000E-02 0. -1.
         -1   -1    0    0    0  501 -0.00000000000E+00 -0.00000000000E+00 -0.69806740173E+02  0.69806740355E+02  0.50400000000E-02 0.  1.
         25    2    1    2    0    0 -0.70893211995E+01  0.44315649424E+01  0.43128748070E+02  0.13249968055E+03  0.12500471668E+03 0.  0.
         23    2    1    2    0    0  0.70893211995E+01 -0.44315649424E+01  0.45473974458E+02  0.95716522590E+02  0.83808550285E+02 0.  0.
        -11    1    4    4    0    0 -0.26300724496E+01 -0.18723635203E+02  0.66131962077E+02  0.68781743252E+02  0.51100000000E-03 0. -1.
         11    1    4    4    0    0  0.97193936491E+01  0.14292070260E+02 -0.20657987620E+02  0.26934779338E+02  0.51100000000E-03 0.  1.
    9000005    1    3    3    0    0 -0.33912636224E+02  0.52475914098E+02 -0.14732448733E+00  0.62488480223E+02  0.10000000000E+01 0.  0.
    9000005    1    3    3    0    0  0.26823315025E+02 -0.48044349156E+02  0.43276072558E+02  0.70011200323E+02  0.10000000000E+01 0.  0.
<mgrwt>
<rscale>  0 0.11344394E+03</rscale>
<asrwt>0</asrwt>
<pdfrwt beam="1">  1        1 0.24370686E-01 0.12528398E+03</pdfrwt>
<pdfrwt beam="2">  1       -1 0.10739499E-01 0.12528398E+03</pdfrwt>
<totfact> 0.10078895E+04</totfact>
</mgrwt>
</event>
<event>
 8    2  0.7478846E-004  0.3537873E+03  0.7818608E-02  0.1062124E+00
         -1   -1    0    0    0  501 -0.00000000000E+00  0.00000000000E+00  0.42065775963E+03  0.42065775966E+03  0.50400000000E-02 0.  1.
          1   -1    0    0  501    0  0.00000000000E+00 -0.00000000000E+00 -0.31615851869E+03  0.31615851873E+03  0.50400000000E-02 0. -1.
         25    2    1    2    0    0 -0.29493971609E+02 -0.32965308741E+03  0.16092453893E+03  0.38866720431E+03  0.12499774427E+03 0.  0.
         23    2    1    2    0    0  0.29493971609E+02  0.32965308741E+03 -0.56425297995E+02  0.34814907408E+03  0.92102720529E+02 0.  0.
        -11    1    4    4    0    0  0.22250702793E+02  0.27959606414E+03 -0.11847967630E+02  0.28073016795E+03  0.51100000000E-03 0.  1.
         11    1    4    4    0    0  0.72432688160E+01  0.50057023272E+02 -0.44577330364E+02  0.67418906137E+02  0.51100000000E-03 0. -1.
    9000005    1    3    3    0    0 -0.50923027517E+02 -0.44301708530E+02  0.34839675210E+02  0.75964459314E+02  0.10000000000E+01 0.  0.
    9000005    1    3    3    0    0  0.21429055908E+02 -0.28535137888E+03  0.12608486372E+03  0.31270274499E+03  0.10000000000E+01 0.  0.
<mgrwt>
<rscale>  0 0.35119878E+03</rscale>
<asrwt>0</asrwt>
<pdfrwt beam="2">  1        1 0.48639772E-01 0.35378735E+03</pdfrwt>
<pdfrwt beam="1">  1       -1 0.64716578E-01 0.35378735E+03</pdfrwt>
<totfact> 0.20556905E+02</totfact>
</mgrwt>
</event>
<event>
 8    2  0.7478846E-004  0.1387940E+03  0.7818608E-02  0.1226388E+00
         -1   -1    0    0    0  501 -0.00000000000E+00  0.00000000000E+00  0.32818168034E+03  0.32818168038E+03  0.50400000000E-02 0.  1.
          1   -1    0    0  501    0  0.00000000000E+00 -0.00000000000E+00 -0.48829893653E+02  0.48829893914E+02  0.50400000000E-02 0. -1.
         25    2    1    2    0    0  0.17097819735E+02 -0.57842109081E+02  0.11801808996E+03  0.18218680524E+03  0.12500286966E+03 0.  0.
         23    2    1    2    0    0 -0.17097819735E+02  0.57842109081E+02  0.16133369673E+03  0.19482476905E+03  0.91049897941E+02 0.  0.
        -11    1    4    4    0    0  0.16327341555E+02 -0.22296031776E+01  0.10403434815E+03  0.10533137618E+03  0.51100000000E-03 0.  1.
         11    1    4    4    0    0 -0.33425161290E+02  0.60071712259E+02  0.57299348579E+02  0.89493392878E+02  0.51100000000E-03 0. -1.
    9000005    1    3    3    0    0 -0.34303601706E+02  0.22883942379E+02  0.49756566263E+02  0.64630703192E+02  0.10000000000E+01 0.  0.
    9000005    1    3    3    0    0  0.51401421441E+02 -0.80726051460E+02  0.68261523696E+02  0.11755610204E+03  0.10000000000E+01 0.  0.
<mgrwt>
<rscale>  0 0.13072223E+03</rscale>
<asrwt>0</asrwt>
<pdfrwt beam="2">  1        1 0.75122916E-02 0.13879396E+03</pdfrwt>
<pdfrwt beam="1">  1       -1 0.50489488E-01 0.13879396E+03</pdfrwt>
<totfact> 0.36757465E+03</totfact>
</mgrwt>
</event>
<event>
 8    2  0.7478846E-004  0.1325215E+03  0.7818608E-02  0.1235682E+00
         -1   -1    0    0    0  501 -0.00000000000E+00  0.00000000000E+00  0.91664399339E+01  0.91664413195E+01  0.50400000000E-02 0.  1.
          1   -1    0    0  501    0  0.00000000000E+00 -0.00000000000E+00 -0.17112950054E+04  0.17112950054E+04  0.50400000000E-02 0. -1.
         25    2    1    2    0    0 -0.76623904119E+01  0.43344223649E+02 -0.65839710651E+03  0.67160159690E+03  0.12499808458E+03 0.  0.
         23    2    1    2    0    0  0.76623904119E+01 -0.43344223649E+02 -0.10437314590E+04  0.10488598498E+04  0.93777354477E+02 0.  0.
        -11    1    4    4    0    0  0.57945245608E+00 -0.12532049470E+02 -0.14628038421E+02  0.19270898717E+02  0.51100000000E-03 0.  1.
         11    1    4    4    0    0  0.70829379559E+01 -0.30812174179E+02 -0.10291034206E+04  0.10295889511E+04  0.51100000000E-03 0. -1.
    9000005    1    3    3    0    0  0.57782804657E+01 -0.43794015989E+02 -0.20438806908E+03  0.20910950993E+03  0.10000000000E+01 0.  0.
    9000005    1    3    3    0    0 -0.13440670878E+02  0.87138239638E+02 -0.45400903743E+03  0.46249208697E+03  0.10000000000E+01 0.  0.
<mgrwt>
<rscale>  0 0.12460860E+03</rscale>
<asrwt>0</asrwt>
<pdfrwt beam="2">  1        1 0.26327590E+00 0.13252153E+03</pdfrwt>
<pdfrwt beam="1">  1       -1 0.14102230E-02 0.13252153E+03</pdfrwt>
<totfact> 0.58325725E+03</totfact>
</mgrwt>
</event>
<event>
 8    2  0.7478846E-004  0.1312517E+03  0.7818608E-02  0.1226825E+00
          1   -1    0    0  501    0  0.00000000000E+00  0.00000000000E+00  0.92343815126E+03  0.92343815128E+03  0.50400000000E-02 0. -1.
         -1   -1    0    0    0  501 -0.00000000000E+00 -0.00000000000E+00 -0.18234246162E+02  0.18234246859E+02  0.50400000000E-02 0.  1.
         25    2    1    2    0    0 -0.22766313140E+02  0.32916602153E+02  0.48066904321E+03  0.49826673730E+03  0.12500081874E+03 0.  0.
         23    2    1    2    0    0  0.22766313140E+02 -0.32916602153E+02  0.42453486189E+03  0.44340566084E+03  0.12156036933E+03 0.  0.
        -11    1    4    4    0    0 -0.49240784272E+02 -0.11700678650E+02  0.21350572227E+03  0.21942254706E+03  0.51100000000E-03 0. -1.
         11    1    4    4    0    0  0.72007097411E+02 -0.21215923503E+02  0.21102913963E+03  0.22398311378E+03  0.51100000000E-03 0.  1.
    9000005    1    3    3    0    0  0.21963132848E+02 -0.39460132405E+02  0.19690616447E+03  0.20202108519E+03  0.10000000000E+01 0.  0.
    9000005    1    3    3    0    0 -0.44729445988E+02  0.72376734558E+02  0.28376287874E+03  0.29624565211E+03  0.10000000000E+01 0.  0.
<mgrwt>
<rscale>  0 0.13042588E+03</rscale>
<asrwt>0</asrwt>
<pdfrwt beam="1">  1        1 0.14206745E+00 0.13125171E+03</pdfrwt>
<pdfrwt beam="2">  1       -1 0.28052679E-02 0.13125171E+03</pdfrwt>
<totfact> 0.73694133E+03</totfact>
</mgrwt>
</event>
<event>
 8    2  0.7478846E-004  0.1480628E+03  0.7818608E-02  0.1214611E+00
         -1   -1    0    0    0  501 -0.00000000000E+00  0.00000000000E+00  0.44262396856E+02  0.44262397143E+02  0.50400000000E-02 0.  1.
          1   -1    0    0  501    0  0.00000000000E+00 -0.00000000000E+00 -0.49847138886E+03  0.49847138889E+03  0.50400000000E-02 0. -1.
         25    2    1    2    0    0  0.44533363572E+02 -0.65679979515E+02 -0.12437819209E+03  0.19337145346E+03  0.12500201664E+03 0.  0.
         23    2    1    2    0    0 -0.44533363572E+02  0.65679979515E+02 -0.32983079992E+03  0.34936233257E+03  0.83478156832E+02 0.  0.
        -11    1    4    4    0    0 -0.48573088398E+02  0.51417974726E+02 -0.32662555210E+03  0.33419665517E+03  0.51100000000E-03 0. -1.
         11    1    4    4    0    0  0.40397248264E+01  0.14262004789E+02 -0.32052478144E+01  0.15165677403E+02  0.51100000000E-03 0.  1.
    9000005    1    3    3    0    0  0.59267872058E+02 -0.43395390191E+02 -0.14301688235E+03  0.16078143296E+03  0.10000000000E+01 0.  0.
    9000005    1    3    3    0    0 -0.14734508487E+02 -0.22284589324E+02  0.18638690255E+02  0.32590020499E+02  0.10000000000E+01 0.  0.
<mgrwt>
<rscale>  0 0.13905148E+03</rscale>
<asrwt>0</asrwt>
<pdfrwt beam="2">  1        1 0.76687902E-01 0.14806277E+03</pdfrwt>
<pdfrwt beam="1">  1       -1 0.68095999E-02 0.14806277E+03</pdfrwt>
<totfact> 0.48425608E+03</totfact>
</mgrwt>
</event>
<event>
 8    2  0.7478846E-004  0.1319152E+03  0.7818608E-02  0.1238151E+00
          1   -1    0    0  501    0  0.00000000000E+00  0.00000000000E+00  0.69650586610E+03  0.69650586612E+03  0.50400000000E-02 0. -1.
         -1   -1    0    0    0  501 -0.00000000000E+00 -0.00000000000E+00 -0.19426049761E+02  0.19426050414E+02  0.50400000000E-02 0.  1.
         25    2    1    2    0    0  0.34596096955E+02  0.24091284460E+02  0.35457470467E+03  0.37831845426E+03  0.12499740690E+03 0.  0.
         23    2    1    2    0    0 -0.34596096955E+02 -0.24091284460E+02  0.32250511167E+03  0.33761346227E+03  0.90531889094E+02 0.  0.
        -11    1    4    4    0    0  0.19251358160E+02  0.75078683839E+01  0.19017426246E+03  0.19129357800E+03  0.51100000000E-03 0. -1.
         11    1    4    4    0    0 -0.53847455114E+02 -0.31599152844E+02  0.13233084921E+03  0.14631988428E+03  0.51100000000E-03 0.  1.
    9000005    1    3    3    0    0  0.41666741792E+02 -0.21857126397E+02  0.31116925544E+03  0.31470805022E+03  0.10000000000E+01 0.  0.
    9000005    1    3    3    0    0 -0.70706448373E+01  0.45948410857E+02  0.43405449231E+02  0.63610404036E+02  0.10000000000E+01 0.  0.
<mgrwt>
<rscale>  0 0.12304844E+03</rscale>
<asrwt>0</asrwt>
<pdfrwt beam="1">  1        1 0.10715474E+00 0.13191524E+03</pdfrwt>
<pdfrwt beam="2">  1       -1 0.29886232E-02 0.13191524E+03</pdfrwt>
<totfact> 0.10293973E+04</totfact>
</mgrwt>
</event>
<event>
 8    2  0.7478846E-004  0.1410168E+03  0.7818608E-02  0.1222979E+00
         -1   -1    0    0    0  501 -0.00000000000E+00  0.00000000000E+00  0.15286348365E+02  0.15286349195E+02  0.50400000000E-02 0.  1.
          1   -1    0    0  501    0  0.00000000000E+00 -0.00000000000E+00 -0.14414498072E+04  0.14414498072E+04  0.50400000000E-02 0. -1.
         25    2    1    2    0    0  0.33212385941E+02 -0.56194591825E+02 -0.11528396389E+04  0.11614322911E+04  0.12499935649E+03 0.  0.
         23    2    1    2    0    0 -0.33212385941E+02  0.56194591825E+02 -0.27332381999E+03  0.29530386533E+03  0.90761046576E+02 0.  0.
        -11    1    4    4    0    0  0.27671136900E+02  0.17454923631E+02 -0.43584539391E+02  0.54497506828E+02  0.51100000000E-03 0.  1.
         11    1    4    4    0    0 -0.60883522841E+02  0.38739668194E+02 -0.22973928060E+03  0.24080635850E+03  0.51100000000E-03 0. -1.
    9000005    1    3    3    0    0  0.24066411023E+02 -0.26010366420E+02 -0.73208699616E+02  0.81340303665E+02  0.10000000000E+01 0.  0.
    9000005    1    3    3    0    0  0.91459749181E+01 -0.30184225404E+02 -0.10796309393E+04  0.10800919874E+04  0.10000000000E+01 0.  0.
<mgrwt>
<rscale>  0 0.13306388E+03</rscale>
<asrwt>0</asrwt>
<pdfrwt beam="2">  1        1 0.22176140E+00 0.14101679E+03</pdfrwt>
<pdfrwt beam="1">  1       -1 0.23517471E-02 0.14101679E+03</pdfrwt>
<totfact> 0.41744218E+03</totfact>
</mgrwt>
</event>
<event>
 8    2  0.7478846E-004  0.1456693E+03  0.7818608E-02  0.1216064E+00
          1   -1    0    0  501    0  0.00000000000E+00  0.00000000000E+00  0.28976804422E+03  0.28976804426E+03  0.50400000000E-02 0.  1.
         -1   -1    0    0    0  501 -0.00000000000E+00 -0.00000000000E+00 -0.59667598882E+02  0.59667599095E+02  0.50400000000E-02 0. -1.
         25    2    1    2    0    0  0.35604266008E+02 -0.65800190659E+02  0.12991652717E+03  0.19518673667E+03  0.12498891668E+03 0.  0.
         23    2    1    2    0    0 -0.35604266008E+02  0.65800190659E+02  0.10018391816E+03  0.15424890668E+03  0.90324852094E+02 0.  0.
        -11    1    4    4    0    0  0.10707057875E+02  0.21929939365E+02 -0.10445234765E+02  0.26545550633E+02  0.51100000000E-03 0. -1.
         11    1    4    4    0    0 -0.46311323883E+02  0.43870251294E+02  0.11062915293E+03  0.12770335605E+03  0.51100000000E-03 0.  1.
    9000005    1    3    3    0    0  0.41696434784E+02 -0.90083874344E+02  0.13696591894E+03  0.16915779628E+03  0.10000000000E+01 0.  0.
    9000005    1    3    3    0    0 -0.60921687762E+01  0.24283683686E+02 -0.70493917684E+01  0.26028940394E+02  0.10000000000E+01 0.  0.
<mgrwt>
<rscale>  0 0.13798672E+03</rscale>
<asrwt>0</asrwt>
<pdfrwt beam="1">  1        1 0.44579700E-01 0.14566935E+03</pdfrwt>
<pdfrwt beam="2">  1       -1 0.91796305E-02 0.14566935E+03</pdfrwt>
<totfact> 0.61138533E+03</totfact>
</mgrwt>
</event>
<event>
 8    2  0.7478846E-004  0.2781610E+03  0.7818608E-02  0.1098552E+00
          1   -1    0    0  501    0  0.00000000000E+00  0.00000000000E+00  0.25910856913E+03  0.25910856918E+03  0.50400000000E-02 0. -1.
         -1   -1    0    0    0  501 -0.00000000000E+00 -0.00000000000E+00 -0.28658290582E+03  0.28658290587E+03  0.50400000000E-02 0.  1.
         25    2    1    2    0    0 -0.13186766980E+03 -0.21061716513E+03 -0.36219006500E+02  0.28050912624E+03  0.12499952354E+03 0.  0.
         23    2    1    2    0    0  0.13186766980E+03  0.21061716513E+03  0.87446698126E+01  0.26518234881E+03  0.92176658012E+02 0.  0.
        -11    1    4    4    0    0  0.10816217217E+03  0.16671355170E+03  0.44687482399E+02  0.20368955519E+03  0.51100000000E-03 0. -1.
         11    1    4    4    0    0  0.23705497625E+02  0.43903613434E+02 -0.35942812586E+02  0.61492793620E+02  0.51100000000E-03 0.  1.
    9000005    1    3    3    0    0 -0.77657626524E+02 -0.21046951482E+02 -0.27138831263E+01  0.80511156280E+02  0.10000000000E+01 0.  0.
    9000005    1    3    3    0    0 -0.54210043276E+02 -0.18957021365E+03 -0.33505123374E+02  0.19999796996E+03  0.10000000000E+01 0.  0.
<mgrwt>
<rscale>  0 0.27482061E+03</rscale>
<asrwt>0</asrwt>
<pdfrwt beam="1">  1        1 0.39862857E-01 0.27816102E+03</pdfrwt>
<pdfrwt beam="2">  1       -1 0.44089678E-01 0.27816102E+03</pdfrwt>
<totfact> 0.54869084E+02</totfact>
</mgrwt>
</event>
<event>
 8    2  0.7478846E-004  0.1295968E+03  0.7818608E-02  0.1242047E+00
          1   -1    0    0  501    0  0.00000000000E+00  0.00000000000E+00  0.29914227742E+04  0.29914227742E+04  0.50400000000E-02 0. -1.
         -1   -1    0    0    0  501 -0.00000000000E+00 -0.00000000000E+00 -0.70098250069E+01  0.70098268188E+01  0.50400000000E-02 0.  1.
         25    2    1    2    0    0  0.66269880140E+01  0.33527951780E+02  0.69670219606E+03  0.70865315145E+03  0.12500919384E+03 0.  0.
         23    2    1    2    0    0 -0.66269880140E+01 -0.33527951780E+02  0.22877107531E+04  0.22897794496E+04  0.91112003419E+02 0.  0.
        -11    1    4    4    0    0  0.26160644748E+02  0.49947601025E+01  0.24516993283E+03  0.24661229273E+03  0.51100000000E-03 0.  1.
         11    1    4    4    0    0 -0.32787632762E+02 -0.38522711883E+02  0.20425408203E+04  0.20431671569E+04  0.51100000000E-03 0. -1.
    9000005    1    3    3    0    0 -0.40509675225E+02 -0.23214661549E+02  0.15299827401E+03  0.15996695330E+03  0.10000000000E+01 0.  0.
    9000005    1    3    3    0    0  0.47136663239E+02  0.56742613329E+02  0.54370392205E+03  0.54868619815E+03  0.10000000000E+01 0.  0.
<mgrwt>
<rscale>  0 0.12063861E+03</rscale>
<asrwt>0</asrwt>
<pdfrwt beam="1">  1        1 0.46021978E+00 0.12959683E+03</pdfrwt>
<pdfrwt beam="2">  1       -1 0.10784327E-02 0.12959683E+03</pdfrwt>
<totfact> 0.12596754E+03</totfact>
</mgrwt>
</event>
<event>
 8    2  0.7478846E-004  0.2821918E+03  0.7818608E-02  0.1096309E+00
         -1   -1    0    0    0  501 -0.00000000000E+00  0.00000000000E+00  0.18552664512E+03  0.18552664518E+03  0.50400000000E-02 0.  1.
          1   -1    0    0  501    0  0.00000000000E+00 -0.00000000000E+00 -0.47880893924E+03  0.47880893926E+03  0.50400000000E-02 0. -1.
         25    2    1    2    0    0  0.25253619317E+03 -0.15259299504E+02 -0.27588134518E+03  0.39464255792E+03  0.12499942728E+03 0.  0.
         23    2    1    2    0    0 -0.25253619317E+03  0.15259299504E+02 -0.17400948943E+02  0.26969302653E+03  0.91783225333E+02 0.  0.
        -11    1    4    4    0    0 -0.17990634019E+03  0.41489059929E+02  0.16487708173E+02  0.18536309734E+03  0.51100000000E-03 0. -1.
         11    1    4    4    0    0 -0.72629852981E+02 -0.26229760424E+02 -0.33888657116E+02  0.84329929191E+02  0.51100000000E-03 0.  1.
    9000005    1    3    3    0    0  0.23118762070E+03 -0.34000236405E+01 -0.28635756000E+03  0.36805017089E+03  0.10000000000E+01 0.  0.
    9000005    1    3    3    0    0  0.21348572472E+02 -0.11859275864E+02  0.10476214823E+02  0.26592387024E+02  0.10000000000E+01 0.  0.
<mgrwt>
<rscale>  0 0.27886839E+03</rscale>
<asrwt>0</asrwt>
<pdfrwt beam="2">  1        1 0.73662913E-01 0.28219184E+03</pdfrwt>
<pdfrwt beam="1">  1       -1 0.28542561E-01 0.28219184E+03</pdfrwt>
<totfact> 0.53486871E+02</totfact>
</mgrwt>
</event>
<event>
 8    2  0.7478846E-004  0.2564973E+03  0.7818608E-02  0.1111609E+00
         -1   -1    0    0    0  501 -0.00000000000E+00  0.00000000000E+00  0.39653320405E+02  0.39653320725E+02  0.50400000000E-02 0.  1.
          1   -1    0    0  501    0  0.00000000000E+00 -0.00000000000E+00 -0.18831638005E+04  0.18831638005E+04  0.50400000000E-02 0. -1.
         25    2    1    2    0    0 -0.25084220778E+02 -0.22254461887E+03 -0.13399249392E+04  0.13642542633E+04  0.12504209957E+03 0.  0.
         23    2    1    2    0    0  0.25084220778E+02  0.22254461887E+03 -0.50358554083E+03  0.55856285789E+03  0.90767525923E+02 0.  0.
        -11    1    4    4    0    0  0.44620938732E+01  0.12216196625E+03 -0.37328443844E+03  0.39279094727E+03  0.51100000000E-03 0. -1.
         11    1    4    4    0    0  0.20622126905E+02  0.10038265262E+03 -0.13030110239E+03  0.16577191062E+03  0.51100000000E-03 0.  1.
    9000005    1    3    3    0    0 -0.59613303878E+01 -0.13057166234E+03 -0.42830695072E+03  0.44780837475E+03  0.10000000000E+01 0.  0.
    9000005    1    3    3    0    0 -0.19122890390E+02 -0.91972956526E+02 -0.91161798852E+03  0.91644588857E+03  0.10000000000E+01 0.  0.
<mgrwt>
<rscale>  0 0.25270170E+03</rscale>
<asrwt>0</asrwt>
<pdfrwt beam="2">  1        1 0.28971744E+00 0.25649728E+03</pdfrwt>
<pdfrwt beam="1">  1       -1 0.61005123E-02 0.25649728E+03</pdfrwt>
<totfact> 0.52465359E+02</totfact>
</mgrwt>
</event>
<event>
 8    2  0.7478846E-004  0.1557710E+03  0.7818608E-02  0.1201355E+00
          1   -1    0    0  501    0  0.00000000000E+00  0.00000000000E+00  0.30020053613E+04  0.30020053613E+04  0.50400000000E-02 0. -1.
         -1   -1    0    0    0  501 -0.00000000000E+00 -0.00000000000E+00 -0.68683358822E+01  0.68683377314E+01  0.50400000000E-02 0.  1.
         25    2    1    2    0    0  0.83710363506E+02 -0.40397160437E+02  0.16388244451E+04  0.16462108508E+04  0.12500099169E+03 0.  0.
         23    2    1    2    0    0 -0.83710363506E+02  0.40397160437E+02  0.13563125803E+04  0.13626628482E+04  0.92880928545E+02 0.  0.
        -11    1    4    4    0    0 -0.31547606002E+02 -0.14341834443E+02  0.14867315461E+03  0.15265859478E+03  0.51100000000E-03 0.  1.
         11    1    4    4    0    0 -0.52162757503E+02  0.54738994880E+02  0.12076394257E+04  0.12100042534E+04  0.51100000000E-03 0. -1.
    9000005    1    3    3    0    0 -0.14141121363E+02 -0.26515124542E+02  0.93470651970E+03  0.93518998129E+03  0.10000000000E+01 0.  0.
    9000005    1    3    3    0    0  0.97851484869E+02 -0.13882035895E+02  0.70411792539E+03  0.71102086950E+03  0.10000000000E+01 0.  0.
<mgrwt>
<rscale>  0 0.14928446E+03</rscale>
<asrwt>0</asrwt>
<pdfrwt beam="1">  1        1 0.46184793E+00 0.15577100E+03</pdfrwt>
<pdfrwt beam="2">  1       -1 0.10566650E-02 0.15577100E+03</pdfrwt>
<totfact> 0.12704976E+03</totfact>
</mgrwt>
</event>
<event>
 8    2  0.7478846E-004  0.1495323E+03  0.7818608E-02  0.1210611E+00
         -1   -1    0    0    0  501 -0.00000000000E+00  0.00000000000E+00  0.20985984567E+03  0.20985984573E+03  0.50400000000E-02 0.  1.
          1   -1    0    0  501    0  0.00000000000E+00 -0.00000000000E+00 -0.89927751272E+02  0.89927751414E+02  0.50400000000E-02 0. -1.
         25    2    1    2    0    0 -0.57557741507E+02 -0.58484276474E+02  0.89623560745E+02  0.17433388845E+03  0.12500647111E+03 0.  0.
         23    2    1    2    0    0  0.57557741507E+02  0.58484276474E+02  0.30308533655E+02  0.12545370869E+03  0.89926200914E+02 0.  0.
        -11    1    4    4    0    0  0.25188067513E+02  0.34074659470E+02 -0.30613304098E+02  0.52275190589E+02  0.51100000000E-03 0. -1.
         11    1    4    4    0    0  0.32369673994E+02  0.24409617003E+02  0.60921837753E+02  0.73178518106E+02  0.51100000000E-03 0.  1.
    9000005    1    3    3    0    0  0.19641482403E+02  0.27497351045E+02  0.16880934253E+02  0.37787009497E+02  0.10000000000E+01 0.  0.
    9000005    1    3    3    0    0 -0.77199223910E+02 -0.85981627519E+02  0.72742626491E+02  0.13654687895E+03  0.10000000000E+01 0.  0.
<mgrwt>
<rscale>  0 0.14203896E+03</rscale>
<asrwt>0</asrwt>
<pdfrwt beam="2">  1        1 0.13835039E-01 0.14953234E+03</pdfrwt>
<pdfrwt beam="1">  1       -1 0.32286130E-01 0.14953234E+03</pdfrwt>
<totfact> 0.36083344E+03</totfact>
</mgrwt>
</event>
<event>
 8    2  0.7478846E-004  0.1475904E+03  0.7818608E-02  0.1213027E+00
          1   -1    0    0  501    0  0.00000000000E+00  0.00000000000E+00  0.21826380357E+02  0.21826380939E+02  0.50400000000E-02 0.  1.
         -1   -1    0    0    0  501 -0.00000000000E+00 -0.00000000000E+00 -0.91829070980E+03  0.91829070981E+03  0.50400000000E-02 0. -1.
         25    2    1    2    0    0  0.77539180306E+02 -0.11960916175E+02 -0.33746904543E+03  0.36833174717E+03  0.12501012500E+03 0.  0.
         23    2    1    2    0    0 -0.77539180306E+02  0.11960916175E+02 -0.55899528401E+03  0.57178534358E+03  0.91144739774E+02 0.  0.
        -11    1    4    4    0    0 -0.49805178781E+02  0.30098648978E+02 -0.50563237782E+03  0.50897012290E+03  0.51100000000E-03 0. -1.
         11    1    4    4    0    0 -0.27734001525E+02 -0.18137732804E+02 -0.53362906193E+02  0.62815220683E+02  0.51100000000E-03 0.  1.
    9000005    1    3    3    0    0  0.73396793242E+02  0.20441758097E+02 -0.32424209936E+03  0.33307490708E+03  0.10000000000E+01 0.  0.
    9000005    1    3    3    0    0  0.41423870645E+01 -0.32402674271E+02 -0.13226946070E+02  0.35256840086E+02  0.10000000000E+01 0.  0.
<mgrwt>
<rscale>  0 0.14022482E+03</rscale>
<asrwt>0</asrwt>
<pdfrwt beam="1">  1        1 0.33579054E-02 0.14759038E+03</pdfrwt>
<pdfrwt beam="2">  1       -1 0.14127546E+00 0.14759038E+03</pdfrwt>
<totfact> 0.12600278E+03</totfact>
</mgrwt>
</event>
<event>
 8    2  0.7478846E-004  0.1304047E+03  0.7818608E-02  0.1241523E+00
         -1   -1    0    0    0  501 -0.00000000000E+00  0.00000000000E+00  0.18750970913E+03  0.18750970920E+03  0.50400000000E-02 0.  1.
          1   -1    0    0  501    0  0.00000000000E+00 -0.00000000000E+00 -0.68680110739E+02  0.68680110924E+02  0.50400000000E-02 0. -1.
         25    2    1    2    0    0 -0.29363178075E+02  0.22764229292E+02  0.70184529930E+02  0.14809205369E+03  0.12499992705E+03 0.  0.
         23    2    1    2    0    0  0.29363178075E+02 -0.22764229292E+02  0.48645068464E+02  0.10809776643E+03  0.89097576059E+02 0.  0.
        -11    1    4    4    0    0  0.52952125334E+02 -0.19888273143E+02  0.59391509214E+02  0.82017207664E+02  0.51100000000E-03 0.  1.
         11    1    4    4    0    0 -0.23588947259E+02 -0.28759561492E+01 -0.10746440751E+02  0.26080558767E+02  0.51100000000E-03 0. -1.
    9000005    1    3    3    0    0 -0.43552760915E+02  0.12901979494E+02 -0.24650100328E+02  0.51690729385E+02  0.10000000000E+01 0.  0.
    9000005    1    3    3    0    0  0.14189582840E+02  0.98622497982E+01  0.94834630258E+02  0.96401324308E+02  0.10000000000E+01 0.  0.
<mgrwt>
<rscale>  0 0.12095947E+03</rscale>
<asrwt>0</asrwt>
<pdfrwt beam="2">  1        1 0.10566171E-01 0.13040471E+03</pdfrwt>
<pdfrwt beam="1">  1       -1 0.28847647E-01 0.13040471E+03</pdfrwt>
<totfact> 0.61609715E+03</totfact>
</mgrwt>
</event>
<event>
 8    2  0.7478846E-004  0.1545077E+03  0.7818608E-02  0.1202829E+00
          1   -1    0    0  501    0  0.00000000000E+00  0.00000000000E+00  0.76583934837E+03  0.76583934839E+03  0.50400000000E-02 0. -1.
         -1   -1    0    0    0  501 -0.00000000000E+00 -0.00000000000E+00 -0.29695107176E+02  0.29695107604E+02  0.50400000000E-02 0.  1.
         25    2    1    2    0    0 -0.64132378967E+02 -0.64302990094E+02  0.52585894237E+03  0.54808782312E+03  0.12499919206E+03 0.  0.
         23    2    1    2    0    0  0.64132378967E+02  0.64302990094E+02  0.21028529882E+03  0.24744663287E+03  0.93606050283E+02 0.  0.
        -11    1    4    4    0    0  0.79360110841E+02  0.51299989952E+02  0.10925893890E+03  0.14445494762E+03  0.51100000000E-03 0.  1.
         11    1    4    4    0    0 -0.15227731874E+02  0.13003000142E+02  0.10102635993E+03  0.10299168525E+03  0.51100000000E-03 0. -1.
    9000005    1    3    3    0    0  0.12807420876E+02 -0.31554951776E+02  0.36686029154E+03  0.36843889387E+03  0.10000000000E+01 0.  0.
    9000005    1    3    3    0    0 -0.76939799843E+02 -0.32748038319E+02  0.15899865083E+03  0.17964892925E+03  0.10000000000E+01 0.  0.
<mgrwt>
<rscale>  0 0.14809843E+03</rscale>
<asrwt>0</asrwt>
<pdfrwt beam="1">  1        1 0.11782143E+00 0.15450772E+03</pdfrwt>
<pdfrwt beam="2">  1       -1 0.45684783E-02 0.15450772E+03</pdfrwt>
<totfact> 0.48528091E+03</totfact>
</mgrwt>
</event>
<event>
 8    2  0.7478846E-004  0.2955761E+03  0.7818608E-02  0.1089108E+00
          1   -1    0    0  501    0  0.00000000000E+00  0.00000000000E+00  0.63480266226E+03  0.63480266228E+03  0.50400000000E-02 0. -1.
         -1   -1    0    0    0  501 -0.00000000000E+00 -0.00000000000E+00 -0.13517759024E+03  0.13517759033E+03  0.50400000000E-02 0.  1.
         25    2    1    2    0    0 -0.74772148468E+02  0.25719475899E+03  0.31548883811E+03  0.43231753759E+03  0.12500091238E+03 0.  0.
         23    2    1    2    0    0  0.74772148468E+02 -0.25719475899E+03  0.18413623390E+03  0.33766271502E+03  0.91487366543E+02 0.  0.
        -11    1    4    4    0    0  0.29857960287E+02 -0.22158278346E+03  0.16248466467E+03  0.27639047373E+03  0.51100000000E-03 0.  1.
         11    1    4    4    0    0  0.44914188181E+02 -0.35611975538E+02  0.21651569231E+02  0.61272241285E+02  0.51100000000E-03 0. -1.
    9000005    1    3    3    0    0 -0.25760879479E+02  0.12284337239E+02 -0.16830082276E+01  0.28606998612E+02  0.10000000000E+01 0.  0.
    9000005    1    3    3    0    0 -0.49011268989E+02  0.24491042176E+03  0.31717184634E+03  0.40371053898E+03  0.10000000000E+01 0.  0.
<mgrwt>
<rscale>  0 0.29239021E+03</rscale>
<asrwt>0</asrwt>
<pdfrwt beam="1">  1        1 0.97661949E-01 0.29557613E+03</pdfrwt>
<pdfrwt beam="2">  1       -1 0.20796552E-01 0.29557613E+03</pdfrwt>
<totfact> 0.61618451E+02</totfact>
</mgrwt>
</event>
<event>
 8    2  0.7478846E-004  0.1560644E+03  0.7818608E-02  0.1202393E+00
          1   -1    0    0  501    0  0.00000000000E+00  0.00000000000E+00  0.10951047354E+04  0.10951047354E+04  0.50400000000E-02 0. -1.
         -1   -1    0    0    0  501 -0.00000000000E+00 -0.00000000000E+00 -0.32722640772E+02  0.32722641160E+02  0.50400000000E-02 0.  1.
         25    2    1    2    0    0  0.55865090269E+02  0.74897882845E+02  0.18879802132E+03  0.24495060694E+03  0.12500202327E+03 0.  0.
         23    2    1    2    0    0 -0.55865090269E+02 -0.74897882845E+02  0.87358407332E+03  0.88287676965E+03  0.87130109883E+02 0.  0.
        -11    1    4    4    0    0 -0.64804065758E+02 -0.40473471407E+02  0.76057806211E+03  0.76440608147E+03  0.51100000000E-03 0. -1.
         11    1    4    4    0    0  0.89389754893E+01 -0.34424411439E+02  0.11300601121E+03  0.11847068817E+03  0.51100000000E-03 0.  1.
    9000005    1    3    3    0    0  0.44934498890E+02 -0.15197254022E+02  0.12585076106E+03  0.13449713670E+03  0.10000000000E+01 0.  0.
    9000005    1    3    3    0    0  0.10930591379E+02  0.90095136868E+02  0.62947260259E+02  0.11045347024E+03  0.10000000000E+01 0.  0.
<mgrwt>
<rscale>  0 0.14844839E+03</rscale>
<asrwt>0</asrwt>
<pdfrwt beam="1">  1        1 0.16847766E+00 0.15606443E+03</pdfrwt>
<pdfrwt beam="2">  1       -1 0.50342521E-02 0.15606443E+03</pdfrwt>
<totfact> 0.23529228E+03</totfact>
</mgrwt>
</event>
<event>
 8    2  0.7478846E-004  0.1469631E+03  0.7818608E-02  0.1213868E+00
         -1   -1    0    0    0  501 -0.00000000000E+00  0.00000000000E+00  0.35287571955E+02  0.35287572315E+02  0.50400000000E-02 0.  1.
          1   -1    0    0  501    0  0.00000000000E+00 -0.00000000000E+00 -0.54192345591E+03  0.54192345593E+03  0.50400000000E-02 0. -1.
         25    2    1    2    0    0 -0.77273513538E+02 -0.30197982737E+00 -0.20106402780E+03  0.24904795039E+03  0.12500740470E+03 0.  0.
         23    2    1    2    0    0  0.77273513538E+02  0.30197982737E+00 -0.30557185615E+03  0.32816307786E+03  0.91354032820E+02 0.  0.
        -11    1    4    4    0    0  0.83398623921E+02  0.10636188534E+02 -0.30473600275E+03  0.31612100586E+03  0.51100000000E-03 0. -1.
         11    1    4    4    0    0 -0.61251103835E+01 -0.10334208706E+02 -0.83585340588E+00  0.12042071997E+02  0.51100000000E-03 0.  1.
    9000005    1    3    3    0    0  0.32800994896E+02  0.68927946590E+01 -0.70873688084E+02  0.78405966272E+02  0.10000000000E+01 0.  0.
    9000005    1    3    3    0    0 -0.11007450843E+03 -0.71947744864E+01 -0.13019033972E+03  0.17064198412E+03  0.10000000000E+01 0.  0.
<mgrwt>
<rscale>  0 0.13960052E+03</rscale>
<asrwt>0</asrwt>
<pdfrwt beam="2">  1        1 0.83372833E-01 0.14696305E+03</pdfrwt>
<pdfrwt beam="1">  1       -1 0.54288577E-02 0.14696305E+03</pdfrwt>
<totfact> 0.60819410E+03</totfact>
</mgrwt>
</event>
<event>
 8    2  0.7478846E-004  0.2017651E+03  0.7818608E-02  0.1152739E+00
         -1   -1    0    0    0  501 -0.00000000000E+00  0.00000000000E+00  0.45174178852E+02  0.45174179134E+02  0.50400000000E-02 0.  1.
          1   -1    0    0  501    0  0.00000000000E+00 -0.00000000000E+00 -0.81531490446E+03  0.81531490447E+03  0.50400000000E-02 0. -1.
         25    2    1    2    0    0 -0.15145629315E+03  0.46314645788E+02 -0.38126323923E+03  0.43135925818E+03  0.12500038755E+03 0.  0.
         23    2    1    2    0    0  0.15145629315E+03 -0.46314645788E+02 -0.38887748638E+03  0.42912982542E+03  0.88558751723E+02 0.  0.
        -11    1    4    4    0    0  0.37776019177E+02  0.26023447140E+02 -0.11763837833E+03  0.12626573360E+03  0.51100000000E-03 0. -1.
         11    1    4    4    0    0  0.11368027397E+03 -0.72338092929E+02 -0.27123910805E+03  0.30286409182E+03  0.51100000000E-03 0.  1.
    9000005    1    3    3    0    0 -0.50147124205E+02  0.27565317686E+02 -0.28386100231E+03  0.28957321948E+03  0.10000000000E+01 0.  0.
    9000005    1    3    3    0    0 -0.10130916894E+03  0.18749328103E+02 -0.97402236912E+02  0.14178603870E+03  0.10000000000E+01 0.  0.
<mgrwt>
<rscale>  0 0.19648439E+03</rscale>
<asrwt>0</asrwt>
<pdfrwt beam="2">  1        1 0.12543305E+00 0.20176509E+03</pdfrwt>
<pdfrwt beam="1">  1       -1 0.69498743E-02 0.20176509E+03</pdfrwt>
<totfact> 0.23752098E+03</totfact>
</mgrwt>
</event>
<event>
 8    2  0.7478846E-004  0.1265490E+03  0.7818608E-02  0.1247429E+00
         -1   -1    0    0    0  501 -0.00000000000E+00  0.00000000000E+00  0.96095254416E+01  0.96095267632E+01  0.50400000000E-02 0.  1.
          1   -1    0    0  501    0  0.00000000000E+00 -0.00000000000E+00 -0.12819563360E+04  0.12819563360E+04  0.50400000000E-02 0. -1.
         25    2    1    2    0    0 -0.42944673455E+01  0.19271017741E+02 -0.65140762671E+03  0.66358612438E+03  0.12499933506E+03 0.  0.
         23    2    1    2    0    0  0.42944673455E+01 -0.19271017741E+02 -0.62093918388E+03  0.62797973842E+03  0.91669336274E+02 0.  0.
        -11    1    4    4    0    0  0.24212180388E+02  0.23589836886E+02 -0.42812599037E+03  0.42945846564E+03  0.51100000000E-03 0.  1.
         11    1    4    4    0    0 -0.19917713042E+02 -0.42860854627E+02 -0.19281319351E+03  0.19852127277E+03  0.51100000000E-03 0. -1.
    9000005    1    3    3    0    0 -0.44067385237E+02  0.53330447746E+02 -0.27586645901E+03  0.28441057348E+03  0.10000000000E+01 0.  0.
    9000005    1    3    3    0    0  0.39772917891E+02 -0.34059430005E+02 -0.37554116769E+03  0.37917555090E+03  0.10000000000E+01 0.  0.
<mgrwt>
<rscale>  0 0.11741178E+03</rscale>
<asrwt>0</asrwt>
<pdfrwt beam="2">  1        1 0.19722392E+00 0.12654900E+03</pdfrwt>
<pdfrwt beam="1">  1       -1 0.14783896E-02 0.12654900E+03</pdfrwt>
<totfact> 0.10337394E+04</totfact>
</mgrwt>
</event>
<event>
 8    2  0.7478846E-004  0.1298114E+03  0.7818608E-02  0.1241384E+00
          1   -1    0    0  501    0  0.00000000000E+00  0.00000000000E+00  0.54070919323E+03  0.54070919325E+03  0.50400000000E-02 0. -1.
         -1   -1    0    0    0  501 -0.00000000000E+00 -0.00000000000E+00 -0.24822567796E+02  0.24822568308E+02  0.50400000000E-02 0.  1.
         25    2    1    2    0    0 -0.29695054331E+02 -0.18513775867E+02  0.24240801866E+03  0.27497753586E+03  0.12500576613E+03 0.  0.
         23    2    1    2    0    0  0.29695054331E+02  0.18513775867E+02  0.27347860677E+03  0.29055422571E+03  0.91687804881E+02 0.  0.
        -11    1    4    4    0    0 -0.29271816817E+02  0.22341312728E+02  0.13636887723E+03  0.14125312100E+03  0.51100000000E-03 0. -1.
         11    1    4    4    0    0  0.58966871148E+02 -0.38275368603E+01  0.13710972955E+03  0.14930110471E+03  0.51100000000E-03 0.  1.
    9000005    1    3    3    0    0  0.49174749161E+02 -0.89162797818E+01  0.83704047352E+02  0.97493710275E+02  0.10000000000E+01 0.  0.
    9000005    1    3    3    0    0 -0.78869803491E+02 -0.95974960857E+01  0.15870397131E+03  0.17748382558E+03  0.10000000000E+01 0.  0.
<mgrwt>
<rscale>  0 0.12104440E+03</rscale>
<asrwt>0</asrwt>
<pdfrwt beam="1">  1        1 0.83186031E-01 0.12981139E+03</pdfrwt>
<pdfrwt beam="2">  1       -1 0.38188566E-02 0.12981139E+03</pdfrwt>
<totfact> 0.10171437E+04</totfact>
</mgrwt>
</event>
<event>
 8    2  0.7478846E-004  0.1553366E+03  0.7818608E-02  0.1202414E+00
          1   -1    0    0  501    0  0.00000000000E+00  0.00000000000E+00  0.25564383847E+03  0.25564383852E+03  0.50400000000E-02 0. -1.
         -1   -1    0    0    0  501 -0.00000000000E+00 -0.00000000000E+00 -0.83232835287E+02  0.83232835440E+02  0.50400000000E-02 0.  1.
         25    2    1    2    0    0  0.79928802041E+02  0.46031305727E+02  0.13014439273E+03  0.20264998252E+03  0.12498783122E+03 0.  0.
         23    2    1    2    0    0 -0.79928802041E+02 -0.46031305727E+02  0.42266610448E+02  0.13622669144E+03  0.90905173660E+02 0.  0.
        -11    1    4    4    0    0 -0.82619902451E+02 -0.58154428578E+02  0.57753116354E+02  0.11637615002E+03  0.51100000000E-03 0. -1.
         11    1    4    4    0    0  0.26911004101E+01  0.12123122852E+02 -0.15486505907E+02  0.19850541417E+02  0.51100000000E-03 0.  1.
    9000005    1    3    3    0    0  0.98150847571E+02  0.13347447626E+02  0.43354114597E+02  0.10813104314E+03  0.10000000000E+01 0.  0.
    9000005    1    3    3    0    0 -0.18222045531E+02  0.32683858101E+02  0.86790278137E+02  0.94518939387E+02  0.10000000000E+01 0.  0.
<mgrwt>
<rscale>  0 0.14843146E+03</rscale>
<asrwt>0</asrwt>
<pdfrwt beam="1">  1        1 0.39329821E-01 0.15533658E+03</pdfrwt>
<pdfrwt beam="2">  1       -1 0.12805052E-01 0.15533658E+03</pdfrwt>
<totfact> 0.42962354E+03</totfact>
</mgrwt>
</event>
<event>
 8    2  0.7478846E-004  0.1390162E+03  0.7818608E-02  0.1225418E+00
          1   -1    0    0  501    0  0.00000000000E+00  0.00000000000E+00  0.21714816904E+04  0.21714816905E+04  0.50400000000E-02 0. -1.
         -1   -1    0    0    0  501 -0.00000000000E+00 -0.00000000000E+00 -0.73338117655E+01  0.73338134973E+01  0.50400000000E-02 0.  1.
         25    2    1    2    0    0 -0.63193051118E+01  0.60503187136E+02  0.13524059647E+04  0.13595320504E+04  0.12499973386E+03 0.  0.
         23    2    1    2    0    0  0.63193051118E+01 -0.60503187136E+02  0.81174191397E+03  0.81928345353E+03  0.92735500536E+02 0.  0.
        -11    1    4    4    0    0  0.34176302612E+01 -0.81412126675E+02  0.74078904210E+03  0.74525701571E+03  0.51100000000E-03 0. -1.
         11    1    4    4    0    0  0.29016748506E+01  0.20908939539E+02  0.70952871871E+02  0.74026437822E+02  0.51100000000E-03 0.  1.
    9000005    1    3    3    0    0  0.34791016854E+02  0.66976382383E+02  0.11701694435E+04  0.11726012865E+04  0.10000000000E+01 0.  0.
    9000005    1    3    3    0    0 -0.41110321966E+02 -0.64731952463E+01  0.18223652120E+03  0.18693076389E+03  0.10000000000E+01 0.  0.
<mgrwt>
<rscale>  0 0.13138299E+03</rscale>
<asrwt>0</asrwt>
<pdfrwt beam="1">  1        1 0.33407408E+00 0.13901620E+03</pdfrwt>
<pdfrwt beam="2">  1       -1 0.11282789E-02 0.13901620E+03</pdfrwt>
<totfact> 0.40937089E+03</totfact>
</mgrwt>
</event>
<event>
 8    2  0.7478846E-004  0.1291566E+03  0.7818608E-02  0.1232074E+00
          1   -1    0    0  501    0  0.00000000000E+00  0.00000000000E+00  0.45439292628E+02  0.45439292908E+02  0.50400000000E-02 0. -1.
         -1   -1    0    0    0  501 -0.00000000000E+00 -0.00000000000E+00 -0.42963483993E+03  0.42963483996E+03  0.50400000000E-02 0.  1.
         25    2    1    2    0    0 -0.52905638278E+01 -0.32040368797E+02 -0.90751020756E+02  0.15785173786E+03  0.12500739210E+03 0.  0.
         23    2    1    2    0    0  0.52905638278E+01  0.32040368797E+02 -0.29344452655E+03  0.31722239501E+03  0.11604215801E+03 0.  0.
        -11    1    4    4    0    0  0.16873937823E+02  0.59654825142E+02 -0.27533193859E+03  0.28222527234E+03  0.51100000000E-03 0.  1.
         11    1    4    4    0    0 -0.11583373995E+02 -0.27614456345E+02 -0.18112587959E+02  0.34997122670E+02  0.51100000000E-03 0. -1.
    9000005    1    3    3    0    0 -0.40742771867E+02 -0.10103138684E+02  0.14673519383E+02  0.44478748204E+02  0.10000000000E+01 0.  0.
    9000005    1    3    3    0    0  0.35452208039E+02 -0.21937230113E+02 -0.10542454014E+03  0.11337298965E+03  0.10000000000E+01 0.  0.
<mgrwt>
<rscale>  0 0.12693593E+03</rscale>
<asrwt>0</asrwt>
<pdfrwt beam="1">  1        1 0.69906607E-02 0.12915658E+03</pdfrwt>
<pdfrwt beam="2">  1       -1 0.66097665E-01 0.12915658E+03</pdfrwt>
<totfact> 0.24289139E+03</totfact>
</mgrwt>
</event>
<event>
 8    2  0.7478846E-004  0.1395857E+03  0.7818608E-02  0.1221935E+00
          1   -1    0    0  501    0  0.00000000000E+00  0.00000000000E+00  0.11451031418E+04  0.11451031419E+04  0.50400000000E-02 0. -1.
         -1   -1    0    0    0  501 -0.00000000000E+00 -0.00000000000E+00 -0.22173620934E+02  0.22173621507E+02  0.50400000000E-02 0.  1.
         25    2    1    2    0    0  0.52244431332E+02  0.33617765318E+02  0.93576845035E+03  0.94612195374E+03  0.12499809576E+03 0.  0.
         23    2    1    2    0    0 -0.52244431332E+02 -0.33617765318E+02  0.18716107057E+03  0.22115480962E+03  0.10010269094E+03 0.  0.
        -11    1    4    4    0    0 -0.27546483234E+02 -0.66346272647E+02  0.86354087141E+02  0.11232838020E+03  0.51100000000E-03 0.  1.
         11    1    4    4    0    0 -0.24697948097E+02  0.32728507329E+02  0.10080698343E+03  0.10882642942E+03  0.51100000000E-03 0. -1.
    9000005    1    3    3    0    0  0.59280176985E+02  0.67273947124E+01  0.17590694606E+03  0.18575158383E+03  0.10000000000E+01 0.  0.
    9000005    1    3    3    0    0 -0.70357456534E+01  0.26890370605E+02  0.75986150428E+03  0.76037036991E+03  0.10000000000E+01 0.  0.
<mgrwt>
<rscale>  0 0.13379196E+03</rscale>
<asrwt>0</asrwt>
<pdfrwt beam="1">  1        1 0.17616971E+00 0.13958567E+03</pdfrwt>
<pdfrwt beam="2">  1       -1 0.34113264E-02 0.13958567E+03</pdfrwt>
<totfact> 0.38406414E+03</totfact>
</mgrwt>
</event>
<event>
 8    2  0.7478846E-004  0.1763741E+03  0.7818608E-02  0.1176812E+00
         -1   -1    0    0    0  501 -0.00000000000E+00  0.00000000000E+00  0.89195824741E+03  0.89195824743E+03  0.50400000000E-02 0.  1.
          1   -1    0    0  501    0  0.00000000000E+00 -0.00000000000E+00 -0.31116483070E+02  0.31116483478E+02  0.50400000000E-02 0. -1.
         25    2    1    2    0    0  0.10980974711E+03  0.58517028511E+02  0.42138170090E+03  0.45680452074E+03  0.12500163652E+03 0.  0.
         23    2    1    2    0    0 -0.10980974711E+03 -0.58517028511E+02  0.43946006344E+03  0.46627021016E+03  0.93810118518E+02 0.  0.
        -11    1    4    4    0    0 -0.85616626552E+02  0.57914063693E+00  0.18391550162E+03  0.20286807014E+03  0.51100000000E-03 0. -1.
         11    1    4    4    0    0 -0.24193120561E+02 -0.59096169148E+02  0.25554456182E+03  0.26340214002E+03  0.51100000000E-03 0.  1.
    9000005    1    3    3    0    0  0.11215011673E+03  0.57054870359E+02  0.20592347465E+03  0.24132630260E+03  0.10000000000E+01 0.  0.
    9000005    1    3    3    0    0 -0.23403696171E+01  0.14621581522E+01  0.21545822625E+03  0.21547821814E+03  0.10000000000E+01 0.  0.
<mgrwt>
<rscale>  0 0.17099697E+03</rscale>
<asrwt>0</asrwt>
<pdfrwt beam="2">  1        1 0.47871520E-02 0.17637413E+03</pdfrwt>
<pdfrwt beam="1">  1       -1 0.13722432E+00 0.17637413E+03</pdfrwt>
<totfact> 0.83457334E+02</totfact>
</mgrwt>
</event>
<event>
 8    2  0.7478846E-004  0.1264239E+03  0.7818608E-02  0.1246453E+00
         -1   -1    0    0    0  501 -0.00000000000E+00  0.00000000000E+00  0.55708749716E+01  0.55708772514E+01  0.50400000000E-02 0.  1.
          1   -1    0    0  501    0  0.00000000000E+00 -0.00000000000E+00 -0.32205682398E+04  0.32205682398E+04  0.50400000000E-02 0. -1.
         25    2    1    2    0    0  0.17529449001E+02  0.70571573018E+01 -0.86547197660E+03  0.87465692450E+03  0.12500363293E+03 0.  0.
         23    2    1    2    0    0 -0.17529449001E+02 -0.70571573018E+01 -0.23495253883E+04  0.23514821926E+04  0.94031201859E+02 0.  0.
        -11    1    4    4    0    0  0.33904614159E+02 -0.19607351042E+02 -0.13370667366E+04  0.13376402466E+04  0.51100000000E-03 0. -1.
         11    1    4    4    0    0 -0.51434063160E+02  0.12550193740E+02 -0.10124586517E+04  0.10138419460E+04  0.51100000000E-03 0.  1.
    9000005    1    3    3    0    0  0.16615838834E+01  0.62127457601E+02 -0.30552108461E+03  0.31177991434E+03  0.10000000000E+01 0.  0.
    9000005    1    3    3    0    0  0.15867865118E+02 -0.55070300299E+02 -0.55995089199E+03  0.56287701015E+03  0.10000000000E+01 0.  0.
<mgrwt>
<rscale>  0 0.11798834E+03</rscale>
<asrwt>0</asrwt>
<pdfrwt beam="2">  1        1 0.49547055E+00 0.12642386E+03</pdfrwt>
<pdfrwt beam="1">  1       -1 0.85706043E-03 0.12642386E+03</pdfrwt>
<totfact> 0.12104597E+03</totfact>
</mgrwt>
</event>
<event>
 8    2  0.7478846E-004  0.1338855E+03  0.7818608E-02  0.1234390E+00
          1   -1    0    0  501    0  0.00000000000E+00  0.00000000000E+00  0.28664676980E+03  0.28664676985E+03  0.50400000000E-02 0. -1.
         -1   -1    0    0    0  501 -0.00000000000E+00 -0.00000000000E+00 -0.49718916463E+02  0.49718916718E+02  0.50400000000E-02 0.  1.
         25    2    1    2    0    0 -0.13274483178E+02 -0.46084706273E+02  0.11360758314E+03  0.17559047730E+03  0.12500128286E+03 0.  0.
         23    2    1    2    0    0  0.13274483178E+02  0.46084706273E+02  0.12332027020E+03  0.16077520926E+03  0.91327798698E+02 0.  0.
        -11    1    4    4    0    0 -0.20197556467E+02  0.17996440334E+02  0.11257204614E+03  0.11577684882E+03  0.51100000000E-03 0. -1.
         11    1    4    4    0    0  0.33472039646E+02  0.28088265939E+02  0.10748224067E+02  0.44998360441E+02  0.51100000000E-03 0.  1.
    9000005    1    3    3    0    0  0.30383257575E+02  0.99905135222E+01 -0.95519424382E+01  0.33394495140E+02  0.10000000000E+01 0.  0.
    9000005    1    3    3    0    0 -0.43657740754E+02 -0.56075219796E+02  0.12315952558E+03  0.14219598216E+03  0.10000000000E+01 0.  0.
<mgrwt>
<rscale>  0 0.12543591E+03</rscale>
<asrwt>0</asrwt>
<pdfrwt beam="1">  1        1 0.44099503E-01 0.13388552E+03</pdfrwt>
<pdfrwt beam="2">  1       -1 0.76490641E-02 0.13388552E+03</pdfrwt>
<totfact> 0.81211040E+03</totfact>
</mgrwt>
</event>
<event>
 8    2  0.7478846E-004  0.1736518E+03  0.7818608E-02  0.1180574E+00
         -1   -1    0    0    0  501 -0.00000000000E+00  0.00000000000E+00  0.51364175563E+02  0.51364175810E+02  0.50400000000E-02 0.  1.
          1   -1    0    0  501    0  0.00000000000E+00 -0.00000000000E+00 -0.53243917727E+03  0.53243917729E+03  0.50400000000E-02 0. -1.
         25    2    1    2    0    0  0.89185144552E+02 -0.81093774112E+02 -0.31732611192E+03  0.36173304351E+03  0.12499897299E+03 0.  0.
         23    2    1    2    0    0 -0.89185144552E+02  0.81093774112E+02 -0.16374888978E+03  0.22207030960E+03  0.89282323507E+02 0.  0.
        -11    1    4    4    0    0 -0.59734913480E+02  0.27478762710E+02 -0.24837771894E+02  0.70286963240E+02  0.51100000000E-03 0.  1.
         11    1    4    4    0    0 -0.29450231072E+02  0.53615011402E+02 -0.13891111789E+03  0.15178334636E+03  0.51100000000E-03 0. -1.
    9000005    1    3    3    0    0  0.22435382791E+02 -0.59853947833E+00  0.48728533604E+01  0.22988026239E+02  0.10000000000E+01 0.  0.
    9000005    1    3    3    0    0  0.66749761761E+02 -0.80495234634E+02 -0.32219896528E+03  0.33874501727E+03  0.10000000000E+01 0.  0.
<mgrwt>
<rscale>  0 0.16741173E+03</rscale>
<asrwt>0</asrwt>
<pdfrwt beam="2">  1        1 0.81913716E-01 0.17365176E+03</pdfrwt>
<pdfrwt beam="1">  1       -1 0.79021813E-02 0.17365176E+03</pdfrwt>
<totfact> 0.35710034E+03</totfact>
</mgrwt>
</event>
<event>
 8    2  0.7478846E-004  0.1292624E+03  0.7818608E-02  0.1242531E+00
          1   -1    0    0  501    0  0.00000000000E+00  0.00000000000E+00  0.34143225451E+03  0.34143225455E+03  0.50400000000E-02 0.  1.
         -1   -1    0    0    0  501 -0.00000000000E+00 -0.00000000000E+00 -0.43496049332E+02  0.43496049624E+02  0.50400000000E-02 0. -1.
         25    2    1    2    0    0 -0.18894378809E+02 -0.26935567428E+02  0.23791688399E+03  0.27076411117E+03  0.12500495137E+03 0.  0.
         23    2    1    2    0    0  0.18894378809E+02  0.26935567428E+02  0.60019321194E+02  0.11416419301E+03  0.91370792406E+02 0.  0.
        -11    1    4    4    0    0  0.19915142968E+02  0.34101488166E+02 -0.12393975895E+02  0.41390035676E+02  0.51100000000E-03 0. -1.
         11    1    4    4    0    0 -0.10207641586E+01 -0.71659207378E+01  0.72413297089E+02  0.72774157329E+02  0.51100000000E-03 0.  1.
    9000005    1    3    3    0    0  0.28399772714E+02  0.20792694207E+02  0.15599587008E+02  0.38512729551E+02  0.10000000000E+01 0.  0.
    9000005    1    3    3    0    0 -0.47294151523E+02 -0.47728261635E+02  0.22231729698E+03  0.23225138162E+03  0.10000000000E+01 0.  0.
<mgrwt>
<rscale>  0 0.12034405E+03</rscale>
<asrwt>0</asrwt>
<pdfrwt beam="1">  1        1 0.52528040E-01 0.12926237E+03</pdfrwt>
<pdfrwt beam="2">  1       -1 0.66916998E-02 0.12926237E+03</pdfrwt>
<totfact> 0.79711300E+03</totfact>
</mgrwt>
</event>
<event>
 8    2  0.7478846E-004  0.1252515E+03  0.7818608E-02  0.1249653E+00
         -1   -1    0    0    0  501 -0.00000000000E+00  0.00000000000E+00  0.96184995255E+01  0.96185008460E+01  0.50400000000E-02 0.  1.
          1   -1    0    0  501    0  0.00000000000E+00 -0.00000000000E+00 -0.12943872682E+04  0.12943872682E+04  0.50400000000E-02 0. -1.
         25    2    1    2    0    0 -0.78130981737E+01  0.56956337762E+00 -0.59327479675E+03  0.60635213546E+03  0.12500623511E+03 0.  0.
         23    2    1    2    0    0  0.78130981737E+01 -0.56956337762E+00 -0.69149397193E+03  0.69765363360E+03  0.92170007873E+02 0.  0.
        -11    1    4    4    0    0  0.13704015551E+02 -0.13423235077E+02 -0.67746151534E+03  0.67773305073E+03  0.51100000000E-03 0. -1.
         11    1    4    4    0    0 -0.58909173774E+01  0.12853671700E+02 -0.14032456594E+02  0.19920582874E+02  0.51100000000E-03 0.  1.
    9000005    1    3    3    0    0 -0.51137790806E+01 -0.53157729533E+02 -0.13911547484E+03  0.14901681209E+03  0.10000000000E+01 0.  0.
    9000005    1    3    3    0    0 -0.26993190931E+01  0.53727292910E+02 -0.45415932191E+03  0.45733532338E+03  0.10000000000E+01 0.  0.
<mgrwt>
<rscale>  0 0.11611150E+03</rscale>
<asrwt>0</asrwt>
<pdfrwt beam="2">  1        1 0.19913636E+00 0.12525146E+03</pdfrwt>
<pdfrwt beam="1">  1       -1 0.14797703E-02 0.12525146E+03</pdfrwt>
<totfact> 0.10122422E+04</totfact>
</mgrwt>
</event>
<event>
 8    2  0.7478846E-004  0.1279542E+03  0.7818608E-02  0.1243871E+00
          1   -1    0    0  501    0  0.00000000000E+00  0.00000000000E+00  0.89118710616E+03  0.89118710617E+03  0.50400000000E-02 0. -1.
         -1   -1    0    0    0  501 -0.00000000000E+00 -0.00000000000E+00 -0.16297797838E+02  0.16297798618E+02  0.50400000000E-02 0.  1.
         25    2    1    2    0    0 -0.21221863435E+02  0.17237287663E+02  0.64867174309E+03  0.66117116368E+03  0.12499914329E+03 0.  0.
         23    2    1    2    0    0  0.21221863435E+02 -0.17237287663E+02  0.22621756523E+03  0.24631374111E+03  0.93533847711E+02 0.  0.
        -11    1    4    4    0    0 -0.22918270762E+02  0.17504744959E+02  0.14321739298E+03  0.14609204251E+03  0.51100000000E-03 0. -1.
         11    1    4    4    0    0  0.44140134197E+02 -0.34742032622E+02  0.83000172246E+02  0.10022169860E+03  0.51100000000E-03 0.  1.
    9000005    1    3    3    0    0 -0.14482431448E+02 -0.20506019552E+02  0.22202279932E+02  0.33528777084E+02  0.10000000000E+01 0.  0.
    9000005    1    3    3    0    0 -0.67394319867E+01  0.37743307215E+02  0.62646946316E+03  0.62764238660E+03  0.10000000000E+01 0.  0.
<mgrwt>
<rscale>  0 0.11953192E+03</rscale>
<asrwt>0</asrwt>
<pdfrwt beam="1">  1        1 0.13710570E+00 0.12795420E+03</pdfrwt>
<pdfrwt beam="2">  1       -1 0.25073537E-02 0.12795420E+03</pdfrwt>
<totfact> 0.91652201E+03</totfact>
</mgrwt>
</event>
<event>
 8    2  0.7478846E-004  0.1348542E+03  0.7818608E-02  0.1232812E+00
          1   -1    0    0  501    0  0.00000000000E+00  0.00000000000E+00  0.58082635947E+03  0.58082635949E+03  0.50400000000E-02 0. -1.
         -1   -1    0    0    0  501 -0.00000000000E+00 -0.00000000000E+00 -0.37979307420E+02  0.37979307754E+02  0.50400000000E-02 0.  1.
         25    2    1    2    0    0 -0.13551169071E+02 -0.48771810689E+02  0.47650752649E+03  0.49522224900E+03  0.12499331743E+03 0.  0.
         23    2    1    2    0    0  0.13551169071E+02  0.48771810689E+02  0.66339525567E+02  0.12358341825E+03  0.91157034360E+02 0.  0.
        -11    1    4    4    0    0  0.24832755528E+02  0.72457627591E+02  0.57925194139E+02  0.96031774218E+02  0.51100000000E-03 0. -1.
         11    1    4    4    0    0 -0.11281586457E+02 -0.23685816902E+02  0.84143314282E+01  0.27551644034E+02  0.51100000000E-03 0.  1.
    9000005    1    3    3    0    0 -0.36908515276E+02 -0.25092092013E+02  0.45123320196E+03  0.45343605297E+03  0.10000000000E+01 0.  0.
    9000005    1    3    3    0    0  0.23357346205E+02 -0.23679718676E+02  0.25274324528E+02  0.41786196030E+02  0.10000000000E+01 0.  0.
<mgrwt>
<rscale>  0 0.12645519E+03</rscale>
<asrwt>0</asrwt>
<pdfrwt beam="1">  1        1 0.89357902E-01 0.13485419E+03</pdfrwt>
<pdfrwt beam="2">  1       -1 0.58429704E-02 0.13485419E+03</pdfrwt>
<totfact> 0.49466099E+03</totfact>
</mgrwt>
</event>
<event>
 8    2  0.7478846E-004  0.1289897E+03  0.7818608E-02  0.1241921E+00
         -1   -1    0    0    0  501 -0.00000000000E+00  0.00000000000E+00  0.17818416178E+02  0.17818416891E+02  0.50400000000E-02 0.  1.
          1   -1    0    0  501    0  0.00000000000E+00 -0.00000000000E+00 -0.78997173245E+03  0.78997173247E+03  0.50400000000E-02 0. -1.
         25    2    1    2    0    0 -0.12643725263E+02  0.29207097985E+02 -0.32167350292E+03  0.34657206014E+03  0.12500172808E+03 0.  0.
         23    2    1    2    0    0  0.12643725263E+02 -0.29207097985E+02 -0.45047981335E+03  0.46121808922E+03  0.93686419664E+02 0.  0.
        -11    1    4    4    0    0  0.98153867537E+01  0.33642476302E+02 -0.13126503473E+03  0.13586267836E+03  0.51100000000E-03 0.  1.
         11    1    4    4    0    0  0.28283385093E+01 -0.62849574287E+02 -0.31921477862E+03  0.32535541086E+03  0.51100000000E-03 0. -1.
    9000005    1    3    3    0    0 -0.68752438054E+01 -0.46181285329E+02 -0.73033475385E+02  0.86688341886E+02  0.10000000000E+01 0.  0.
    9000005    1    3    3    0    0 -0.57684814576E+01  0.75388383315E+02 -0.24864002754E+03  0.25988371825E+03  0.10000000000E+01 0.  0.
<mgrwt>
<rscale>  0 0.12071592E+03</rscale>
<asrwt>0</asrwt>
<pdfrwt beam="2">  1        1 0.12153409E+00 0.12898973E+03</pdfrwt>
<pdfrwt beam="1">  1       -1 0.27412955E-02 0.12898973E+03</pdfrwt>
<totfact> 0.96978789E+03</totfact>
</mgrwt>
</event>
<event>
 8    2  0.7478846E-004  0.1865129E+03  0.7818608E-02  0.1166764E+00
         -1   -1    0    0    0  501 -0.00000000000E+00  0.00000000000E+00  0.11904232656E+03  0.11904232667E+03  0.50400000000E-02 0.  1.
          1   -1    0    0  501    0  0.00000000000E+00 -0.00000000000E+00 -0.28318677434E+03  0.28318677438E+03  0.50400000000E-02 0. -1.
         25    2    1    2    0    0 -0.13797882147E+03  0.11138078236E+02 -0.14332911838E+03  0.23522395803E+03  0.12499944917E+03 0.  0.
         23    2    1    2    0    0  0.13797882147E+03 -0.11138078236E+02 -0.20815329390E+02  0.16700514303E+03  0.91078141717E+02 0.  0.
        -11    1    4    4    0    0  0.41446009744E+02  0.36167346675E+02  0.83027270183E+01  0.55630782534E+02  0.51100000000E-03 0.  1.
         11    1    4    4    0    0  0.96532811728E+02 -0.47305424911E+02 -0.29118056409E+02  0.11137436049E+03  0.51100000000E-03 0. -1.
    9000005    1    3    3    0    0 -0.85889447255E+02  0.63557806742E+02 -0.11246465476E+03  0.15513184882E+03  0.10000000000E+01 0.  0.
    9000005    1    3    3    0    0 -0.52089374217E+02 -0.52419728506E+02 -0.30864463629E+02  0.80092109212E+02  0.10000000000E+01 0.  0.
<mgrwt>
<rscale>  0 0.18107739E+03</rscale>
<asrwt>0</asrwt>
<pdfrwt beam="2">  1        1 0.43567196E-01 0.18651293E+03</pdfrwt>
<pdfrwt beam="1">  1       -1 0.18314204E-01 0.18651293E+03</pdfrwt>
<totfact> 0.21661923E+03</totfact>
</mgrwt>
</event>
<event>
 8    2  0.7478846E-004  0.1250762E+03  0.7818608E-02  0.1249914E+00
         -1   -1    0    0    0  501 -0.00000000000E+00  0.00000000000E+00  0.28580625520E+02  0.28580625964E+02  0.50400000000E-02 0.  1.
          1   -1    0    0  501    0  0.00000000000E+00 -0.00000000000E+00 -0.42558340560E+03  0.42558340563E+03  0.50400000000E-02 0. -1.
         25    2    1    2    0    0  0.27839379807E+01 -0.34355307223E+01 -0.26494525388E+03  0.29298470074E+03  0.12499797650E+03 0.  0.
         23    2    1    2    0    0 -0.27839379807E+01  0.34355307223E+01 -0.13205752620E+03  0.16117933086E+03  0.92304026390E+02 0.  0.
        -11    1    4    4    0    0 -0.13984503943E+02 -0.19991823266E+02 -0.13297630204E+03  0.13519591803E+03  0.51100000000E-03 0. -1.
         11    1    4    4    0    0  0.11200565962E+02  0.23427353988E+02  0.91877584051E+00  0.25983412826E+02  0.51100000000E-03 0.  1.
    9000005    1    3    3    0    0  0.62178642718E+02 -0.21050265271E+01 -0.10126957944E+03  0.11885765633E+03  0.10000000000E+01 0.  0.
    9000005    1    3    3    0    0 -0.59394704737E+02 -0.13305041952E+01 -0.16367567444E+03  0.17412704441E+03  0.10000000000E+01 0.  0.
<mgrwt>
<rscale>  0 0.11596062E+03</rscale>
<asrwt>0</asrwt>
<pdfrwt beam="2">  1        1 0.65474366E-01 0.12507617E+03</pdfrwt>
<pdfrwt beam="1">  1       -1 0.43970197E-02 0.12507617E+03</pdfrwt>
<totfact> 0.11239479E+04</totfact>
</mgrwt>
</event>
<event>
 8    2  0.7478846E-004  0.2015081E+03  0.7818608E-02  0.1152655E+00
         -1   -1    0    0    0  501 -0.00000000000E+00  0.00000000000E+00  0.10509642209E+02  0.10509643418E+02  0.50400000000E-02 0.  1.
          1   -1    0    0  501    0  0.00000000000E+00 -0.00000000000E+00 -0.37097699289E+04  0.37097699289E+04  0.50400000000E-02 0. -1.
         25    2    1    2    0    0 -0.14069768831E+03  0.71966401739E+02 -0.23693591389E+04  0.23779125775E+04  0.12502197654E+03 0.  0.
         23    2    1    2    0    0  0.14069768831E+03 -0.71966401739E+02 -0.13299011478E+04  0.13423669949E+04  0.91307630811E+02 0.  0.
        -11    1    4    4    0    0  0.15095456043E+03 -0.68691788742E+02 -0.11224296320E+04  0.11346162875E+04  0.51100000000E-03 0.  1.
         11    1    4    4    0    0 -0.10256872120E+02 -0.32746129965E+01 -0.20747151586E+03  0.20775070737E+03  0.51100000000E-03 0. -1.
    9000005    1    3    3    0    0 -0.16051158697E+03  0.47106842981E+02 -0.21075559863E+04  0.21141845377E+04  0.10000000000E+01 0.  0.
    9000005    1    3    3    0    0  0.19813898656E+02  0.24859558757E+02 -0.26180315258E+03  0.26372803974E+03  0.10000000000E+01 0.  0.
<mgrwt>
<rscale>  0 0.19658236E+03</rscale>
<asrwt>0</asrwt>
<pdfrwt beam="2">  1        1 0.57073279E+00 0.20150806E+03</pdfrwt>
<pdfrwt beam="1">  1       -1 0.16168711E-02 0.20150806E+03</pdfrwt>
<totfact> 0.20643186E+02</totfact>
</mgrwt>
</event>
<event>
 8    2  0.7478846E-004  0.1368912E+03  0.7818608E-02  0.1228848E+00
          1   -1    0    0  501    0  0.00000000000E+00  0.00000000000E+00  0.22461477876E+04  0.22461477876E+04  0.50400000000E-02 0. -1.
         -1   -1    0    0    0  501 -0.00000000000E+00 -0.00000000000E+00 -0.71993896566E+01  0.71993914208E+01  0.50400000000E-02 0.  1.
         25    2    1    2    0    0  0.49736451082E+02  0.25310374729E+02  0.94188602849E+03  0.95178175246E+03  0.12499953607E+03 0.  0.
         23    2    1    2    0    0 -0.49736451082E+02 -0.25310374729E+02  0.12970623695E+04  0.13015654266E+04  0.92668439843E+02 0.  0.
        -11    1    4    4    0    0 -0.36881309637E+01 -0.28087599447E+02  0.10406962822E+04  0.10410817775E+04  0.51100000000E-03 0. -1.
         11    1    4    4    0    0 -0.46048320118E+02  0.27772247178E+01  0.25636608728E+03  0.26048364914E+03  0.51100000000E-03 0.  1.
    9000005    1    3    3    0    0  0.74195119920E+02  0.30631687751E+02  0.33898498728E+03  0.34836049965E+03  0.10000000000E+01 0.  0.
    9000005    1    3    3    0    0 -0.24458668838E+02 -0.53213130226E+01  0.60290104120E+03  0.60342125280E+03  0.10000000000E+01 0.  0.
<mgrwt>
<rscale>  0 0.12906640E+03</rscale>
<asrwt>0</asrwt>
<pdfrwt beam="1">  1        1 0.34556142E+00 0.13689125E+03</pdfrwt>
<pdfrwt beam="2">  1       -1 0.11075978E-02 0.13689125E+03</pdfrwt>
<totfact> 0.37642713E+03</totfact>
</mgrwt>
</event>
<event>
 8    2  0.7478846E-004  0.1251926E+03  0.7818608E-02  0.1250079E+00
         -1   -1    0    0    0  501 -0.00000000000E+00  0.00000000000E+00  0.12324646176E+02  0.12324647206E+02  0.50400000000E-02 0.  1.
          1   -1    0    0  501    0  0.00000000000E+00 -0.00000000000E+00 -0.11922243036E+04  0.11922243036E+04  0.50400000000E-02 0. -1.
         25    2    1    2    0    0  0.60551469563E+01  0.32599559903E+01 -0.92839621641E+03  0.93679919111E+03  0.12500359076E+03 0.  0.
         23    2    1    2    0    0 -0.60551469563E+01 -0.32599559903E+01 -0.25150344105E+03  0.26774975974E+03  0.91589632952E+02 0.  0.
        -11    1    4    4    0    0 -0.43954674691E+02  0.10864550377E+02 -0.17992480417E+03  0.18553432847E+03  0.51100000000E-03 0. -1.
         11    1    4    4    0    0  0.37899527734E+02 -0.14124506367E+02 -0.71578636874E+02  0.82215431274E+02  0.51100000000E-03 0.  1.
    9000005    1    3    3    0    0  0.28240838409E+02  0.13001064320E+02 -0.89492906728E+03  0.89546949032E+03  0.10000000000E+01 0.  0.
    9000005    1    3    3    0    0 -0.22185691452E+02 -0.97411083296E+01 -0.33467149128E+02  0.41329700791E+02  0.10000000000E+01 0.  0.
<mgrwt>
<rscale>  0 0.11586461E+03</rscale>
<asrwt>0</asrwt>
<pdfrwt beam="2">  1        1 0.18341903E+00 0.12519261E+03</pdfrwt>
<pdfrwt beam="1">  1       -1 0.18961004E-02 0.12519261E+03</pdfrwt>
<totfact> 0.83128693E+03</totfact>
</mgrwt>
</event>
<event>
 8    2  0.7478846E-004  0.1957265E+03  0.7818608E-02  0.1154901E+00
          1   -1    0    0  501    0  0.00000000000E+00  0.00000000000E+00  0.31014152814E+04  0.31014152814E+04  0.50400000000E-02 0. -1.
         -1   -1    0    0    0  501 -0.00000000000E+00 -0.00000000000E+00 -0.15013742479E+02  0.15013743325E+02  0.50400000000E-02 0.  1.
         25    2    1    2    0    0  0.42975529879E+02  0.14436327263E+03  0.22714336799E+04  0.22798508346E+04  0.12498485937E+03 0.  0.
         23    2    1    2    0    0 -0.42975529879E+02 -0.14436327263E+03  0.81496785899E+03  0.83657819013E+03  0.11402984852E+03 0.  0.
        -11    1    4    4    0    0  0.30437585895E+01 -0.66162478551E+02  0.13277730958E+03  0.14837975595E+03  0.51100000000E-03 0.  1.
         11    1    4    4    0    0 -0.46019288469E+02 -0.78200794076E+02  0.68219054941E+03  0.68819843418E+03  0.51100000000E-03 0. -1.
    9000005    1    3    3    0    0  0.84689605488E+00  0.77299920896E+02  0.44249723774E+03  0.44920017855E+03  0.10000000000E+01 0.  0.
    9000005    1    3    3    0    0  0.42128633824E+02  0.67063351731E+02  0.18289364422E+04  0.18306506561E+04  0.10000000000E+01 0.  0.
<mgrwt>
<rscale>  0 0.19400202E+03</rscale>
<asrwt>0</asrwt>
<pdfrwt beam="1">  1        1 0.47714151E+00 0.19572651E+03</pdfrwt>
<pdfrwt beam="2">  1       -1 0.23098032E-02 0.19572651E+03</pdfrwt>
<totfact> 0.34672404E+02</totfact>
</mgrwt>
</event>
<event>
 8    2  0.7478846E-004  0.1790460E+03  0.7818608E-02  0.1174255E+00
         -1   -1    0    0    0  501 -0.00000000000E+00  0.00000000000E+00  0.13210999052E+03  0.13210999061E+03  0.50400000000E-02 0.  1.
          1   -1    0    0  501    0  0.00000000000E+00 -0.00000000000E+00 -0.22779320105E+03  0.22779320111E+03  0.50400000000E-02 0. -1.
         25    2    1    2    0    0 -0.11610570026E+03  0.54333282160E+02 -0.77294619384E+01  0.17921277780E+03  0.12499934385E+03 0.  0.
         23    2    1    2    0    0  0.11610570026E+03 -0.54333282160E+02 -0.87953748599E+02  0.18069041392E+03  0.92089763852E+02 0.  0.
        -11    1    4    4    0    0  0.47249928374E+02  0.11342895894E+02  0.34920163161E+01  0.48717668221E+02  0.51100000000E-03 0.  1.
         11    1    4    4    0    0  0.68855771882E+02 -0.65676178054E+02 -0.91445764915E+02  0.13197274570E+03  0.51100000000E-03 0. -1.
    9000005    1    3    3    0    0 -0.20278807683E+02  0.38344609597E+02  0.49998591598E+02  0.66199684953E+02  0.10000000000E+01 0.  0.
    9000005    1    3    3    0    0 -0.95826892573E+02  0.15988672562E+02 -0.57728053536E+02  0.11301309285E+03  0.10000000000E+01 0.  0.
<mgrwt>
<rscale>  0 0.17349106E+03</rscale>
<asrwt>0</asrwt>
<pdfrwt beam="2">  1        1 0.35045108E-01 0.17904601E+03</pdfrwt>
<pdfrwt beam="1">  1       -1 0.20324614E-01 0.17904601E+03</pdfrwt>
<totfact> 0.23995135E+03</totfact>
</mgrwt>
</event>
<event>
 8    2  0.7478846E-004  0.1817114E+03  0.7818608E-02  0.1171483E+00
         -1   -1    0    0    0  501 -0.00000000000E+00  0.00000000000E+00  0.28099335032E+02  0.28099335484E+02  0.50400000000E-02 0.  1.
          1   -1    0    0  501    0  0.00000000000E+00 -0.00000000000E+00 -0.10755984470E+04  0.10755984471E+04  0.50400000000E-02 0. -1.
         25    2    1    2    0    0  0.12925024867E+03 -0.26236186290E+02 -0.46021417903E+03  0.49478897729E+03  0.12500030886E+03 0.  0.
         23    2    1    2    0    0 -0.12925024867E+03  0.26236186290E+02 -0.58728493298E+03  0.60890880525E+03  0.92045512389E+02 0.  0.
        -11    1    4    4    0    0 -0.11627312776E+03  0.50474462879E+02 -0.39963884212E+03  0.41925924649E+03  0.51100000000E-03 0.  1.
         11    1    4    4    0    0 -0.12977120911E+02 -0.24238276589E+02 -0.18764609087E+03  0.18964955876E+03  0.51100000000E-03 0. -1.
    9000005    1    3    3    0    0  0.13154047811E+03 -0.34116512961E+02 -0.46553033659E+03  0.48496013044E+03  0.10000000000E+01 0.  0.
    9000005    1    3    3    0    0 -0.22902294380E+01  0.78803266717E+01  0.53161575511E+01  0.98288468520E+01  0.10000000000E+01 0.  0.
<mgrwt>
<rscale>  0 0.17624977E+03</rscale>
<asrwt>0</asrwt>
<pdfrwt beam="2">  1        1 0.16547665E+00 0.18171142E+03</pdfrwt>
<pdfrwt beam="1">  1       -1 0.43229755E-02 0.18171142E+03</pdfrwt>
<totfact> 0.30541655E+03</totfact>
</mgrwt>
</event>
<event>
 8    2  0.7478846E-004  0.1552278E+03  0.7818608E-02  0.1200719E+00
          1   -1    0    0  501    0  0.00000000000E+00  0.00000000000E+00  0.11036770400E+02  0.11036771551E+02  0.50400000000E-02 0. -1.
         -1   -1    0    0    0  501 -0.00000000000E+00 -0.00000000000E+00 -0.20363891808E+04  0.20363891808E+04  0.50400000000E-02 0.  1.
         25    2    1    2    0    0  0.28603018762E+02 -0.87458061763E+02 -0.81867204929E+03  0.83325841577E+03  0.12501447079E+03 0.  0.
         23    2    1    2    0    0 -0.28603018762E+02  0.87458061763E+02 -0.12066803611E+04  0.12141675366E+04  0.98276486369E+02 0.  0.
        -11    1    4    4    0    0 -0.24748855393E+02  0.54149903759E+02 -0.25350422825E+03  0.26040182730E+03  0.51100000000E-03 0. -1.
         11    1    4    4    0    0 -0.38541633689E+01  0.33308158004E+02 -0.95317613283E+03  0.95376570926E+03  0.51100000000E-03 0.  1.
    9000005    1    3    3    0    0  0.36378253022E+01 -0.85844928144E+02 -0.25613079817E+03  0.27016026953E+03  0.10000000000E+01 0.  0.
    9000005    1    3    3    0    0  0.24965193460E+02 -0.16131336194E+01 -0.56254125112E+03  0.56309814624E+03  0.10000000000E+01 0.  0.
<mgrwt>
<rscale>  0 0.14980033E+03</rscale>
<asrwt>0</asrwt>
<pdfrwt beam="1">  1        1 0.16979664E-02 0.15522778E+03</pdfrwt>
<pdfrwt beam="2">  1       -1 0.31329034E+00 0.15522778E+03</pdfrwt>
<totfact> 0.24451676E+02</totfact>
</mgrwt>
</event>
<event>
 8    2  0.7478846E-004  0.1316448E+03  0.7818608E-02  0.1243443E+00
          1   -1    0    0  501    0  0.00000000000E+00  0.00000000000E+00  0.87087139746E+03  0.87087139748E+03  0.50400000000E-02 0. -1.
         -1   -1    0    0    0  501 -0.00000000000E+00 -0.00000000000E+00 -0.14367595006E+02  0.14367595890E+02  0.50400000000E-02 0.  1.
         25    2    1    2    0    0 -0.39520681884E+02  0.11938062518E+02  0.56212988416E+03  0.57733904434E+03  0.12500385524E+03 0.  0.
         23    2    1    2    0    0  0.39520681884E+02 -0.11938062518E+02  0.29437391830E+03  0.30789994902E+03  0.80261903803E+02 0.  0.
        -11    1    4    4    0    0  0.46361526674E+02 -0.84044196768E+01  0.76202242515E+02  0.89592450521E+02  0.51100000000E-03 0.  1.
         11    1    4    4    0    0 -0.68408447895E+01 -0.35336428413E+01  0.21817167578E+03  0.21830749850E+03  0.51100000000E-03 0. -1.
    9000005    1    3    3    0    0 -0.21899433555E+02 -0.43762737484E+02  0.43112239979E+03  0.43389202111E+03  0.10000000000E+01 0.  0.
    9000005    1    3    3    0    0 -0.17621248329E+02  0.55700800003E+02  0.13100748437E+03  0.14344702324E+03  0.10000000000E+01 0.  0.
<mgrwt>
<rscale>  0 0.11979079E+03</rscale>
<asrwt>0</asrwt>
<pdfrwt beam="1">  1        1 0.13398022E+00 0.13164485E+03</pdfrwt>
<pdfrwt beam="2">  1       -1 0.22103992E-02 0.13164485E+03</pdfrwt>
<totfact> 0.11424043E+04</totfact>
</mgrwt>
</event>
<event>
 8    2  0.7478846E-004  0.1391102E+03  0.7818608E-02  0.1225967E+00
         -1   -1    0    0    0  501 -0.00000000000E+00  0.00000000000E+00  0.18044790522E+02  0.18044791225E+02  0.50400000000E-02 0.  1.
          1   -1    0    0  501    0  0.00000000000E+00 -0.00000000000E+00 -0.92358576634E+03  0.92358576635E+03  0.50400000000E-02 0. -1.
         25    2    1    2    0    0 -0.28180750570E+02  0.54181780735E+02 -0.62958766635E+03  0.64477304371E+03  0.12498731222E+03 0.  0.
         23    2    1    2    0    0  0.28180750570E+02 -0.54181780735E+02 -0.27595330947E+03  0.29685751386E+03  0.90798317521E+02 0.  0.
        -11    1    4    4    0    0 -0.20468677744E+02 -0.17808508550E+02 -0.18811623816E+03  0.19006269704E+03  0.51100000000E-03 0. -1.
         11    1    4    4    0    0  0.48649428314E+02 -0.36373272185E+02 -0.87837071308E+02  0.10679481683E+03  0.51100000000E-03 0.  1.
    9000005    1    3    3    0    0 -0.32027915941E+02  0.93727620627E+02 -0.46820177165E+03  0.47856509823E+03  0.10000000000E+01 0.  0.
    9000005    1    3    3    0    0  0.38471653715E+01 -0.39545839892E+02 -0.16138589470E+03  0.16620794548E+03  0.10000000000E+01 0.  0.
<mgrwt>
<rscale>  0 0.13100861E+03</rscale>
<asrwt>0</asrwt>
<pdfrwt beam="2">  1        1 0.14209008E+00 0.13911020E+03</pdfrwt>
<pdfrwt beam="1">  1       -1 0.27761224E-02 0.13911020E+03</pdfrwt>
<totfact> 0.75026387E+03</totfact>
</mgrwt>
</event>
<event>
 8    2  0.7478846E-004  0.1468541E+03  0.7818608E-02  0.1213962E+00
         -1   -1    0    0    0  501 -0.00000000000E+00  0.00000000000E+00  0.25132929269E+03  0.25132929274E+03  0.50400000000E-02 0.  1.
          1   -1    0    0  501    0  0.00000000000E+00 -0.00000000000E+00 -0.74570929422E+02  0.74570929592E+02  0.50400000000E-02 0. -1.
         25    2    1    2    0    0  0.74973092652E+02  0.17905305975E+02  0.13402769581E+03  0.19882042090E+03  0.12499828766E+03 0.  0.
         23    2    1    2    0    0 -0.74973092652E+02 -0.17905305975E+02  0.42730667454E+02  0.12707980143E+03  0.91552178495E+02 0.  0.
        -11    1    4    4    0    0  0.54064074632E+01  0.23878920117E+02 -0.45344759238E+01  0.24899669471E+02  0.51100000000E-03 0. -1.
         11    1    4    4    0    0 -0.80379500116E+02 -0.41784226092E+02  0.47265143377E+02  0.10218013196E+03  0.51100000000E-03 0.  1.
    9000005    1    3    3    0    0  0.97652893948E+01  0.48061784130E+02  0.11419194469E+03  0.12428232457E+03  0.10000000000E+01 0.  0.
    9000005    1    3    3    0    0  0.65207803258E+02 -0.30156478155E+02  0.19835751125E+02  0.74538096320E+02  0.10000000000E+01 0.  0.
<mgrwt>
<rscale>  0 0.13953086E+03</rscale>
<asrwt>0</asrwt>
<pdfrwt beam="2">  1        1 0.11472451E-01 0.14685413E+03</pdfrwt>
<pdfrwt beam="1">  1       -1 0.38666045E-01 0.14685413E+03</pdfrwt>
<totfact> 0.33779509E+03</totfact>
</mgrwt>
</event>
<event>
 8    2  0.7478846E-004  0.1474900E+03  0.7818608E-02  0.1210716E+00
          1   -1    0    0  501    0  0.00000000000E+00  0.00000000000E+00  0.41083455861E+03  0.41083455864E+03  0.50400000000E-02 0. -1.
         -1   -1    0    0    0  501 -0.00000000000E+00 -0.00000000000E+00 -0.64542867157E+02  0.64542867354E+02  0.50400000000E-02 0.  1.
         25    2    1    2    0    0  0.46148349920E+02 -0.63236028919E+02  0.31062979427E+03  0.34386648849E+03  0.12499930905E+03 0.  0.
         23    2    1    2    0    0 -0.46148349920E+02  0.63236028919E+02  0.35661897178E+02  0.13151093750E+03  0.99473062778E+02 0.  0.
        -11    1    4    4    0    0 -0.31857009324E+02  0.34374821969E+02 -0.31881245844E+02  0.56682548155E+02  0.51100000000E-03 0.  1.
         11    1    4    4    0    0 -0.14291340596E+02  0.28861206950E+02  0.67543143023E+02  0.74828389347E+02  0.51100000000E-03 0. -1.
    9000005    1    3    3    0    0 -0.28686741568E+02 -0.45674392308E+01  0.13798888371E+02  0.32174523511E+02  0.10000000000E+01 0.  0.
    9000005    1    3    3    0    0  0.74835091488E+02 -0.58668589688E+02  0.29683090590E+03  0.31169196498E+03  0.10000000000E+01 0.  0.
<mgrwt>
<rscale>  0 0.14196002E+03</rscale>
<asrwt>0</asrwt>
<pdfrwt beam="1">  1        1 0.63205316E-01 0.14748998E+03</pdfrwt>
<pdfrwt beam="2">  1       -1 0.99296720E-02 0.14748998E+03</pdfrwt>
<totfact> 0.35071446E+03</totfact>
</mgrwt>
</event>
<event>
 8    2  0.7478846E-004  0.1558625E+03  0.7818608E-02  0.1201475E+00
          1   -1    0    0  501    0  0.00000000000E+00  0.00000000000E+00  0.18088065403E+04  0.18088065403E+04  0.50400000000E-02 0.  1.
         -1   -1    0    0    0  501 -0.00000000000E+00 -0.00000000000E+00 -0.15671886862E+02  0.15671887672E+02  0.50400000000E-02 0. -1.
         25    2    1    2    0    0  0.91070692229E+02  0.19357892382E+02  0.47613875021E+03  0.50100023627E+03  0.12499811321E+03 0.  0.
         23    2    1    2    0    0 -0.91070692229E+02 -0.19357892382E+02  0.13169959032E+04  0.13234781917E+04  0.91911456513E+02 0.  0.
        -11    1    4    4    0    0 -0.80010185748E+01 -0.24898386324E+02  0.91678450789E+02  0.95335640130E+02  0.51100000000E-03 0. -1.
         11    1    4    4    0    0 -0.83069673655E+02  0.55404939423E+01  0.12253174524E+04  0.12281425515E+04  0.51100000000E-03 0.  1.
    9000005    1    3    3    0    0  0.47849371721E+02  0.33662863223E+02  0.43715882248E+03  0.44105735092E+03  0.10000000000E+01 0.  0.
    9000005    1    3    3    0    0  0.43221320509E+02 -0.14304970841E+02  0.38979927736E+02  0.59942885346E+02  0.10000000000E+01 0.  0.
<mgrwt>
<rscale>  0 0.14918755E+03</rscale>
<asrwt>0</asrwt>
<pdfrwt beam="1">  1        1 0.27827796E+00 0.15586253E+03</pdfrwt>
<pdfrwt beam="2">  1       -1 0.24110593E-02 0.15586253E+03</pdfrwt>
<totfact> 0.23381773E+03</totfact>
</mgrwt>
</event>
<event>
 8    2  0.7478846E-004  0.1278141E+03  0.7818608E-02  0.1246082E+00
         -1   -1    0    0    0  501 -0.00000000000E+00  0.00000000000E+00  0.18448426597E+03  0.18448426604E+03  0.50400000000E-02 0.  1.
          1   -1    0    0  501    0  0.00000000000E+00 -0.00000000000E+00 -0.68499822121E+02  0.68499822307E+02  0.50400000000E-02 0. -1.
         25    2    1    2    0    0  0.25552988981E+02 -0.77192862963E+01  0.44714522574E+02  0.13540987432E+03  0.12499561155E+03 0.  0.
         23    2    1    2    0    0 -0.25552988981E+02  0.77192862963E+01  0.71269921278E+02  0.11757421403E+03  0.89620039610E+02 0.  0.
        -11    1    4    4    0    0 -0.50570864285E+02 -0.20760666364E+02  0.50122920848E+02  0.74166871155E+02  0.51100000000E-03 0.  1.
         11    1    4    4    0    0  0.25017875304E+02  0.28479952660E+02  0.21147000430E+02  0.43407342878E+02  0.51100000000E-03 0. -1.
    9000005    1    3    3    0    0 -0.21715690374E+01 -0.25687125928E+02  0.81777029791E+02  0.85749791557E+02  0.10000000000E+01 0.  0.
    9000005    1    3    3    0    0  0.27724558018E+02  0.17967839632E+02 -0.37062507218E+02  0.49660082759E+02  0.10000000000E+01 0.  0.
<mgrwt>
<rscale>  0 0.11820877E+03</rscale>
<asrwt>0</asrwt>
<pdfrwt beam="2">  1        1 0.10538434E-01 0.12781411E+03</pdfrwt>
<pdfrwt beam="1">  1       -1 0.28382195E-01 0.12781411E+03</pdfrwt>
<totfact> 0.63429519E+03</totfact>
</mgrwt>
</event>
<event>
 8    2  0.7478846E-004  0.1281538E+03  0.7818608E-02  0.1244372E+00
          1   -1    0    0  501    0  0.00000000000E+00  0.00000000000E+00  0.17692918286E+03  0.17692918293E+03  0.50400000000E-02 0. -1.
         -1   -1    0    0    0  501 -0.00000000000E+00 -0.00000000000E+00 -0.75127342970E+02  0.75127343140E+02  0.50400000000E-02 0.  1.
         25    2    1    2    0    0  0.25337189950E+02 -0.12413224539E+02  0.87023443493E+02  0.15490798120E+03  0.12500936599E+03 0.  0.
         23    2    1    2    0    0 -0.25337189950E+02  0.12413224539E+02  0.14778396398E+02  0.97148544873E+02  0.91778959641E+02 0.  0.
        -11    1    4    4    0    0  0.13419894740E+01  0.41820394670E+02 -0.18107853840E+02  0.45592112444E+02  0.51100000000E-03 0.  1.
         11    1    4    4    0    0 -0.26679179424E+02 -0.29407170131E+02  0.32886250238E+02  0.51556432429E+02  0.51100000000E-03 0. -1.
    9000005    1    3    3    0    0  0.44664433470E+02  0.24268710277E+01 -0.17151578874E+02  0.47916364408E+02  0.10000000000E+01 0.  0.
    9000005    1    3    3    0    0 -0.19327243520E+02 -0.14840095567E+02  0.10417502237E+03  0.10699161679E+03  0.10000000000E+01 0.  0.
<mgrwt>
<rscale>  0 0.11923033E+03</rscale>
<asrwt>0</asrwt>
<pdfrwt beam="1">  1        1 0.27219874E-01 0.12815383E+03</pdfrwt>
<pdfrwt beam="2">  1       -1 0.11558053E-01 0.12815383E+03</pdfrwt>
<totfact> 0.78564838E+03</totfact>
</mgrwt>
</event>
<event>
 8    2  0.7478846E-004  0.1316050E+03  0.7818608E-02  0.1237830E+00
          1   -1    0    0  501    0  0.00000000000E+00  0.00000000000E+00  0.38400263576E+03  0.38400263580E+03  0.50400000000E-02 0. -1.
         -1   -1    0    0    0  501 -0.00000000000E+00 -0.00000000000E+00 -0.35747123389E+02  0.35747123744E+02  0.50400000000E-02 0.  1.
         25    2    1    2    0    0  0.31495878277E+02  0.26502515569E+02  0.21994561976E+03  0.25631219482E+03  0.12500196751E+03 0.  0.
         23    2    1    2    0    0 -0.31495878277E+02 -0.26502515569E+02  0.12830989261E+03  0.16343756472E+03  0.92488028088E+02 0.  0.
        -11    1    4    4    0    0 -0.39662429019E+02 -0.23745991312E+02  0.14083811322E+03  0.14823074753E+03  0.51100000000E-03 0. -1.
         11    1    4    4    0    0  0.81665507421E+01 -0.27565242570E+01 -0.12528220609E+02  0.15206817185E+02  0.51100000000E-03 0.  1.
    9000005    1    3    3    0    0 -0.37869568371E+02  0.15053842594E+02  0.22154263711E+02  0.46395406950E+02  0.10000000000E+01 0.  0.
    9000005    1    3    3    0    0  0.69365446647E+02  0.11448672975E+02  0.19779135605E+03  0.20991678787E+03  0.10000000000E+01 0.  0.
<mgrwt>
<rscale>  0 0.12324981E+03</rscale>
<asrwt>0</asrwt>
<pdfrwt beam="1">  1        1 0.59077332E-01 0.13160496E+03</pdfrwt>
<pdfrwt beam="2">  1       -1 0.54995572E-02 0.13160496E+03</pdfrwt>
<totfact> 0.92303268E+03</totfact>
</mgrwt>
</event>
<event>
 8    2  0.7478846E-004  0.1389699E+03  0.7818608E-02  0.1226689E+00
          1   -1    0    0  501    0  0.00000000000E+00  0.00000000000E+00  0.10330759414E+04  0.10330759414E+04  0.50400000000E-02 0. -1.
         -1   -1    0    0    0  501 -0.00000000000E+00 -0.00000000000E+00 -0.14895630823E+02  0.14895631675E+02  0.50400000000E-02 0.  1.
         25    2    1    2    0    0 -0.40051951138E+02 -0.45673393751E+02  0.61888052197E+03  0.63429151265E+03  0.12498961898E+03 0.  0.
         23    2    1    2    0    0  0.40051951138E+02  0.45673393751E+02  0.39929978861E+03  0.41368006045E+03  0.89446372424E+02 0.  0.
        -11    1    4    4    0    0 -0.28116332640E+02  0.22851730567E+02  0.13582170319E+03  0.14057120903E+03  0.51100000000E-03 0. -1.
         11    1    4    4    0    0  0.68168283778E+02  0.22821663184E+02  0.26347808542E+03  0.27310885142E+03  0.51100000000E-03 0.  1.
    9000005    1    3    3    0    0  0.39470393378E+02 -0.22701065915E+02  0.11559328841E+03  0.12424193604E+03  0.10000000000E+01 0.  0.
    9000005    1    3    3    0    0 -0.79522344516E+02 -0.22972327836E+02  0.50328723357E+03  0.51004957661E+03  0.10000000000E+01 0.  0.
<mgrwt>
<rscale>  0 0.13051828E+03</rscale>
<asrwt>0</asrwt>
<pdfrwt beam="1">  1        1 0.15893468E+00 0.13896986E+03</pdfrwt>
<pdfrwt beam="2">  1       -1 0.22916367E-02 0.13896986E+03</pdfrwt>
<totfact> 0.82224043E+03</totfact>
</mgrwt>
</event>
<event>
 8    2  0.7478846E-004  0.1256249E+03  0.7818608E-02  0.1249361E+00
         -1   -1    0    0    0  501 -0.00000000000E+00  0.00000000000E+00  0.14406787433E+03  0.14406787441E+03  0.50400000000E-02 0.  1.
          1   -1    0    0  501    0  0.00000000000E+00 -0.00000000000E+00 -0.11335801221E+03  0.11335801232E+03  0.50400000000E-02 0. -1.
         25    2    1    2    0    0 -0.12668297433E+01 -0.12480681473E+02  0.83808423335E+02  0.15101483251E+03  0.12499702216E+03 0.  0.
         23    2    1    2    0    0  0.12668297433E+01  0.12480681473E+02 -0.53098561218E+02  0.10641105422E+03  0.91359088162E+02 0.  0.
        -11    1    4    4    0    0  0.18029820987E+02 -0.24279201579E+02  0.96822345028E+01  0.31753735834E+02  0.51100000000E-03 0.  1.
         11    1    4    4    0    0 -0.16762991244E+02  0.36759883053E+02 -0.62780795721E+02  0.74657318389E+02  0.51100000000E-03 0. -1.
    9000005    1    3    3    0    0 -0.35452074645E+02 -0.46695377960E+02  0.54020717820E+01  0.58885399710E+02  0.10000000000E+01 0.  0.
    9000005    1    3    3    0    0  0.34185244902E+02  0.34214696487E+02  0.78406351553E+02  0.92129432803E+02  0.10000000000E+01 0.  0.
<mgrwt>
<rscale>  0 0.11628104E+03</rscale>
<asrwt>0</asrwt>
<pdfrwt beam="2">  1        1 0.17439694E-01 0.12562495E+03</pdfrwt>
<pdfrwt beam="1">  1       -1 0.22164288E-01 0.12562495E+03</pdfrwt>
<totfact> 0.49391541E+03</totfact>
</mgrwt>
</event>
<event>
 8    2  0.7478846E-004  0.1482634E+03  0.7818608E-02  0.1211853E+00
          1   -1    0    0  501    0  0.00000000000E+00  0.00000000000E+00  0.25422814842E+02  0.25422815341E+02  0.50400000000E-02 0. -1.
         -1   -1    0    0    0  501 -0.00000000000E+00 -0.00000000000E+00 -0.72615548533E+03  0.72615548535E+03  0.50400000000E-02 0.  1.
         25    2    1    2    0    0  0.75317930653E+01  0.79331799531E+02 -0.42802582646E+03  0.45297697883E+03  0.12502708869E+03 0.  0.
         23    2    1    2    0    0 -0.75317930653E+01 -0.79331799531E+02 -0.27270684403E+03  0.29860132186E+03  0.91888325231E+02 0.  0.
        -11    1    4    4    0    0 -0.22897512887E+02 -0.93022050984E+02 -0.25113900982E+03  0.26879025339E+03  0.51100000000E-03 0.  1.
         11    1    4    4    0    0  0.15365719822E+02  0.13690251453E+02 -0.21567834209E+02  0.29811068469E+02  0.51100000000E-03 0. -1.
    9000005    1    3    3    0    0  0.43810788135E+01 -0.11300513334E+02 -0.27373833094E+03  0.27400833797E+03  0.10000000000E+01 0.  0.
    9000005    1    3    3    0    0  0.31507142519E+01  0.90632312865E+02 -0.15428749553E+03  0.17896864086E+03  0.10000000000E+01 0.  0.
<mgrwt>
<rscale>  0 0.14110265E+03</rscale>
<asrwt>0</asrwt>
<pdfrwt beam="1">  1        1 0.39112029E-02 0.14826340E+03</pdfrwt>
<pdfrwt beam="2">  1       -1 0.11171621E+00 0.14826340E+03</pdfrwt>
<totfact> 0.17933536E+03</totfact>
</mgrwt>
</event>
<event>
 8    2  0.7478846E-004  0.1478536E+03  0.7818608E-02  0.1213320E+00
          1   -1    0    0  501    0  0.00000000000E+00  0.00000000000E+00  0.87397603373E+03  0.87397603374E+03  0.50400000000E-02 0. -1.
         -1   -1    0    0    0  501 -0.00000000000E+00 -0.00000000000E+00 -0.20647647089E+02  0.20647647704E+02  0.50400000000E-02 0.  1.
         25    2    1    2    0    0 -0.73087387204E+02 -0.29879263802E+02  0.52565457358E+03  0.54605257389E+03  0.12500458450E+03 0.  0.
         23    2    1    2    0    0  0.73087387204E+02  0.29879263802E+02  0.32767381306E+03  0.34857110756E+03  0.88865925351E+02 0.  0.
        -11    1    4    4    0    0  0.54506408485E+02  0.26316623115E+02  0.32360795345E+03  0.32921971501E+03  0.51100000000E-03 0. -1.
         11    1    4    4    0    0  0.18580978719E+02  0.35626406876E+01  0.40658596071E+01  0.19351392545E+02  0.51100000000E-03 0.  1.
    9000005    1    3    3    0    0 -0.83654688242E+02 -0.18311448147E+02  0.52319909006E+03  0.53016196000E+03  0.10000000000E+01 0.  0.
    9000005    1    3    3    0    0  0.10567301038E+02 -0.11567815655E+02  0.24554835256E+01  0.15890613884E+02  0.10000000000E+01 0.  0.
<mgrwt>
<rscale>  0 0.14000649E+03</rscale>
<asrwt>0</asrwt>
<pdfrwt beam="1">  1        1 0.13445780E+00 0.14785359E+03</pdfrwt>
<pdfrwt beam="2">  1       -1 0.31765622E-02 0.14785359E+03</pdfrwt>
<totfact> 0.67523248E+03</totfact>
</mgrwt>
</event>
<event>
 8    2  0.7478846E-004  0.1302743E+03  0.7818608E-02  0.1239896E+00
         -1   -1    0    0    0  501 -0.00000000000E+00  0.00000000000E+00  0.43141899349E+03  0.43141899352E+03  0.50400000000E-02 0.  1.
          1   -1    0    0  501    0  0.00000000000E+00 -0.00000000000E+00 -0.32066206438E+02  0.32066206835E+02  0.50400000000E-02 0. -1.
         25    2    1    2    0    0  0.30572234234E+02 -0.20308982769E+02  0.27139666786E+03  0.30104408867E+03  0.12499710281E+03 0.  0.
         23    2    1    2    0    0 -0.30572234234E+02  0.20308982769E+02  0.12795611919E+03  0.16244111168E+03  0.93097959372E+02 0.  0.
        -11    1    4    4    0    0 -0.46507791182E+02  0.14391019968E+01  0.18236803197E+02  0.49976260828E+02  0.51100000000E-03 0.  1.
         11    1    4    4    0    0  0.15935556948E+02  0.18869880772E+02  0.10971931599E+03  0.11246485085E+03  0.51100000000E-03 0. -1.
    9000005    1    3    3    0    0  0.46899813790E+02  0.38121884106E+01  0.25699807781E+02  0.53624671877E+02  0.10000000000E+01 0.  0.
    9000005    1    3    3    0    0 -0.16327579556E+02 -0.24121171179E+02  0.24569686008E+03  0.24741941679E+03  0.10000000000E+01 0.  0.
<mgrwt>
<rscale>  0 0.12196125E+03</rscale>
<asrwt>0</asrwt>
<pdfrwt beam="2">  1        1 0.49332626E-02 0.13027430E+03</pdfrwt>
<pdfrwt beam="1">  1       -1 0.66372152E-01 0.13027430E+03</pdfrwt>
<totfact> 0.38686401E+03</totfact>
</mgrwt>
</event>
<event>
 8    2  0.7478846E-004  0.2014930E+03  0.7818608E-02  0.1152759E+00
         -1   -1    0    0    0  501 -0.00000000000E+00  0.00000000000E+00  0.23673443112E+03  0.23673443117E+03  0.50400000000E-02 0.  1.
          1   -1    0    0  501    0  0.00000000000E+00 -0.00000000000E+00 -0.17668126163E+03  0.17668126170E+03  0.50400000000E-02 0. -1.
         25    2    1    2    0    0  0.34342059615E+01  0.15798947195E+03  0.10302803072E+03  0.22630554086E+03  0.12500782252E+03 0.  0.
         23    2    1    2    0    0 -0.34342059615E+01 -0.15798947195E+03 -0.42974861227E+02  0.18711015202E+03  0.90503609172E+02 0.  0.
        -11    1    4    4    0    0 -0.36624923080E+02 -0.29896223943E+02  0.20889522499E+01  0.47323703558E+02  0.51100000000E-03 0.  1.
         11    1    4    4    0    0  0.33190717119E+02 -0.12809324801E+03 -0.45063813477E+02  0.13978644846E+03  0.51100000000E-03 0. -1.
    9000005    1    3    3    0    0 -0.60090932499E+02  0.89059826589E+02  0.61260602772E+02  0.12367875457E+03  0.10000000000E+01 0.  0.
    9000005    1    3    3    0    0  0.63525138460E+02  0.68929645360E+02  0.41767427947E+02  0.10262678628E+03  0.10000000000E+01 0.  0.
<mgrwt>
<rscale>  0 0.19646142E+03</rscale>
<asrwt>0</asrwt>
<pdfrwt beam="2">  1        1 0.27181733E-01 0.20149298E+03</pdfrwt>
<pdfrwt beam="1">  1       -1 0.36420682E-01 0.20149298E+03</pdfrwt>
<totfact> 0.12461588E+03</totfact>
</mgrwt>
</event>
<event>
 8    2  0.7478846E-004  0.3532221E+03  0.7818608E-02  0.1062463E+00
          1   -1    0    0  501    0  0.00000000000E+00  0.00000000000E+00  0.76280878429E+03  0.76280878431E+03  0.50400000000E-02 0. -1.
         -1   -1    0    0    0  501 -0.00000000000E+00 -0.00000000000E+00 -0.19486936888E+03  0.19486936895E+03  0.50400000000E-02 0.  1.
         25    2    1    2    0    0  0.90904597304E+02 -0.31760416867E+03  0.49487571369E+03  0.60800316972E+03  0.12501931301E+03 0.  0.
         23    2    1    2    0    0 -0.90904597304E+02  0.31760416867E+03  0.73063701723E+02  0.34967498353E+03  0.88307620463E+02 0.  0.
        -11    1    4    4    0    0 -0.88017864538E+02  0.22689549888E+03  0.19167541564E+02  0.24412313807E+03  0.51100000000E-03 0.  1.
         11    1    4    4    0    0 -0.28867327661E+01  0.90708669791E+02  0.53896160159E+02  0.10555184547E+03  0.51100000000E-03 0. -1.
    9000005    1    3    3    0    0 -0.16862795280E+02 -0.14596998218E+03  0.16597719566E+03  0.22167773691E+03  0.10000000000E+01 0.  0.
    9000005    1    3    3    0    0  0.10776739258E+03 -0.17163418649E+03  0.32889851803E+03  0.38632543281E+03  0.10000000000E+01 0.  0.
<mgrwt>
<rscale>  0 0.35037142E+03</rscale>
<asrwt>0</asrwt>
<pdfrwt beam="1">  1        1 0.11735520E+00 0.35322214E+03</pdfrwt>
<pdfrwt beam="2">  1       -1 0.29979903E-01 0.35322214E+03</pdfrwt>
<totfact> 0.25349059E+02</totfact>
</mgrwt>
</event>
<event>
 8    2  0.7478846E-004  0.1548765E+03  0.7818608E-02  0.1203193E+00
         -1   -1    0    0    0  501 -0.00000000000E+00  0.00000000000E+00  0.59527597172E+02  0.59527597385E+02  0.50400000000E-02 0.  1.
          1   -1    0    0  501    0  0.00000000000E+00 -0.00000000000E+00 -0.36131773166E+03  0.36131773169E+03  0.50400000000E-02 0. -1.
         25    2    1    2    0    0  0.29800589675E+02 -0.86448794408E+02 -0.10986741851E+03  0.18988833268E+03  0.12500104014E+03 0.  0.
         23    2    1    2    0    0 -0.29800589675E+02  0.86448794408E+02 -0.19192271597E+03  0.23095699640E+03  0.90251515666E+02 0.  0.
        -11    1    4    4    0    0 -0.60869852523E+02  0.44926911904E+02 -0.99714699519E+02  0.12516624010E+03  0.51100000000E-03 0.  1.
         11    1    4    4    0    0  0.31069262848E+02  0.41521882504E+02 -0.92208016453E+02  0.10579075630E+03  0.51100000000E-03 0. -1.
    9000005    1    3    3    0    0  0.25374483790E+02 -0.97332233056E+02 -0.24262465164E+02  0.10347509476E+03  0.10000000000E+01 0.  0.
    9000005    1    3    3    0    0  0.44261058850E+01  0.10883438648E+02 -0.85604953350E+02  0.86413237922E+02  0.10000000000E+01 0.  0.
<mgrwt>
<rscale>  0 0.14780769E+03</rscale>
<asrwt>0</asrwt>
<pdfrwt beam="2">  1        1 0.55587342E-01 0.15487650E+03</pdfrwt>
<pdfrwt beam="1">  1       -1 0.91580921E-02 0.15487650E+03</pdfrwt>
<totfact> 0.46766125E+03</totfact>
</mgrwt>
</event>
<event>
 8    2  0.7478846E-004  0.1250652E+03  0.7818608E-02  0.1246460E+00
         -1   -1    0    0    0  501 -0.00000000000E+00  0.00000000000E+00  0.78100048709E+01  0.78100064971E+01  0.50400000000E-02 0.  1.
          1   -1    0    0  501    0  0.00000000000E+00 -0.00000000000E+00 -0.16229293747E+04  0.16229293747E+04  0.50400000000E-02 0. -1.
         25    2    1    2    0    0  0.19297824843E+01  0.36069194211E+01 -0.82249210226E+03  0.83194624232E+03  0.12499823162E+03 0.  0.
         23    2    1    2    0    0 -0.19297824843E+01 -0.36069194211E+01 -0.79262726754E+03  0.79879313885E+03  0.98973529301E+02 0.  0.
        -11    1    4    4    0    0 -0.32202233913E+02  0.29397357601E+02 -0.57239847980E+03  0.57405679874E+03  0.51100000000E-03 0. -1.
         11    1    4    4    0    0  0.30272451429E+02 -0.33004277022E+02 -0.22022878774E+03  0.22473634011E+03  0.51100000000E-03 0.  1.
    9000005    1    3    3    0    0 -0.19583197858E+02  0.49471357865E+02 -0.64976835112E+03  0.65194388333E+03  0.10000000000E+01 0.  0.
    9000005    1    3    3    0    0  0.21512980343E+02 -0.45864438444E+02 -0.17272375114E+03  0.18000235899E+03  0.10000000000E+01 0.  0.
<mgrwt>
<rscale>  0 0.11798442E+03</rscale>
<asrwt>0</asrwt>
<pdfrwt beam="2">  1        1 0.24968117E+00 0.12506515E+03</pdfrwt>
<pdfrwt beam="1">  1       -1 0.12015406E-02 0.12506515E+03</pdfrwt>
<totfact> 0.83320064E+03</totfact>
</mgrwt>
</event>
<event>
 8    2  0.7478846E-004  0.1263228E+03  0.7818608E-02  0.1247336E+00
          1   -1    0    0  501    0  0.00000000000E+00  0.00000000000E+00  0.11068944503E+04  0.11068944503E+04  0.50400000000E-02 0. -1.
         -1   -1    0    0    0  501 -0.00000000000E+00 -0.00000000000E+00 -0.11121342678E+02  0.11121343820E+02  0.50400000000E-02 0.  1.
         25    2    1    2    0    0  0.17597035389E+02  0.47100484604E+01  0.57048559623E+03  0.58430407924E+03  0.12500240518E+03 0.  0.
         23    2    1    2    0    0 -0.17597035389E+02 -0.47100484604E+01  0.52528751139E+03  0.53371171489E+03  0.92678933831E+02 0.  0.
        -11    1    4    4    0    0  0.17424686394E+02  0.25587844107E+02  0.37916740260E+03  0.38042906915E+03  0.51100000000E-03 0. -1.
         11    1    4    4    0    0 -0.35021721784E+02 -0.30297892567E+02  0.14612010880E+03  0.15328264574E+03  0.51100000000E-03 0.  1.
    9000005    1    3    3    0    0  0.14964536350E+02  0.31096770948E+02  0.38719447653E+02  0.51876219389E+02  0.10000000000E+01 0.  0.
    9000005    1    3    3    0    0  0.26324990394E+01 -0.26386722488E+02  0.53176614857E+03  0.53242785985E+03  0.10000000000E+01 0.  0.
<mgrwt>
<rscale>  0 0.11746657E+03</rscale>
<asrwt>0</asrwt>
<pdfrwt beam="1">  1        1 0.17029156E+00 0.12632277E+03</pdfrwt>
<pdfrwt beam="2">  1       -1 0.17109748E-02 0.12632277E+03</pdfrwt>
<totfact> 0.11043010E+04</totfact>
</mgrwt>
</event>
<event>
 8    2  0.7478846E-004  0.1613108E+03  0.7818608E-02  0.1194468E+00
         -1   -1    0    0    0  501 -0.00000000000E+00  0.00000000000E+00  0.31670709268E+02  0.31670709670E+02  0.50400000000E-02 0.  1.
          1   -1    0    0  501    0  0.00000000000E+00 -0.00000000000E+00 -0.10829412793E+04  0.10829412793E+04  0.50400000000E-02 0. -1.
         25    2    1    2    0    0  0.71443224430E+02  0.72742266468E+02 -0.88156631137E+03  0.89620328109E+03  0.12500235216E+03 0.  0.
         23    2    1    2    0    0 -0.71443224430E+02 -0.72742266468E+02 -0.16970425862E+03  0.21840870785E+03  0.92234790742E+02 0.  0.
        -11    1    4    4    0    0  0.14808661767E+02 -0.39474236258E+02 -0.33768609963E+02  0.54016949290E+02  0.51100000000E-03 0.  1.
         11    1    4    4    0    0 -0.86251886196E+02 -0.33268030209E+02 -0.13593564866E+03  0.16439175856E+03  0.51100000000E-03 0. -1.
    9000005    1    3    3    0    0  0.46798320247E+02  0.63710882510E+02 -0.85568063084E+03  0.85932502659E+03  0.10000000000E+01 0.  0.
    9000005    1    3    3    0    0  0.24644904183E+02  0.90313839573E+01 -0.25885680523E+02  0.36878254494E+02  0.10000000000E+01 0.  0.
<mgrwt>
<rscale>  0 0.15499345E+03</rscale>
<asrwt>0</asrwt>
<pdfrwt beam="2">  1        1 0.16660632E+00 0.16131076E+03</pdfrwt>
<pdfrwt beam="1">  1       -1 0.48724177E-02 0.16131076E+03</pdfrwt>
<totfact> 0.25209867E+03</totfact>
</mgrwt>
</event>
<event>
 8    2  0.7478846E-004  0.1270664E+03  0.7818608E-02  0.1258497E+00
          1   -1    0    0  501    0  0.00000000000E+00  0.00000000000E+00  0.27426769874E+02  0.27426770337E+02  0.50400000000E-02 0. -1.
         -1   -1    0    0    0  501 -0.00000000000E+00 -0.00000000000E+00 -0.41248703197E+03  0.41248703200E+03  0.50400000000E-02 0.  1.
         25    2    1    2    0    0  0.17331132518E+02  0.14797402637E+02 -0.16910803781E+03  0.21152632696E+03  0.12500610892E+03 0.  0.
         23    2    1    2    0    0 -0.17331132518E+02 -0.14797402637E+02 -0.21595222429E+03  0.22838747538E+03  0.70754112629E+02 0.  0.
        -11    1    4    4    0    0  0.11867990705E+02  0.26839390975E+01 -0.27349087056E+01  0.12471265306E+02  0.51100000000E-03 0. -1.
         11    1    4    4    0    0 -0.29199123222E+02 -0.17481341735E+02 -0.21321731559E+03  0.21591621007E+03  0.51100000000E-03 0.  1.
    9000005    1    3    3    0    0 -0.27501361789E+02  0.49032183503E+02 -0.35502765809E+02  0.66497566116E+02  0.10000000000E+01 0.  0.
    9000005    1    3    3    0    0  0.44832494307E+02 -0.34234780866E+02 -0.13360527200E+03  0.14502876085E+03  0.10000000000E+01 0.  0.
<mgrwt>
<rscale>  0 0.11112688E+03</rscale>
<asrwt>0</asrwt>
<pdfrwt beam="1">  1        1 0.42195034E-02 0.12706635E+03</pdfrwt>
<pdfrwt beam="2">  1       -1 0.63459539E-01 0.12706635E+03</pdfrwt>
<totfact> 0.52164969E+03</totfact>
</mgrwt>
</event>
<event>
 8    2  0.7478846E-004  0.1549629E+03  0.7818608E-02  0.1203169E+00
          1   -1    0    0  501    0  0.00000000000E+00  0.00000000000E+00  0.48951356147E+03  0.48951356150E+03  0.50400000000E-02 0. -1.
         -1   -1    0    0    0  501 -0.00000000000E+00 -0.00000000000E+00 -0.40991916827E+02  0.40991917137E+02  0.50400000000E-02 0.  1.
         25    2    1    2    0    0 -0.89529606460E+02 -0.19350407917E+02  0.24247100923E+03  0.28775978177E+03  0.12499405174E+03 0.  0.
         23    2    1    2    0    0  0.89529606460E+02  0.19350407917E+02  0.20605063541E+03  0.24274569686E+03  0.89881145239E+02 0.  0.
        -11    1    4    4    0    0  0.76318034508E+01  0.42383833637E+02  0.75578011227E+02  0.86986605630E+02  0.51100000000E-03 0.  1.
         11    1    4    4    0    0  0.81897803009E+02 -0.23033425719E+02  0.13047262419E+03  0.15575909123E+03  0.51100000000E-03 0. -1.
    9000005    1    3    3    0    0 -0.56705267234E+02  0.27753576152E+02  0.21504852008E+03  0.22412633560E+03  0.10000000000E+01 0.  0.
    9000005    1    3    3    0    0 -0.32824339226E+02 -0.47103984069E+02  0.27422489149E+02  0.63633446174E+02  0.10000000000E+01 0.  0.
<mgrwt>
<rscale>  0 0.14782671E+03</rscale>
<asrwt>0</asrwt>
<pdfrwt beam="1">  1        1 0.75309775E-01 0.15496290E+03</pdfrwt>
<pdfrwt beam="2">  1       -1 0.63064491E-02 0.15496290E+03</pdfrwt>
<totfact> 0.55764467E+03</totfact>
</mgrwt>
</event>
<event>
 8    2  0.7478846E-004  0.1491702E+03  0.7818608E-02  0.1211284E+00
         -1   -1    0    0    0  501 -0.00000000000E+00  0.00000000000E+00  0.46437954575E+02  0.46437954848E+02  0.50400000000E-02 0.  1.
          1   -1    0    0  501    0  0.00000000000E+00 -0.00000000000E+00 -0.46099524705E+03  0.46099524708E+03  0.50400000000E-02 0. -1.
         25    2    1    2    0    0 -0.66996173328E+02 -0.46249287169E+02 -0.32303858034E+03  0.35581689644E+03  0.12499702238E+03 0.  0.
         23    2    1    2    0    0  0.66996173328E+02  0.46249287169E+02 -0.91518712143E+02  0.15161630549E+03  0.89355165565E+02 0.  0.
        -11    1    4    4    0    0  0.23362232331E+02 -0.13166376846E+02  0.78014399705E+01  0.27928656333E+02  0.51100000000E-03 0.  1.
         11    1    4    4    0    0  0.43633940998E+02  0.59415664015E+02 -0.99320152113E+02  0.12368764915E+03  0.51100000000E-03 0. -1.
    9000005    1    3    3    0    0  0.25971330100E+02 -0.78667960074E+01 -0.13459863823E+02  0.30307827383E+02  0.10000000000E+01 0.  0.
    9000005    1    3    3    0    0 -0.92967503428E+02 -0.38382491162E+02 -0.30957871651E+03  0.32550906906E+03  0.10000000000E+01 0.  0.
<mgrwt>
<rscale>  0 0.14153034E+03</rscale>
<asrwt>0</asrwt>
<pdfrwt beam="2">  1        1 0.70922343E-01 0.14917017E+03</pdfrwt>
<pdfrwt beam="1">  1       -1 0.71443010E-02 0.14917017E+03</pdfrwt>
<totfact> 0.49887350E+03</totfact>
</mgrwt>
</event>
<event>
 8    2  0.7478846E-004  0.1432207E+03  0.7818608E-02  0.1218152E+00
          1   -1    0    0  501    0  0.00000000000E+00  0.00000000000E+00  0.12287833663E+03  0.12287833673E+03  0.50400000000E-02 0. -1.
         -1   -1    0    0    0  501 -0.00000000000E+00 -0.00000000000E+00 -0.15614703784E+03  0.15614703792E+03  0.50400000000E-02 0.  1.
         25    2    1    2    0    0  0.64638987092E+02  0.26625939957E+02  0.28091906812E+02  0.14594977229E+03  0.12500016588E+03 0.  0.
         23    2    1    2    0    0 -0.64638987092E+02 -0.26625939957E+02 -0.61360608026E+02  0.13307560236E+03  0.95167496532E+02 0.  0.
        -11    1    4    4    0    0 -0.49566018981E+01  0.25536285166E+02  0.85537215050E+01  0.27383131930E+02  0.51100000000E-03 0. -1.
         11    1    4    4    0    0 -0.59682385194E+02 -0.52162225123E+02 -0.69914329531E+02  0.10569247043E+03  0.51100000000E-03 0.  1.
    9000005    1    3    3    0    0  0.33852166841E+02  0.74088317705E+02 -0.27495238919E+01  0.81508330260E+02  0.10000000000E+01 0.  0.
    9000005    1    3    3    0    0  0.30786820251E+02 -0.47462377747E+02  0.30841430704E+02  0.64441442026E+02  0.10000000000E+01 0.  0.
<mgrwt>
<rscale>  0 0.13647491E+03</rscale>
<asrwt>0</asrwt>
<pdfrwt beam="1">  1        1 0.18904360E-01 0.14322074E+03</pdfrwt>
<pdfrwt beam="2">  1       -1 0.24022621E-01 0.14322074E+03</pdfrwt>
<totfact> 0.39387801E+03</totfact>
</mgrwt>
</event>
<event>
 8    2  0.7478846E-004  0.1588123E+03  0.7818608E-02  0.1198239E+00
          1   -1    0    0  501    0  0.00000000000E+00  0.00000000000E+00  0.11380791612E+03  0.11380791623E+03  0.50400000000E-02 0. -1.
         -1   -1    0    0    0  501 -0.00000000000E+00 -0.00000000000E+00 -0.18799122938E+03  0.18799122945E+03  0.50400000000E-02 0.  1.
         25    2    1    2    0    0  0.72060242358E+02 -0.66355339618E+02 -0.53094784169E+02  0.16745273320E+03  0.12500260847E+03 0.  0.
         23    2    1    2    0    0 -0.72060242358E+02  0.66355339618E+02 -0.21088529092E+02  0.13434641249E+03  0.89490350683E+02 0.  0.
        -11    1    4    4    0    0 -0.91389199272E+01  0.45401872828E+02  0.25905564174E+02  0.53065508281E+02  0.51100000000E-03 0. -1.
         11    1    4    4    0    0 -0.62921322431E+02  0.20953466790E+02 -0.46994093266E+02  0.81280904210E+02  0.51100000000E-03 0.  1.
    9000005    1    3    3    0    0 -0.13502152040E+01  0.34218496812E+02 -0.12862042078E+02  0.36594545107E+02  0.10000000000E+01 0.  0.
    9000005    1    3    3    0    0  0.73410457562E+02 -0.10057383643E+03 -0.40232742091E+02  0.13085818809E+03  0.10000000000E+01 0.  0.
<mgrwt>
<rscale>  0 0.15183271E+03</rscale>
<asrwt>0</asrwt>
<pdfrwt beam="1">  1        1 0.17508910E-01 0.15881235E+03</pdfrwt>
<pdfrwt beam="2">  1       -1 0.28921727E-01 0.15881235E+03</pdfrwt>
<totfact> 0.32125051E+03</totfact>
</mgrwt>
</event>
<event>
 8    2  0.7478846E-004  0.1452096E+03  0.7818608E-02  0.1217070E+00
         -1   -1    0    0    0  501 -0.00000000000E+00  0.00000000000E+00  0.16776969452E+02  0.16776970209E+02  0.50400000000E-02 0.  1.
          1   -1    0    0  501    0  0.00000000000E+00 -0.00000000000E+00 -0.10163641652E+04  0.10163641652E+04  0.50400000000E-02 0. -1.
         25    2    1    2    0    0  0.67540829896E+02  0.29976553958E+02 -0.54706605418E+03  0.56600980882E+03  0.12500191422E+03 0.  0.
         23    2    1    2    0    0 -0.67540829896E+02 -0.29976553958E+02 -0.45252114154E+03  0.46713132657E+03  0.89308091641E+02 0.  0.
        -11    1    4    4    0    0 -0.60040911015E+02  0.10624353017E+02 -0.36853825753E+03  0.37354816977E+03  0.51100000000E-03 0.  1.
         11    1    4    4    0    0 -0.74999188808E+01 -0.40600906976E+02 -0.83982884011E+02  0.93583156805E+02  0.51100000000E-03 0. -1.
    9000005    1    3    3    0    0 -0.10534101453E+02 -0.39377307385E+02 -0.15297928230E+03  0.15831993066E+03  0.10000000000E+01 0.  0.
    9000005    1    3    3    0    0  0.78074931349E+02  0.69353861344E+02 -0.39408677188E+03  0.40768987816E+03  0.10000000000E+01 0.  0.
<mgrwt>
<rscale>  0 0.13725605E+03</rscale>
<asrwt>0</asrwt>
<pdfrwt beam="2">  1        1 0.15636367E+00 0.14520963E+03</pdfrwt>
<pdfrwt beam="1">  1       -1 0.25810731E-02 0.14520963E+03</pdfrwt>
<totfact> 0.71309279E+03</totfact>
</mgrwt>
</event>
<event>
 8    2  0.7478846E-004  0.1269849E+03  0.7818608E-02  0.1247109E+00
         -1   -1    0    0    0  501 -0.00000000000E+00  0.00000000000E+00  0.26980547871E+02  0.26980548342E+02  0.50400000000E-02 0.  1.
          1   -1    0    0  501    0  0.00000000000E+00 -0.00000000000E+00 -0.45153103710E+03  0.45153103712E+03  0.50400000000E-02 0. -1.
         25    2    1    2    0    0  0.21842994125E+02 -0.48294664979E+01 -0.25797594689E+03  0.28753564426E+03  0.12499886962E+03 0.  0.
         23    2    1    2    0    0 -0.21842994125E+02  0.48294664979E+01 -0.16657454233E+03  0.19097594121E+03  0.90687881371E+02 0.  0.
        -11    1    4    4    0    0  0.12458060098E+02  0.22787240715E+02 -0.71774009596E+01  0.26943954528E+02  0.51100000000E-03 0.  1.
         11    1    4    4    0    0 -0.34301054223E+02 -0.17957774217E+02 -0.15939714137E+03  0.16403198668E+03  0.51100000000E-03 0. -1.
    9000005    1    3    3    0    0  0.61979225753E+02  0.18751636643E+02 -0.21364779526E+03  0.22324746073E+03  0.10000000000E+01 0.  0.
    9000005    1    3    3    0    0 -0.40136231628E+02 -0.23581103141E+02 -0.44328151631E+02  0.64288183530E+02  0.10000000000E+01 0.  0.
<mgrwt>
<rscale>  0 0.11760018E+03</rscale>
<asrwt>0</asrwt>
<pdfrwt beam="2">  1        1 0.69466308E-01 0.12698487E+03</pdfrwt>
<pdfrwt beam="1">  1       -1 0.41508539E-02 0.12698487E+03</pdfrwt>
<totfact> 0.11358026E+04</totfact>
</mgrwt>
</event>
<event>
 8    2  0.7478846E-004  0.1369870E+03  0.7818608E-02  0.1228872E+00
          1   -1    0    0  501    0  0.00000000000E+00  0.00000000000E+00  0.13716420531E+04  0.13716420531E+04  0.50400000000E-02 0. -1.
         -1   -1    0    0    0  501 -0.00000000000E+00 -0.00000000000E+00 -0.11404715552E+02  0.11404716666E+02  0.50400000000E-02 0.  1.
         25    2    1    2    0    0 -0.53704313091E+02 -0.15579369677E+02  0.89773565733E+03  0.90812705905E+03  0.12505428799E+03 0.  0.
         23    2    1    2    0    0  0.53704313091E+02  0.15579369677E+02  0.46250168020E+03  0.47491971070E+03  0.92271650143E+02 0.  0.
        -11    1    4    4    0    0  0.29822016401E+02  0.24550626444E+02  0.43749188160E+03  0.43919384375E+03  0.51100000000E-03 0. -1.
         11    1    4    4    0    0  0.23882296690E+02 -0.89712567673E+01  0.25009798600E+02  0.35725866951E+02  0.51100000000E-03 0.  1.
    9000005    1    3    3    0    0 -0.66834530323E+02  0.48554143919E+01  0.86372680277E+03  0.86632293016E+03  0.10000000000E+01 0.  0.
    9000005    1    3    3    0    0  0.13130217232E+02 -0.20434784069E+02  0.34008854558E+02  0.41804128897E+02  0.10000000000E+01 0.  0.
<mgrwt>
<rscale>  0 0.12905000E+03</rscale>
<asrwt>0</asrwt>
<pdfrwt beam="1">  1        1 0.21102196E+00 0.13698702E+03</pdfrwt>
<pdfrwt beam="2">  1       -1 0.17545708E-02 0.13698702E+03</pdfrwt>
<totfact> 0.70747153E+03</totfact>
</mgrwt>
</event>
<event>
 8    2  0.7478846E-004  0.2630987E+03  0.7818608E-02  0.1107559E+00
         -1   -1    0    0    0  501 -0.00000000000E+00  0.00000000000E+00  0.12030420053E+03  0.12030420064E+03  0.50400000000E-02 0.  1.
          1   -1    0    0  501    0  0.00000000000E+00 -0.00000000000E+00 -0.55995473755E+03  0.55995473758E+03  0.50400000000E-02 0. -1.
         25    2    1    2    0    0 -0.23030502172E+03 -0.23571984427E+02 -0.28447650248E+03  0.38748909644E+03  0.12499951167E+03 0.  0.
         23    2    1    2    0    0  0.23030502172E+03  0.23571984427E+02 -0.15517403454E+03  0.29276984177E+03  0.89661350516E+02 0.  0.
        -11    1    4    4    0    0  0.61554454562E+02  0.39843315296E+02 -0.76185070898E+02  0.10573838318E+03  0.51100000000E-03 0.  1.
         11    1    4    4    0    0  0.16875056716E+03 -0.16271330869E+02 -0.78988963642E+02  0.18703145859E+03  0.51100000000E-03 0. -1.
    9000005    1    3    3    0    0 -0.21849335691E+03  0.73456386380E+01 -0.27814322247E+03  0.35377670588E+03  0.10000000000E+01 0.  0.
    9000005    1    3    3    0    0 -0.11811664810E+02 -0.30917623065E+02 -0.63332800160E+01  0.33712390561E+02  0.10000000000E+01 0.  0.
<mgrwt>
<rscale>  0 0.25930901E+03</rscale>
<asrwt>0</asrwt>
<pdfrwt beam="2">  1        1 0.86146881E-01 0.26309869E+03</pdfrwt>
<pdfrwt beam="1">  1       -1 0.18508339E-01 0.26309869E+03</pdfrwt>
<totfact> 0.88832914E+02</totfact>
</mgrwt>
</event>
<event>
 8    2  0.7478846E-004  0.1297068E+03  0.7818608E-02  0.1241369E+00
         -1   -1    0    0    0  501 -0.00000000000E+00  0.00000000000E+00  0.33896127058E+03  0.33896127061E+03  0.50400000000E-02 0.  1.
          1   -1    0    0  501    0  0.00000000000E+00 -0.00000000000E+00 -0.64188425435E+02  0.64188425633E+02  0.50400000000E-02 0. -1.
         25    2    1    2    0    0 -0.13754915960E+02 -0.31775580825E+02  0.27575596423E+03  0.30473792708E+03  0.12499986856E+03 0.  0.
         23    2    1    2    0    0  0.13754915960E+02  0.31775580825E+02 -0.98311908916E+00  0.98411769169E+02  0.92114192924E+02 0.  0.
        -11    1    4    4    0    0 -0.29079545872E+02  0.18100499611E+02 -0.29467902619E+02  0.45184127294E+02  0.51100000000E-03 0.  1.
         11    1    4    4    0    0  0.42834461832E+02  0.13675081214E+02  0.28484783530E+02  0.53227641876E+02  0.51100000000E-03 0. -1.
    9000005    1    3    3    0    0 -0.18473725657E+02  0.30907853139E+02  0.21258079890E+03  0.21561115459E+03  0.10000000000E+01 0.  0.
    9000005    1    3    3    0    0  0.47188096966E+01 -0.62683433964E+02  0.63175165335E+02  0.89126772485E+02  0.10000000000E+01 0.  0.
<mgrwt>
<rscale>  0 0.12105379E+03</rscale>
<asrwt>0</asrwt>
<pdfrwt beam="2">  1        1 0.98751425E-02 0.12970679E+03</pdfrwt>
<pdfrwt beam="1">  1       -1 0.52147887E-01 0.12970679E+03</pdfrwt>
<totfact> 0.23955579E+03</totfact>
</mgrwt>
</event>
<event>
 8    2  0.7478846E-004  0.1321122E+03  0.7818608E-02  0.1237723E+00
          1   -1    0    0  501    0  0.00000000000E+00  0.00000000000E+00  0.17882948027E+03  0.17882948035E+03  0.50400000000E-02 0. -1.
         -1   -1    0    0    0  501 -0.00000000000E+00 -0.00000000000E+00 -0.77429693626E+02  0.77429693790E+02  0.50400000000E-02 0.  1.
         25    2    1    2    0    0 -0.13444009602E+02 -0.40588396767E+02  0.37466214786E+02  0.13732202825E+03  0.12500185137E+03 0.  0.
         23    2    1    2    0    0  0.13444009602E+02  0.40588396767E+02  0.63933571862E+02  0.11893714588E+03  0.90721462254E+02 0.  0.
        -11    1    4    4    0    0  0.33188680096E+02 -0.59562191064E+01  0.59235190407E+02  0.68159906216E+02  0.51100000000E-03 0. -1.
         11    1    4    4    0    0 -0.19744670494E+02  0.46544615873E+02  0.46983814552E+01  0.50777239667E+02  0.51100000000E-03 0.  1.
    9000005    1    3    3    0    0  0.30303005708E+02 -0.71975394614E+02  0.25490882406E+02  0.82155429952E+02  0.10000000000E+01 0.  0.
    9000005    1    3    3    0    0 -0.43747015310E+02  0.31386997848E+02  0.11975332380E+02  0.55166598300E+02  0.10000000000E+01 0.  0.
<mgrwt>
<rscale>  0 0.12331729E+03</rscale>
<asrwt>0</asrwt>
<pdfrwt beam="1">  1        1 0.27512228E-01 0.13211216E+03</pdfrwt>
<pdfrwt beam="2">  1       -1 0.11912261E-01 0.13211216E+03</pdfrwt>
<totfact> 0.74174045E+03</totfact>
</mgrwt>
</event>
<event>
 8    2  0.7478846E-004  0.1461978E+03  0.7818608E-02  0.1214335E+00
          1   -1    0    0  501    0  0.00000000000E+00  0.00000000000E+00  0.21058213240E+03  0.21058213246E+03  0.50400000000E-02 0. -1.
         -1   -1    0    0    0  501 -0.00000000000E+00 -0.00000000000E+00 -0.88291790241E+02  0.88291790385E+02  0.50400000000E-02 0.  1.
         25    2    1    2    0    0 -0.71786443243E+02 -0.24408917883E+02  0.35347639491E+02  0.15041030984E+03  0.12499886793E+03 0.  0.
         23    2    1    2    0    0  0.71786443243E+02  0.24408917883E+02  0.86942702667E+02  0.14846361300E+03  0.93452245199E+02 0.  0.
        -11    1    4    4    0    0  0.70051787129E+02  0.11544144545E+02  0.11511790280E+02  0.71923858830E+02  0.51100000000E-03 0.  1.
         11    1    4    4    0    0  0.17346561141E+01  0.12864773338E+02  0.75430912387E+02  0.76539754172E+02  0.51100000000E-03 0. -1.
    9000005    1    3    3    0    0 -0.10708790388E+03 -0.26507401659E+02  0.21391216686E+02  0.11237902674E+03  0.10000000000E+01 0.  0.
    9000005    1    3    3    0    0  0.35301460633E+02  0.20984837756E+01  0.13956422805E+02  0.38031283104E+02  0.10000000000E+01 0.  0.
<mgrwt>
<rscale>  0 0.13925500E+03</rscale>
<asrwt>0</asrwt>
<pdfrwt beam="1">  1        1 0.32397251E-01 0.14619783E+03</pdfrwt>
<pdfrwt beam="2">  1       -1 0.13583353E-01 0.14619783E+03</pdfrwt>
<totfact> 0.49697749E+03</totfact>
</mgrwt>
</event>
<event>
 8    2  0.7478846E-004  0.2337643E+03  0.7818608E-02  0.1126757E+00
         -1   -1    0    0    0  501 -0.00000000000E+00  0.00000000000E+00  0.46094694486E+02  0.46094694761E+02  0.50400000000E-02 0.  1.
          1   -1    0    0  501    0  0.00000000000E+00 -0.00000000000E+00 -0.11168789144E+04  0.11168789144E+04  0.50400000000E-02 0. -1.
         25    2    1    2    0    0 -0.54430469120E+02  0.18988678926E+03 -0.60214379956E+03  0.64592794264E+03  0.12500433204E+03 0.  0.
         23    2    1    2    0    0  0.54430469120E+02 -0.18988678926E+03 -0.46864042037E+03  0.51704566655E+03  0.93234698410E+02 0.  0.
        -11    1    4    4    0    0  0.15504136613E+02 -0.94223485885E+02 -0.33384018127E+03  0.34722861370E+03  0.51100000000E-03 0. -1.
         11    1    4    4    0    0  0.38926332507E+02 -0.95663303378E+02 -0.13480023911E+03  0.16981705285E+03  0.51100000000E-03 0.  1.
    9000005    1    3    3    0    0 -0.64443291396E+02  0.15393217071E+03 -0.57765474087E+03  0.60127701656E+03  0.10000000000E+01 0.  0.
    9000005    1    3    3    0    0  0.10012822276E+02  0.35954618549E+02 -0.24489058694E+02  0.44650926089E+02  0.10000000000E+01 0.  0.
<mgrwt>
<rscale>  0 0.22983308E+03</rscale>
<asrwt>0</asrwt>
<pdfrwt beam="2">  1        1 0.17182751E+00 0.23376431E+03</pdfrwt>
<pdfrwt beam="1">  1       -1 0.70914923E-02 0.23376431E+03</pdfrwt>
<totfact> 0.13603190E+03</totfact>
</mgrwt>
</event>
<event>
 8    2  0.7478846E-004  0.1681366E+03  0.7818608E-02  0.1186427E+00
         -1   -1    0    0    0  501 -0.00000000000E+00  0.00000000000E+00  0.33384555532E+02  0.33384555912E+02  0.50400000000E-02 0.  1.
          1   -1    0    0  501    0  0.00000000000E+00 -0.00000000000E+00 -0.74154652374E+03  0.74154652375E+03  0.50400000000E-02 0. -1.
         25    2    1    2    0    0  0.97800730707E+02 -0.55502459067E+02 -0.34172237537E+03  0.38084655903E+03  0.12499765520E+03 0.  0.
         23    2    1    2    0    0 -0.97800730707E+02  0.55502459067E+02 -0.36643959284E+03  0.39408452064E+03  0.91537578734E+02 0.  0.
        -11    1    4    4    0    0 -0.97212327321E+02  0.53339037105E+02 -0.37195481983E+03  0.38813100553E+03  0.51100000000E-03 0. -1.
         11    1    4    4    0    0 -0.58840338612E+00  0.21634219624E+01  0.55152269902E+01  0.59535151084E+01  0.51100000000E-03 0.  1.
    9000005    1    3    3    0    0 -0.14357458780E+02 -0.43021550577E+02 -0.16533404038E+03  0.17144484637E+03  0.10000000000E+01 0.  0.
    9000005    1    3    3    0    0  0.11215818949E+03 -0.12480908490E+02 -0.17638833499E+03  0.20940171266E+03  0.10000000000E+01 0.  0.
<mgrwt>
<rscale>  0 0.16202714E+03</rscale>
<asrwt>0</asrwt>
<pdfrwt beam="2">  1        1 0.11408407E+00 0.16813661E+03</pdfrwt>
<pdfrwt beam="1">  1       -1 0.51360861E-02 0.16813661E+03</pdfrwt>
<totfact> 0.42919780E+03</totfact>
</mgrwt>
</event>
<event>
 8    2  0.7478846E-004  0.1484131E+03  0.7818608E-02  0.1211319E+00
         -1   -1    0    0    0  501 -0.00000000000E+00  0.00000000000E+00  0.12096196378E+03  0.12096196389E+03  0.50400000000E-02 0.  1.
          1   -1    0    0  501    0  0.00000000000E+00 -0.00000000000E+00 -0.27164550709E+03  0.27164550714E+03  0.50400000000E-02 0. -1.
         25    2    1    2    0    0 -0.76168833847E+02  0.24458932089E+02  0.50684033993E+02  0.15682898940E+03  0.12500611988E+03 0.  0.
         23    2    1    2    0    0  0.76168833847E+02 -0.24458932089E+02 -0.20136757730E+03  0.23577848162E+03  0.92965910943E+02 0.  0.
        -11    1    4    4    0    0  0.41914117347E+02 -0.80915778130E+01 -0.19198296271E+03  0.19667161675E+03  0.51100000000E-03 0. -1.
         11    1    4    4    0    0  0.34254716500E+02 -0.16367354276E+02 -0.93846145929E+01  0.39106864868E+02  0.51100000000E-03 0.  1.
    9000005    1    3    3    0    0  0.19606292849E+02 -0.19283583328E+01  0.53932885286E+02  0.57427183463E+02  0.10000000000E+01 0.  0.
    9000005    1    3    3    0    0 -0.95775126697E+02  0.26387290421E+02 -0.32488512933E+01  0.99401805941E+02  0.10000000000E+01 0.  0.
<mgrwt>
<rscale>  0 0.14150429E+03</rscale>
<asrwt>0</asrwt>
<pdfrwt beam="2">  1        1 0.41791616E-01 0.14841314E+03</pdfrwt>
<pdfrwt beam="1">  1       -1 0.18609533E-01 0.14841314E+03</pdfrwt>
<totfact> 0.22066796E+03</totfact>
</mgrwt>
</event>
<event>
 8    2  0.7478846E-004  0.1805029E+03  0.7818608E-02  0.1172616E+00
          1   -1    0    0  501    0  0.00000000000E+00  0.00000000000E+00  0.77623862290E+03  0.77623862292E+03  0.50400000000E-02 0. -1.
         -1   -1    0    0    0  501 -0.00000000000E+00 -0.00000000000E+00 -0.37346085158E+02  0.37346085498E+02  0.50400000000E-02 0.  1.
         25    2    1    2    0    0 -0.12181399915E+03 -0.46024850666E+02  0.38082395263E+03  0.42143583691E+03  0.12499737784E+03 0.  0.
         23    2    1    2    0    0  0.12181399915E+03  0.46024850666E+02  0.35806858511E+03  0.39214887150E+03  0.92793795643E+02 0.  0.
        -11    1    4    4    0    0  0.11545578330E+03  0.60770412803E+02  0.24160464792E+03  0.27458311468E+03  0.51100000000E-03 0.  1.
         11    1    4    4    0    0  0.63582158525E+01 -0.14745562137E+02  0.11646393719E+03  0.11756575683E+03  0.51100000000E-03 0. -1.
    9000005    1    3    3    0    0 -0.10868515235E+03 -0.60688482334E+02  0.17549256941E+03  0.21516086110E+03  0.10000000000E+01 0.  0.
    9000005    1    3    3    0    0 -0.13128846801E+02  0.14663631668E+02  0.20533138322E+03  0.20627497582E+03  0.10000000000E+01 0.  0.
<mgrwt>
<rscale>  0 0.17511541E+03</rscale>
<asrwt>0</asrwt>
<pdfrwt beam="1">  1        1 0.11942132E+00 0.18050286E+03</pdfrwt>
<pdfrwt beam="2">  1       -1 0.57455517E-02 0.18050286E+03</pdfrwt>
<totfact> 0.33997457E+03</totfact>
</mgrwt>
</event>
<event>
 8    2  0.7478846E-004  0.1421030E+03  0.7818608E-02  0.1221070E+00
         -1   -1    0    0    0  501 -0.00000000000E+00  0.00000000000E+00  0.21303882770E+02  0.21303883366E+02  0.50400000000E-02 0.  1.
          1   -1    0    0  501    0  0.00000000000E+00 -0.00000000000E+00 -0.76815980285E+03  0.76815980287E+03  0.50400000000E-02 0. -1.
         25    2    1    2    0    0 -0.10920207888E+02 -0.66700620112E+02 -0.40780921404E+03  0.43185832158E+03  0.12500012478E+03 0.  0.
         23    2    1    2    0    0  0.10920207888E+02  0.66700620112E+02 -0.33904670604E+03  0.35760536466E+03  0.91436886934E+02 0.  0.
        -11    1    4    4    0    0  0.37846327665E+02  0.96597262193E+01 -0.60552853790E+02  0.72057636172E+02  0.51100000000E-03 0.  1.
         11    1    4    4    0    0 -0.26926119777E+02  0.57040893893E+02 -0.27849385225E+03  0.28554772849E+03  0.51100000000E-03 0. -1.
    9000005    1    3    3    0    0  0.33074415679E+01 -0.65189646572E+02 -0.41182277177E+03  0.41696477614E+03  0.10000000000E+01 0.  0.
    9000005    1    3    3    0    0 -0.14227649455E+02 -0.15109735400E+01  0.40135577306E+01  0.14893545438E+02  0.10000000000E+01 0.  0.
<mgrwt>
<rscale>  0 0.13439951E+03</rscale>
<asrwt>0</asrwt>
<pdfrwt beam="2">  1        1 0.11817841E+00 0.14210297E+03</pdfrwt>
<pdfrwt beam="1">  1       -1 0.32775211E-02 0.14210297E+03</pdfrwt>
<totfact> 0.78398219E+03</totfact>
</mgrwt>
</event>
<event>
 8    2  0.7478846E-004  0.1404928E+03  0.7818608E-02  0.1223482E+00
          1   -1    0    0  501    0  0.00000000000E+00  0.00000000000E+00  0.86618393313E+03  0.86618393314E+03  0.50400000000E-02 0. -1.
         -1   -1    0    0    0  501 -0.00000000000E+00 -0.00000000000E+00 -0.25325423453E+02  0.25325423955E+02  0.50400000000E-02 0.  1.
         25    2    1    2    0    0 -0.13601325868E+00  0.64132663470E+02  0.22272085499E+03  0.26333019836E+03  0.12500078839E+03 0.  0.
         23    2    1    2    0    0  0.13601325868E+00 -0.64132663470E+02  0.61813765468E+03  0.62817915873E+03  0.91661760323E+02 0.  0.
        -11    1    4    4    0    0 -0.66880991644E+01 -0.19684592606E+02  0.21710950487E+02  0.30059594604E+02  0.51100000000E-03 0.  1.
         11    1    4    4    0    0  0.68241124231E+01 -0.44448070864E+02  0.59642670420E+03  0.59811956413E+03  0.51100000000E-03 0. -1.
    9000005    1    3    3    0    0  0.19556055310E+02  0.96878508123E+02  0.13214125449E+03  0.16501574401E+03  0.10000000000E+01 0.  0.
    9000005    1    3    3    0    0 -0.19692068569E+02 -0.32745844653E+02  0.90579600506E+02  0.98314454351E+02  0.10000000000E+01 0.  0.
<mgrwt>
<rscale>  0 0.13271464E+03</rscale>
<asrwt>0</asrwt>
<pdfrwt beam="1">  1        1 0.13325905E+00 0.14049275E+03</pdfrwt>
<pdfrwt beam="2">  1       -1 0.38962196E-02 0.14049275E+03</pdfrwt>
<totfact> 0.50656619E+03</totfact>
</mgrwt>
</event>
<event>
 8    2  0.7478846E-004  0.1330510E+03  0.7818608E-02  0.1235741E+00
          1   -1    0    0  501    0  0.00000000000E+00  0.00000000000E+00  0.98329844808E+02  0.98329844937E+02  0.50400000000E-02 0. -1.
         -1   -1    0    0    0  501 -0.00000000000E+00 -0.00000000000E+00 -0.17666195049E+03  0.17666195056E+03  0.50400000000E-02 0.  1.
         25    2    1    2    0    0  0.15846564957E+02  0.42737807723E+02 -0.10481615071E+03  0.16937828216E+03  0.12499977275E+03 0.  0.
         23    2    1    2    0    0 -0.15846564957E+02 -0.42737807723E+02  0.26484045031E+02  0.10561351333E+03  0.91515986186E+02 0.  0.
        -11    1    4    4    0    0  0.30250437094E+02 -0.43044115483E+02  0.32752253422E+00  0.52611710610E+02  0.51100000000E-03 0.  1.
         11    1    4    4    0    0 -0.46097002051E+02  0.30630775928E+00  0.26156522497E+02  0.53001802724E+02  0.51100000000E-03 0. -1.
    9000005    1    3    3    0    0  0.25698231475E+02  0.85325384933E+02 -0.65783719365E+02  0.11076695423E+03  0.10000000000E+01 0.  0.
    9000005    1    3    3    0    0 -0.98516665177E+01 -0.42587577210E+02 -0.39032431344E+02  0.58611327936E+02  0.10000000000E+01 0.  0.
<mgrwt>
<rscale>  0 0.12457125E+03</rscale>
<asrwt>0</asrwt>
<pdfrwt beam="1">  1        1 0.15127668E-01 0.13305103E+03</pdfrwt>
<pdfrwt beam="2">  1       -1 0.27178762E-01 0.13305103E+03</pdfrwt>
<totfact> 0.42622110E+03</totfact>
</mgrwt>
</event>
<event>
 8    2  0.7478846E-004  0.1656600E+03  0.7818608E-02  0.1189382E+00
         -1   -1    0    0    0  501 -0.00000000000E+00  0.00000000000E+00  0.51267680391E+02  0.51267680639E+02  0.50400000000E-02 0.  1.
          1   -1    0    0  501    0  0.00000000000E+00 -0.00000000000E+00 -0.50859442164E+03  0.50859442166E+03  0.50400000000E-02 0. -1.
         25    2    1    2    0    0  0.99916099328E+02 -0.42845851715E+02 -0.32955874722E+03  0.36885252925E+03  0.12499690614E+03 0.  0.
         23    2    1    2    0    0 -0.99916099328E+02  0.42845851715E+02 -0.12776799402E+03  0.19100957305E+03  0.91329090592E+02 0.  0.
        -11    1    4    4    0    0 -0.38007755154E+02  0.62327495021E+01  0.61459111632E+01  0.39002677376E+02  0.51100000000E-03 0.  1.
         11    1    4    4    0    0 -0.61908344174E+02  0.36613102213E+02 -0.13391390518E+03  0.15200689568E+03  0.51100000000E-03 0. -1.
    9000005    1    3    3    0    0  0.12071713284E+03 -0.24896057920E+02 -0.18908416407E+03  0.22571278422E+03  0.10000000000E+01 0.  0.
    9000005    1    3    3    0    0 -0.20801033509E+02 -0.17949793795E+02 -0.14047458315E+03  0.14313974502E+03  0.10000000000E+01 0.  0.
<mgrwt>
<rscale>  0 0.15939491E+03</rscale>
<asrwt>0</asrwt>
<pdfrwt beam="2">  1        1 0.78245292E-01 0.16565995E+03</pdfrwt>
<pdfrwt beam="1">  1       -1 0.78873358E-02 0.16565995E+03</pdfrwt>
<totfact> 0.37984277E+03</totfact>
</mgrwt>
</event>
<event>
 8    2  0.7478846E-004  0.1707010E+03  0.7818608E-02  0.1183600E+00
          1   -1    0    0  501    0  0.00000000000E+00  0.00000000000E+00  0.96281708538E+03  0.96281708539E+03  0.50400000000E-02 0. -1.
         -1   -1    0    0    0  501 -0.00000000000E+00 -0.00000000000E+00 -0.26469666869E+02  0.26469667349E+02  0.50400000000E-02 0.  1.
         25    2    1    2    0    0  0.11407012456E+03 -0.22438138622E+02  0.46274048024E+03  0.49322162900E+03  0.12499343937E+03 0.  0.
         23    2    1    2    0    0 -0.11407012456E+03  0.22438138622E+02  0.47360693827E+03  0.49606512374E+03  0.90893408035E+02 0.  0.
        -11    1    4    4    0    0 -0.59768582612E+02  0.57204733688E+02  0.28321576510E+03  0.29505225745E+03  0.51100000000E-03 0.  1.
         11    1    4    4    0    0 -0.54301541953E+02 -0.34766595066E+02  0.19039117317E+03  0.20101286629E+03  0.51100000000E-03 0. -1.
    9000005    1    3    3    0    0  0.89730229221E+01  0.38678677897E+02  0.55695307927E+02  0.68407036110E+02  0.10000000000E+01 0.  0.
    9000005    1    3    3    0    0  0.10509710164E+03 -0.61116816519E+02  0.40704517231E+03  0.42481459289E+03  0.10000000000E+01 0.  0.
<mgrwt>
<rscale>  0 0.16459891E+03</rscale>
<asrwt>0</asrwt>
<pdfrwt beam="1">  1        1 0.14812571E+00 0.17070098E+03</pdfrwt>
<pdfrwt beam="2">  1       -1 0.40722563E-02 0.17070098E+03</pdfrwt>
<totfact> 0.40304639E+03</totfact>
</mgrwt>
</event>
<event>
 8    2  0.7478846E-004  0.2042960E+03  0.7818608E-02  0.1149694E+00
          1   -1    0    0  501    0  0.00000000000E+00  0.00000000000E+00  0.12757478648E+02  0.12757479643E+02  0.50400000000E-02 0. -1.
         -1   -1    0    0    0  501 -0.00000000000E+00 -0.00000000000E+00 -0.30536947422E+04  0.30536947422E+04  0.50400000000E-02 0.  1.
         25    2    1    2    0    0 -0.16041689240E+03 -0.19421814957E+02 -0.17593123237E+04  0.17711342956E+04  0.12500421875E+03 0.  0.
         23    2    1    2    0    0  0.16041689240E+03  0.19421814957E+02 -0.12816249399E+04  0.12953179263E+04  0.95787562691E+02 0.  0.
        -11    1    4    4    0    0  0.13001896188E+03  0.17456479136E+02 -0.65801895305E+03  0.67096840587E+03  0.51100000000E-03 0. -1.
         11    1    4    4    0    0  0.30397930525E+02  0.19653358213E+01 -0.62360598688E+03  0.62434952038E+03  0.51100000000E-03 0.  1.
    9000005    1    3    3    0    0 -0.68826823262E+02 -0.38801669849E+02 -0.12987991657E+04  0.13012005894E+04  0.10000000000E+01 0.  0.
    9000005    1    3    3    0    0 -0.91590069143E+02  0.19379854892E+02 -0.46051315798E+03  0.46993370619E+03  0.10000000000E+01 0.  0.
<mgrwt>
<rscale>  0 0.20005307E+03</rscale>
<asrwt>0</asrwt>
<pdfrwt beam="1">  1        1 0.19626915E-02 0.20429596E+03</pdfrwt>
<pdfrwt beam="2">  1       -1 0.46979861E+00 0.20429596E+03</pdfrwt>
<totfact> 0.18548029E+01</totfact>
</mgrwt>
</event>
<event>
 8    2  0.7478846E-004  0.1360797E+03  0.7818608E-02  0.1230561E+00
         -1   -1    0    0    0  501 -0.00000000000E+00  0.00000000000E+00  0.38448904541E+03  0.38448904544E+03  0.50400000000E-02 0.  1.
          1   -1    0    0  501    0  0.00000000000E+00 -0.00000000000E+00 -0.38265257873E+02  0.38265258205E+02  0.50400000000E-02 0. -1.
         25    2    1    2    0    0  0.20914970958E+01  0.53742631317E+02  0.20328499546E+03  0.24462723019E+03  0.12500019036E+03 0.  0.
         23    2    1    2    0    0 -0.20914970958E+01 -0.53742631317E+02  0.14293879208E+03  0.17812707346E+03  0.91679393742E+02 0.  0.
        -11    1    4    4    0    0  0.24854314498E+02 -0.85805480655E+01  0.11618517816E+03  0.11912329066E+03  0.51100000000E-03 0.  1.
         11    1    4    4    0    0 -0.26945811594E+02 -0.45162083252E+02  0.26753613919E+02  0.59003782794E+02  0.51100000000E-03 0. -1.
    9000005    1    3    3    0    0  0.46468742987E+02  0.65094200534E+02  0.80098206824E+02  0.11319594407E+03  0.10000000000E+01 0.  0.
    9000005    1    3    3    0    0 -0.44377245892E+02 -0.11351569217E+02  0.12318678864E+03  0.13143128612E+03  0.10000000000E+01 0.  0.
<mgrwt>
<rscale>  0 0.12792903E+03</rscale>
<asrwt>0</asrwt>
<pdfrwt beam="2">  1        1 0.58869629E-02 0.13607973E+03</pdfrwt>
<pdfrwt beam="1">  1       -1 0.59152160E-01 0.13607973E+03</pdfrwt>
<totfact> 0.38029239E+03</totfact>
</mgrwt>
</event>
<event>
 8    2  0.7478846E-004  0.1428484E+03  0.7818608E-02  0.1220200E+00
          1   -1    0    0  501    0  0.00000000000E+00  0.00000000000E+00  0.63638960092E+03  0.63638960094E+03  0.50400000000E-02 0. -1.
         -1   -1    0    0    0  501 -0.00000000000E+00 -0.00000000000E+00 -0.26321709301E+02  0.26321709783E+02  0.50400000000E-02 0.  1.
         25    2    1    2    0    0  0.47865007420E+02  0.49859981491E+02  0.29786433546E+03  0.33034653227E+03  0.12501436859E+03 0.  0.
         23    2    1    2    0    0 -0.47865007420E+02 -0.49859981491E+02  0.31220355616E+03  0.33236477845E+03  0.90654336840E+02 0.  0.
        -11    1    4    4    0    0 -0.28348172832E+02 -0.24585406816E+02  0.29151293636E+02  0.47516934373E+02  0.51100000000E-03 0.  1.
         11    1    4    4    0    0 -0.19516834588E+02 -0.25274574674E+02  0.28305226252E+03  0.28484784408E+03  0.51100000000E-03 0. -1.
    9000005    1    3    3    0    0  0.78501729198E+02 -0.20172241985E+01  0.12867867510E+03  0.15075076154E+03  0.10000000000E+01 0.  0.
    9000005    1    3    3    0    0 -0.30636721778E+02  0.51877205689E+02  0.16918566036E+03  0.17959577073E+03  0.10000000000E+01 0.  0.
<mgrwt>
<rscale>  0 0.13501431E+03</rscale>
<asrwt>0</asrwt>
<pdfrwt beam="1">  1        1 0.97906096E-01 0.14284841E+03</pdfrwt>
<pdfrwt beam="2">  1       -1 0.40494936E-02 0.14284841E+03</pdfrwt>
<totfact> 0.75311784E+03</totfact>
</mgrwt>
</event>
<event>
 8    2  0.7478846E-004  0.1551853E+03  0.7818608E-02  0.1202592E+00
         -1   -1    0    0    0  501 -0.00000000000E+00  0.00000000000E+00  0.83865027665E+02  0.83865027816E+02  0.50400000000E-02 0.  1.
          1   -1    0    0  501    0  0.00000000000E+00 -0.00000000000E+00 -0.28611796159E+03  0.28611796163E+03  0.50400000000E-02 0. -1.
         25    2    1    2    0    0  0.26711652940E+02  0.88001321941E+02 -0.18174316871E+03  0.23898341010E+03  0.12499898346E+03 0.  0.
         23    2    1    2    0    0 -0.26711652940E+02 -0.88001321941E+02 -0.20509765214E+02  0.13099957935E+03  0.91008209813E+02 0.  0.
        -11    1    4    4    0    0 -0.32253676873E+02 -0.34528845214E+02  0.31028193759E+02  0.56526892997E+02  0.51100000000E-03 0.  1.
         11    1    4    4    0    0  0.55420239333E+01 -0.53472476727E+02 -0.51537958973E+02  0.74472686349E+02  0.51100000000E-03 0. -1.
    9000005    1    3    3    0    0 -0.46898032041E+02  0.54702404943E+02 -0.10641572678E+03  0.12851881350E+03  0.10000000000E+01 0.  0.
    9000005    1    3    3    0    0  0.73609684981E+02  0.33298916999E+02 -0.75327441925E+02  0.11046459661E+03  0.10000000000E+01 0.  0.
<mgrwt>
<rscale>  0 0.14828876E+03</rscale>
<asrwt>0</asrwt>
<pdfrwt beam="2">  1        1 0.44018147E-01 0.15518534E+03</pdfrwt>
<pdfrwt beam="1">  1       -1 0.12902312E-01 0.15518534E+03</pdfrwt>
<totfact> 0.36920890E+03</totfact>
</mgrwt>
</event>
<event>
 8    2  0.7478846E-004  0.1435023E+03  0.7818608E-02  0.1219857E+00
         -1   -1    0    0    0  501 -0.00000000000E+00  0.00000000000E+00  0.11694565006E+03  0.11694565017E+03  0.50400000000E-02 0.  1.
          1   -1    0    0  501    0  0.00000000000E+00 -0.00000000000E+00 -0.17026733875E+03  0.17026733883E+03  0.50400000000E-02 0. -1.
         25    2    1    2    0    0  0.47865655431E+02  0.51750658828E+02 -0.88524674465E+02  0.16861062328E+03  0.12499469043E+03 0.  0.
         23    2    1    2    0    0 -0.47865655431E+02 -0.51750658828E+02  0.35202985775E+02  0.11860236572E+03  0.88645469634E+02 0.  0.
        -11    1    4    4    0    0 -0.10100722392E+02  0.21286160506E+02 -0.90355080957E+01  0.25234215438E+02  0.51100000000E-03 0. -1.
         11    1    4    4    0    0 -0.37764933040E+02 -0.73036819335E+02  0.44238493871E+02  0.93368150278E+02  0.51100000000E-03 0.  1.
    9000005    1    3    3    0    0 -0.25983003800E+02 -0.12602338937E+02  0.91175684951E+01  0.30299595515E+02  0.10000000000E+01 0.  0.
    9000005    1    3    3    0    0  0.73848659231E+02  0.64352997765E+02 -0.97642242960E+02  0.13831102777E+03  0.10000000000E+01 0.  0.
<mgrwt>
<rscale>  0 0.13525740E+03</rscale>
<asrwt>0</asrwt>
<pdfrwt beam="2">  1        1 0.26194975E-01 0.14350235E+03</pdfrwt>
<pdfrwt beam="1">  1       -1 0.17991638E-01 0.14350235E+03</pdfrwt>
<totfact> 0.41574383E+03</totfact>
</mgrwt>
</event>
<event>
 8    2  0.7478846E-004  0.1267135E+03  0.7818608E-02  0.1247752E+00
          1   -1    0    0  501    0  0.00000000000E+00  0.00000000000E+00  0.23565328268E+02  0.23565328807E+02  0.50400000000E-02 0. -1.
         -1   -1    0    0    0  501 -0.00000000000E+00 -0.00000000000E+00 -0.51394257379E+03  0.51394257382E+03  0.50400000000E-02 0.  1.
         25    2    1    2    0    0 -0.19169047336E+02 -0.80067814625E+01 -0.30222224671E+03  0.32771115344E+03  0.12499901101E+03 0.  0.
         23    2    1    2    0    0  0.19169047336E+02  0.80067814625E+01 -0.18815499881E+03  0.20979674919E+03  0.90447838376E+02 0.  0.
        -11    1    4    4    0    0  0.50534815653E+02  0.23128578957E+02 -0.13770295861E+03  0.14849512978E+03  0.51100000000E-03 0.  1.
         11    1    4    4    0    0 -0.31365768316E+02 -0.15121797494E+02 -0.50452040203E+02  0.61301619412E+02  0.51100000000E-03 0. -1.
    9000005    1    3    3    0    0 -0.25228013165E+02  0.27639231731E+02 -0.18617342594E+02  0.41808913214E+02  0.10000000000E+01 0.  0.
    9000005    1    3    3    0    0  0.60589658286E+01 -0.35646013193E+02 -0.28360490412E+03  0.28590224022E+03  0.10000000000E+01 0.  0.
<mgrwt>
<rscale>  0 0.11722157E+03</rscale>
<asrwt>0</asrwt>
<pdfrwt beam="1">  1        1 0.36254356E-02 0.12671351E+03</pdfrwt>
<pdfrwt beam="2">  1       -1 0.79068080E-01 0.12671351E+03</pdfrwt>
<totfact> 0.41596560E+03</totfact>
</mgrwt>
</event>
<event>
 8    2  0.7478846E-004  0.1734870E+03  0.7818608E-02  0.1180626E+00
          1   -1    0    0  501    0  0.00000000000E+00  0.00000000000E+00  0.33289868120E+03  0.33289868124E+03  0.50400000000E-02 0. -1.
         -1   -1    0    0    0  501 -0.00000000000E+00 -0.00000000000E+00 -0.95302035172E+02  0.95302035306E+02  0.50400000000E-02 0.  1.
         25    2    1    2    0    0 -0.50030861003E+02 -0.10940529253E+03  0.21498103891E+03  0.27625094826E+03  0.12500053695E+03 0.  0.
         23    2    1    2    0    0  0.50030861003E+02  0.10940529253E+03  0.22615607121E+02  0.15194976829E+03  0.90025892442E+02 0.  0.
        -11    1    4    4    0    0 -0.22174231738E+02  0.36039259102E+02 -0.10895423939E+02  0.43694793888E+02  0.51100000000E-03 0.  1.
         11    1    4    4    0    0  0.72205092741E+02  0.73366033430E+02  0.33511031060E+02  0.10825497440E+03  0.51100000000E-03 0. -1.
    9000005    1    3    3    0    0 -0.15038439378E+02 -0.11533466481E+03  0.92158787753E+02  0.14839973628E+03  0.10000000000E+01 0.  0.
    9000005    1    3    3    0    0 -0.34992421625E+02  0.59293722819E+01  0.12282225116E+03  0.12785121198E+03  0.10000000000E+01 0.  0.
<mgrwt>
<rscale>  0 0.16736287E+03</rscale>
<asrwt>0</asrwt>
<pdfrwt beam="1">  1        1 0.51215181E-01 0.17348700E+03</pdfrwt>
<pdfrwt beam="2">  1       -1 0.14661852E-01 0.17348700E+03</pdfrwt>
<totfact> 0.25139348E+03</totfact>
</mgrwt>
</event>
<event>
 8    2  0.7478846E-004  0.1255683E+03  0.7818608E-02  0.1248080E+00
         -1   -1    0    0    0  501 -0.00000000000E+00  0.00000000000E+00  0.44264164151E+02  0.44264164437E+02  0.50400000000E-02 0.  1.
          1   -1    0    0  501    0  0.00000000000E+00 -0.00000000000E+00 -0.28388254924E+03  0.28388254929E+03  0.50400000000E-02 0. -1.
         25    2    1    2    0    0  0.11909664688E+02 -0.11315093602E+01 -0.10587176624E+03  0.16424439857E+03  0.12499708456E+03 0.  0.
         23    2    1    2    0    0 -0.11909664688E+02  0.11315093602E+01 -0.13374661885E+03  0.16390231515E+03  0.93982394263E+02 0.  0.
        -11    1    4    4    0    0 -0.18717424934E+02 -0.26050212220E+02 -0.13198350929E+03  0.13582563189E+03  0.51100000000E-03 0. -1.
         11    1    4    4    0    0  0.68077602451E+01  0.27181721580E+02 -0.17631095628E+01  0.28076683265E+02  0.51100000000E-03 0.  1.
    9000005    1    3    3    0    0  0.13410674286E+02  0.45277784058E+02  0.15018175036E+01  0.47256527273E+02  0.10000000000E+01 0.  0.
    9000005    1    3    3    0    0 -0.15010095978E+01 -0.46409293419E+02 -0.10737358374E+03  0.11698787130E+03  0.10000000000E+01 0.  0.
<mgrwt>
<rscale>  0 0.11702918E+03</rscale>
<asrwt>0</asrwt>
<pdfrwt beam="2">  1        1 0.43674237E-01 0.12556827E+03</pdfrwt>
<pdfrwt beam="1">  1       -1 0.68098716E-02 0.12556827E+03</pdfrwt>
<totfact> 0.97366812E+03</totfact>
</mgrwt>
</event>
<event>
 8    2  0.7478846E-004  0.2469131E+03  0.7818608E-02  0.1117884E+00
         -1   -1    0    0    0  501 -0.00000000000E+00  0.00000000000E+00  0.27869115928E+03  0.27869115932E+03  0.50400000000E-02 0.  1.
          1   -1    0    0  501    0  0.00000000000E+00 -0.00000000000E+00 -0.20722857922E+03  0.20722857928E+03  0.50400000000E-02 0. -1.
         25    2    1    2    0    0 -0.30336874456E+02  0.21076368046E+03  0.61750716228E+02  0.25451765941E+03  0.12499773215E+03 0.  0.
         23    2    1    2    0    0  0.30336874456E+02 -0.21076368046E+03  0.97118638323E+01  0.23140207919E+03  0.90060796137E+02 0.  0.
        -11    1    4    4    0    0 -0.25667228386E+02 -0.62686062461E+02  0.25331647068E+02  0.72319025044E+02  0.51100000000E-03 0.  1.
         11    1    4    4    0    0  0.56004102842E+02 -0.14807761800E+03 -0.15619783235E+02  0.15908305414E+03  0.51100000000E-03 0. -1.
    9000005    1    3    3    0    0  0.42984620526E+01  0.21217094148E+03  0.54140477071E+02  0.21901410101E+03  0.10000000000E+01 0.  0.
    9000005    1    3    3    0    0 -0.34635336509E+02 -0.14072610228E+01  0.76102391571E+01  0.35503558395E+02  0.10000000000E+01 0.  0.
<mgrwt>
<rscale>  0 0.24288698E+03</rscale>
<asrwt>0</asrwt>
<pdfrwt beam="2">  1        1 0.31881320E-01 0.24691312E+03</pdfrwt>
<pdfrwt beam="1">  1       -1 0.42875563E-01 0.24691312E+03</pdfrwt>
<totfact> 0.76507168E+02</totfact>
</mgrwt>
</event>
<event>
 8    2  0.7478846E-004  0.1579374E+03  0.7818608E-02  0.1199070E+00
          1   -1    0    0  501    0  0.00000000000E+00  0.00000000000E+00  0.13691147458E+04  0.13691147459E+04  0.50400000000E-02 0. -1.
         -1   -1    0    0    0  501 -0.00000000000E+00 -0.00000000000E+00 -0.15403212084E+02  0.15403212908E+02  0.50400000000E-02 0.  1.
         25    2    1    2    0    0  0.90842675892E+02  0.32667065241E+02  0.74446685504E+03  0.76103555358E+03  0.12499874657E+03 0.  0.
         23    2    1    2    0    0 -0.90842675892E+02 -0.32667065241E+02  0.60924467872E+03  0.62348240518E+03  0.90728728128E+02 0.  0.
        -11    1    4    4    0    0 -0.93856789007E+00  0.25408982357E+02  0.12169463654E+03  0.12432249136E+03  0.51100000000E-03 0. -1.
         11    1    4    4    0    0 -0.89904108002E+02 -0.58076047599E+02  0.48755004218E+03  0.49915991382E+03  0.51100000000E-03 0.  1.
    9000005    1    3    3    0    0  0.23761414895E+02  0.15456533675E+02  0.60156864816E+03  0.60223695314E+03  0.10000000000E+01 0.  0.
    9000005    1    3    3    0    0  0.67081260997E+02  0.17210531566E+02  0.14289820688E+03  0.15879860044E+03  0.10000000000E+01 0.  0.
<mgrwt>
<rscale>  0 0.15114791E+03</rscale>
<asrwt>0</asrwt>
<pdfrwt beam="1">  1        1 0.21063305E+00 0.15793738E+03</pdfrwt>
<pdfrwt beam="2">  1       -1 0.23697249E-02 0.15793738E+03</pdfrwt>
<totfact> 0.46209855E+03</totfact>
</mgrwt>
</event>
<event>
 8    2  0.7478846E-004  0.1265122E+03  0.7818608E-02  0.1239326E+00
          1   -1    0    0  501    0  0.00000000000E+00  0.00000000000E+00  0.47812889488E+02  0.47812889754E+02  0.50400000000E-02 0. -1.
         -1   -1    0    0    0  501 -0.00000000000E+00 -0.00000000000E+00 -0.29733858290E+03  0.29733858294E+03  0.50400000000E-02 0.  1.
         25    2    1    2    0    0  0.80944442224E+01 -0.17722543731E+02 -0.11434684245E+03  0.17053018995E+03  0.12500294686E+03 0.  0.
         23    2    1    2    0    0 -0.80944442224E+01  0.17722543731E+02 -0.13517885096E+03  0.17462128274E+03  0.10881021117E+03 0.  0.
        -11    1    4    4    0    0 -0.45190822052E+02 -0.50748307415E+01 -0.12029942017E+03  0.12860760008E+03  0.51100000000E-03 0.  1.
         11    1    4    4    0    0  0.37096377830E+02  0.22797374473E+02 -0.14879430787E+02  0.46013682658E+02  0.51100000000E-03 0. -1.
    9000005    1    3    3    0    0 -0.35898624142E+02 -0.27568995629E+02  0.24403153387E+01  0.45340003025E+02  0.10000000000E+01 0.  0.
    9000005    1    3    3    0    0  0.43993068365E+02  0.98464518978E+01 -0.11678715779E+03  0.12519018693E+03  0.10000000000E+01 0.  0.
<mgrwt>
<rscale>  0 0.12231509E+03</rscale>
<asrwt>0</asrwt>
<pdfrwt beam="1">  1        1 0.73558293E-02 0.12651223E+03</pdfrwt>
<pdfrwt beam="2">  1       -1 0.45744396E-01 0.12651223E+03</pdfrwt>
<totfact> 0.44948696E+03</totfact>
</mgrwt>
</event>
<event>
 8    2  0.7478846E-004  0.2791824E+03  0.7818608E-02  0.1098143E+00
         -1   -1    0    0    0  501 -0.00000000000E+00  0.00000000000E+00  0.45470115490E+02  0.45470115770E+02  0.50400000000E-02 0.  1.
          1   -1    0    0  501    0  0.00000000000E+00 -0.00000000000E+00 -0.16426902183E+04  0.16426902184E+04  0.50400000000E-02 0. -1.
         25    2    1    2    0    0  0.18256904534E+03  0.17025331863E+03 -0.89946503049E+03  0.94179625200E+03  0.12500076152E+03 0.  0.
         23    2    1    2    0    0 -0.18256904534E+03 -0.17025331863E+03 -0.69775507236E+03  0.74636408212E+03  0.88766847712E+02 0.  0.
        -11    1    4    4    0    0 -0.51114434868E+02 -0.16343188955E+01 -0.13575531238E+03  0.14506847104E+03  0.51100000000E-03 0.  1.
         11    1    4    4    0    0 -0.13145461047E+03 -0.16861899974E+03 -0.56199975998E+03  0.60129561108E+03  0.51100000000E-03 0. -1.
    9000005    1    3    3    0    0  0.16707158135E+03  0.10190477401E+03 -0.51368358026E+03  0.54969929679E+03  0.10000000000E+01 0.  0.
    9000005    1    3    3    0    0  0.15497463988E+02  0.68348544623E+02 -0.38578145023E+03  0.39209695521E+03  0.10000000000E+01 0.  0.
<mgrwt>
<rscale>  0 0.27555358E+03</rscale>
<asrwt>0</asrwt>
<pdfrwt beam="2">  1        1 0.25272153E+00 0.27918245E+03</pdfrwt>
<pdfrwt beam="1">  1       -1 0.69954037E-02 0.27918245E+03</pdfrwt>
<totfact> 0.60944956E+02</totfact>
</mgrwt>
</event>
<event>
 8    2  0.7478846E-004  0.2181285E+03  0.7818608E-02  0.1138669E+00
         -1   -1    0    0    0  501 -0.00000000000E+00  0.00000000000E+00  0.61050047478E+03  0.61050047480E+03  0.50400000000E-02 0.  1.
          1   -1    0    0  501    0  0.00000000000E+00 -0.00000000000E+00 -0.81334217925E+02  0.81334218081E+02  0.50400000000E-02 0. -1.
         25    2    1    2    0    0 -0.16826067803E+03 -0.60361846271E+02  0.15656264300E+03  0.26849937718E+03  0.12499938442E+03 0.  0.
         23    2    1    2    0    0  0.16826067803E+03  0.60361846271E+02  0.37260361386E+03  0.42333531571E+03  0.91783049686E+02 0.  0.
        -11    1    4    4    0    0  0.17474048911E+02  0.46320189354E+02  0.92204385597E+02  0.10465443636E+03  0.51100000000E-03 0.  1.
         11    1    4    4    0    0  0.15078662912E+03  0.14041656916E+02  0.28039922826E+03  0.31868087935E+03  0.51100000000E-03 0. -1.
    9000005    1    3    3    0    0 -0.14900092679E+03  0.57929754803E+01  0.11088975559E+03  0.18582888000E+03  0.10000000000E+01 0.  0.
    9000005    1    3    3    0    0 -0.19259751238E+02 -0.66154821751E+02  0.45672887410E+02  0.82670497174E+02  0.10000000000E+01 0.  0.
<mgrwt>
<rscale>  0 0.21369986E+03</rscale>
<asrwt>0</asrwt>
<pdfrwt beam="2">  1        1 0.12512957E-01 0.21812853E+03</pdfrwt>
<pdfrwt beam="1">  1       -1 0.93923150E-01 0.21812853E+03</pdfrwt>
<totfact> 0.54963405E+02</totfact>
</mgrwt>
</event>
<event>
 8    2  0.7478846E-004  0.1350428E+03  0.7818608E-02  0.1232155E+00
          1   -1    0    0  501    0  0.00000000000E+00  0.00000000000E+00  0.25146556171E+04  0.25146556171E+04  0.50400000000E-02 0. -1.
         -1   -1    0    0    0  501 -0.00000000000E+00 -0.00000000000E+00 -0.63072039887E+01  0.63072060024E+01  0.50400000000E-02 0.  1.
         25    2    1    2    0    0  0.36419419775E+02  0.35841426646E+02  0.17710129445E+04  0.17761541081E+04  0.12500233667E+03 0.  0.
         23    2    1    2    0    0 -0.36419419775E+02 -0.35841426646E+02  0.73733546867E+03  0.74480871506E+03  0.92007861961E+02 0.  0.
        -11    1    4    4    0    0 -0.26464904255E+02  0.27973399571E+02  0.35172979589E+03  0.35383152991E+03  0.51100000000E-03 0. -1.
         11    1    4    4    0    0 -0.99545155202E+01 -0.63814826217E+02  0.38560567278E+03  0.39097718515E+03  0.51100000000E-03 0.  1.
    9000005    1    3    3    0    0 -0.11652353774E+02  0.71286899502E+02  0.77822752894E+03  0.78157321230E+03  0.10000000000E+01 0.  0.
    9000005    1    3    3    0    0  0.48071773549E+02 -0.35445472856E+02  0.99278541554E+03  0.99458089578E+03  0.10000000000E+01 0.  0.
<mgrwt>
<rscale>  0 0.12688305E+03</rscale>
<asrwt>0</asrwt>
<pdfrwt beam="1">  1        1 0.38686962E+00 0.13504283E+03</pdfrwt>
<pdfrwt beam="2">  1       -1 0.97034043E-03 0.13504283E+03</pdfrwt>
<totfact> 0.30475805E+03</totfact>
</mgrwt>
</event>
<event>
 8    2  0.7478846E-004  0.1310358E+03  0.7818608E-02  0.1241290E+00
         -1   -1    0    0    0  501 -0.00000000000E+00  0.00000000000E+00  0.45596019753E+02  0.45596020031E+02  0.50400000000E-02 0.  1.
          1   -1    0    0  501    0  0.00000000000E+00 -0.00000000000E+00 -0.34770333174E+03  0.34770333178E+03  0.50400000000E-02 0. -1.
         25    2    1    2    0    0 -0.37958282187E+02  0.10216254008E+02 -0.25506855964E+03  0.28675832671E+03  0.12500065915E+03 0.  0.
         23    2    1    2    0    0  0.37958282187E+02 -0.10216254008E+02 -0.47038752350E+02  0.10654102510E+03  0.87138641111E+02 0.  0.
        -11    1    4    4    0    0  0.44254513063E+02  0.12377188647E+01 -0.68412384668E+02  0.81487718404E+02  0.51100000000E-03 0. -1.
         11    1    4    4    0    0 -0.62962308767E+01 -0.11453972873E+02  0.21373632318E+02  0.25053306699E+02  0.51100000000E-03 0.  1.
    9000005    1    3    3    0    0 -0.34772566053E+02  0.43435250393E+02 -0.24592495624E+03  0.25214249231E+03  0.10000000000E+01 0.  0.
    9000005    1    3    3    0    0 -0.31857161334E+01 -0.33218996384E+02 -0.91436034019E+01  0.34615834400E+02  0.10000000000E+01 0.  0.
<mgrwt>
<rscale>  0 0.12110186E+03</rscale>
<asrwt>0</asrwt>
<pdfrwt beam="2">  1        1 0.53492819E-01 0.13103575E+03</pdfrwt>
<pdfrwt beam="1">  1       -1 0.70147725E-02 0.13103575E+03</pdfrwt>
<totfact> 0.72686849E+03</totfact>
</mgrwt>
</event>
<event>
 8    2  0.7478846E-004  0.1877280E+03  0.7818608E-02  0.1165672E+00
         -1   -1    0    0    0  501 -0.00000000000E+00  0.00000000000E+00  0.48752659838E+02  0.48752660098E+02  0.50400000000E-02 0.  1.
          1   -1    0    0  501    0  0.00000000000E+00 -0.00000000000E+00 -0.68800563523E+03  0.68800563525E+03  0.50400000000E-02 0. -1.
         25    2    1    2    0    0 -0.13486025977E+03 -0.37809871025E+02 -0.43046779328E+03  0.46962148651E+03  0.12499977411E+03 0.  0.
         23    2    1    2    0    0  0.13486025977E+03  0.37809871025E+02 -0.20878518211E+03  0.26713680883E+03  0.90299204619E+02 0.  0.
        -11    1    4    4    0    0  0.64410268642E+01 -0.16649558496E+02 -0.62528890933E+02  0.65027354450E+02  0.51100000000E-03 0. -1.
         11    1    4    4    0    0  0.12841923290E+03  0.54459429521E+02 -0.14625629117E+03  0.20210945438E+03  0.51100000000E-03 0.  1.
    9000005    1    3    3    0    0 -0.79023711537E+02 -0.57582020967E+02 -0.12624853014E+03  0.15968759340E+03  0.10000000000E+01 0.  0.
    9000005    1    3    3    0    0 -0.55836548229E+02  0.19772149942E+02 -0.30421926314E+03  0.30993389311E+03  0.10000000000E+01 0.  0.
<mgrwt>
<rscale>  0 0.18221976E+03</rscale>
<asrwt>0</asrwt>
<pdfrwt beam="2">  1        1 0.10584701E+00 0.18772805E+03</pdfrwt>
<pdfrwt beam="1">  1       -1 0.75004097E-02 0.18772805E+03</pdfrwt>
<totfact> 0.27195839E+03</totfact>
</mgrwt>
</event>
<event>
 8    2  0.7478846E-004  0.1351103E+03  0.7818608E-02  0.1232714E+00
          1   -1    0    0  501    0  0.00000000000E+00  0.00000000000E+00  0.11125306600E+03  0.11125306612E+03  0.50400000000E-02 0. -1.
         -1   -1    0    0    0  501 -0.00000000000E+00 -0.00000000000E+00 -0.12840915235E+03  0.12840915245E+03  0.50400000000E-02 0.  1.
         25    2    1    2    0    0 -0.37574211756E+02 -0.34907802409E+02 -0.12123627551E+02  0.13565317488E+03  0.12499770178E+03 0.  0.
         23    2    1    2    0    0  0.37574211756E+02  0.34907802409E+02 -0.50324588022E+01  0.10400904369E+03  0.90344781087E+02 0.  0.
        -11    1    4    4    0    0  0.59729940038E+02  0.34579798451E+02  0.18734563361E+02  0.71515117719E+02  0.51100000000E-03 0. -1.
         11    1    4    4    0    0 -0.22155728281E+02  0.32800395744E+00 -0.23767022163E+02  0.32493925971E+02  0.51100000000E-03 0.  1.
    9000005    1    3    3    0    0 -0.34242309949E+02  0.40930651405E+02 -0.24506410742E+02  0.58731747655E+02  0.10000000000E+01 0.  0.
    9000005    1    3    3    0    0 -0.33319018074E+01 -0.75838453814E+02  0.12382783191E+02  0.76921427224E+02  0.10000000000E+01 0.  0.
<mgrwt>
<rscale>  0 0.12651935E+03</rscale>
<asrwt>0</asrwt>
<pdfrwt beam="1">  1        1 0.17115856E-01 0.13511033E+03</pdfrwt>
<pdfrwt beam="2">  1       -1 0.19755254E-01 0.13511033E+03</pdfrwt>
<totfact> 0.61194361E+03</totfact>
</mgrwt>
</event>
<event>
 8    2  0.7478846E-004  0.1488585E+03  0.7818608E-02  0.1211617E+00
          1   -1    0    0  501    0  0.00000000000E+00  0.00000000000E+00  0.77115634928E+02  0.77115635092E+02  0.50400000000E-02 0. -1.
         -1   -1    0    0    0  501 -0.00000000000E+00 -0.00000000000E+00 -0.31713074095E+03  0.31713074099E+03  0.50400000000E-02 0.  1.
         25    2    1    2    0    0  0.72935495744E+02  0.34845308953E+02 -0.29813419336E+02  0.15181463401E+03  0.12500024413E+03 0.  0.
         23    2    1    2    0    0 -0.72935495744E+02 -0.34845308953E+02 -0.21020168668E+03  0.24243174206E+03  0.89747525767E+02 0.  0.
        -11    1    4    4    0    0 -0.37261450130E+02  0.20129401655E+02 -0.33594915482E+02  0.54057625025E+02  0.51100000000E-03 0. -1.
         11    1    4    4    0    0 -0.35674045614E+02 -0.54974710608E+02 -0.17660677120E+03  0.18837411704E+03  0.51100000000E-03 0.  1.
    9000005    1    3    3    0    0 -0.68429433279E+00  0.35344270969E+02  0.37861845352E+02  0.51809314631E+02  0.10000000000E+01 0.  0.
    9000005    1    3    3    0    0  0.73619790077E+02 -0.49896201548E+00 -0.67675264689E+02  0.10000531938E+03  0.10000000000E+01 0.  0.
<mgrwt>
<rscale>  0 0.14128014E+03</rscale>
<asrwt>0</asrwt>
<pdfrwt beam="1">  1        1 0.11863944E-01 0.14885847E+03</pdfrwt>
<pdfrwt beam="2">  1       -1 0.48789344E-01 0.14885847E+03</pdfrwt>
<totfact> 0.21365876E+03</totfact>
</mgrwt>
</event>
<event>
 8    2  0.7478846E-004  0.1543542E+03  0.7818608E-02  0.1203148E+00
         -1   -1    0    0    0  501 -0.00000000000E+00  0.00000000000E+00  0.72752076783E+02  0.72752076958E+02  0.50400000000E-02 0.  1.
          1   -1    0    0  501    0  0.00000000000E+00 -0.00000000000E+00 -0.29495919572E+03  0.29495919576E+03  0.50400000000E-02 0. -1.
         25    2    1    2    0    0 -0.70459741853E+02  0.56882346915E+02 -0.75756011646E+02  0.17194241864E+03  0.12500018165E+03 0.  0.
         23    2    1    2    0    0  0.70459741853E+02 -0.56882346915E+02 -0.14645110729E+03  0.19576885408E+03  0.93152245225E+02 0.  0.
        -11    1    4    4    0    0  0.65471171707E+02 -0.71715718281E+02 -0.15094861563E+03  0.17948566276E+03  0.51100000000E-03 0. -1.
         11    1    4    4    0    0  0.49885701459E+01  0.14833371366E+02  0.44975083455E+01  0.16283191326E+02  0.51100000000E-03 0.  1.
    9000005    1    3    3    0    0 -0.47492790138E+02  0.95153504140E+02 -0.69037592864E+02  0.12679488828E+03  0.10000000000E+01 0.  0.
    9000005    1    3    3    0    0 -0.22966951715E+02 -0.38271157225E+02 -0.67184187822E+01  0.45147530357E+02  0.10000000000E+01 0.  0.
<mgrwt>
<rscale>  0 0.14784357E+03</rscale>
<asrwt>0</asrwt>
<pdfrwt beam="2">  1        1 0.45378337E-01 0.15435421E+03</pdfrwt>
<pdfrwt beam="1">  1       -1 0.11192627E-01 0.15435421E+03</pdfrwt>
<totfact> 0.44291161E+03</totfact>
</mgrwt>
</event>
<event>
 8    2  0.7478846E-004  0.1272792E+03  0.7818608E-02  0.1246056E+00
          1   -1    0    0  501    0  0.00000000000E+00  0.00000000000E+00  0.88987176012E+02  0.88987176154E+02  0.50400000000E-02 0. -1.
         -1   -1    0    0    0  501 -0.00000000000E+00 -0.00000000000E+00 -0.14171530128E+03  0.14171530137E+03  0.50400000000E-02 0.  1.
         25    2    1    2    0    0 -0.18197593332E+02 -0.15611101801E+02 -0.47368407193E+02  0.13580784707E+03  0.12500058569E+03 0.  0.
         23    2    1    2    0    0  0.18197593332E+02  0.15611101801E+02 -0.53597180743E+01  0.94894630452E+02  0.91659180710E+02 0.  0.
        -11    1    4    4    0    0  0.22170112516E+01  0.61456136624E+01 -0.47969688608E+02  0.48412547254E+02  0.51100000000E-03 0.  1.
         11    1    4    4    0    0  0.15980582080E+02  0.94654881383E+01  0.42609970534E+02  0.46482083199E+02  0.51100000000E-03 0. -1.
    9000005    1    3    3    0    0  0.36567598703E+02  0.11162392111E+02  0.21463544064E+02  0.43857405262E+02  0.10000000000E+01 0.  0.
    9000005    1    3    3    0    0 -0.54765192035E+02 -0.26773493911E+02 -0.68831951257E+02  0.91950441808E+02  0.10000000000E+01 0.  0.
<mgrwt>
<rscale>  0 0.11822386E+03</rscale>
<asrwt>0</asrwt>
<pdfrwt beam="1">  1        1 0.13690335E-01 0.12727924E+03</pdfrwt>
<pdfrwt beam="2">  1       -1 0.21802354E-01 0.12727924E+03</pdfrwt>
<totfact> 0.69367075E+03</totfact>
</mgrwt>
</event>
<event>
 8    2  0.7478846E-004  0.2080810E+03  0.7818608E-02  0.1146938E+00
         -1   -1    0    0    0  501 -0.00000000000E+00  0.00000000000E+00  0.20873281861E+02  0.20873282469E+02  0.50400000000E-02 0.  1.
          1   -1    0    0  501    0  0.00000000000E+00 -0.00000000000E+00 -0.18968750772E+04  0.18968750772E+04  0.50400000000E-02 0. -1.
         25    2    1    2    0    0  0.16584301960E+03 -0.13007292120E+02 -0.96342292694E+03  0.98563758384E+03  0.12499845496E+03 0.  0.
         23    2    1    2    0    0 -0.16584301960E+03  0.13007292120E+02 -0.91257886836E+03  0.93211077579E+03  0.91417780359E+02 0.  0.
        -11    1    4    4    0    0 -0.38723654394E+02  0.22728429268E+02 -0.45161062478E+03  0.45383726083E+03  0.51100000000E-03 0.  1.
         11    1    4    4    0    0 -0.12711936521E+03 -0.97211371481E+01 -0.46096824358E+03  0.47827351495E+03  0.51100000000E-03 0. -1.
    9000005    1    3    3    0    0  0.68120172073E+02 -0.20726917849E+02 -0.14689184646E+03  0.16324269516E+03  0.10000000000E+01 0.  0.
    9000005    1    3    3    0    0  0.97722847527E+02  0.77196257294E+01 -0.81653108048E+03  0.82239488869E+03  0.10000000000E+01 0.  0.
<mgrwt>
<rscale>  0 0.20335640E+03</rscale>
<asrwt>0</asrwt>
<pdfrwt beam="2">  1        1 0.29182680E+00 0.20808102E+03</pdfrwt>
<pdfrwt beam="1">  1       -1 0.32112757E-02 0.20808102E+03</pdfrwt>
<totfact> 0.13473626E+03</totfact>
</mgrwt>
</event>
<event>
 8    2  0.7478846E-004  0.1698274E+03  0.7818608E-02  0.1185972E+00
          1   -1    0    0  501    0  0.00000000000E+00  0.00000000000E+00  0.21039643807E+03  0.21039643813E+03  0.50400000000E-02 0. -1.
         -1   -1    0    0    0  501 -0.00000000000E+00 -0.00000000000E+00 -0.12067821119E+03  0.12067821130E+03  0.50400000000E-02 0.  1.
         25    2    1    2    0    0 -0.11432374404E+03  0.12059884107E+02  0.82357019174E+02  0.18874329321E+03  0.12500397142E+03 0.  0.
         23    2    1    2    0    0  0.11432374404E+03 -0.12059884107E+02  0.73612077047E+01  0.14233135621E+03  0.83598255532E+02 0.  0.
        -11    1    4    4    0    0  0.77294231830E+02 -0.46168573595E+02 -0.60345151897E+01  0.90234975679E+02  0.51100000000E-03 0. -1.
         11    1    4    4    0    0  0.37029512206E+02  0.34108689488E+02  0.13395722894E+02  0.52096380535E+02  0.51100000000E-03 0.  1.
    9000005    1    3    3    0    0 -0.11697878407E+03 -0.34533097849E+02  0.49377911331E+02  0.13158931908E+03  0.10000000000E+01 0.  0.
    9000005    1    3    3    0    0  0.26550400317E+01  0.46592981956E+02  0.32979107843E+02  0.57153974133E+02  0.10000000000E+01 0.  0.
<mgrwt>
<rscale>  0 0.16243724E+03</rscale>
<asrwt>0</asrwt>
<pdfrwt beam="1">  1        1 0.32368683E-01 0.16982742E+03</pdfrwt>
<pdfrwt beam="2">  1       -1 0.18565879E-01 0.16982742E+03</pdfrwt>
<totfact> 0.30594838E+03</totfact>
</mgrwt>
</event>
<event>
 8    2  0.7478846E-004  0.1382577E+03  0.7818608E-02  0.1228453E+00
          1   -1    0    0  501    0  0.00000000000E+00  0.00000000000E+00  0.73238281446E+03  0.73238281447E+03  0.50400000000E-02 0. -1.
         -1   -1    0    0    0  501 -0.00000000000E+00 -0.00000000000E+00 -0.20762704488E+02  0.20762705100E+02  0.50400000000E-02 0.  1.
         25    2    1    2    0    0  0.58836500729E+02 -0.53164673915E+01  0.45519490346E+03  0.47572847215E+03  0.12500072171E+03 0.  0.
         23    2    1    2    0    0 -0.58836500729E+02  0.53164673915E+01  0.25642520651E+03  0.27741704743E+03  0.87842660644E+02 0.  0.
        -11    1    4    4    0    0  0.16192500805E+02 -0.19364685884E+02  0.43216918267E+02  0.50048877774E+02  0.51100000000E-03 0. -1.
         11    1    4    4    0    0 -0.75029001534E+02  0.24681153275E+02  0.21320828824E+03  0.22736816965E+03  0.51100000000E-03 0.  1.
    9000005    1    3    3    0    0 -0.22198512842E+02 -0.42557355552E+02  0.18839198344E+03  0.19441307031E+03  0.10000000000E+01 0.  0.
    9000005    1    3    3    0    0  0.81035013572E+02  0.37240888161E+02  0.26680292003E+03  0.28131540184E+03  0.10000000000E+01 0.  0.
<mgrwt>
<rscale>  0 0.12933016E+03</rscale>
<asrwt>0</asrwt>
<pdfrwt beam="1">  1        1 0.11267426E+00 0.13825765E+03</pdfrwt>
<pdfrwt beam="2">  1       -1 0.31942628E-02 0.13825765E+03</pdfrwt>
<totfact> 0.87166777E+03</totfact>
</mgrwt>
</event>
<event>
 8    2  0.7478846E-004  0.1324338E+03  0.7818608E-02  0.1239155E+00
         -1   -1    0    0    0  501 -0.00000000000E+00  0.00000000000E+00  0.22960583615E+02  0.22960584168E+02  0.50400000000E-02 0.  1.
          1   -1    0    0  501    0  0.00000000000E+00 -0.00000000000E+00 -0.62207414547E+03  0.62207414549E+03  0.50400000000E-02 0. -1.
         25    2    1    2    0    0  0.43708072495E+02 -0.18923692840E+01 -0.25171066938E+03  0.28442393814E+03  0.12499895536E+03 0.  0.
         23    2    1    2    0    0 -0.43708072495E+02  0.18923692840E+01 -0.34740289247E+03  0.36061079152E+03  0.86240342073E+02 0.  0.
        -11    1    4    4    0    0  0.15780959511E+02 -0.10858797861E+02 -0.20352405158E+02  0.27949464575E+02  0.51100000000E-03 0.  1.
         11    1    4    4    0    0 -0.59489032006E+02  0.12751167145E+02 -0.32705048731E+03  0.33266132694E+03  0.51100000000E-03 0. -1.
    9000005    1    3    3    0    0  0.41094515540E+02  0.40063861962E+02 -0.23008962573E+03  0.23714153603E+03  0.10000000000E+01 0.  0.
    9000005    1    3    3    0    0  0.26135569549E+01 -0.41956231246E+02 -0.21621043654E+02  0.47282402107E+02  0.10000000000E+01 0.  0.
<mgrwt>
<rscale>  0 0.12242175E+03</rscale>
<asrwt>0</asrwt>
<pdfrwt beam="2">  1        1 0.95703702E-01 0.13243382E+03</pdfrwt>
<pdfrwt beam="1">  1       -1 0.35323980E-02 0.13243382E+03</pdfrwt>
<totfact> 0.94511144E+03</totfact>
</mgrwt>
</event>
<event>
 8    2  0.7478846E-004  0.1991763E+03  0.7818608E-02  0.1154644E+00
         -1   -1    0    0    0  501 -0.00000000000E+00  0.00000000000E+00  0.23921792278E+03  0.23921792283E+03  0.50400000000E-02 0.  1.
          1   -1    0    0  501    0  0.00000000000E+00 -0.00000000000E+00 -0.16926877976E+03  0.16926877983E+03  0.50400000000E-02 0. -1.
         25    2    1    2    0    0 -0.57385777196E+02 -0.14405230231E+03  0.10438821430E+03  0.22487348423E+03  0.12500796534E+03 0.  0.
         23    2    1    2    0    0  0.57385777196E+02  0.14405230231E+03 -0.34439071278E+02  0.18361321844E+03  0.92106303410E+02 0.  0.
        -11    1    4    4    0    0  0.49420734499E+02  0.19347005943E+02  0.30241709067E+01  0.53158830379E+02  0.51100000000E-03 0. -1.
         11    1    4    4    0    0  0.79650426970E+01  0.12470529637E+03 -0.37463242185E+02  0.13045438806E+03  0.51100000000E-03 0.  1.
    9000005    1    3    3    0    0 -0.76647105404E+02 -0.33512715340E+02  0.24642629573E+02  0.87213187355E+02  0.10000000000E+01 0.  0.
    9000005    1    3    3    0    0  0.19261328208E+02 -0.11053958697E+03  0.79745584724E+02  0.13766029687E+03  0.10000000000E+01 0.  0.
<mgrwt>
<rscale>  0 0.19429426E+03</rscale>
<asrwt>0</asrwt>
<pdfrwt beam="2">  1        1 0.26041351E-01 0.19917627E+03</pdfrwt>
<pdfrwt beam="1">  1       -1 0.36802758E-01 0.19917627E+03</pdfrwt>
<totfact> 0.12915920E+03</totfact>
</mgrwt>
</event>
<event>
 8    2  0.7478846E-004  0.2474475E+03  0.7818608E-02  0.1117598E+00
         -1   -1    0    0    0  501 -0.00000000000E+00  0.00000000000E+00  0.11170495557E+03  0.11170495568E+03  0.50400000000E-02 0.  1.
          1   -1    0    0  501    0  0.00000000000E+00 -0.00000000000E+00 -0.74697459708E+03  0.74697459709E+03  0.50400000000E-02 0. -1.
         25    2    1    2    0    0 -0.15481382473E+03  0.14709740953E+03 -0.84814170054E+02  0.26157921751E+03  0.12500110149E+03 0.  0.
         23    2    1    2    0    0  0.15481382473E+03 -0.14709740953E+03 -0.55045547146E+03  0.59710033526E+03  0.89009078743E+02 0.  0.
        -11    1    4    4    0    0  0.66977844290E+02 -0.99143168349E+02 -0.39050790804E+03  0.40842603455E+03  0.51100000000E-03 0. -1.
         11    1    4    4    0    0  0.87835980437E+02 -0.47954241182E+02 -0.15994756341E+03  0.18867430071E+03  0.51100000000E-03 0.  1.
    9000005    1    3    3    0    0 -0.14187881550E+03  0.14296725969E+03 -0.11251302570E+03  0.23071501161E+03  0.10000000000E+01 0.  0.
    9000005    1    3    3    0    0 -0.12935009226E+02  0.41301498431E+01  0.27698855649E+02  0.30864205897E+02  0.10000000000E+01 0.  0.
<mgrwt>
<rscale>  0 0.24332372E+03</rscale>
<asrwt>0</asrwt>
<pdfrwt beam="2">  1        1 0.11491917E+00 0.24744746E+03</pdfrwt>
<pdfrwt beam="1">  1       -1 0.17185378E-01 0.24744746E+03</pdfrwt>
<totfact> 0.66402139E+02</totfact>
</mgrwt>
</event>
<event>
 8    2  0.7478846E-004  0.1610690E+03  0.7818608E-02  0.1194957E+00
         -1   -1    0    0    0  501 -0.00000000000E+00  0.00000000000E+00  0.23738163777E+02  0.23738164312E+02  0.50400000000E-02 0. -1.
          1   -1    0    0  501    0  0.00000000000E+00 -0.00000000000E+00 -0.96205811076E+03  0.96205811077E+03  0.50400000000E-02 0.  1.
         25    2    1    2    0    0 -0.64210567847E+02 -0.78714384538E+02 -0.59133708983E+03  0.61288070941E+03  0.12499703515E+03 0.  0.
         23    2    1    2    0    0  0.64210567847E+02  0.78714384538E+02 -0.34698285715E+03  0.37291556568E+03  0.91378140776E+02 0.  0.
        -11    1    4    4    0    0  0.17727490759E+02  0.85453953413E+00 -0.19594598125E+03  0.19674811749E+03  0.51100000000E-03 0.  1.
         11    1    4    4    0    0  0.46483077088E+02  0.77859845004E+02 -0.15103687590E+03  0.17616744819E+03  0.51100000000E-03 0. -1.
    9000005    1    3    3    0    0  0.19931925892E+02 -0.72741882866E+02 -0.31788752408E+03  0.32671415819E+03  0.10000000000E+01 0.  0.
    9000005    1    3    3    0    0 -0.84142493740E+02 -0.59725016726E+01 -0.27344956575E+03  0.28616655122E+03  0.10000000000E+01 0.  0.
<mgrwt>
<rscale>  0 0.15457839E+03</rscale>
<asrwt>0</asrwt>
<pdfrwt beam="2">  1        1 0.14800891E+00 0.16106896E+03</pdfrwt>
<pdfrwt beam="1">  1       -1 0.36520260E-02 0.16106896E+03</pdfrwt>
<totfact> 0.47295406E+03</totfact>
</mgrwt>
</event>
<event>
 8    2  0.7478846E-004  0.1426098E+03  0.7818608E-02  0.1220608E+00
          1   -1    0    0  501    0  0.00000000000E+00  0.00000000000E+00  0.21098374550E+03  0.21098374556E+03  0.50400000000E-02 0. -1.
         -1   -1    0    0    0  501 -0.00000000000E+00 -0.00000000000E+00 -0.77804875894E+02  0.77804876057E+02  0.50400000000E-02 0.  1.
         25    2    1    2    0    0 -0.67100227707E+02  0.14506138752E+02  0.71489143106E+02  0.15952509812E+03  0.12499876291E+03 0.  0.
         23    2    1    2    0    0  0.67100227707E+02 -0.14506138752E+02  0.61689726495E+02  0.12926352349E+03  0.90501754299E+02 0.  0.
        -11    1    4    4    0    0  0.20507567990E+02  0.17768012334E+01  0.75302064499E+02  0.78064833860E+02  0.51100000000E-03 0. -1.
         11    1    4    4    0    0  0.46592659717E+02 -0.16282939985E+02 -0.13612338004E+02  0.51198689634E+02  0.51100000000E-03 0.  1.
    9000005    1    3    3    0    0 -0.40044081151E+02  0.70113210953E+02  0.41541880537E+02  0.90808141837E+02  0.10000000000E+01 0.  0.
    9000005    1    3    3    0    0 -0.27056146555E+02 -0.55607072201E+02  0.29947262569E+02  0.68716956281E+02  0.10000000000E+01 0.  0.
<mgrwt>
<rscale>  0 0.13472563E+03</rscale>
<asrwt>0</asrwt>
<pdfrwt beam="1">  1        1 0.32459038E-01 0.14260982E+03</pdfrwt>
<pdfrwt beam="2">  1       -1 0.11969981E-01 0.14260982E+03</pdfrwt>
<totfact> 0.60235658E+03</totfact>
</mgrwt>
</event>
<event>
 8    2  0.7478846E-004  0.1971736E+03  0.7818608E-02  0.1156536E+00
          1   -1    0    0  501    0  0.00000000000E+00  0.00000000000E+00  0.14236744362E+03  0.14236744371E+03  0.50400000000E-02 0. -1.
         -1   -1    0    0    0  501 -0.00000000000E+00 -0.00000000000E+00 -0.32222638864E+03  0.32222638868E+03  0.50400000000E-02 0.  1.
         25    2    1    2    0    0  0.15195267357E+03  0.12687128598E+02  0.18677461559E+02  0.19805627406E+03  0.12500744732E+03 0.  0.
         23    2    1    2    0    0 -0.15195267357E+03 -0.12687128598E+02 -0.19853640658E+03  0.26653755833E+03  0.91514955204E+02 0.  0.
        -11    1    4    4    0    0 -0.91728416926E+02 -0.48817612347E+02 -0.14421386257E+03  0.17774954263E+03  0.51100000000E-03 0. -1.
         11    1    4    4    0    0 -0.60224256648E+02  0.36130483749E+02 -0.54322544010E+02  0.88788015705E+02  0.51100000000E-03 0.  1.
    9000005    1    3    3    0    0  0.13610918857E+02 -0.43857885476E+02 -0.68395322099E+01  0.46438673876E+02  0.10000000000E+01 0.  0.
    9000005    1    3    3    0    0  0.13834175472E+03  0.56545014074E+02  0.25516993769E+02  0.15161760018E+03  0.10000000000E+01 0.  0.
<mgrwt>
<rscale>  0 0.19215045E+03</rscale>
<asrwt>0</asrwt>
<pdfrwt beam="1">  1        1 0.21902684E-01 0.19717363E+03</pdfrwt>
<pdfrwt beam="2">  1       -1 0.49573290E-01 0.19717363E+03</pdfrwt>
<totfact> 0.94423494E+02</totfact>
</mgrwt>
</event>
<event>
 8    2  0.7478846E-004  0.1364995E+03  0.7818608E-02  0.1230584E+00
         -1   -1    0    0    0  501 -0.00000000000E+00  0.00000000000E+00  0.23695083082E+02  0.23695083618E+02  0.50400000000E-02 0.  1.
          1   -1    0    0  501    0  0.00000000000E+00 -0.00000000000E+00 -0.81101786123E+03  0.81101786124E+03  0.50400000000E-02 0. -1.
         25    2    1    2    0    0  0.52547047032E+02 -0.15651335882E+02 -0.22933824283E+03  0.26688603194E+03  0.12500387177E+03 0.  0.
         23    2    1    2    0    0 -0.52547047032E+02  0.15651335882E+02 -0.55798453532E+03  0.56782691291E+03  0.89858248974E+02 0.  0.
        -11    1    4    4    0    0 -0.30580781035E+02  0.40414930303E+02 -0.48554039283E+03  0.48817827055E+03  0.51100000000E-03 0.  1.
         11    1    4    4    0    0 -0.21966265997E+02 -0.24763594421E+02 -0.72444142485E+02  0.79648642369E+02  0.51100000000E-03 0. -1.
    9000005    1    3    3    0    0 -0.13289972074E+02  0.43224570377E+02 -0.53113354519E+02  0.69763996949E+02  0.10000000000E+01 0.  0.
    9000005    1    3    3    0    0  0.65837019107E+02 -0.58875906258E+02 -0.17622488831E+03  0.19712203500E+03  0.10000000000E+01 0.  0.
<mgrwt>
<rscale>  0 0.12791430E+03</rscale>
<asrwt>0</asrwt>
<pdfrwt beam="2">  1        1 0.12477196E+00 0.13649954E+03</pdfrwt>
<pdfrwt beam="1">  1       -1 0.36453981E-02 0.13649954E+03</pdfrwt>
<totfact> 0.61723143E+03</totfact>
</mgrwt>
</event>
<event>
 8    2  0.7478846E-004  0.1877049E+03  0.7818608E-02  0.1165636E+00
         -1   -1    0    0    0  501 -0.00000000000E+00  0.00000000000E+00  0.17430542165E+03  0.17430542173E+03  0.50400000000E-02 0.  1.
          1   -1    0    0  501    0  0.00000000000E+00 -0.00000000000E+00 -0.18105976415E+03  0.18105976422E+03  0.50400000000E-02 0. -1.
         25    2    1    2    0    0  0.12159448000E+03  0.69450199395E+02  0.79498050126E+01  0.18787321103E+03  0.12499838502E+03 0.  0.
         23    2    1    2    0    0 -0.12159448000E+03 -0.69450199395E+02 -0.14704147508E+02  0.16749197492E+03  0.90712744113E+02 0.  0.
        -11    1    4    4    0    0 -0.16126696169E+01 -0.20966514989E+02  0.24489908151E+02  0.32279266652E+02  0.51100000000E-03 0.  1.
         11    1    4    4    0    0 -0.11998181039E+03 -0.48483684406E+02 -0.39194055659E+02  0.13521270827E+03  0.51100000000E-03 0. -1.
    9000005    1    3    3    0    0  0.70251932126E+02  0.10334468005E+03  0.15329858718E+02  0.12590258707E+03  0.10000000000E+01 0.  0.
    9000005    1    3    3    0    0  0.51342547878E+02 -0.33894480653E+02 -0.73800537053E+01  0.61970623961E+02  0.10000000000E+01 0.  0.
<mgrwt>
<rscale>  0 0.18225744E+03</rscale>
<asrwt>0</asrwt>
<pdfrwt beam="2">  1        1 0.27855348E-01 0.18770494E+03</pdfrwt>
<pdfrwt beam="1">  1       -1 0.26816219E-01 0.18770494E+03</pdfrwt>
<totfact> 0.20324363E+03</totfact>
</mgrwt>
</event>
<event>
 8    2  0.7478846E-004  0.1486108E+03  0.7818608E-02  0.1210155E+00
          1   -1    0    0  501    0  0.00000000000E+00  0.00000000000E+00  0.20059885852E+03  0.20059885859E+03  0.50400000000E-02 0. -1.
         -1   -1    0    0    0  501 -0.00000000000E+00 -0.00000000000E+00 -0.10418250901E+03  0.10418250913E+03  0.50400000000E-02 0.  1.
         25    2    1    2    0    0  0.77873081774E+02  0.19910751106E+02  0.10063839712E+03  0.17948053141E+03  0.12499807720E+03 0.  0.
         23    2    1    2    0    0 -0.77873081774E+02 -0.19910751106E+02 -0.42220476070E+01  0.12530083631E+03  0.96030302606E+02 0.  0.
        -11    1    4    4    0    0 -0.21145409436E+02 -0.50046932475E+02  0.18147871874E+02  0.57281489543E+02  0.51100000000E-03 0.  1.
         11    1    4    4    0    0 -0.56727672338E+02  0.30136181369E+02 -0.22369919481E+02  0.68019346764E+02  0.51100000000E-03 0. -1.
    9000005    1    3    3    0    0  0.66872119533E+02 -0.37286424556E+02  0.18487450423E+02  0.78771464695E+02  0.10000000000E+01 0.  0.
    9000005    1    3    3    0    0  0.11000962241E+02  0.57197175663E+02  0.82150946701E+02  0.10070906671E+03  0.10000000000E+01 0.  0.
<mgrwt>
<rscale>  0 0.14238513E+03</rscale>
<asrwt>0</asrwt>
<pdfrwt beam="1">  1        1 0.30861363E-01 0.14861081E+03</pdfrwt>
<pdfrwt beam="2">  1       -1 0.16028079E-01 0.14861081E+03</pdfrwt>
<totfact> 0.40761510E+03</totfact>
</mgrwt>
</event>
<event>
 8    2  0.7478846E-004  0.1380453E+03  0.7818608E-02  0.1227282E+00
          1   -1    0    0  501    0  0.00000000000E+00  0.00000000000E+00  0.66077788892E+02  0.66077789084E+02  0.50400000000E-02 0. -1.
         -1   -1    0    0    0  501 -0.00000000000E+00 -0.00000000000E+00 -0.24170243140E+03  0.24170243145E+03  0.50400000000E-02 0.  1.
         25    2    1    2    0    0  0.12461730325E+02  0.57241680967E+02 -0.65271167528E+02  0.15269848551E+03  0.12499838960E+03 0.  0.
         23    2    1    2    0    0 -0.12461730325E+02 -0.57241680967E+02 -0.11035347498E+03  0.15508173502E+03  0.91872467783E+02 0.  0.
        -11    1    4    4    0    0  0.27224647919E+02 -0.15132213388E+02 -0.76724144355E+00  0.31156925330E+02  0.51100000000E-03 0. -1.
         11    1    4    4    0    0 -0.39686378244E+02 -0.42109467579E+02 -0.10958623353E+03  0.12392480969E+03  0.51100000000E-03 0.  1.
    9000005    1    3    3    0    0  0.50958540150E+02 -0.17425803225E+02 -0.21852644251E+02  0.58128904110E+02  0.10000000000E+01 0.  0.
    9000005    1    3    3    0    0 -0.38496809825E+02  0.74667484192E+02 -0.43418523277E+02  0.94569581398E+02  0.10000000000E+01 0.  0.
<mgrwt>
<rscale>  0 0.13011692E+03</rscale>
<asrwt>0</asrwt>
<pdfrwt beam="1">  1        1 0.10165814E-01 0.13804529E+03</pdfrwt>
<pdfrwt beam="2">  1       -1 0.37184989E-01 0.13804529E+03</pdfrwt>
<totfact> 0.42271492E+03</totfact>
</mgrwt>
</event>
<event>
 8    2  0.7478846E-004  0.1739006E+03  0.7818608E-02  0.1180063E+00
          1   -1    0    0  501    0  0.00000000000E+00  0.00000000000E+00  0.10680733634E+03  0.10680733645E+03  0.50400000000E-02 0. -1.
         -1   -1    0    0    0  501 -0.00000000000E+00 -0.00000000000E+00 -0.24939058904E+03  0.24939058909E+03  0.50400000000E-02 0.  1.
         25    2    1    2    0    0 -0.11437469384E+03 -0.39178466127E+02 -0.92858822086E+02  0.19713996016E+03  0.12499952101E+03 0.  0.
         23    2    1    2    0    0  0.11437469384E+03  0.39178466127E+02 -0.49724430619E+02  0.15905796539E+03  0.90611227526E+02 0.  0.
        -11    1    4    4    0    0  0.34018038685E+02 -0.81490133259E+01  0.22074060188E+02  0.41362996840E+02  0.51100000000E-03 0. -1.
         11    1    4    4    0    0  0.80356655157E+02  0.47327479453E+02 -0.71798490807E+02  0.11769496855E+03  0.51100000000E-03 0.  1.
    9000005    1    3    3    0    0  0.16894403587E+02 -0.31935776826E+02 -0.43860554272E+02  0.56833642634E+02  0.10000000000E+01 0.  0.
    9000005    1    3    3    0    0 -0.13126909743E+03 -0.72426893010E+01 -0.48998267814E+02  0.14030631752E+03  0.10000000000E+01 0.  0.
<mgrwt>
<rscale>  0 0.16789263E+03</rscale>
<asrwt>0</asrwt>
<pdfrwt beam="1">  1        1 0.16431898E-01 0.17390056E+03</pdfrwt>
<pdfrwt beam="2">  1       -1 0.38367783E-01 0.17390056E+03</pdfrwt>
<totfact> 0.21569993E+03</totfact>
</mgrwt>
</event>
<event>
 8    2  0.7478846E-004  0.1258718E+03  0.7818608E-02  0.1249610E+00
         -1   -1    0    0    0  501 -0.00000000000E+00  0.00000000000E+00  0.20652402196E+02  0.20652402811E+02  0.50400000000E-02 0.  1.
          1   -1    0    0  501    0  0.00000000000E+00 -0.00000000000E+00 -0.57577217513E+03  0.57577217515E+03  0.50400000000E-02 0. -1.
         25    2    1    2    0    0  0.13220863921E+02  0.65815777244E+01 -0.34962445335E+03  0.37159246102E+03  0.12500236118E+03 0.  0.
         23    2    1    2    0    0 -0.13220863921E+02 -0.65815777244E+01 -0.20549531958E+03  0.22483211694E+03  0.90016920795E+02 0.  0.
        -11    1    4    4    0    0  0.32856691749E+02  0.72922814885E+01 -0.38961863764E+02  0.51485594007E+02  0.51100000000E-03 0.  1.
         11    1    4    4    0    0 -0.46077555670E+02 -0.13873859213E+02 -0.16653345582E+03  0.17334652293E+03  0.51100000000E-03 0. -1.
    9000005    1    3    3    0    0  0.59703608830E+02  0.14941542612E+02 -0.99152018549E+02  0.11670429892E+03  0.10000000000E+01 0.  0.
    9000005    1    3    3    0    0 -0.46482744909E+02 -0.83599648876E+01 -0.25047243480E+03  0.25488816210E+03  0.10000000000E+01 0.  0.
<mgrwt>
<rscale>  0 0.11613661E+03</rscale>
<asrwt>0</asrwt>
<pdfrwt beam="2">  1        1 0.88580322E-01 0.12587176E+03</pdfrwt>
<pdfrwt beam="1">  1       -1 0.31772931E-02 0.12587176E+03</pdfrwt>
<totfact> 0.12207731E+04</totfact>
</mgrwt>
</event>
<event>
 8    2  0.7478846E-004  0.1534276E+03  0.7818608E-02  0.1205268E+00
         -1   -1    0    0    0  501 -0.00000000000E+00  0.00000000000E+00  0.16275707238E+03  0.16275707246E+03  0.50400000000E-02 0. -1.
          1   -1    0    0  501    0  0.00000000000E+00 -0.00000000000E+00 -0.12430529573E+03  0.12430529583E+03  0.50400000000E-02 0.  1.
         25    2    1    2    0    0  0.45856130957E+02  0.76253033987E+02  0.46830670356E+02  0.16041548264E+03  0.12499082145E+03 0.  0.
         23    2    1    2    0    0 -0.45856130957E+02 -0.76253033987E+02 -0.83788937028E+01  0.12664688566E+03  0.89732479337E+02 0.  0.
        -11    1    4    4    0    0 -0.69919260284E+02 -0.38221397113E+02 -0.15220769219E+02  0.81124903524E+02  0.51100000000E-03 0. -1.
         11    1    4    4    0    0  0.24063129327E+02 -0.38031636873E+02  0.68418755161E+01  0.45521982131E+02  0.51100000000E-03 0.  1.
    9000005    1    3    3    0    0  0.62753494317E+02  0.93147703299E+02  0.65547986147E+02  0.13004627702E+03  0.10000000000E+01 0.  0.
    9000005    1    3    3    0    0 -0.16897363360E+02 -0.16894669312E+02 -0.18717315791E+02  0.30369205622E+02  0.10000000000E+01 0.  0.
<mgrwt>
<rscale>  0 0.14616319E+03</rscale>
<asrwt>0</asrwt>
<pdfrwt beam="2">  1        1 0.19123892E-01 0.15342756E+03</pdfrwt>
<pdfrwt beam="1">  1       -1 0.25039549E-01 0.15342756E+03</pdfrwt>
<totfact> 0.36390340E+03</totfact>
</mgrwt>
</event>
<event>
 8    2  0.7478846E-004  0.1278029E+03  0.7818608E-02  0.1244606E+00
         -1   -1    0    0    0  501 -0.00000000000E+00  0.00000000000E+00  0.25988147758E+02  0.25988148247E+02  0.50400000000E-02 0.  1.
          1   -1    0    0  501    0  0.00000000000E+00 -0.00000000000E+00 -0.48464145621E+03  0.48464145624E+03  0.50400000000E-02 0. -1.
         25    2    1    2    0    0 -0.12938695675E+01  0.26618206487E+02 -0.27438111859E+03  0.30268563158E+03  0.12499356108E+03 0.  0.
         23    2    1    2    0    0  0.12938695675E+01 -0.26618206487E+02 -0.18427218987E+03  0.20794397291E+03  0.92597261811E+02 0.  0.
        -11    1    4    4    0    0 -0.19123494576E+02  0.21165809756E+02 -0.17973042980E+02  0.33715424091E+02  0.51100000000E-03 0.  1.
         11    1    4    4    0    0  0.20417364143E+02 -0.47784016243E+02 -0.16629914688E+03  0.17422854881E+03  0.51100000000E-03 0. -1.
    9000005    1    3    3    0    0 -0.77028982994E+01  0.19672041484E+02  0.61245968218E+01  0.22018958754E+02  0.10000000000E+01 0.  0.
    9000005    1    3    3    0    0  0.64090287319E+01  0.69461650031E+01 -0.28050571541E+03  0.28066667283E+03  0.10000000000E+01 0.  0.
<mgrwt>
<rscale>  0 0.11908998E+03</rscale>
<asrwt>0</asrwt>
<pdfrwt beam="2">  1        1 0.74560218E-01 0.12780295E+03</pdfrwt>
<pdfrwt beam="1">  1       -1 0.39981770E-02 0.12780295E+03</pdfrwt>
<totfact> 0.10961630E+04</totfact>
</mgrwt>
</event>
<event>
 8    2  0.7478846E-004  0.1424707E+03  0.7818608E-02  0.1221359E+00
          1   -1    0    0  501    0  0.00000000000E+00  0.00000000000E+00  0.47228129168E+04  0.47228129168E+04  0.50400000000E-02 0. -1.
         -1   -1    0    0    0  501 -0.00000000000E+00 -0.00000000000E+00 -0.34320893928E+01  0.34320930934E+01  0.50400000000E-02 0.  1.
         25    2    1    2    0    0  0.94780590815E+00 -0.68352323151E+02  0.26648050295E+04  0.26686108268E+04  0.12499984627E+03 0.  0.
         23    2    1    2    0    0 -0.94780590815E+00  0.68352323151E+02  0.20545757979E+04  0.20576341830E+04  0.88903225123E+02 0.  0.
        -11    1    4    4    0    0  0.24457915288E+02  0.12932569257E+02  0.13881272133E+04  0.13884028959E+04  0.51100000000E-03 0. -1.
         11    1    4    4    0    0 -0.25405721196E+02  0.55419753894E+02  0.66644858458E+03  0.66923128713E+03  0.51100000000E-03 0.  1.
    9000005    1    3    3    0    0  0.23596683703E+02  0.15264314160E+02  0.17064378141E+03  0.17294537549E+03  0.10000000000E+01 0.  0.
    9000005    1    3    3    0    0 -0.22648877795E+02 -0.83616637311E+02  0.24941612480E+04  0.24956654513E+04  0.10000000000E+01 0.  0.
<mgrwt>
<rscale>  0 0.13419616E+03</rscale>
<asrwt>0</asrwt>
<pdfrwt beam="1">  1        1 0.72658641E+00 0.14247070E+03</pdfrwt>
<pdfrwt beam="2">  1       -1 0.52801418E-03 0.14247070E+03</pdfrwt>
<totfact> 0.13041206E+02</totfact>
</mgrwt>
</event>
<event>
 8    2  0.7478846E-004  0.1259953E+03  0.7818608E-02  0.1249093E+00
          1   -1    0    0  501    0  0.00000000000E+00  0.00000000000E+00  0.73328760153E+03  0.73328760154E+03  0.50400000000E-02 0. -1.
         -1   -1    0    0    0  501 -0.00000000000E+00 -0.00000000000E+00 -0.16378752871E+02  0.16378753646E+02  0.50400000000E-02 0.  1.
         25    2    1    2    0    0 -0.43867289088E+00 -0.15816250650E+02  0.45402448282E+03  0.47118260075E+03  0.12499786410E+03 0.  0.
         23    2    1    2    0    0  0.43867289088E+00  0.15816250650E+02  0.26288436584E+03  0.27848375444E+03  0.90524391569E+02 0.  0.
        -11    1    4    4    0    0  0.35676325274E+01 -0.18831990640E+02  0.22939630284E+03  0.23019564642E+03  0.51100000000E-03 0. -1.
         11    1    4    4    0    0 -0.31289596365E+01  0.34648241290E+02  0.33488062992E+02  0.48288108020E+02  0.51100000000E-03 0.  1.
    9000005    1    3    3    0    0  0.38117922997E+02  0.21952591762E+02  0.65375945891E+02  0.78802960857E+02  0.10000000000E+01 0.  0.
    9000005    1    3    3    0    0 -0.38556595888E+02 -0.37768842412E+02  0.38864853693E+03  0.39237963989E+03  0.10000000000E+01 0.  0.
<mgrwt>
<rscale>  0 0.11643693E+03</rscale>
<asrwt>0</asrwt>
<pdfrwt beam="1">  1        1 0.11281345E+00 0.12599529E+03</pdfrwt>
<pdfrwt beam="2">  1       -1 0.25198087E-02 0.12599529E+03</pdfrwt>
<totfact> 0.12206530E+04</totfact>
</mgrwt>
</event>
<event>
 8    2  0.7478846E-004  0.1327207E+03  0.7818608E-02  0.1236700E+00
         -1   -1    0    0    0  501 -0.00000000000E+00  0.00000000000E+00  0.52602913542E+01  0.52602937686E+01  0.50400000000E-02 0.  1.
          1   -1    0    0  501    0  0.00000000000E+00 -0.00000000000E+00 -0.32884286958E+04  0.32884286958E+04  0.50400000000E-02 0. -1.
         25    2    1    2    0    0 -0.42439245293E+02 -0.13728389994E+02 -0.25675179961E+04  0.25709460232E+04  0.12500094312E+03 0.  0.
         23    2    1    2    0    0  0.42439245293E+02  0.13728389994E+02 -0.71565040839E+03  0.72274296640E+03  0.90621908024E+02 0.  0.
        -11    1    4    4    0    0  0.38174627577E+02  0.46961165536E+02 -0.57410537392E+03  0.57728643984E+03  0.51100000000E-03 0. -1.
         11    1    4    4    0    0  0.42646177164E+01 -0.33232775542E+02 -0.14154503448E+03  0.14545652656E+03  0.51100000000E-03 0.  1.
    9000005    1    3    3    0    0 -0.75715905130E+02 -0.88219261058E+01 -0.23075700558E+04  0.23088289861E+04  0.10000000000E+01 0.  0.
    9000005    1    3    3    0    0  0.33276659837E+02 -0.49064638882E+01 -0.25994794023E+03  0.26211703704E+03  0.10000000000E+01 0.  0.
<mgrwt>
<rscale>  0 0.12396217E+03</rscale>
<asrwt>0</asrwt>
<pdfrwt beam="2">  1        1 0.50591047E+00 0.13272074E+03</pdfrwt>
<pdfrwt beam="1">  1       -1 0.80927841E-03 0.13272074E+03</pdfrwt>
<totfact> 0.11735726E+03</totfact>
</mgrwt>
</event>
<event>
 8    2  0.7478846E-004  0.1381601E+03  0.7818608E-02  0.1224677E+00
          1   -1    0    0  501    0  0.00000000000E+00  0.00000000000E+00  0.63577878523E+02  0.63577878723E+02  0.50400000000E-02 0. -1.
         -1   -1    0    0    0  501 -0.00000000000E+00 -0.00000000000E+00 -0.25374663511E+03  0.25374663516E+03  0.50400000000E-02 0.  1.
         25    2    1    2    0    0 -0.28215862708E+02  0.51686845237E+02 -0.88922605520E+02  0.16430292974E+03  0.12498223102E+03 0.  0.
         23    2    1    2    0    0  0.28215862708E+02 -0.51686845237E+02 -0.10124615107E+03  0.15302158415E+03  0.98474144979E+02 0.  0.
        -11    1    4    4    0    0  0.33798586739E+02  0.80931320224E+00 -0.93800129552E+02  0.99706889219E+02  0.51100000000E-03 0.  1.
         11    1    4    4    0    0 -0.55827240313E+01 -0.52496158440E+02 -0.74460215166E+01  0.53314694927E+02  0.51100000000E-03 0. -1.
    9000005    1    3    3    0    0 -0.63165976668E+02  0.69022349646E+02 -0.40098659555E+02  0.10179846687E+03  0.10000000000E+01 0.  0.
    9000005    1    3    3    0    0  0.34950113960E+02 -0.17335504409E+02 -0.48823945965E+02  0.62504462869E+02  0.10000000000E+01 0.  0.
<mgrwt>
<rscale>  0 0.13189063E+03</rscale>
<asrwt>0</asrwt>
<pdfrwt beam="1">  1        1 0.97812122E-02 0.13816014E+03</pdfrwt>
<pdfrwt beam="2">  1       -1 0.39037943E-01 0.13816014E+03</pdfrwt>
<totfact> 0.40884742E+03</totfact>
</mgrwt>
</event>
<event>
 8    2  0.7478846E-004  0.1766297E+03  0.7818608E-02  0.1177570E+00
          1   -1    0    0  501    0  0.00000000000E+00  0.00000000000E+00  0.11342475405E+03  0.11342475416E+03  0.50400000000E-02 0. -1.
         -1   -1    0    0    0  501 -0.00000000000E+00 -0.00000000000E+00 -0.24274709669E+03  0.24274709674E+03  0.50400000000E-02 0.  1.
         25    2    1    2    0    0  0.24442007775E+00  0.12479175428E+03 -0.46648717477E+02  0.18268589943E+03  0.12499997332E+03 0.  0.
         23    2    1    2    0    0 -0.24442007775E+00 -0.12479175428E+03 -0.82673625162E+02  0.17348595148E+03  0.87689254670E+02 0.  0.
        -11    1    4    4    0    0 -0.28399054390E+01 -0.60109059643E+02 -0.90077944779E+02  0.10832912928E+03  0.51100000000E-03 0.  1.
         11    1    4    4    0    0  0.25954853613E+01 -0.64682694637E+02  0.74043196171E+01  0.65156822198E+02  0.51100000000E-03 0. -1.
    9000005    1    3    3    0    0  0.20216990519E+02  0.38637128303E+01  0.31266936110E+02  0.37446979534E+02  0.10000000000E+01 0.  0.
    9000005    1    3    3    0    0 -0.19972570442E+02  0.12092804145E+03 -0.77915653587E+02  0.14523891990E+03  0.10000000000E+01 0.  0.
<mgrwt>
<rscale>  0 0.17026667E+03</rscale>
<asrwt>0</asrwt>
<pdfrwt beam="1">  1        1 0.17449962E-01 0.17662965E+03</pdfrwt>
<pdfrwt beam="2">  1       -1 0.37345707E-01 0.17662965E+03</pdfrwt>
<totfact> 0.20931808E+03</totfact>
</mgrwt>
</event>
<event>
 8    2  0.7478846E-004  0.1345624E+03  0.7818608E-02  0.1231084E+00
         -1   -1    0    0    0  501 -0.00000000000E+00  0.00000000000E+00  0.27797880708E+02  0.27797881165E+02  0.50400000000E-02 0.  1.
          1   -1    0    0  501    0  0.00000000000E+00 -0.00000000000E+00 -0.55476252855E+03  0.55476252857E+03  0.50400000000E-02 0. -1.
         25    2    1    2    0    0 -0.47172502306E+02 -0.16067625584E+02 -0.23217466546E+03  0.26835070982E+03  0.12499445835E+03 0.  0.
         23    2    1    2    0    0  0.47172502306E+02  0.16067625584E+02 -0.29478998239E+03  0.31420969991E+03  0.96660168835E+02 0.  0.
        -11    1    4    4    0    0  0.18632110626E+02  0.55597164426E+02 -0.13597017078E+03  0.14807460141E+03  0.51100000000E-03 0. -1.
         11    1    4    4    0    0  0.28540391680E+02 -0.39529538842E+02 -0.15881981160E+03  0.16613509851E+03  0.51100000000E-03 0.  1.
    9000005    1    3    3    0    0 -0.67595414377E+02 -0.55305748940E+02 -0.17901617396E+03  0.19918749070E+03  0.10000000000E+01 0.  0.
    9000005    1    3    3    0    0  0.20422912071E+02  0.39238123356E+02 -0.53158491497E+02  0.69163219128E+02  0.10000000000E+01 0.  0.
<mgrwt>
<rscale>  0 0.12758517E+03</rscale>
<asrwt>0</asrwt>
<pdfrwt beam="2">  1        1 0.85348073E-01 0.13456236E+03</pdfrwt>
<pdfrwt beam="1">  1       -1 0.42765975E-02 0.13456236E+03</pdfrwt>
<totfact> 0.83459241E+03</totfact>
</mgrwt>
</event>
<event>
 8    2  0.7478846E-004  0.1519311E+03  0.7818608E-02  0.1207480E+00
          1   -1    0    0  501    0  0.00000000000E+00  0.00000000000E+00  0.36505478509E+03  0.36505478512E+03  0.50400000000E-02 0. -1.
         -1   -1    0    0    0  501 -0.00000000000E+00 -0.00000000000E+00 -0.52349249299E+02  0.52349249541E+02  0.50400000000E-02 0.  1.
         25    2    1    2    0    0  0.84501704788E+02  0.17818466593E+02  0.18386563554E+03  0.23851548873E+03  0.12500012227E+03 0.  0.
         23    2    1    2    0    0 -0.84501704788E+02 -0.17818466593E+02  0.12883990025E+03  0.17888854594E+03  0.89125507611E+02 0.  0.
        -11    1    4    4    0    0 -0.12260411879E+02  0.25518147002E+02  0.44528489250E+01  0.28658705303E+02  0.51100000000E-03 0.  1.
         11    1    4    4    0    0 -0.72241292909E+02 -0.43336613595E+02  0.12438705132E+03  0.15022984063E+03  0.51100000000E-03 0. -1.
    9000005    1    3    3    0    0 -0.28692259703E+02 -0.16448267600E+02  0.32019905448E+02  0.46044170303E+02  0.10000000000E+01 0.  0.
    9000005    1    3    3    0    0  0.11319396449E+03  0.34266734194E+02  0.15184573009E+03  0.19247131842E+03  0.10000000000E+01 0.  0.
<mgrwt>
<rscale>  0 0.14443753E+03</rscale>
<asrwt>0</asrwt>
<pdfrwt beam="1">  1        1 0.56162275E-01 0.15193112E+03</pdfrwt>
<pdfrwt beam="2">  1       -1 0.80537306E-02 0.15193112E+03</pdfrwt>
<totfact> 0.56054708E+03</totfact>
</mgrwt>
</event>
<event>
 8    2  0.7478846E-004  0.1589366E+03  0.7818608E-02  0.1197857E+00
          1   -1    0    0  501    0  0.00000000000E+00  0.00000000000E+00  0.20858414116E+03  0.20858414122E+03  0.50400000000E-02 0.  1.
         -1   -1    0    0    0  501 -0.00000000000E+00 -0.00000000000E+00 -0.10429089901E+03  0.10429089913E+03  0.50400000000E-02 0. -1.
         25    2    1    2    0    0 -0.89822330973E+02  0.39592986944E+02  0.36090491701E+02  0.16298275209E+03  0.12500079252E+03 0.  0.
         23    2    1    2    0    0  0.89822330973E+02 -0.39592986944E+02  0.68202750447E+02  0.14989228826E+03  0.90445713859E+02 0.  0.
        -11    1    4    4    0    0  0.47213156305E+02  0.11325373449E+02  0.67929752831E+02  0.83497290567E+02  0.51100000000E-03 0.  1.
         11    1    4    4    0    0  0.42609174668E+02 -0.50918360394E+02  0.27299761590E+00  0.66394997696E+02  0.51100000000E-03 0. -1.
    9000005    1    3    3    0    0 -0.30089621770E+02 -0.45603953440E+02  0.82242762733E+01  0.55260696954E+02  0.10000000000E+01 0.  0.
    9000005    1    3    3    0    0 -0.59732709203E+02  0.85196940385E+02  0.27866215428E+02  0.10772205513E+03  0.10000000000E+01 0.  0.
<mgrwt>
<rscale>  0 0.15214915E+03</rscale>
<asrwt>0</asrwt>
<pdfrwt beam="1">  1        1 0.32089868E-01 0.15893663E+03</pdfrwt>
<pdfrwt beam="2">  1       -1 0.16044754E-01 0.15893663E+03</pdfrwt>
<totfact> 0.38899072E+03</totfact>
</mgrwt>
</event>
<event>
 8    2  0.7478846E-004  0.1415327E+03  0.7818608E-02  0.1215290E+00
         -1   -1    0    0    0  501 -0.00000000000E+00  0.00000000000E+00  0.21362867431E+02  0.21362868025E+02  0.50400000000E-02 0.  1.
          1   -1    0    0  501    0  0.00000000000E+00 -0.00000000000E+00 -0.10695311597E+04  0.10695311597E+04  0.50400000000E-02 0. -1.
         25    2    1    2    0    0 -0.29041249734E+02 -0.59693718060E+02 -0.78174685907E+03  0.79445557919E+03  0.12499912593E+03 0.  0.
         23    2    1    2    0    0  0.29041249734E+02  0.59693718060E+02 -0.26642143323E+03  0.29643844858E+03  0.11175258184E+03 0.  0.
        -11    1    4    4    0    0 -0.30374020470E+02  0.61970496100E+02 -0.12042796198E+03  0.13880135999E+03  0.51100000000E-03 0.  1.
         11    1    4    4    0    0  0.59415270204E+02 -0.22767780404E+01 -0.14599347125E+03  0.15763708859E+03  0.51100000000E-03 0. -1.
    9000005    1    3    3    0    0  0.47089964029E+02 -0.36020312553E+02 -0.40904161378E+03  0.41331703259E+03  0.10000000000E+01 0.  0.
    9000005    1    3    3    0    0 -0.76131213763E+02 -0.23673405507E+02 -0.37270524529E+03  0.38113854660E+03  0.10000000000E+01 0.  0.
<mgrwt>
<rscale>  0 0.13855227E+03</rscale>
<asrwt>0</asrwt>
<pdfrwt beam="2">  1        1 0.16454321E+00 0.14153274E+03</pdfrwt>
<pdfrwt beam="1">  1       -1 0.32865959E-02 0.14153274E+03</pdfrwt>
<totfact> 0.45861067E+03</totfact>
</mgrwt>
</event>
<event>
 8    2  0.7478846E-004  0.1461950E+03  0.7818608E-02  0.1215114E+00
         -1   -1    0    0    0  501 -0.00000000000E+00  0.00000000000E+00  0.28463957944E+02  0.28463958390E+02  0.50400000000E-02 0.  1.
          1   -1    0    0  501    0  0.00000000000E+00 -0.00000000000E+00 -0.94705675016E+03  0.94705675017E+03  0.50400000000E-02 0. -1.
         25    2    1    2    0    0  0.39677801950E+02  0.64596045704E+02 -0.20278058100E+03  0.24998590483E+03  0.12500404592E+03 0.  0.
         23    2    1    2    0    0 -0.39677801950E+02 -0.64596045704E+02 -0.71581221121E+03  0.72553480373E+03  0.90921134029E+02 0.  0.
        -11    1    4    4    0    0 -0.53610192174E+02 -0.64445529941E+02 -0.69752609286E+03  0.70254532185E+03  0.51100000000E-03 0. -1.
         11    1    4    4    0    0  0.13932390224E+02 -0.15051576252E+00 -0.18286118352E+02  0.22989481877E+02  0.51100000000E-03 0.  1.
    9000005    1    3    3    0    0  0.44551790610E+02  0.89184808896E+01 -0.65104486867E+01  0.45910644627E+02  0.10000000000E+01 0.  0.
    9000005    1    3    3    0    0 -0.48739886600E+01  0.55677564814E+02 -0.19627013231E+03  0.20407526020E+03  0.10000000000E+01 0.  0.
<mgrwt>
<rscale>  0 0.13868143E+03</rscale>
<asrwt>0</asrwt>
<pdfrwt beam="2">  1        1 0.14570101E+00 0.14619504E+03</pdfrwt>
<pdfrwt beam="1">  1       -1 0.43790712E-02 0.14619504E+03</pdfrwt>
<totfact> 0.37027243E+03</totfact>
</mgrwt>
</event>
<event>
 8    2  0.7478846E-004  0.2432418E+03  0.7818608E-02  0.1120634E+00
          1   -1    0    0  501    0  0.00000000000E+00  0.00000000000E+00  0.11836621196E+04  0.11836621196E+04  0.50400000000E-02 0. -1.
         -1   -1    0    0    0  501 -0.00000000000E+00 -0.00000000000E+00 -0.46554964456E+02  0.46554964729E+02  0.50400000000E-02 0.  1.
         25    2    1    2    0    0 -0.20842825648E+03  0.99530481401E+01  0.61849584431E+03  0.66460792258E+03  0.12500072024E+03 0.  0.
         23    2    1    2    0    0  0.20842825648E+03 -0.99530481401E+01  0.51861131087E+03  0.56560916180E+03  0.86108250941E+02 0.  0.
        -11    1    4    4    0    0  0.12347683659E+03 -0.47751844521E+02  0.32032080052E+03  0.34660089884E+03  0.51100000000E-03 0. -1.
         11    1    4    4    0    0  0.84951419894E+02  0.37798796381E+02  0.19829051035E+03  0.21900826296E+03  0.51100000000E-03 0.  1.
    9000005    1    3    3    0    0 -0.15621321618E+03 -0.46849665091E+02  0.36856060172E+03  0.40303272469E+03  0.10000000000E+01 0.  0.
    9000005    1    3    3    0    0 -0.52215040298E+02  0.56802713231E+02  0.24993524259E+03  0.26157519789E+03  0.10000000000E+01 0.  0.
<mgrwt>
<rscale>  0 0.23874162E+03</rscale>
<asrwt>0</asrwt>
<pdfrwt beam="1">  1        1 0.18210185E+00 0.24324182E+03</pdfrwt>
<pdfrwt beam="2">  1       -1 0.71623027E-02 0.24324182E+03</pdfrwt>
<totfact> 0.12013992E+03</totfact>
</mgrwt>
</event>
<event>
 8    2  0.7478846E-004  0.1272603E+03  0.7818608E-02  0.1248158E+00
          1   -1    0    0  501    0  0.00000000000E+00  0.00000000000E+00  0.30497494065E+04  0.30497494065E+04  0.50400000000E-02 0. -1.
         -1   -1    0    0    0  501 -0.00000000000E+00 -0.00000000000E+00 -0.39017197122E+01  0.39017229674E+01  0.50400000000E-02 0.  1.
         25    2    1    2    0    0 -0.22647820493E+02 -0.75740292316E+01  0.17487578287E+04  0.17533821998E+04  0.12499962189E+03 0.  0.
         23    2    1    2    0    0  0.22647820493E+02  0.75740292316E+01  0.12970898581E+04  0.13002689297E+04  0.87674966797E+02 0.  0.
        -11    1    4    4    0    0  0.64550287438E+01 -0.38900840647E+02  0.72247391256E+03  0.72354923615E+03  0.51100000000E-03 0. -1.
         11    1    4    4    0    0  0.16192791749E+02  0.46474869879E+02  0.57461594556E+03  0.57671969355E+03  0.51100000000E-03 0.  1.
    9000005    1    3    3    0    0  0.18941941566E+02  0.47193802386E+02  0.46282400202E+03  0.46561046915E+03  0.10000000000E+01 0.  0.
    9000005    1    3    3    0    0 -0.41589762059E+02 -0.54767831617E+02  0.12859338267E+04  0.12877717306E+04  0.10000000000E+01 0.  0.
<mgrwt>
<rscale>  0 0.11698330E+03</rscale>
<asrwt>0</asrwt>
<pdfrwt beam="1">  1        1 0.46919129E+00 0.12726034E+03</pdfrwt>
<pdfrwt beam="2">  1       -1 0.60026601E-03 0.12726034E+03</pdfrwt>
<totfact> 0.26392267E+03</totfact>
</mgrwt>
</event>
<event>
 8    2  0.7478846E-004  0.1376484E+03  0.7818608E-02  0.1225630E+00
         -1   -1    0    0    0  501 -0.00000000000E+00  0.00000000000E+00  0.48747046403E+02  0.48747046664E+02  0.50400000000E-02 0.  1.
          1   -1    0    0  501    0  0.00000000000E+00 -0.00000000000E+00 -0.40206201243E+03  0.40206201246E+03  0.50400000000E-02 0. -1.
         25    2    1    2    0    0 -0.10498479111E+02  0.56666194758E+02 -0.28908482519E+03  0.32018292551E+03  0.12500317572E+03 0.  0.
         23    2    1    2    0    0  0.10498479111E+02 -0.56666194758E+02 -0.64230140835E+02  0.13062613362E+03  0.98063245407E+02 0.  0.
        -11    1    4    4    0    0  0.27173413777E+02  0.18680793183E+02 -0.50135059604E+01  0.33354185532E+02  0.51100000000E-03 0.  1.
         11    1    4    4    0    0 -0.16674934666E+02 -0.75346987941E+02 -0.59216634874E+02  0.97271948084E+02  0.51100000000E-03 0. -1.
    9000005    1    3    3    0    0  0.14318052846E+02 -0.87625651964E+01 -0.22394171135E+03  0.22457221393E+03  0.10000000000E+01 0.  0.
    9000005    1    3    3    0    0 -0.24816531957E+02  0.65428759955E+02 -0.65143113835E+02  0.95610711574E+02  0.10000000000E+01 0.  0.
<mgrwt>
<rscale>  0 0.13123821E+03</rscale>
<asrwt>0</asrwt>
<pdfrwt beam="2">  1        1 0.61855692E-01 0.13764835E+03</pdfrwt>
<pdfrwt beam="1">  1       -1 0.74995459E-02 0.13764835E+03</pdfrwt>
<totfact> 0.54973302E+03</totfact>
</mgrwt>
</event>
<event>
 8    2  0.7478846E-004  0.1533455E+03  0.7818608E-02  0.1205354E+00
          1   -1    0    0  501    0  0.00000000000E+00  0.00000000000E+00  0.11545930211E+04  0.11545930211E+04  0.50400000000E-02 0. -1.
         -1   -1    0    0    0  501 -0.00000000000E+00 -0.00000000000E+00 -0.18831600276E+02  0.18831600951E+02  0.50400000000E-02 0.  1.
         25    2    1    2    0    0 -0.82404945469E+02 -0.33154618357E+02  0.43190618844E+03  0.45832061265E+03  0.12500009845E+03 0.  0.
         23    2    1    2    0    0  0.82404945469E+02  0.33154618357E+02  0.70385523237E+03  0.71510400940E+03  0.89842931623E+02 0.  0.
        -11    1    4    4    0    0  0.13400321651E+02  0.27554962198E+02  0.47546696917E+03  0.47645323311E+03  0.51100000000E-03 0. -1.
         11    1    4    4    0    0  0.69004623817E+02  0.55996561597E+01  0.22838826320E+03  0.23865077629E+03  0.51100000000E-03 0.  1.
    9000005    1    3    3    0    0 -0.99116039434E+02 -0.63412016324E+02  0.30914105851E+03  0.33077827489E+03  0.10000000000E+01 0.  0.
    9000005    1    3    3    0    0  0.16711093966E+02  0.30257397966E+02  0.12276512993E+03  0.12754233776E+03  0.10000000000E+01 0.  0.
<mgrwt>
<rscale>  0 0.14609575E+03</rscale>
<asrwt>0</asrwt>
<pdfrwt beam="1">  1        1 0.17762967E+00 0.15334545E+03</pdfrwt>
<pdfrwt beam="2">  1       -1 0.28971697E-02 0.15334545E+03</pdfrwt>
<totfact> 0.48164096E+03</totfact>
</mgrwt>
</event>
<event>
 8    2  0.7478846E-004  0.1254106E+03  0.7818608E-02  0.1249407E+00
         -1   -1    0    0    0  501 -0.00000000000E+00  0.00000000000E+00  0.51505097759E+03  0.51505097761E+03  0.50400000000E-02 0.  1.
          1   -1    0    0  501    0  0.00000000000E+00 -0.00000000000E+00 -0.23124401510E+02  0.23124402059E+02  0.50400000000E-02 0. -1.
         25    2    1    2    0    0  0.94470540782E+01  0.36891810220E+01  0.27011370701E+03  0.29780736301E+03  0.12499981544E+03 0.  0.
         23    2    1    2    0    0 -0.94470540782E+01 -0.36891810220E+01  0.22181286907E+03  0.24036801666E+03  0.92048778718E+02 0.  0.
        -11    1    4    4    0    0 -0.27503573358E+02  0.38139514422E+02  0.11540385525E+03  0.12461588549E+03  0.51100000000E-03 0.  1.
         11    1    4    4    0    0  0.18056519280E+02 -0.41828695444E+02  0.10640901381E+03  0.11575213118E+03  0.51100000000E-03 0. -1.
    9000005    1    3    3    0    0 -0.13489812006E+02  0.47750852196E+01 -0.95291523426E+01  0.17221533357E+02  0.10000000000E+01 0.  0.
    9000005    1    3    3    0    0  0.22936866084E+02 -0.10859041976E+01  0.27964285935E+03  0.28058582965E+03  0.10000000000E+01 0.  0.
<mgrwt>
<rscale>  0 0.11625460E+03</rscale>
<asrwt>0</asrwt>
<pdfrwt beam="2">  1        1 0.35576009E-02 0.12541057E+03</pdfrwt>
<pdfrwt beam="1">  1       -1 0.79238597E-01 0.12541057E+03</pdfrwt>
<totfact> 0.42475332E+03</totfact>
</mgrwt>
</event>
<event>
 8    2  0.7478846E-004  0.1264460E+03  0.7818608E-02  0.1249090E+00
         -1   -1    0    0    0  501 -0.00000000000E+00  0.00000000000E+00  0.18153136691E+02  0.18153137390E+02  0.50400000000E-02 0.  1.
          1   -1    0    0  501    0  0.00000000000E+00 -0.00000000000E+00 -0.78565074984E+03  0.78565074985E+03  0.50400000000E-02 0. -1.
         25    2    1    2    0    0 -0.68537832167E-01  0.19155820278E+02 -0.27097913476E+03  0.29902888741E+03  0.12498653481E+03 0.  0.
         23    2    1    2    0    0  0.68537832167E-01 -0.19155820278E+02 -0.49651847839E+03  0.50477499983E+03  0.88883355744E+02 0.  0.
        -11    1    4    4    0    0 -0.14109952857E+02 -0.52417439871E+02 -0.27201969784E+03  0.27738311915E+03  0.51100000000E-03 0. -1.
         11    1    4    4    0    0  0.14178490689E+02  0.33261619593E+02 -0.22449878054E+03  0.22739188069E+03  0.51100000000E-03 0.  1.
    9000005    1    3    3    0    0  0.13681290482E+02 -0.45095526403E+02 -0.18443780076E+03  0.19036566539E+03  0.10000000000E+01 0.  0.
    9000005    1    3    3    0    0 -0.13749828314E+02  0.64251346681E+02 -0.86541333994E+02  0.10866322201E+03  0.10000000000E+01 0.  0.
<mgrwt>
<rscale>  0 0.11643903E+03</rscale>
<asrwt>0</asrwt>
<pdfrwt beam="2">  1        1 0.12086932E+00 0.12644597E+03</pdfrwt>
<pdfrwt beam="1">  1       -1 0.27927909E-02 0.12644597E+03</pdfrwt>
<totfact> 0.95051352E+03</totfact>
</mgrwt>
</event>
<event>
 8    2  0.7478846E-004  0.1394393E+03  0.7818608E-02  0.1225469E+00
          1   -1    0    0  501    0  0.00000000000E+00  0.00000000000E+00  0.77419285540E+02  0.77419285704E+02  0.50400000000E-02 0. -1.
         -1   -1    0    0    0  501 -0.00000000000E+00 -0.00000000000E+00 -0.25427882286E+03  0.25427882291E+03  0.50400000000E-02 0.  1.
         25    2    1    2    0    0  0.27227699749E+01 -0.61720472846E+02 -0.20934547311E+02  0.14100207773E+03  0.12500600149E+03 0.  0.
         23    2    1    2    0    0 -0.27227699749E+01  0.61720472846E+02 -0.15592499000E+03  0.19069603088E+03  0.90749894985E+02 0.  0.
        -11    1    4    4    0    0 -0.32730800395E+02 -0.80451742328E+01 -0.43675819322E+02  0.55168898091E+02  0.51100000000E-03 0. -1.
         11    1    4    4    0    0  0.30008030420E+02  0.69765647079E+02 -0.11224917068E+03  0.13552713279E+03  0.51100000000E-03 0.  1.
    9000005    1    3    3    0    0 -0.56069648607E+02 -0.14974618718E+02  0.11515314718E+02  0.59174717352E+02  0.10000000000E+01 0.  0.
    9000005    1    3    3    0    0  0.58792418582E+02 -0.46745854128E+02 -0.32449862029E+02  0.81827360379E+02  0.10000000000E+01 0.  0.
<mgrwt>
<rscale>  0 0.13134788E+03</rscale>
<asrwt>0</asrwt>
<pdfrwt beam="1">  1        1 0.11910659E-01 0.13943934E+03</pdfrwt>
<pdfrwt beam="2">  1       -1 0.39119819E-01 0.13943934E+03</pdfrwt>
<totfact> 0.31419112E+03</totfact>
</mgrwt>
</event>
<event>
 8    2  0.7478846E-004  0.1299229E+03  0.7818608E-02  0.1240712E+00
         -1   -1    0    0    0  501 -0.00000000000E+00  0.00000000000E+00  0.43368688854E+02  0.43368689147E+02  0.50400000000E-02 0.  1.
          1   -1    0    0  501    0  0.00000000000E+00 -0.00000000000E+00 -0.36461878579E+03  0.36461878583E+03  0.50400000000E-02 0. -1.
         25    2    1    2    0    0  0.33466343950E+02  0.11603711299E+02 -0.26192052121E+03  0.29237357808E+03  0.12500122975E+03 0.  0.
         23    2    1    2    0    0 -0.33466343950E+02 -0.11603711299E+02 -0.59329575733E+02  0.11561389689E+03  0.92692676651E+02 0.  0.
        -11    1    4    4    0    0 -0.57415188654E+02  0.10776578547E+02 -0.14697372443E+02  0.60238287578E+02  0.51100000000E-03 0.  1.
         11    1    4    4    0    0  0.23948844703E+02 -0.22380289846E+02 -0.44632203290E+02  0.55375609315E+02  0.51100000000E-03 0. -1.
    9000005    1    3    3    0    0  0.49877557357E+02 -0.32061630885E+02 -0.57161999216E+02  0.82366334490E+02  0.10000000000E+01 0.  0.
    9000005    1    3    3    0    0 -0.16411213406E+02  0.43665342184E+02 -0.20475852199E+03  0.21000724359E+03  0.10000000000E+01 0.  0.
<mgrwt>
<rscale>  0 0.12145764E+03</rscale>
<asrwt>0</asrwt>
<pdfrwt beam="2">  1        1 0.56095196E-01 0.12992286E+03</pdfrwt>
<pdfrwt beam="1">  1       -1 0.66721062E-02 0.12992286E+03</pdfrwt>
<totfact> 0.73793111E+03</totfact>
</mgrwt>
</event>
<event>
 8    2  0.7478846E-004  0.1372774E+03  0.7818608E-02  0.1231374E+00
          1   -1    0    0  501    0  0.00000000000E+00  0.00000000000E+00  0.78853533189E+02  0.78853533350E+02  0.50400000000E-02 0. -1.
         -1   -1    0    0    0  501 -0.00000000000E+00 -0.00000000000E+00 -0.21267711881E+03  0.21267711887E+03  0.50400000000E-02 0.  1.
         25    2    1    2    0    0 -0.37976233010E+02  0.42163259115E+02 -0.13088750245E+03  0.18967503420E+03  0.12500058243E+03 0.  0.
         23    2    1    2    0    0  0.37976233010E+02 -0.42163259115E+02 -0.29360831650E+01  0.10185561801E+03  0.84534085693E+02 0.  0.
        -11    1    4    4    0    0 -0.48373952832E+01 -0.33829187354E+02  0.31350727936E+02  0.46375450968E+02  0.51100000000E-03 0. -1.
         11    1    4    4    0    0  0.42813628293E+02 -0.83340717607E+01 -0.34286811101E+02  0.55480167046E+02  0.51100000000E-03 0.  1.
    9000005    1    3    3    0    0  0.29580141494E+02  0.49265433435E+02 -0.99349590524E+02  0.11477547142E+03  0.10000000000E+01 0.  0.
    9000005    1    3    3    0    0 -0.67556374503E+02 -0.71021743201E+01 -0.31537911929E+02  0.74899562782E+02  0.10000000000E+01 0.  0.
<mgrwt>
<rscale>  0 0.12739441E+03</rscale>
<asrwt>0</asrwt>
<pdfrwt beam="1">  1        1 0.12131313E-01 0.13727738E+03</pdfrwt>
<pdfrwt beam="2">  1       -1 0.32719557E-01 0.13727738E+03</pdfrwt>
<totfact> 0.41688690E+03</totfact>
</mgrwt>
</event>
<event>
 8    2  0.7478846E-004  0.1269686E+03  0.7818608E-02  0.1246086E+00
          1   -1    0    0  501    0  0.00000000000E+00  0.00000000000E+00  0.20288452487E+04  0.20288452487E+04  0.50400000000E-02 0. -1.
         -1   -1    0    0    0  501 -0.00000000000E+00 -0.00000000000E+00 -0.62034116848E+01  0.62034137322E+01  0.50400000000E-02 0.  1.
         25    2    1    2    0    0 -0.17881404088E+02  0.13260945511E+02  0.10174790232E+04  0.10253704601E+04  0.12500168196E+03 0.  0.
         23    2    1    2    0    0  0.17881404088E+02 -0.13260945511E+02  0.10051628138E+04  0.10096782024E+04  0.92748006588E+02 0.  0.
        -11    1    4    4    0    0  0.47839704085E+02  0.68825574783E+01  0.32672017891E+03  0.33027576688E+03  0.51100000000E-03 0.  1.
         11    1    4    4    0    0 -0.29958299997E+02 -0.20143502989E+02  0.67844263494E+03  0.67940243549E+03  0.51100000000E-03 0. -1.
    9000005    1    3    3    0    0 -0.25559928646E+02  0.55773031557E+02  0.85642493589E+03  0.85862017902E+03  0.10000000000E+01 0.  0.
    9000005    1    3    3    0    0  0.76785245581E+01 -0.42512086046E+02  0.16105408728E+03  0.16675028104E+03  0.10000000000E+01 0.  0.
<mgrwt>
<rscale>  0 0.11820590E+03</rscale>
<asrwt>0</asrwt>
<pdfrwt beam="1">  1        1 0.31213029E+00 0.12696857E+03</pdfrwt>
<pdfrwt beam="2">  1       -1 0.95437041E-03 0.12696857E+03</pdfrwt>
<totfact> 0.63931077E+03</totfact>
</mgrwt>
</event>
<event>
 8    2  0.7478846E-004  0.1767598E+03  0.7818608E-02  0.1176879E+00
         -1   -1    0    0    0  501 -0.00000000000E+00  0.00000000000E+00  0.33672030991E+02  0.33672031368E+02  0.50400000000E-02 0.  1.
          1   -1    0    0  501    0  0.00000000000E+00 -0.00000000000E+00 -0.88767129173E+03  0.88767129174E+03  0.50400000000E-02 0. -1.
         25    2    1    2    0    0  0.40247697264E+02 -0.11832141083E+03 -0.32180606265E+03  0.36715552998E+03  0.12499683135E+03 0.  0.
         23    2    1    2    0    0 -0.40247697264E+02  0.11832141083E+03 -0.53219319809E+03  0.55418779313E+03  0.90965249196E+02 0.  0.
        -11    1    4    4    0    0 -0.10615553661E+02 -0.73045337731E+01 -0.15474185387E+03  0.15527745340E+03  0.51100000000E-03 0. -1.
         11    1    4    4    0    0 -0.29632143603E+02  0.12562594460E+03 -0.37745134422E+03  0.39891033973E+03  0.51100000000E-03 0.  1.
    9000005    1    3    3    0    0 -0.33499017383E+01 -0.35807233414E+01 -0.17806472961E+03  0.17813503684E+03  0.10000000000E+01 0.  0.
    9000005    1    3    3    0    0  0.43597599002E+02 -0.11474068748E+03 -0.14374133304E+03  0.18902049314E+03  0.10000000000E+01 0.  0.
<mgrwt>
<rscale>  0 0.17093263E+03</rscale>
<asrwt>0</asrwt>
<pdfrwt beam="2">  1        1 0.13656480E+00 0.17675984E+03</pdfrwt>
<pdfrwt beam="1">  1       -1 0.51803132E-02 0.17675984E+03</pdfrwt>
<totfact> 0.32224156E+03</totfact>
</mgrwt>
</event>
<event>
 8    2  0.7478846E-004  0.1268644E+03  0.7818608E-02  0.1249567E+00
         -1   -1    0    0    0  501 -0.00000000000E+00  0.00000000000E+00  0.24625440217E+02  0.24625440733E+02  0.50400000000E-02 0.  1.
          1   -1    0    0  501    0  0.00000000000E+00 -0.00000000000E+00 -0.10843428208E+04  0.10843428208E+04  0.50400000000E-02 0. -1.
         25    2    1    2    0    0  0.20852032860E+01  0.21527402212E+02 -0.15696834231E+03  0.20182578256E+03  0.12500723539E+03 0.  0.
         23    2    1    2    0    0 -0.20852032860E+01 -0.21527402212E+02 -0.90274903828E+03  0.90714247899E+03  0.86509386513E+02 0.  0.
        -11    1    4    4    0    0 -0.26714017489E+02 -0.98199964731E+01 -0.10110409428E+03  0.10503384665E+03  0.51100000000E-03 0.  1.
         11    1    4    4    0    0  0.24628814203E+02 -0.11707405739E+02 -0.80164494400E+03  0.80210863235E+03  0.51100000000E-03 0. -1.
    9000005    1    3    3    0    0  0.51365994199E+02 -0.20190366516E+02 -0.10617714690E+03  0.11966913881E+03  0.10000000000E+01 0.  0.
    9000005    1    3    3    0    0 -0.49280790913E+02  0.41717768728E+02 -0.50791195404E+02  0.82156643744E+02  0.10000000000E+01 0.  0.
<mgrwt>
<rscale>  0 0.11616147E+03</rscale>
<asrwt>0</asrwt>
<pdfrwt beam="2">  1        1 0.16682194E+00 0.12686444E+03</pdfrwt>
<pdfrwt beam="1">  1       -1 0.37885301E-02 0.12686444E+03</pdfrwt>
<totfact> 0.36233678E+03</totfact>
</mgrwt>
</event>
<event>
 8    2  0.7478846E-004  0.1419490E+03  0.7818608E-02  0.1225470E+00
         -1   -1    0    0    0  501 -0.00000000000E+00  0.00000000000E+00  0.20757440777E+02  0.20757441389E+02  0.50400000000E-02 0. -1.
          1   -1    0    0  501    0  0.00000000000E+00 -0.00000000000E+00 -0.73131139623E+03  0.73131139625E+03  0.50400000000E-02 0.  1.
         25    2    1    2    0    0  0.65957235798E+02 -0.13239715698E+02 -0.43111462229E+03  0.45388252043E+03  0.12499551100E+03 0.  0.
         23    2    1    2    0    0 -0.65957235798E+02  0.13239715698E+02 -0.27943933316E+03  0.29818631721E+03  0.79392013622E+02 0.  0.
        -11    1    4    4    0    0 -0.84284752278E+01  0.38187544039E+02 -0.78691148272E+02  0.87872774686E+02  0.51100000000E-03 0.  1.
         11    1    4    4    0    0 -0.57528760570E+02 -0.24947828342E+02 -0.20074818489E+03  0.21031354252E+03  0.51100000000E-03 0. -1.
    9000005    1    3    3    0    0  0.46177034935E+02 -0.67291684126E+02 -0.20744122960E+03  0.22292005977E+03  0.10000000000E+01 0.  0.
    9000005    1    3    3    0    0  0.19780200863E+02  0.54051968429E+02 -0.22367339269E+03  0.23096246066E+03  0.10000000000E+01 0.  0.
<mgrwt>
<rscale>  0 0.13134742E+03</rscale>
<asrwt>0</asrwt>
<pdfrwt beam="2">  1        1 0.11250943E+00 0.14194902E+03</pdfrwt>
<pdfrwt beam="1">  1       -1 0.31934530E-02 0.14194902E+03</pdfrwt>
<totfact> 0.87521584E+03</totfact>
</mgrwt>
</event>
<event>
 8    2  0.7478846E-004  0.1296082E+03  0.7818608E-02  0.1241541E+00
          1   -1    0    0  501    0  0.00000000000E+00  0.00000000000E+00  0.11818143328E+03  0.11818143338E+03  0.50400000000E-02 0. -1.
         -1   -1    0    0    0  501 -0.00000000000E+00 -0.00000000000E+00 -0.19729594888E+03  0.19729594895E+03  0.50400000000E-02 0.  1.
         25    2    1    2    0    0  0.12863026648E+02  0.31689740656E+02  0.61866183016E+02  0.14361650551E+03  0.12501431493E+03 0.  0.
         23    2    1    2    0    0 -0.12863026648E+02 -0.31689740656E+02 -0.14098069862E+03  0.17186087682E+03  0.92146114846E+02 0.  0.
        -11    1    4    4    0    0 -0.20815168574E+01 -0.60639333357E+02 -0.12015182581E+03  0.13460283321E+03  0.51100000000E-03 0. -1.
         11    1    4    4    0    0 -0.10781509790E+02  0.28949592701E+02 -0.20828872805E+02  0.37258043608E+02  0.51100000000E-03 0.  1.
    9000005    1    3    3    0    0  0.37782475391E+02 -0.37591379901E+02  0.40497474260E+02  0.66945296407E+02  0.10000000000E+01 0.  0.
    9000005    1    3    3    0    0 -0.24919448743E+02  0.69281120557E+02  0.21368708755E+02  0.76671209102E+02  0.10000000000E+01 0.  0.
<mgrwt>
<rscale>  0 0.12094831E+03</rscale>
<asrwt>0</asrwt>
<pdfrwt beam="1">  1        1 0.18181759E-01 0.12960816E+03</pdfrwt>
<pdfrwt beam="2">  1       -1 0.30353223E-01 0.12960816E+03</pdfrwt>
<totfact> 0.27943935E+03</totfact>
</mgrwt>
</event>
<event>
 8    2  0.7478846E-004  0.1907986E+03  0.7818608E-02  0.1162895E+00
          1   -1    0    0  501    0  0.00000000000E+00  0.00000000000E+00  0.10632585552E+04  0.10632585552E+04  0.50400000000E-02 0. -1.
         -1   -1    0    0    0  501 -0.00000000000E+00 -0.00000000000E+00 -0.38513561815E+02  0.38513562145E+02  0.50400000000E-02 0.  1.
         25    2    1    2    0    0 -0.14188306344E+03  0.25453521172E+02  0.78789376821E+03  0.81066683254E+03  0.12500175184E+03 0.  0.
         23    2    1    2    0    0  0.14188306344E+03 -0.25453521172E+02  0.23685122520E+03  0.29110528484E+03  0.88685390867E+02 0.  0.
        -11    1    4    4    0    0  0.77796850139E+02 -0.35424167092E+02  0.19759532254E+03  0.21529313272E+03  0.51100000000E-03 0. -1.
         11    1    4    4    0    0  0.64086213301E+02  0.99706459193E+01  0.39255902651E+02  0.75812152116E+02  0.51100000000E-03 0.  1.
    9000005    1    3    3    0    0 -0.25394673416E+02 -0.35806788096E+02  0.36845634176E+03  0.37106345993E+03  0.10000000000E+01 0.  0.
    9000005    1    3    3    0    0 -0.11648839002E+03  0.61260309268E+02  0.41943742645E+03  0.43960337261E+03  0.10000000000E+01 0.  0.
<mgrwt>
<rscale>  0 0.18516558E+03</rscale>
<asrwt>0</asrwt>
<pdfrwt beam="1">  1        1 0.16357823E+00 0.19079865E+03</pdfrwt>
<pdfrwt beam="2">  1       -1 0.59251636E-02 0.19079865E+03</pdfrwt>
<totfact> 0.19491054E+03</totfact>
</mgrwt>
</event>
<event>
 8    2  0.7478846E-004  0.2053188E+03  0.7818608E-02  0.1149310E+00
         -1   -1    0    0    0  501 -0.00000000000E+00  0.00000000000E+00  0.37725773156E+02  0.37725773492E+02  0.50400000000E-02 0.  1.
          1   -1    0    0  501    0  0.00000000000E+00 -0.00000000000E+00 -0.10490650780E+04  0.10490650780E+04  0.50400000000E-02 0. -1.
         25    2    1    2    0    0  0.16275808894E+03  0.65321317028E+01 -0.62138407737E+03  0.65442646132E+03  0.12499182935E+03 0.  0.
         23    2    1    2    0    0 -0.16275808894E+03 -0.65321317028E+01 -0.38995522748E+03  0.43236439019E+03  0.91329196898E+02 0.  0.
        -11    1    4    4    0    0 -0.26821857910E+02  0.34743081059E+02 -0.76021122261E+02  0.87782143818E+02  0.51100000000E-03 0. -1.
         11    1    4    4    0    0 -0.13593623103E+03 -0.41275212762E+02 -0.31393410522E+03  0.34458224638E+03  0.51100000000E-03 0.  1.
    9000005    1    3    3    0    0  0.88074792629E+02  0.50733478042E+02 -0.20172774540E+03  0.22588965925E+03  0.10000000000E+01 0.  0.
    9000005    1    3    3    0    0  0.74683296315E+02 -0.44201346339E+02 -0.41965633197E+03  0.42853680207E+03  0.10000000000E+01 0.  0.
<mgrwt>
<rscale>  0 0.20050912E+03</rscale>
<asrwt>0</asrwt>
<pdfrwt beam="2">  1        1 0.16139461E+00 0.20531883E+03</pdfrwt>
<pdfrwt beam="1">  1       -1 0.58039659E-02 0.20531883E+03</pdfrwt>
<totfact> 0.20602028E+03</totfact>
</mgrwt>
</event>
<event>
 8    2  0.7478846E-004  0.1260428E+03  0.7818608E-02  0.1249081E+00
         -1   -1    0    0    0  501 -0.00000000000E+00  0.00000000000E+00  0.46479306943E+03  0.46479306945E+03  0.50400000000E-02 0.  1.
          1   -1    0    0  501    0  0.00000000000E+00 -0.00000000000E+00 -0.30247600645E+02  0.30247601065E+02  0.50400000000E-02 0. -1.
         25    2    1    2    0    0 -0.11411504225E+02  0.11500146943E+02  0.34282442018E+03  0.36526068184E+03  0.12499722725E+03 0.  0.
         23    2    1    2    0    0  0.11411504225E+02 -0.11500146943E+02  0.91721048600E+02  0.12977998868E+03  0.90374879784E+02 0.  0.
        -11    1    4    4    0    0 -0.65095094800E+01 -0.20400001001E+01  0.10521354757E+03  0.10543446261E+03  0.51100000000E-03 0.  1.
         11    1    4    4    0    0  0.17921013705E+02 -0.94601468426E+01 -0.13492498970E+02  0.24345526062E+02  0.51100000000E-03 0. -1.
    9000005    1    3    3    0    0 -0.54017000395E+02 -0.33531812065E+02  0.15804730792E+03  0.17035894545E+03  0.10000000000E+01 0.  0.
    9000005    1    3    3    0    0  0.42605496171E+02  0.45031959008E+02  0.18477711226E+03  0.19490173640E+03  0.10000000000E+01 0.  0.
<mgrwt>
<rscale>  0 0.11644411E+03</rscale>
<asrwt>0</asrwt>
<pdfrwt beam="2">  1        1 0.46534771E-02 0.12604278E+03</pdfrwt>
<pdfrwt beam="1">  1       -1 0.71506626E-01 0.12604278E+03</pdfrwt>
<totfact> 0.36123325E+03</totfact>
</mgrwt>
</event>
<event>
 8    2  0.7478846E-004  0.1595952E+03  0.7818608E-02  0.1198651E+00
         -1   -1    0    0    0  501 -0.00000000000E+00  0.00000000000E+00  0.16525060315E+03  0.16525060323E+03  0.50400000000E-02 0.  1.
          1   -1    0    0  501    0  0.00000000000E+00 -0.00000000000E+00 -0.12735329222E+03  0.12735329232E+03  0.50400000000E-02 0. -1.
         25    2    1    2    0    0  0.99189274077E+02 -0.25038235448E+01  0.32821758163E+02  0.16293523129E+03  0.12500336221E+03 0.  0.
         23    2    1    2    0    0 -0.99189274077E+02  0.25038235448E+01  0.50755527651E+01  0.12966866425E+03  0.83327186618E+02 0.  0.
        -11    1    4    4    0    0  0.25516261272E+01 -0.64433723151E+01 -0.22774902083E+02  0.23805965803E+02  0.51100000000E-03 0. -1.
         11    1    4    4    0    0 -0.10174090020E+03  0.89471958599E+01  0.27850454848E+02  0.10586269845E+03  0.51100000000E-03 0.  1.
    9000005    1    3    3    0    0  0.12224814098E+03 -0.27635777862E+02  0.28541842595E+02  0.12854563769E+03  0.10000000000E+01 0.  0.
    9000005    1    3    3    0    0 -0.23058866905E+02  0.25131954317E+02  0.42799155676E+01  0.34389593600E+02  0.10000000000E+01 0.  0.
<mgrwt>
<rscale>  0 0.15149223E+03</rscale>
<asrwt>0</asrwt>
<pdfrwt beam="2">  1        1 0.19592814E-01 0.15959518E+03</pdfrwt>
<pdfrwt beam="1">  1       -1 0.25423170E-01 0.15959518E+03</pdfrwt>
<totfact> 0.34476849E+03</totfact>
</mgrwt>
</event>
<event>
 8    2  0.7478846E-004  0.1436476E+03  0.7818608E-02  0.1214522E+00
         -1   -1    0    0    0  501 -0.00000000000E+00  0.00000000000E+00  0.13507317349E+03  0.13507317359E+03  0.50400000000E-02 0.  1.
          1   -1    0    0  501    0  0.00000000000E+00 -0.00000000000E+00 -0.19058444703E+03  0.19058444710E+03  0.50400000000E-02 0. -1.
         25    2    1    2    0    0  0.56687151888E+02  0.42386055240E+02 -0.11686918723E+03  0.18518380209E+03  0.12499849106E+03 0.  0.
         23    2    1    2    0    0 -0.56687151888E+02 -0.42386055240E+02  0.61357913692E+02  0.14047381859E+03  0.10468089256E+03 0.  0.
        -11    1    4    4    0    0  0.16150594388E+02 -0.41843459537E+02  0.49287643007E+02  0.66640742482E+02  0.51100000000E-03 0. -1.
         11    1    4    4    0    0 -0.72837746276E+02 -0.54259570311E+00  0.12070270685E+02  0.73833076106E+02  0.51100000000E-03 0.  1.
    9000005    1    3    3    0    0  0.40478433289E+02 -0.35501655893E+02 -0.82489743380E+02  0.98511059762E+02  0.10000000000E+01 0.  0.
    9000005    1    3    3    0    0  0.16208718599E+02  0.77887711133E+02 -0.34379443847E+02  0.86672742332E+02  0.10000000000E+01 0.  0.
<mgrwt>
<rscale>  0 0.13911708E+03</rscale>
<asrwt>0</asrwt>
<pdfrwt beam="2">  1        1 0.29320684E-01 0.14364760E+03</pdfrwt>
<pdfrwt beam="1">  1       -1 0.20780488E-01 0.14364760E+03</pdfrwt>
<totfact> 0.28662744E+03</totfact>
</mgrwt>
</event>
<event>
 8    2  0.7478846E-004  0.1478375E+03  0.7818608E-02  0.1211946E+00
         -1   -1    0    0    0  501 -0.00000000000E+00  0.00000000000E+00  0.14534207524E+03  0.14534207533E+03  0.50400000000E-02 0.  1.
          1   -1    0    0  501    0  0.00000000000E+00 -0.00000000000E+00 -0.28226233000E+03  0.28226233005E+03  0.50400000000E-02 0. -1.
         25    2    1    2    0    0 -0.68389349036E+02  0.39417807377E+02 -0.23026628982E+03  0.27363935071E+03  0.12500025371E+03 0.  0.
         23    2    1    2    0    0  0.68389349036E+02 -0.39417807377E+02  0.93346035059E+02  0.15396505467E+03  0.93599621777E+02 0.  0.
        -11    1    4    4    0    0  0.26368689684E+02  0.92377615679E+01 -0.12114895014E+02  0.30453484463E+02  0.51100000000E-03 0. -1.
         11    1    4    4    0    0  0.42020659352E+02 -0.48655568945E+02  0.10546093007E+03  0.12351157020E+03  0.51100000000E-03 0.  1.
    9000005    1    3    3    0    0 -0.23447101943E+02  0.30920740337E+02 -0.22414588745E+03  0.22748238973E+03  0.10000000000E+01 0.  0.
    9000005    1    3    3    0    0 -0.44942247093E+02  0.84970670406E+01 -0.61204023698E+01  0.46156960984E+02  0.10000000000E+01 0.  0.
<mgrwt>
<rscale>  0 0.14103277E+03</rscale>
<asrwt>0</asrwt>
<pdfrwt beam="2">  1        1 0.43424974E-01 0.14783751E+03</pdfrwt>
<pdfrwt beam="1">  1       -1 0.22360319E-01 0.14783751E+03</pdfrwt>
<totfact> 0.15648849E+03</totfact>
</mgrwt>
</event>
<event>
 8    2  0.7478846E-004  0.2283285E+03  0.7818608E-02  0.1130877E+00
          1   -1    0    0  501    0  0.00000000000E+00  0.00000000000E+00  0.17579650774E+03  0.17579650781E+03  0.50400000000E-02 0. -1.
         -1   -1    0    0    0  501 -0.00000000000E+00 -0.00000000000E+00 -0.35822432061E+03  0.35822432064E+03  0.50400000000E-02 0.  1.
         25    2    1    2    0    0  0.10656851048E+03  0.15859563155E+03 -0.22210436303E+03  0.31853456376E+03  0.12499799382E+03 0.  0.
         23    2    1    2    0    0 -0.10656851048E+03 -0.15859563155E+03  0.39676550161E+02  0.21548626470E+03  0.91382054394E+02 0.  0.
        -11    1    4    4    0    0 -0.43419501815E+01 -0.66527430326E+00 -0.18147786482E+02  0.18671831076E+02  0.51100000000E-03 0.  1.
         11    1    4    4    0    0 -0.10222656030E+03 -0.15793035725E+03  0.57824336643E+02  0.19681443362E+03  0.51100000000E-03 0. -1.
    9000005    1    3    3    0    0  0.16081008564E+02  0.79559688542E+01  0.15000463547E+02  0.23407481357E+02  0.10000000000E+01 0.  0.
    9000005    1    3    3    0    0  0.90487501919E+02  0.15063966270E+03 -0.23710482657E+03  0.29512708240E+03  0.10000000000E+01 0.  0.
<mgrwt>
<rscale>  0 0.22407978E+03</rscale>
<asrwt>0</asrwt>
<pdfrwt beam="1">  1        1 0.27045617E-01 0.22832854E+03</pdfrwt>
<pdfrwt beam="2">  1       -1 0.55111434E-01 0.22832854E+03</pdfrwt>
<totfact> 0.59334507E+02</totfact>
</mgrwt>
</event>
<event>
 8    2  0.7478846E-004  0.1273875E+03  0.7818608E-02  0.1245865E+00
          1   -1    0    0  501    0  0.00000000000E+00  0.00000000000E+00  0.11388519138E+04  0.11388519138E+04  0.50400000000E-02 0. -1.
         -1   -1    0    0    0  501 -0.00000000000E+00 -0.00000000000E+00 -0.10891325078E+02  0.10891326244E+02  0.50400000000E-02 0.  1.
         25    2    1    2    0    0  0.52471923067E+01 -0.23974660402E+02  0.60843913319E+03  0.62163151575E+03  0.12500098086E+03 0.  0.
         23    2    1    2    0    0 -0.52471923067E+01  0.23974660402E+02  0.51952145549E+03  0.52811172426E+03  0.91635872963E+02 0.  0.
        -11    1    4    4    0    0 -0.13558184023E+02  0.42335570074E+02  0.11817389214E+03  0.12625843984E+03  0.51100000000E-03 0.  1.
         11    1    4    4    0    0  0.83109917166E+01 -0.18360909672E+02  0.40134756335E+03  0.40185328442E+03  0.51100000000E-03 0. -1.
    9000005    1    3    3    0    0  0.65328909801E+00 -0.73747471354E+02  0.43178419740E+03  0.43803847941E+03  0.10000000000E+01 0.  0.
    9000005    1    3    3    0    0  0.45939032087E+01  0.49772810952E+02  0.17665493579E+03  0.18359303635E+03  0.10000000000E+01 0.  0.
<mgrwt>
<rscale>  0 0.11833739E+03</rscale>
<asrwt>0</asrwt>
<pdfrwt beam="1">  1        1 0.17520803E+00 0.12738745E+03</pdfrwt>
<pdfrwt beam="2">  1       -1 0.16755881E-02 0.12738745E+03</pdfrwt>
<totfact> 0.10815344E+04</totfact>
</mgrwt>
</event>
<event>
 8    2  0.7478846E-004  0.1603802E+03  0.7818608E-02  0.1195995E+00
         -1   -1    0    0    0  501 -0.00000000000E+00  0.00000000000E+00  0.75192000933E+03  0.75192000934E+03  0.50400000000E-02 0.  1.
          1   -1    0    0  501    0  0.00000000000E+00 -0.00000000000E+00 -0.29249009917E+02  0.29249010351E+02  0.50400000000E-02 0. -1.
         25    2    1    2    0    0 -0.97148240402E+02 -0.25896991485E+02  0.36109297847E+03  0.39510751428E+03  0.12495348717E+03 0.  0.
         23    2    1    2    0    0  0.97148240402E+02  0.25896991485E+02  0.36157802094E+03  0.38606150542E+03  0.90533893972E+02 0.  0.
        -11    1    4    4    0    0  0.10032861278E+03  0.47950353175E+02  0.27425605578E+03  0.29594163452E+03  0.51100000000E-03 0. -1.
         11    1    4    4    0    0 -0.31803723814E+01 -0.22053361689E+02  0.87321965161E+02  0.90119870895E+02  0.51100000000E-03 0.  1.
    9000005    1    3    3    0    0 -0.44010406902E+02 -0.69771309075E+02  0.25987035465E+03  0.27265097233E+03  0.10000000000E+01 0.  0.
    9000005    1    3    3    0    0 -0.53137833499E+02  0.43874317590E+02  0.10122262382E+03  0.12245654195E+03  0.10000000000E+01 0.  0.
<mgrwt>
<rscale>  0 0.15370350E+03</rscale>
<asrwt>0</asrwt>
<pdfrwt beam="2">  1        1 0.44998480E-02 0.16038020E+03</pdfrwt>
<pdfrwt beam="1">  1       -1 0.11567999E+00 0.16038020E+03</pdfrwt>
<totfact> 0.13681467E+03</totfact>
</mgrwt>
</event>
<event>
 8    2  0.7478846E-004  0.1650123E+03  0.7818608E-02  0.1190483E+00
          1   -1    0    0  501    0  0.00000000000E+00  0.00000000000E+00  0.81382213360E+02  0.81382213516E+02  0.50400000000E-02 0. -1.
         -1   -1    0    0    0  501 -0.00000000000E+00 -0.00000000000E+00 -0.30284623493E+03  0.30284623497E+03  0.50400000000E-02 0.  1.
         25    2    1    2    0    0  0.24247648498E+02  0.10495825461E+03 -0.16415711282E+03  0.23275869510E+03  0.12499947514E+03 0.  0.
         23    2    1    2    0    0 -0.24247648498E+02 -0.10495825461E+03 -0.57306908751E+02  0.15146975339E+03  0.89748653093E+02 0.  0.
        -11    1    4    4    0    0  0.31242117511E+02 -0.15670430729E+02 -0.11471827283E+02  0.36786344305E+02  0.51100000000E-03 0. -1.
         11    1    4    4    0    0 -0.55489766009E+02 -0.89287823886E+02 -0.45835081469E+02  0.11468340909E+03  0.51100000000E-03 0.  1.
    9000005    1    3    3    0    0 -0.40589704016E+02  0.28422415673E+02 -0.12817122391E+02  0.51192151852E+02  0.10000000000E+01 0.  0.
    9000005    1    3    3    0    0  0.64837352514E+02  0.76535838942E+02 -0.15133999043E+03  0.18156654325E+03  0.10000000000E+01 0.  0.
<mgrwt>
<rscale>  0 0.15842816E+03</rscale>
<asrwt>0</asrwt>
<pdfrwt beam="1">  1        1 0.12520341E-01 0.16501228E+03</pdfrwt>
<pdfrwt beam="2">  1       -1 0.46591728E-01 0.16501228E+03</pdfrwt>
<totfact> 0.21731866E+03</totfact>
</mgrwt>
</event>
<event>
 8    2  0.7478846E-004  0.1258872E+03  0.7818608E-02  0.1250563E+00
          1   -1    0    0  501    0  0.00000000000E+00  0.00000000000E+00  0.81048336818E+02  0.81048336974E+02  0.50400000000E-02 0.  1.
         -1   -1    0    0    0  501 -0.00000000000E+00 -0.00000000000E+00 -0.15885262346E+03  0.15885262354E+03  0.50400000000E-02 0. -1.
         25    2    1    2    0    0  0.40732013494E+01 -0.14341693580E+02 -0.74908944133E+01  0.12610982571E+03  0.12500119798E+03 0.  0.
         23    2    1    2    0    0 -0.40732013494E+01  0.14341693580E+02 -0.70313392225E+02  0.11379113480E+03  0.88216631589E+02 0.  0.
        -11    1    4    4    0    0 -0.30565820308E+02 -0.15178660353E+02 -0.12526799033E+01  0.34150114325E+02  0.51100000000E-03 0.  1.
         11    1    4    4    0    0  0.26492618959E+02  0.29520353933E+02 -0.69060712322E+02  0.79641020475E+02  0.51100000000E-03 0. -1.
    9000005    1    3    3    0    0 -0.53657902328E+02  0.20914978554E+02  0.28602143066E+01  0.57669642240E+02  0.10000000000E+01 0.  0.
    9000005    1    3    3    0    0  0.57731103678E+02 -0.35256672133E+02 -0.10351108720E+02  0.68440183471E+02  0.10000000000E+01 0.  0.
<mgrwt>
<rscale>  0 0.11558527E+03</rscale>
<asrwt>0</asrwt>
<pdfrwt beam="1">  1        1 0.12468975E-01 0.12588715E+03</pdfrwt>
<pdfrwt beam="2">  1       -1 0.24438865E-01 0.12588715E+03</pdfrwt>
<totfact> 0.65022668E+03</totfact>
</mgrwt>
</event>
<event>
 8    2  0.7478846E-004  0.1352957E+03  0.7818608E-02  0.1232247E+00
          1   -1    0    0  501    0  0.00000000000E+00  0.00000000000E+00  0.17632397698E+04  0.17632397698E+04  0.50400000000E-02 0. -1.
         -1   -1    0    0    0  501 -0.00000000000E+00 -0.00000000000E+00 -0.11574491279E+02  0.11574492377E+02  0.50400000000E-02 0.  1.
         25    2    1    2    0    0 -0.87761082911E+01 -0.50993295546E+02  0.14350160569E+04  0.14413798983E+04  0.12501036482E+03 0.  0.
         23    2    1    2    0    0  0.87761082911E+01  0.50993295546E+02  0.31664922162E+03  0.33343436392E+03  0.90743645605E+02 0.  0.
        -11    1    4    4    0    0  0.38935071200E+01  0.61562577477E+02  0.31579196095E+03  0.32176027248E+03  0.51100000000E-03 0. -1.
         11    1    4    4    0    0  0.48826011711E+01 -0.10569281931E+02  0.85726067054E+00  0.11674091436E+02  0.51100000000E-03 0.  1.
    9000005    1    3    3    0    0 -0.65901578167E+02 -0.34077642627E+02  0.90095690274E+03  0.90400699352E+03  0.10000000000E+01 0.  0.
    9000005    1    3    3    0    0  0.57125469876E+02 -0.16915652919E+02  0.53405915419E+03  0.53737290478E+03  0.10000000000E+01 0.  0.
<mgrwt>
<rscale>  0 0.12682351E+03</rscale>
<asrwt>0</asrwt>
<pdfrwt beam="1">  1        1 0.27126775E+00 0.13529570E+03</pdfrwt>
<pdfrwt beam="2">  1       -1 0.17806904E-02 0.13529570E+03</pdfrwt>
<totfact> 0.38687755E+03</totfact>
</mgrwt>
</event>
<event>
 8    2  0.7478846E-004  0.1636151E+03  0.7818608E-02  0.1190979E+00
         -1   -1    0    0    0  501 -0.00000000000E+00  0.00000000000E+00  0.64552585400E+02  0.64552585597E+02  0.50400000000E-02 0.  1.
          1   -1    0    0  501    0  0.00000000000E+00 -0.00000000000E+00 -0.43956733005E+03  0.43956733008E+03  0.50400000000E-02 0. -1.
         25    2    1    2    0    0 -0.52985228192E+02 -0.91309407739E+02 -0.30372046500E+03  0.34498696442E+03  0.12500016964E+03 0.  0.
         23    2    1    2    0    0  0.52985228192E+02  0.91309407739E+02 -0.71294279651E+02  0.15913295126E+03  0.95370747704E+02 0.  0.
        -11    1    4    4    0    0  0.31209728839E+02 -0.13752476027E+02 -0.24948927855E+02  0.42256677253E+02  0.51100000000E-03 0.  1.
         11    1    4    4    0    0  0.21775499354E+02  0.10506188377E+03 -0.46345351796E+02  0.11687627401E+03  0.51100000000E-03 0. -1.
    9000005    1    3    3    0    0  0.27392269577E+02 -0.76892565902E+02 -0.14110275780E+03  0.16301469683E+03  0.10000000000E+01 0.  0.
    9000005    1    3    3    0    0 -0.80377497769E+02 -0.14416841837E+02 -0.16261770720E+03  0.18197226759E+03  0.10000000000E+01 0.  0.
<mgrwt>
<rscale>  0 0.15799556E+03</rscale>
<asrwt>0</asrwt>
<pdfrwt beam="2">  1        1 0.67625741E-01 0.16361505E+03</pdfrwt>
<pdfrwt beam="1">  1       -1 0.99311673E-02 0.16361505E+03</pdfrwt>
<totfact> 0.32304526E+03</totfact>
</mgrwt>
</event>
<event>
 8    2  0.7478846E-004  0.1294730E+03  0.7818608E-02  0.1242452E+00
         -1   -1    0    0    0  501 -0.00000000000E+00  0.00000000000E+00  0.29695407937E+02  0.29695408365E+02  0.50400000000E-02 0.  1.
          1   -1    0    0  501    0  0.00000000000E+00 -0.00000000000E+00 -0.43539537222E+03  0.43539537225E+03  0.50400000000E-02 0. -1.
         25    2    1    2    0    0  0.72623935017E+01  0.32929676905E+02 -0.20877759996E+03  0.24566509299E+03  0.12500458266E+03 0.  0.
         23    2    1    2    0    0 -0.72623935017E+01 -0.32929676905E+02 -0.19692236433E+03  0.21942568763E+03  0.90730969579E+02 0.  0.
        -11    1    4    4    0    0 -0.70151335399E+01 -0.65118715113E+01 -0.19238133288E+03  0.19261929761E+03  0.51100000000E-03 0. -1.
         11    1    4    4    0    0 -0.24725996181E+00 -0.26417805394E+02 -0.45410314442E+01  0.26806390025E+02  0.51100000000E-03 0.  1.
    9000005    1    3    3    0    0 -0.46632616821E+02  0.54201371675E+02 -0.11720303586E+03  0.13729508825E+03  0.10000000000E+01 0.  0.
    9000005    1    3    3    0    0  0.53895010322E+02 -0.21271694769E+02 -0.91574564106E+02  0.10837000474E+03  0.10000000000E+01 0.  0.
<mgrwt>
<rscale>  0 0.12039189E+03</rscale>
<asrwt>0</asrwt>
<pdfrwt beam="2">  1        1 0.66983899E-01 0.12947298E+03</pdfrwt>
<pdfrwt beam="1">  1       -1 0.45685247E-02 0.12947298E+03</pdfrwt>
<totfact> 0.10348536E+04</totfact>
</mgrwt>
</event>
<event>
 8    2  0.7478846E-004  0.1400815E+03  0.7818608E-02  0.1223746E+00
          1   -1    0    0  501    0  0.00000000000E+00  0.00000000000E+00  0.21013445014E+03  0.21013445020E+03  0.50400000000E-02 0. -1.
         -1   -1    0    0    0  501 -0.00000000000E+00 -0.00000000000E+00 -0.20267350019E+03  0.20267350025E+03  0.50400000000E-02 0.  1.
         25    2    1    2    0    0 -0.34517230888E+02  0.52977571508E+02  0.16685550815E+03  0.21786142235E+03  0.12499910575E+03 0.  0.
         23    2    1    2    0    0  0.34517230888E+02 -0.52977571508E+02 -0.15939455820E+03  0.19494652810E+03  0.92733280563E+02 0.  0.
        -11    1    4    4    0    0  0.57559032661E+02 -0.38172797889E+02 -0.58850918871E+02  0.90739381703E+02  0.51100000000E-03 0. -1.
         11    1    4    4    0    0 -0.23041801773E+02 -0.14804773618E+02 -0.10054363933E+03  0.10420714640E+03  0.51100000000E-03 0.  1.
    9000005    1    3    3    0    0  0.15479288676E+02 -0.35166584220E+02  0.52460845752E+02  0.65034124585E+02  0.10000000000E+01 0.  0.
    9000005    1    3    3    0    0 -0.49996519564E+02  0.88144155727E+02  0.11439466240E+03  0.15282729777E+03  0.10000000000E+01 0.  0.
<mgrwt>
<rscale>  0 0.13253218E+03</rscale>
<asrwt>0</asrwt>
<pdfrwt beam="1">  1        1 0.32328377E-01 0.14008154E+03</pdfrwt>
<pdfrwt beam="2">  1       -1 0.31180539E-01 0.14008154E+03</pdfrwt>
<totfact> 0.12987473E+03</totfact>
</mgrwt>
</event>
<event>
 8    2  0.7478846E-004  0.1359277E+03  0.7818608E-02  0.1232357E+00
          1   -1    0    0  501    0  0.00000000000E+00  0.00000000000E+00  0.81412141678E+03  0.81412141679E+03  0.50400000000E-02 0. -1.
         -1   -1    0    0    0  501 -0.00000000000E+00 -0.00000000000E+00 -0.28569508082E+02  0.28569508527E+02  0.50400000000E-02 0.  1.
         25    2    1    2    0    0 -0.27489826814E+02 -0.45784737407E+02  0.68693511767E+03  0.70025437923E+03  0.12499762791E+03 0.  0.
         23    2    1    2    0    0  0.27489826814E+02  0.45784737407E+02  0.98616791022E+02  0.14243654609E+03  0.87812102994E+02 0.  0.
        -11    1    4    4    0    0 -0.26228317283E+02 -0.73107495990E+01  0.24965895198E+02  0.36941407803E+02  0.51100000000E-03 0.  1.
         11    1    4    4    0    0  0.53718144097E+02  0.53095487006E+02  0.73650895825E+02  0.10549513828E+03  0.51100000000E-03 0. -1.
    9000005    1    3    3    0    0  0.10652254004E+02  0.87401232085E+01  0.52494906434E+03  0.52513082220E+03  0.10000000000E+01 0.  0.
    9000005    1    3    3    0    0 -0.38142080817E+02 -0.54524860616E+02  0.16198605333E+03  0.17512355703E+03  0.10000000000E+01 0.  0.
<mgrwt>
<rscale>  0 0.12675172E+03</rscale>
<asrwt>0</asrwt>
<pdfrwt beam="1">  1        1 0.12524947E+00 0.13592770E+03</pdfrwt>
<pdfrwt beam="2">  1       -1 0.43953083E-02 0.13592770E+03</pdfrwt>
<totfact> 0.46617420E+03</totfact>
</mgrwt>
</event>
<event>
 8    2  0.7478846E-004  0.1340002E+03  0.7818608E-02  0.1235067E+00
          1   -1    0    0  501    0  0.00000000000E+00  0.00000000000E+00  0.77979516166E+03  0.77979516168E+03  0.50400000000E-02 0. -1.
         -1   -1    0    0    0  501 -0.00000000000E+00 -0.00000000000E+00 -0.17777135490E+02  0.17777136205E+02  0.50400000000E-02 0.  1.
         25    2    1    2    0    0  0.47521323291E+02 -0.86702630128E+01  0.43666961490E+03  0.45676733785E+03  0.12499039454E+03 0.  0.
         23    2    1    2    0    0 -0.47521323291E+02  0.86702630128E+01  0.32534841127E+03  0.34080496003E+03  0.89235544679E+02 0.  0.
        -11    1    4    4    0    0 -0.15104554435E+02  0.85838095957E+01  0.40027926961E+01  0.17828395931E+02  0.51100000000E-03 0.  1.
         11    1    4    4    0    0 -0.32416768856E+02  0.86453417143E-01  0.32134561858E+03  0.32297656410E+03  0.51100000000E-03 0. -1.
    9000005    1    3    3    0    0  0.31603018363E+02 -0.65789981711E+02  0.20426321068E+03  0.21691365033E+03  0.10000000000E+01 0.  0.
    9000005    1    3    3    0    0  0.15918304928E+02  0.57119718698E+02  0.23240640422E+03  0.23985368752E+03  0.10000000000E+01 0.  0.
<mgrwt>
<rscale>  0 0.12500140E+03</rscale>
<asrwt>0</asrwt>
<pdfrwt beam="1">  1        1 0.11996849E+00 0.13400018E+03</pdfrwt>
<pdfrwt beam="2">  1       -1 0.27349438E-02 0.13400018E+03</pdfrwt>
<totfact> 0.99447500E+03</totfact>
</mgrwt>
</event>
<event>
 8    2  0.7478846E-004  0.1675985E+03  0.7818608E-02  0.1187434E+00
          1   -1    0    0  501    0  0.00000000000E+00  0.00000000000E+00  0.16756398259E+03  0.16756398267E+03  0.50400000000E-02 0. -1.
         -1   -1    0    0    0  501 -0.00000000000E+00 -0.00000000000E+00 -0.15446639826E+03  0.15446639834E+03  0.50400000000E-02 0.  1.
         25    2    1    2    0    0  0.85088818914E+02  0.72246449062E+02  0.48656349552E+02  0.17451843713E+03  0.12501835082E+03 0.  0.
         23    2    1    2    0    0 -0.85088818914E+02 -0.72246449062E+02 -0.35558765218E+02  0.14751194388E+03  0.89642017478E+02 0.  0.
        -11    1    4    4    0    0 -0.62263988599E+02 -0.73557435547E+02  0.96474338278E+01  0.96853361223E+02  0.51100000000E-03 0. -1.
         11    1    4    4    0    0 -0.22824830315E+02  0.13109864853E+01 -0.45206199046E+02  0.50658582658E+02  0.51100000000E-03 0.  1.
    9000005    1    3    3    0    0  0.81874068892E+02 -0.56556033899E+01 -0.98814769577E+00  0.82081212482E+02  0.10000000000E+01 0.  0.
    9000005    1    3    3    0    0  0.32147500220E+01  0.77902052452E+02  0.49644497248E+02  0.92437224650E+02  0.10000000000E+01 0.  0.
<mgrwt>
<rscale>  0 0.16112370E+03</rscale>
<asrwt>0</asrwt>
<pdfrwt beam="1">  1        1 0.25779074E-01 0.16759846E+03</pdfrwt>
<pdfrwt beam="2">  1       -1 0.23764061E-01 0.16759846E+03</pdfrwt>
<totfact> 0.27256928E+03</totfact>
</mgrwt>
</event>
<event>
 8    2  0.7478846E-004  0.1701485E+03  0.7818608E-02  0.1184559E+00
          1   -1    0    0  501    0  0.00000000000E+00  0.00000000000E+00  0.60298915084E+03  0.60298915086E+03  0.50400000000E-02 0. -1.
         -1   -1    0    0    0  501 -0.00000000000E+00 -0.00000000000E+00 -0.12345197191E+03  0.12345197201E+03  0.50400000000E-02 0.  1.
         25    2    1    2    0    0 -0.41411067769E+02  0.10775774308E+03  0.54177025809E+03  0.56786048244E+03  0.12499562887E+03 0.  0.
         23    2    1    2    0    0  0.41411067769E+02 -0.10775774308E+03 -0.62233079163E+02  0.15858064043E+03  0.89152990133E+02 0.  0.
        -11    1    4    4    0    0 -0.26765927264E+02 -0.25909498326E+02 -0.47977584875E+01  0.37559758420E+02  0.51100000000E-03 0. -1.
         11    1    4    4    0    0  0.68176995033E+02 -0.81848244754E+02 -0.57435320675E+02  0.12102088201E+03  0.51100000000E-03 0.  1.
    9000005    1    3    3    0    0 -0.54950891830E+02  0.71416484299E+02  0.50947292410E+03  0.51738145998E+03  0.10000000000E+01 0.  0.
    9000005    1    3    3    0    0  0.13539824061E+02  0.36341258781E+02  0.32297333993E+02  0.50479022459E+02  0.10000000000E+01 0.  0.
<mgrwt>
<rscale>  0 0.16372103E+03</rscale>
<asrwt>0</asrwt>
<pdfrwt beam="1">  1        1 0.92767563E-01 0.17014851E+03</pdfrwt>
<pdfrwt beam="2">  1       -1 0.18992611E-01 0.17014851E+03</pdfrwt>
<totfact> 0.77031366E+02</totfact>
</mgrwt>
</event>
<event>
 8    2  0.7478846E-004  0.1410576E+03  0.7818608E-02  0.1222446E+00
          1   -1    0    0  501    0  0.00000000000E+00  0.00000000000E+00  0.12626721648E+03  0.12626721658E+03  0.50400000000E-02 0. -1.
         -1   -1    0    0    0  501 -0.00000000000E+00 -0.00000000000E+00 -0.16601057004E+03  0.16601057012E+03  0.50400000000E-02 0.  1.
         25    2    1    2    0    0 -0.58199551153E+02  0.29661276765E+02  0.48266488276E+02  0.14908686838E+03  0.12502104358E+03 0.  0.
         23    2    1    2    0    0  0.58199551153E+02 -0.29661276765E+02 -0.88009841842E+02  0.14319091832E+03  0.92146230163E+02 0.  0.
        -11    1    4    4    0    0  0.22717141640E+02 -0.44707521807E+02 -0.91656058141E+02  0.10447805523E+03  0.51100000000E-03 0.  1.
         11    1    4    4    0    0  0.35482409514E+02  0.15046245042E+02  0.36462162986E+01  0.38712863086E+02  0.51100000000E-03 0. -1.
    9000005    1    3    3    0    0 -0.84478908367E+02 -0.10506768153E+02  0.53873505730E+02  0.10074935610E+03  0.10000000000E+01 0.  0.
    9000005    1    3    3    0    0  0.26279357214E+02  0.40168044918E+02 -0.56070174537E+01  0.48337512274E+02  0.10000000000E+01 0.  0.
<mgrwt>
<rscale>  0 0.13343500E+03</rscale>
<asrwt>0</asrwt>
<pdfrwt beam="1">  1        1 0.19425726E-01 0.14105758E+03</pdfrwt>
<pdfrwt beam="2">  1       -1 0.25540088E-01 0.14105758E+03</pdfrwt>
<totfact> 0.34373853E+03</totfact>
</mgrwt>
</event>
<event>
 8    2  0.7478846E-004  0.1311189E+03  0.7818608E-02  0.1237433E+00
          1   -1    0    0  501    0  0.00000000000E+00  0.00000000000E+00  0.11244555720E+04  0.11244555720E+04  0.50400000000E-02 0. -1.
         -1   -1    0    0    0  501 -0.00000000000E+00 -0.00000000000E+00 -0.13795765946E+02  0.13795766867E+02  0.50400000000E-02 0.  1.
         25    2    1    2    0    0  0.20071663215E+02 -0.34120555343E+02  0.42195208221E+03  0.44185487475E+03  0.12500034678E+03 0.  0.
         23    2    1    2    0    0 -0.20071663215E+02  0.34120555343E+02  0.68870772381E+03  0.69639646410E+03  0.95302793295E+02 0.  0.
        -11    1    4    4    0    0  0.50185970855E+01 -0.31108602882E+02  0.27860535335E+03  0.28038165847E+03  0.51100000000E-03 0. -1.
         11    1    4    4    0    0 -0.25090260301E+02  0.65229158226E+02  0.41010237046E+03  0.41601480563E+03  0.51100000000E-03 0.  1.
    9000005    1    3    3    0    0  0.19396350288E+02 -0.81289486228E+02  0.28502759196E+03  0.29702849552E+03  0.10000000000E+01 0.  0.
    9000005    1    3    3    0    0  0.67531292740E+00  0.47168930884E+02  0.13692449026E+03  0.14482637923E+03  0.10000000000E+01 0.  0.
<mgrwt>
<rscale>  0 0.12349979E+03</rscale>
<asrwt>0</asrwt>
<pdfrwt beam="1">  1        1 0.17299316E+00 0.13111892E+03</pdfrwt>
<pdfrwt beam="2">  1       -1 0.21224257E-02 0.13111892E+03</pdfrwt>
<totfact> 0.78887783E+03</totfact>
</mgrwt>
</event>
<event>
 8    2  0.7478846E-004  0.1345254E+03  0.7818608E-02  0.1233283E+00
         -1   -1    0    0    0  501 -0.00000000000E+00  0.00000000000E+00  0.34988567130E+02  0.34988567493E+02  0.50400000000E-02 0.  1.
          1   -1    0    0  501    0  0.00000000000E+00 -0.00000000000E+00 -0.41290231147E+03  0.41290231150E+03  0.50400000000E-02 0. -1.
         25    2    1    2    0    0 -0.47469767594E+02  0.14813798987E+02 -0.18531267648E+03  0.22899315552E+03  0.12499699890E+03 0.  0.
         23    2    1    2    0    0  0.47469767594E+02 -0.14813798987E+02 -0.19260106787E+03  0.21889772348E+03  0.91368564205E+02 0.  0.
        -11    1    4    4    0    0  0.19420200474E+02 -0.29461987646E+02 -0.18220384837E+03  0.18558931883E+03  0.51100000000E-03 0. -1.
         11    1    4    4    0    0  0.28049567119E+02  0.14648188658E+02 -0.10397219492E+02  0.33308404645E+02  0.51100000000E-03 0.  1.
    9000005    1    3    3    0    0 -0.56181381137E+02  0.39679289732E+02 -0.36517859594E+02  0.77880342124E+02  0.10000000000E+01 0.  0.
    9000005    1    3    3    0    0  0.87116135429E+01 -0.24865490745E+02 -0.14879481688E+03  0.15111281339E+03  0.10000000000E+01 0.  0.
<mgrwt>
<rscale>  0 0.12614987E+03</rscale>
<asrwt>0</asrwt>
<pdfrwt beam="2">  1        1 0.63523429E-01 0.13452538E+03</pdfrwt>
<pdfrwt beam="1">  1       -1 0.53828568E-02 0.13452538E+03</pdfrwt>
<totfact> 0.87099035E+03</totfact>
</mgrwt>
</event>
<event>
 8    2  0.7478846E-004  0.1426051E+03  0.7818608E-02  0.1216454E+00
          1   -1    0    0  501    0  0.00000000000E+00  0.00000000000E+00  0.25525983583E+03  0.25525983588E+03  0.50400000000E-02 0. -1.
         -1   -1    0    0    0  501 -0.00000000000E+00 -0.00000000000E+00 -0.69606073386E+02  0.69606073569E+02  0.50400000000E-02 0.  1.
         25    2    1    2    0    0  0.51216628467E+02 -0.45689809036E+02  0.98911902373E+02  0.17355050935E+03  0.12500205272E+03 0.  0.
         23    2    1    2    0    0 -0.51216628467E+02  0.45689809036E+02  0.86741860067E+02  0.15131540009E+03  0.10325453180E+03 0.  0.
        -11    1    4    4    0    0  0.28140918092E+02  0.99903847552E+01  0.21211158954E+01  0.29936903506E+02  0.51100000000E-03 0.  1.
         11    1    4    4    0    0 -0.79357546559E+02  0.35699424281E+02  0.84620744172E+02  0.12137849659E+03  0.51100000000E-03 0. -1.
    9000005    1    3    3    0    0 -0.22887644904E+02 -0.33473899899E+02 -0.95005970793E+01  0.41660624198E+02  0.10000000000E+01 0.  0.
    9000005    1    3    3    0    0  0.74104273371E+02 -0.12215909137E+02  0.10841249945E+03  0.13188988515E+03  0.10000000000E+01 0.  0.
<mgrwt>
<rscale>  0 0.13770297E+03</rscale>
<asrwt>0</asrwt>
<pdfrwt beam="1">  1        1 0.39270744E-01 0.14260510E+03</pdfrwt>
<pdfrwt beam="2">  1       -1 0.10708627E-01 0.14260510E+03</pdfrwt>
<totfact> 0.56454386E+03</totfact>
</mgrwt>
</event>
<event>
 8    2  0.7478846E-004  0.1337879E+03  0.7818608E-02  0.1234429E+00
         -1   -1    0    0    0  501 -0.00000000000E+00  0.00000000000E+00  0.54885489075E+02  0.54885489306E+02  0.50400000000E-02 0.  1.
          1   -1    0    0  501    0  0.00000000000E+00 -0.00000000000E+00 -0.26370414401E+03  0.26370414406E+03  0.50400000000E-02 0. -1.
         25    2    1    2    0    0  0.20750349218E+02 -0.42938446232E+02 -0.14440627399E+03  0.19685625039E+03  0.12499969677E+03 0.  0.
         23    2    1    2    0    0 -0.20750349218E+02  0.42938446232E+02 -0.64412380951E+02  0.12173338298E+03  0.91628459301E+02 0.  0.
        -11    1    4    4    0    0 -0.43788080480E+02  0.11567351119E+02  0.13567318712E+01  0.45310488031E+02  0.51100000000E-03 0.  1.
         11    1    4    4    0    0  0.23037731262E+02  0.31371095113E+02 -0.65769112822E+02  0.76422894947E+02  0.51100000000E-03 0. -1.
    9000005    1    3    3    0    0  0.31652939105E+02  0.25852656005E+02 -0.11352385990E+03  0.12066041249E+03  0.10000000000E+01 0.  0.
    9000005    1    3    3    0    0 -0.10902589887E+02 -0.68791102237E+02 -0.30882414090E+02  0.76195837900E+02  0.10000000000E+01 0.  0.
<mgrwt>
<rscale>  0 0.12541041E+03</rscale>
<asrwt>0</asrwt>
<pdfrwt beam="2">  1        1 0.40569868E-01 0.13378793E+03</pdfrwt>
<pdfrwt beam="1">  1       -1 0.84439216E-02 0.13378793E+03</pdfrwt>
<totfact> 0.77549590E+03</totfact>
</mgrwt>
</event>
<event>
 8    2  0.7478846E-004  0.2042874E+03  0.7818608E-02  0.1150324E+00
          1   -1    0    0  501    0  0.00000000000E+00  0.00000000000E+00  0.99553025909E+03  0.99553025911E+03  0.50400000000E-02 0. -1.
         -1   -1    0    0    0  501 -0.00000000000E+00 -0.00000000000E+00 -0.45701153466E+02  0.45701153744E+02  0.50400000000E-02 0.  1.
         25    2    1    2    0    0  0.93349698466E+02 -0.13188659652E+03  0.28194261767E+03  0.34817375615E+03  0.12500033705E+03 0.  0.
         23    2    1    2    0    0 -0.93349698466E+02  0.13188659652E+03  0.66788648795E+03  0.69305765670E+03  0.90268013027E+02 0.  0.
        -11    1    4    4    0    0 -0.23032298999E+02  0.95646487096E+02  0.46502452159E+03  0.47531730767E+03  0.51100000000E-03 0.  1.
         11    1    4    4    0    0 -0.70317399467E+02  0.36240109427E+02  0.20286196637E+03  0.21774034903E+03  0.51100000000E-03 0. -1.
    9000005    1    3    3    0    0  0.38764873646E+02 -0.14330528835E+03  0.20138376177E+03  0.25019100824E+03  0.10000000000E+01 0.  0.
    9000005    1    3    3    0    0  0.54584824820E+02  0.11418691828E+02  0.80558855903E+02  0.97982747910E+02  0.10000000000E+01 0.  0.
<mgrwt>
<rscale>  0 0.19930770E+03</rscale>
<asrwt>0</asrwt>
<pdfrwt beam="1">  1        1 0.15315850E+00 0.20428736E+03</pdfrwt>
<pdfrwt beam="2">  1       -1 0.70309469E-02 0.20428736E+03</pdfrwt>
<totfact> 0.16891011E+03</totfact>
</mgrwt>
</event>
<event>
 8    2  0.7478846E-004  0.1282691E+03  0.7818608E-02  0.1243683E+00
          1   -1    0    0  501    0  0.00000000000E+00  0.00000000000E+00  0.59762530427E+03  0.59762530429E+03  0.50400000000E-02 0. -1.
         -1   -1    0    0    0  501 -0.00000000000E+00 -0.00000000000E+00 -0.23555533368E+02  0.23555533907E+02  0.50400000000E-02 0.  1.
         25    2    1    2    0    0  0.10451665791E+02  0.26841413063E+02  0.22645751146E+03  0.26026132990E+03  0.12499302610E+03 0.  0.
         23    2    1    2    0    0 -0.10451665791E+02 -0.26841413063E+02  0.34761225944E+03  0.36091950829E+03  0.92730306689E+02 0.  0.
        -11    1    4    4    0    0 -0.36010016925E+02 -0.16215493190E+02  0.31777870593E+03  0.32022331189E+03  0.51100000000E-03 0. -1.
         11    1    4    4    0    0  0.25558351133E+02 -0.10625919873E+02  0.29833553513E+02  0.40696196398E+02  0.51100000000E-03 0.  1.
    9000005    1    3    3    0    0 -0.36973870324E+02 -0.34421863897E+02  0.81369313166E+02  0.95780462131E+02  0.10000000000E+01 0.  0.
    9000005    1    3    3    0    0  0.47425536115E+02  0.61263276959E+02  0.14508819829E+03  0.16448086777E+03  0.10000000000E+01 0.  0.
<mgrwt>
<rscale>  0 0.11964579E+03</rscale>
<asrwt>0</asrwt>
<pdfrwt beam="1">  1        1 0.91942359E-01 0.12826907E+03</pdfrwt>
<pdfrwt beam="2">  1       -1 0.36239281E-02 0.12826907E+03</pdfrwt>
<totfact> 0.95956765E+03</totfact>
</mgrwt>
</event>
<event>
 8    2  0.7478846E-004  0.1426860E+03  0.7818608E-02  0.1220761E+00
          1   -1    0    0  501    0  0.00000000000E+00  0.00000000000E+00  0.21998181786E+03  0.21998181792E+03  0.50400000000E-02 0. -1.
         -1   -1    0    0    0  501 -0.00000000000E+00 -0.00000000000E+00 -0.82064364283E+02  0.82064364438E+02  0.50400000000E-02 0.  1.
         25    2    1    2    0    0  0.44257707314E+02 -0.52681935043E+02  0.30097392554E+02  0.14582577556E+03  0.12500069137E+03 0.  0.
         23    2    1    2    0    0 -0.44257707314E+02  0.52681935043E+02  0.10782006102E+03  0.15622040680E+03  0.89696817135E+02 0.  0.
        -11    1    4    4    0    0 -0.36079603568E+02  0.71826361081E+02  0.49745205749E+02  0.94526977287E+02  0.51100000000E-03 0.  1.
         11    1    4    4    0    0 -0.81781037462E+01 -0.19144426038E+02  0.58074855275E+02  0.61693429510E+02  0.51100000000E-03 0. -1.
    9000005    1    3    3    0    0  0.27106458334E+02  0.27378359144E+02  0.48452222822E+02  0.61910843390E+02  0.10000000000E+01 0.  0.
    9000005    1    3    3    0    0  0.17151248980E+02 -0.80060294187E+02 -0.18354830268E+02  0.83914932170E+02  0.10000000000E+01 0.  0.
<mgrwt>
<rscale>  0 0.13461733E+03</rscale>
<asrwt>0</asrwt>
<pdfrwt beam="1">  1        1 0.33843356E-01 0.14268603E+03</pdfrwt>
<pdfrwt beam="2">  1       -1 0.12625287E-01 0.14268603E+03</pdfrwt>
<totfact> 0.52666203E+03</totfact>
</mgrwt>
</event>
<event>
 8    2  0.7478846E-004  0.1328354E+03  0.7818608E-02  0.1236121E+00
          1   -1    0    0  501    0  0.00000000000E+00  0.00000000000E+00  0.66113023472E+03  0.66113023474E+03  0.50400000000E-02 0.  1.
         -1   -1    0    0    0  501 -0.00000000000E+00 -0.00000000000E+00 -0.20957747564E+02  0.20957748170E+02  0.50400000000E-02 0. -1.
         25    2    1    2    0    0 -0.40555973130E+02  0.19358593636E+02  0.33698921164E+03  0.36222502265E+03  0.12500278466E+03 0.  0.
         23    2    1    2    0    0  0.40555973130E+02 -0.19358593636E+02  0.30318327552E+03  0.31986296025E+03  0.91502309724E+02 0.  0.
        -11    1    4    4    0    0  0.66298594827E+02 -0.19107504521E+02  0.26483206885E+03  0.27367247779E+03  0.51100000000E-03 0.  1.
         11    1    4    4    0    0 -0.25742621697E+02 -0.25108911461E+00  0.38351206662E+02  0.46190482464E+02  0.51100000000E-03 0. -1.
    9000005    1    3    3    0    0  0.34684091202E+01 -0.21054771480E+02  0.27602102358E+03  0.27684641721E+03  0.10000000000E+01 0.  0.
    9000005    1    3    3    0    0 -0.44024382251E+02  0.40413365116E+02  0.60968188060E+02  0.85378605446E+02  0.10000000000E+01 0.  0.
<mgrwt>
<rscale>  0 0.12432940E+03</rscale>
<asrwt>0</asrwt>
<pdfrwt beam="1">  1        1 0.10171236E+00 0.13283538E+03</pdfrwt>
<pdfrwt beam="2">  1       -1 0.32242684E-02 0.13283538E+03</pdfrwt>
<totfact> 0.99256549E+03</totfact>
</mgrwt>
</event>
<event>
 8    2  0.7478846E-004  0.2046754E+03  0.7818608E-02  0.1149827E+00
         -1   -1    0    0    0  501 -0.00000000000E+00  0.00000000000E+00  0.77550579615E+03  0.77550579616E+03  0.50400000000E-02 0.  1.
          1   -1    0    0  501    0  0.00000000000E+00 -0.00000000000E+00 -0.70237766644E+02  0.70237766825E+02  0.50400000000E-02 0. -1.
         25    2    1    2    0    0 -0.16207473850E+03 -0.27676471667E+00  0.13337557930E+03  0.24429710942E+03  0.12499494014E+03 0.  0.
         23    2    1    2    0    0  0.16207473850E+03  0.27676471667E+00  0.57189245020E+03  0.60144645356E+03  0.91698224893E+02 0.  0.
        -11    1    4    4    0    0  0.90539387468E+02  0.32315842441E+02  0.41593236704E+03  0.42689744472E+03  0.51100000000E-03 0.  1.
         11    1    4    4    0    0  0.71535351034E+02 -0.32039077724E+02  0.15596008316E+03  0.17454900885E+03  0.51100000000E-03 0. -1.
    9000005    1    3    3    0    0 -0.28280290008E+02  0.21461537491E+02  0.97952580409E+02  0.10419251606E+03  0.10000000000E+01 0.  0.
    9000005    1    3    3    0    0 -0.13379444849E+03 -0.21738302208E+02  0.35422998892E+02  0.14010459336E+03  0.10000000000E+01 0.  0.
<mgrwt>
<rscale>  0 0.19989607E+03</rscale>
<asrwt>0</asrwt>
<pdfrwt beam="2">  1        1 0.10805810E-01 0.20467543E+03</pdfrwt>
<pdfrwt beam="1">  1       -1 0.11930858E+00 0.20467543E+03</pdfrwt>
<totfact> 0.38839080E+02</totfact>
</mgrwt>
</event>
<event>
 8    2  0.7478846E-004  0.1352084E+03  0.7818608E-02  0.1231400E+00
         -1   -1    0    0    0  501 -0.00000000000E+00  0.00000000000E+00  0.20469037682E+02  0.20469038303E+02  0.50400000000E-02 0.  1.
          1   -1    0    0  501    0  0.00000000000E+00 -0.00000000000E+00 -0.73454382214E+03  0.73454382215E+03  0.50400000000E-02 0. -1.
         25    2    1    2    0    0  0.22276914935E+02 -0.46476113135E+02 -0.33486849829E+03  0.36113462728E+03  0.12500007137E+03 0.  0.
         23    2    1    2    0    0 -0.22276914935E+02  0.46476113135E+02 -0.37920628616E+03  0.39387823318E+03  0.93200670989E+02 0.  0.
        -11    1    4    4    0    0 -0.37524770098E+02  0.69433042066E+02 -0.28421974376E+03  0.29497443693E+03  0.51100000000E-03 0. -1.
         11    1    4    4    0    0  0.15247855163E+02 -0.22956928930E+02 -0.94986542404E+02  0.98903796242E+02  0.51100000000E-03 0.  1.
    9000005    1    3    3    0    0  0.87217967700E+01 -0.89544045952E+02 -0.22850232370E+03  0.24557792621E+03  0.10000000000E+01 0.  0.
    9000005    1    3    3    0    0  0.13555118165E+02  0.43067932817E+02 -0.10636617459E+03  0.11555670107E+03  0.10000000000E+01 0.  0.
<mgrwt>
<rscale>  0 0.12737731E+03</rscale>
<asrwt>0</asrwt>
<pdfrwt beam="2">  1        1 0.11300672E+00 0.13520839E+03</pdfrwt>
<pdfrwt beam="1">  1       -1 0.31490833E-02 0.13520839E+03</pdfrwt>
<totfact> 0.88498434E+03</totfact>
</mgrwt>
</event>
<event>
 8    2  0.7478846E-004  0.1289362E+03  0.7818608E-02  0.1243059E+00
          1   -1    0    0  501    0  0.00000000000E+00  0.00000000000E+00  0.12679955964E+04  0.12679955965E+04  0.50400000000E-02 0. -1.
         -1   -1    0    0    0  501 -0.00000000000E+00 -0.00000000000E+00 -0.10214660560E+02  0.10214661803E+02  0.50400000000E-02 0.  1.
         25    2    1    2    0    0 -0.62759376288E+01 -0.30992029388E+02  0.63608437858E+03  0.64902071289E+03  0.12499862318E+03 0.  0.
         23    2    1    2    0    0  0.62759376288E+01  0.30992029388E+02  0.62169655730E+03  0.62918954537E+03  0.91503996454E+02 0.  0.
        -11    1    4    4    0    0 -0.12470035826E+02 -0.30274736477E+02  0.21144405579E+03  0.21396413295E+03  0.51100000000E-03 0. -1.
         11    1    4    4    0    0  0.18745973455E+02  0.61266765864E+02  0.41025250151E+03  0.41522541242E+03  0.51100000000E-03 0.  1.
    9000005    1    3    3    0    0 -0.19336848046E+02  0.14238288208E+02  0.55298436498E+03  0.55350641410E+03  0.10000000000E+01 0.  0.
    9000005    1    3    3    0    0  0.13060910417E+02 -0.45230317596E+02  0.83100013608E+02  0.95514298785E+02  0.10000000000E+01 0.  0.
<mgrwt>
<rscale>  0 0.12002323E+03</rscale>
<asrwt>0</asrwt>
<pdfrwt beam="1">  1        1 0.19507617E+00 0.12893622E+03</pdfrwt>
<pdfrwt beam="2">  1       -1 0.15714870E-02 0.12893622E+03</pdfrwt>
<totfact> 0.96872073E+03</totfact>
</mgrwt>
</event>
<event>
 8    2  0.7478846E-004  0.1296962E+03  0.7818608E-02  0.1241897E+00
          1   -1    0    0  501    0  0.00000000000E+00  0.00000000000E+00  0.26105108060E+02  0.26105108547E+02  0.50400000000E-02 0. -1.
         -1   -1    0    0    0  501 -0.00000000000E+00 -0.00000000000E+00 -0.71783965110E+03  0.71783965112E+03  0.50400000000E-02 0.  1.
         25    2    1    2    0    0 -0.92133434947E+01 -0.33335416143E+02 -0.58606806347E+03  0.60024733917E+03  0.12499982999E+03 0.  0.
         23    2    1    2    0    0  0.92133434947E+01  0.33335416143E+02 -0.10566647958E+03  0.14369742050E+03  0.91035202442E+02 0.  0.
        -11    1    4    4    0    0 -0.30690045200E+02 -0.11260734180E+02 -0.60341305503E+02  0.68627663218E+02  0.51100000000E-03 0.  1.
         11    1    4    4    0    0  0.39903388695E+02  0.44596150323E+02 -0.45325174075E+02  0.75069757280E+02  0.51100000000E-03 0. -1.
    9000005    1    3    3    0    0  0.63425671474E+01  0.33076085870E+02 -0.52805405754E+02  0.62639176969E+02  0.10000000000E+01 0.  0.
    9000005    1    3    3    0    0 -0.15555910642E+02 -0.66411502013E+02 -0.53326265771E+03  0.53760816220E+03  0.10000000000E+01 0.  0.
<mgrwt>
<rscale>  0 0.12073041E+03</rscale>
<asrwt>0</asrwt>
<pdfrwt beam="1">  1        1 0.40161710E-02 0.12969616E+03</pdfrwt>
<pdfrwt beam="2">  1       -1 0.11043685E+00 0.12969616E+03</pdfrwt>
<totfact> 0.17646501E+03</totfact>
</mgrwt>
</event>
<event>
 8    2  0.7478846E-004  0.1286737E+03  0.7818608E-02  0.1244573E+00
          1   -1    0    0  501    0  0.00000000000E+00  0.00000000000E+00  0.34363852052E+03  0.34363852056E+03  0.50400000000E-02 0. -1.
         -1   -1    0    0    0  501 -0.00000000000E+00 -0.00000000000E+00 -0.49257374004E+02  0.49257374262E+02  0.50400000000E-02 0.  1.
         25    2    1    2    0    0 -0.25415960053E+02  0.16911062274E+02  0.63616828134E+02  0.14354105400E+03  0.12499991323E+03 0.  0.
         23    2    1    2    0    0  0.25415960053E+02 -0.16911062274E+02  0.23076431838E+03  0.24935484082E+03  0.89407555328E+02 0.  0.
        -11    1    4    4    0    0 -0.95667886509E+01  0.21393163433E+02  0.15906132300E+02  0.28323063601E+02  0.51100000000E-03 0.  1.
         11    1    4    4    0    0  0.34982748704E+02 -0.38304225707E+02  0.21485818608E+03  0.22103177722E+03  0.51100000000E-03 0. -1.
    9000005    1    3    3    0    0  0.44646938542E+02 -0.70311630892E+01 -0.10657005474E+01  0.45220814823E+02  0.10000000000E+01 0.  0.
    9000005    1    3    3    0    0 -0.70062898595E+02  0.23942225363E+02  0.64682528681E+02  0.98320239175E+02  0.10000000000E+01 0.  0.
<mgrwt>
<rscale>  0 0.11910981E+03</rscale>
<asrwt>0</asrwt>
<pdfrwt beam="1">  1        1 0.52867463E-01 0.12867375E+03</pdfrwt>
<pdfrwt beam="2">  1       -1 0.75780577E-02 0.12867375E+03</pdfrwt>
<totfact> 0.65607880E+03</totfact>
</mgrwt>
</event>
<event>
 8    2  0.7478846E-004  0.1617830E+03  0.7818608E-02  0.1194033E+00
          1   -1    0    0  501    0  0.00000000000E+00  0.00000000000E+00  0.15956180327E+03  0.15956180335E+03  0.50400000000E-02 0. -1.
         -1   -1    0    0    0  501 -0.00000000000E+00 -0.00000000000E+00 -0.14280185353E+03  0.14280185362E+03  0.50400000000E-02 0.  1.
         25    2    1    2    0    0  0.24439590082E+02  0.99773348514E+02 -0.10390147790E+02  0.16211626352E+03  0.12498685167E+03 0.  0.
         23    2    1    2    0    0 -0.24439590082E+02 -0.99773348514E+02  0.27150097526E+02  0.14024739344E+03  0.91543371872E+02 0.  0.
        -11    1    4    4    0    0  0.15457263702E+02 -0.42679335998E+02 -0.26290127387E+02  0.52455919787E+02  0.51100000000E-03 0.  1.
         11    1    4    4    0    0 -0.39896853784E+02 -0.57094012516E+02  0.53440224913E+02  0.87791473652E+02  0.51100000000E-03 0. -1.
    9000005    1    3    3    0    0  0.24550363470E+01  0.25971333552E+02 -0.63438778448E+02  0.68600408023E+02  0.10000000000E+01 0.  0.
    9000005    1    3    3    0    0  0.21984553735E+02  0.73802014962E+02  0.53048630659E+02  0.93515855502E+02  0.10000000000E+01 0.  0.
<mgrwt>
<rscale>  0 0.15536377E+03</rscale>
<asrwt>0</asrwt>
<pdfrwt beam="1">  1        1 0.24547970E-01 0.16178296E+03</pdfrwt>
<pdfrwt beam="2">  1       -1 0.21969516E-01 0.16178296E+03</pdfrwt>
<totfact> 0.32913754E+03</totfact>
</mgrwt>
</event>
<event>
 8    2  0.7478846E-004  0.1579196E+03  0.7818608E-02  0.1199374E+00
          1   -1    0    0  501    0  0.00000000000E+00  0.00000000000E+00  0.39569786744E+03  0.39569786747E+03  0.50400000000E-02 0. -1.
         -1   -1    0    0    0  501 -0.00000000000E+00 -0.00000000000E+00 -0.54222518461E+02  0.54222518696E+02  0.50400000000E-02 0.  1.
         25    2    1    2    0    0 -0.72759397897E+02  0.63396485474E+02  0.15190671346E+03  0.21912153825E+03  0.12500221829E+03 0.  0.
         23    2    1    2    0    0  0.72759397897E+02 -0.63396485474E+02  0.18956863552E+03  0.23079884792E+03  0.89547731830E+02 0.  0.
        -11    1    4    4    0    0  0.10198581402E+02  0.12638982464E+02  0.87436338144E+02  0.88931817527E+02  0.51100000000E-03 0. -1.
         11    1    4    4    0    0  0.62560816495E+02 -0.76035467938E+02  0.10213229737E+03  0.14186703039E+03  0.51100000000E-03 0.  1.
    9000005    1    3    3    0    0  0.10920780042E+02  0.53059326384E+02  0.11573060951E+02  0.55402989927E+02  0.10000000000E+01 0.  0.
    9000005    1    3    3    0    0 -0.83680177939E+02  0.10337159090E+02  0.14033365251E+03  0.16371854833E+03  0.10000000000E+01 0.  0.
<mgrwt>
<rscale>  0 0.15089769E+03</rscale>
<asrwt>0</asrwt>
<pdfrwt beam="1">  1        1 0.60876598E-01 0.15791960E+03</pdfrwt>
<pdfrwt beam="2">  1       -1 0.83419256E-02 0.15791960E+03</pdfrwt>
<totfact> 0.48113775E+03</totfact>
</mgrwt>
</event>
<event>
 8    2  0.7478846E-004  0.2099462E+03  0.7818608E-02  0.1145473E+00
          1   -1    0    0  501    0  0.00000000000E+00  0.00000000000E+00  0.34556156029E+04  0.34556156029E+04  0.50400000000E-02 0. -1.
         -1   -1    0    0    0  501 -0.00000000000E+00 -0.00000000000E+00 -0.13988460864E+02  0.13988461772E+02  0.50400000000E-02 0.  1.
         25    2    1    2    0    0 -0.73346685532E+02  0.15189902392E+03  0.24955166207E+04  0.25043323719E+04  0.12499750075E+03 0.  0.
         23    2    1    2    0    0  0.73346685532E+02 -0.15189902392E+03  0.94611052140E+03  0.96527169280E+03  0.90395090998E+02 0.  0.
        -11    1    4    4    0    0  0.27152837730E+02 -0.54057102836E+02  0.14838881505E+03  0.16024570944E+03  0.51100000000E-03 0.  1.
         11    1    4    4    0    0  0.46193847802E+02 -0.97841921080E+02  0.79772170635E+03  0.80502598336E+03  0.51100000000E-03 0. -1.
    9000005    1    3    3    0    0 -0.95974497201E+02  0.11134372999E+03  0.13713441506E+04  0.13792006053E+04  0.10000000000E+01 0.  0.
    9000005    1    3    3    0    0  0.22627811669E+02  0.40555293931E+02  0.11241724701E+04  0.11251317666E+04  0.10000000000E+01 0.  0.
<mgrwt>
<rscale>  0 0.20514091E+03</rscale>
<asrwt>0</asrwt>
<pdfrwt beam="1">  1        1 0.53163326E+00 0.20994624E+03</pdfrwt>
<pdfrwt beam="2">  1       -1 0.21520706E-02 0.20994624E+03</pdfrwt>
<totfact> 0.21220050E+02</totfact>
</mgrwt>
</event>
<event>
 8    2  0.7478846E-004  0.1599142E+03  0.7818608E-02  0.1196710E+00
          1   -1    0    0  501    0  0.00000000000E+00  0.00000000000E+00  0.41687770438E+03  0.41687770441E+03  0.50400000000E-02 0. -1.
         -1   -1    0    0    0  501 -0.00000000000E+00 -0.00000000000E+00 -0.53727777889E+02  0.53727778125E+02  0.50400000000E-02 0.  1.
         25    2    1    2    0    0 -0.18778813705E+02 -0.97953960592E+02  0.23965798678E+03  0.28811195523E+03  0.12499970352E+03 0.  0.
         23    2    1    2    0    0  0.18778813705E+02  0.97953960592E+02  0.12349193971E+03  0.18249352730E+03  0.90033361011E+02 0.  0.
        -11    1    4    4    0    0  0.62194443512E+01  0.16140175632E+02  0.92509781672E+02  0.94112945245E+02  0.51100000000E-03 0. -1.
         11    1    4    4    0    0  0.12559369354E+02  0.81813784961E+02  0.30982158037E+02  0.88380582059E+02  0.51100000000E-03 0.  1.
    9000005    1    3    3    0    0 -0.11845400928E+02  0.29603492509E+02  0.41508774965E+02  0.52351300757E+02  0.10000000000E+01 0.  0.
    9000005    1    3    3    0    0 -0.69334127772E+01 -0.12755745310E+03  0.19814921182E+03  0.23576065447E+03  0.10000000000E+01 0.  0.
<mgrwt>
<rscale>  0 0.15310374E+03</rscale>
<asrwt>0</asrwt>
<pdfrwt beam="1">  1        1 0.64135031E-01 0.15991419E+03</pdfrwt>
<pdfrwt beam="2">  1       -1 0.82658121E-02 0.15991419E+03</pdfrwt>
<totfact> 0.45691265E+03</totfact>
</mgrwt>
</event>
<event>
 8    2  0.7478846E-004  0.1755794E+03  0.7818608E-02  0.1177981E+00
         -1   -1    0    0    0  501 -0.00000000000E+00  0.00000000000E+00  0.14217698308E+03  0.14217698317E+03  0.50400000000E-02 0.  1.
          1   -1    0    0  501    0  0.00000000000E+00 -0.00000000000E+00 -0.19644162380E+03  0.19644162386E+03  0.50400000000E-02 0. -1.
         25    2    1    2    0    0 -0.30234616599E+02 -0.11951241566E+03 -0.27920433962E+00  0.17557965930E+03  0.12502315493E+03 0.  0.
         23    2    1    2    0    0  0.30234616599E+02  0.11951241566E+03 -0.53985436376E+02  0.16303894772E+03  0.92032176969E+02 0.  0.
        -11    1    4    4    0    0 -0.28446965770E+02  0.67527317159E+02 -0.12468103209E+02  0.74327801139E+02  0.51100000000E-03 0.  1.
         11    1    4    4    0    0  0.58681582369E+02  0.51985098497E+02 -0.41517333167E+02  0.88711146586E+02  0.51100000000E-03 0. -1.
    9000005    1    3    3    0    0 -0.46388394136E+02 -0.13325595131E+03  0.24212896354E+02  0.14316527519E+03  0.10000000000E+01 0.  0.
    9000005    1    3    3    0    0  0.16153777538E+02  0.13743535656E+02 -0.24492100694E+02  0.32414384113E+02  0.10000000000E+01 0.  0.
<mgrwt>
<rscale>  0 0.16987277E+03</rscale>
<asrwt>0</asrwt>
<pdfrwt beam="2">  1        1 0.30221788E-01 0.17557944E+03</pdfrwt>
<pdfrwt beam="1">  1       -1 0.21873382E-01 0.17557944E+03</pdfrwt>
<totfact> 0.25610164E+03</totfact>
</mgrwt>
</event>
<event>
 8    2  0.7478846E-004  0.1539257E+03  0.7818608E-02  0.1204397E+00
          1   -1    0    0  501    0  0.00000000000E+00  0.00000000000E+00  0.43199189426E+02  0.43199189720E+02  0.50400000000E-02 0. -1.
         -1   -1    0    0    0  501 -0.00000000000E+00 -0.00000000000E+00 -0.48872673804E+03  0.48872673806E+03  0.50400000000E-02 0.  1.
         25    2    1    2    0    0 -0.48820459430E+02  0.75408059338E+02 -0.17639750922E+03  0.23411365351E+03  0.12499323513E+03 0.  0.
         23    2    1    2    0    0  0.48820459430E+02 -0.75408059338E+02 -0.26913003940E+03  0.29781227428E+03  0.90506132019E+02 0.  0.
        -11    1    4    4    0    0  0.39872391722E+02  0.34919010350E+01 -0.46006605887E+02  0.60980396685E+02  0.51100000000E-03 0. -1.
         11    1    4    4    0    0  0.89480677087E+01 -0.78899960373E+02 -0.22312343351E+03  0.23683187759E+03  0.51100000000E-03 0.  1.
    9000005    1    3    3    0    0 -0.84472188513E+02  0.20425367012E+02 -0.11634448949E+03  0.14522322984E+03  0.10000000000E+01 0.  0.
    9000005    1    3    3    0    0  0.35651729083E+02  0.54982692326E+02 -0.60053019730E+02  0.88890423673E+02  0.10000000000E+01 0.  0.
<mgrwt>
<rscale>  0 0.14685115E+03</rscale>
<asrwt>0</asrwt>
<pdfrwt beam="1">  1        1 0.66460295E-02 0.15392570E+03</pdfrwt>
<pdfrwt beam="2">  1       -1 0.75188725E-01 0.15392570E+03</pdfrwt>
<totfact> 0.20318826E+03</totfact>
</mgrwt>
</event>
<event>
 8    2  0.7478846E-004  0.1261822E+03  0.7818608E-02  0.1249038E+00
         -1   -1    0    0    0  501 -0.00000000000E+00  0.00000000000E+00  0.56385232013E+01  0.56385254538E+01  0.50400000000E-02 0.  1.
          1   -1    0    0  501    0  0.00000000000E+00 -0.00000000000E+00 -0.21194990731E+04  0.21194990731E+04  0.50400000000E-02 0. -1.
         25    2    1    2    0    0 -0.29741525983E+01 -0.16964028823E+02 -0.13167926812E+04  0.13228245948E+04  0.12500127857E+03 0.  0.
         23    2    1    2    0    0  0.29741525983E+01  0.16964028823E+02 -0.79706786872E+03  0.80231300372E+03  0.89957460714E+02 0.  0.
        -11    1    4    4    0    0 -0.42264952044E+02  0.17246610196E+02 -0.44990303145E+03  0.45221290278E+03  0.51100000000E-03 0.  1.
         11    1    4    4    0    0  0.45239104643E+02 -0.28258137293E+00 -0.34716483727E+03  0.35010010094E+03  0.51100000000E-03 0. -1.
    9000005    1    3    3    0    0  0.16528690053E+02 -0.40535583138E+02 -0.16763837051E+03  0.17326267447E+03  0.10000000000E+01 0.  0.
    9000005    1    3    3    0    0 -0.19502842651E+02  0.23571554316E+02 -0.11491543107E+04  0.11495619204E+04  0.10000000000E+01 0.  0.
<mgrwt>
<rscale>  0 0.11646947E+03</rscale>
<asrwt>0</asrwt>
<pdfrwt beam="2">  1        1 0.32607614E+00 0.12618218E+03</pdfrwt>
<pdfrwt beam="1">  1       -1 0.86746697E-03 0.12618218E+03</pdfrwt>
<totfact> 0.64118295E+03</totfact>
</mgrwt>
</event>
<event>
 8    2  0.9477545E-004  0.1262435E+03  0.7818608E-02  0.1258971E+00
         -1   -1    0    0    0  501 -0.00000000000E+00  0.00000000000E+00  0.26490965805E+02  0.26490966284E+02  0.50400000000E-02 0.  1.
          1   -1    0    0  501    0  0.00000000000E+00 -0.00000000000E+00 -0.38531689589E+03  0.38531689592E+03  0.50400000000E-02 0. -1.
         25    2    1    2    0    0  0.45085748917E+01 -0.17065003151E+02 -0.24155512819E+03  0.27255512035E+03  0.12500348831E+03 0.  0.
         23    2    1    2    0    0 -0.45085748917E+01  0.17065003151E+02 -0.11727080189E+03  0.13925274186E+03  0.72988653634E+02 0.  0.
        -11    1    4    4    0    0  0.67041305079E+01  0.17816253163E+02  0.22826883214E+01  0.19172243188E+02  0.51100000000E-03 0.  1.
         11    1    4    4    0    0 -0.11212705400E+02 -0.75125001235E+00 -0.11955349021E+03  0.12008049867E+03  0.51100000000E-03 0. -1.
    9000005    1    3    3    0    0 -0.29066646653E+02 -0.45926550288E+01 -0.11207606329E+01  0.29465548226E+02  0.10000000000E+01 0.  0.
    9000005    1    3    3    0    0  0.33575221545E+02 -0.12472348122E+02 -0.24043436756E+03  0.24308957212E+03  0.10000000000E+01 0.  0.
<mgrwt>
<rscale>  0 0.11086791E+03</rscale>
<asrwt>0</asrwt>
<pdfrwt beam="2">  1        1 0.59279518E-01 0.12624347E+03</pdfrwt>
<pdfrwt beam="1">  1       -1 0.40755335E-02 0.12624347E+03</pdfrwt>
<totfact> 0.14250679E+04</totfact>
</mgrwt>
</event>
<event>
 8    2  0.7478846E-004  0.1412413E+03  0.7818608E-02  0.1221433E+00
          1   -1    0    0  501    0  0.00000000000E+00  0.00000000000E+00  0.16548238862E+03  0.16548238870E+03  0.50400000000E-02 0. -1.
         -1   -1    0    0    0  501 -0.00000000000E+00 -0.00000000000E+00 -0.99626323651E+02  0.99626323778E+02  0.50400000000E-02 0.  1.
         25    2    1    2    0    0  0.22895289500E+01  0.65716899010E+02  0.27026626080E+02  0.14380379232E+03  0.12500055764E+03 0.  0.
         23    2    1    2    0    0 -0.22895289500E+01 -0.65716899010E+02  0.38829438889E+02  0.12130492015E+03  0.94250758992E+02 0.  0.
        -11    1    4    4    0    0  0.23100821114E+02 -0.71794821017E+02  0.52443234213E+02  0.91860966008E+02  0.51100000000E-03 0. -1.
         11    1    4    4    0    0 -0.25390350064E+02  0.60779220072E+01 -0.13613795324E+02  0.29443954145E+02  0.51100000000E-03 0.  1.
    9000005    1    3    3    0    0 -0.93626037533E+00  0.15707869255E+02  0.73668192912E+02  0.75336686859E+02  0.10000000000E+01 0.  0.
    9000005    1    3    3    0    0  0.32257893254E+01  0.50009029755E+02 -0.46641566832E+02  0.68467105462E+02  0.10000000000E+01 0.  0.
<mgrwt>
<rscale>  0 0.13414434E+03</rscale>
<asrwt>0</asrwt>
<pdfrwt beam="1">  1        1 0.25458829E-01 0.14124126E+03</pdfrwt>
<pdfrwt beam="2">  1       -1 0.15327127E-01 0.14124126E+03</pdfrwt>
<totfact> 0.55468172E+03</totfact>
</mgrwt>
</event>
<event>
 8    2  0.7478846E-004  0.1366462E+03  0.7818608E-02  0.1231626E+00
          1   -1    0    0  501    0  0.00000000000E+00  0.00000000000E+00  0.13132457705E+02  0.13132458672E+02  0.50400000000E-02 0. -1.
         -1   -1    0    0    0  501 -0.00000000000E+00 -0.00000000000E+00 -0.12098729110E+04  0.12098729110E+04  0.50400000000E-02 0.  1.
         25    2    1    2    0    0 -0.99936796176E+01  0.54286510531E+02 -0.48456397941E+03  0.50346243242E+03  0.12500108745E+03 0.  0.
         23    2    1    2    0    0  0.99936796176E+01 -0.54286510531E+02 -0.71217647385E+03  0.71954293722E+03  0.86601441929E+02 0.  0.
        -11    1    4    4    0    0 -0.22890814410E+02 -0.61708868992E+02 -0.37975546150E+03  0.38541689692E+03  0.51100000000E-03 0.  1.
         11    1    4    4    0    0  0.32884494028E+02  0.74223584610E+01 -0.33242101235E+03  0.33412604030E+03  0.51100000000E-03 0. -1.
    9000005    1    3    3    0    0  0.47001661001E+02 -0.69226768372E+01 -0.24889578544E+03  0.25339138029E+03  0.10000000000E+01 0.  0.
    9000005    1    3    3    0    0 -0.56995340618E+02  0.61209187368E+02 -0.23566819396E+03  0.25007105214E+03  0.10000000000E+01 0.  0.
<mgrwt>
<rscale>  0 0.12722946E+03</rscale>
<asrwt>0</asrwt>
<pdfrwt beam="1">  1        1 0.20203791E-02 0.13664615E+03</pdfrwt>
<pdfrwt beam="2">  1       -1 0.18613421E+00 0.13664615E+03</pdfrwt>
<totfact> 0.12093970E+03</totfact>
</mgrwt>
</event>
<event>
 8    2  0.7478846E-004  0.1251370E+03  0.7818608E-02  0.1248244E+00
         -1   -1    0    0    0  501 -0.00000000000E+00  0.00000000000E+00  0.77823415283E+02  0.77823415447E+02  0.50400000000E-02 0.  1.
          1   -1    0    0  501    0  0.00000000000E+00 -0.00000000000E+00 -0.15899946374E+03  0.15899946382E+03  0.50400000000E-02 0. -1.
         25    2    1    2    0    0 -0.14283412608E+01 -0.57456372260E+01 -0.30542773629E+02  0.12881039902E+03  0.12499682144E+03 0.  0.
         23    2    1    2    0    0  0.14283412608E+01  0.57456372260E+01 -0.50633274829E+02  0.10801248024E+03  0.95225599828E+02 0.  0.
        -11    1    4    4    0    0 -0.78913294165E+01  0.43396737866E+02 -0.53239650849E+02  0.69137618994E+02  0.51100000000E-03 0. -1.
         11    1    4    4    0    0  0.93196706774E+01 -0.37651100641E+02  0.26063760200E+01  0.38874861250E+02  0.51100000000E-03 0.  1.
    9000005    1    3    3    0    0 -0.51387764260E+02 -0.39488135913E+02 -0.14495659695E+02  0.66416408691E+02  0.10000000000E+01 0.  0.
    9000005    1    3    3    0    0  0.49959422999E+02  0.33742498687E+02 -0.16047113934E+02  0.62393990332E+02  0.10000000000E+01 0.  0.
<mgrwt>
<rscale>  0 0.11693299E+03</rscale>
<asrwt>0</asrwt>
<pdfrwt beam="2">  1        1 0.24461456E-01 0.12513696E+03</pdfrwt>
<pdfrwt beam="1">  1       -1 0.11972833E-01 0.12513696E+03</pdfrwt>
<totfact> 0.84900962E+03</totfact>
</mgrwt>
</event>
<event>
 8    2  0.7478846E-004  0.1251506E+03  0.7818608E-02  0.1250483E+00
         -1   -1    0    0    0  501 -0.00000000000E+00  0.00000000000E+00  0.10215174699E+03  0.10215174711E+03  0.50400000000E-02 0.  1.
          1   -1    0    0  501    0  0.00000000000E+00 -0.00000000000E+00 -0.11547538923E+03  0.11547538934E+03  0.50400000000E-02 0. -1.
         25    2    1    2    0    0  0.58524907015E+00  0.54505580153E+01 -0.17290301341E+02  0.12633937113E+03  0.12503052059E+03 0.  0.
         23    2    1    2    0    0 -0.58524907015E+00 -0.54505580153E+01  0.39666590976E+01  0.91287765325E+02  0.91036644350E+02 0.  0.
        -11    1    4    4    0    0 -0.63140297583E+01 -0.23146036300E+02  0.42328327466E+02  0.48654838142E+02  0.51100000000E-03 0.  1.
         11    1    4    4    0    0  0.57287806881E+01  0.17695478285E+02 -0.38361668369E+02  0.42632927183E+02  0.51100000000E-03 0. -1.
    9000005    1    3    3    0    0  0.64833920664E+01 -0.33534140533E+02  0.42611020773E+02  0.54619337650E+02  0.10000000000E+01 0.  0.
    9000005    1    3    3    0    0 -0.58981429963E+01  0.38984698549E+02 -0.59901322114E+02  0.71720033482E+02  0.10000000000E+01 0.  0.
<mgrwt>
<rscale>  0 0.11563128E+03</rscale>
<asrwt>0</asrwt>
<pdfrwt beam="2">  1        1 0.17765445E-01 0.12515064E+03</pdfrwt>
<pdfrwt beam="1">  1       -1 0.15715653E-01 0.12515064E+03</pdfrwt>
<totfact> 0.83383310E+03</totfact>
</mgrwt>
</event>
<event>
 8    2  0.7478846E-004  0.1612417E+03  0.7818608E-02  0.1194513E+00
          1   -1    0    0  501    0  0.00000000000E+00  0.00000000000E+00  0.11759707587E+03  0.11759707598E+03  0.50400000000E-02 0. -1.
         -1   -1    0    0    0  501 -0.00000000000E+00 -0.00000000000E+00 -0.19445488934E+03  0.19445488940E+03  0.50400000000E-02 0.  1.
         25    2    1    2    0    0 -0.17317078040E+02  0.10036772200E+03 -0.65561980249E+02  0.17406110886E+03  0.12500134220E+03 0.  0.
         23    2    1    2    0    0  0.17317078040E+02 -0.10036772200E+03 -0.11295833217E+02  0.13799085652E+03  0.92413850817E+02 0.  0.
        -11    1    4    4    0    0  0.19321648578E+02 -0.11786026167E+03 -0.59147339134E+01  0.11957989573E+03  0.51100000000E-03 0. -1.
         11    1    4    4    0    0 -0.20045705384E+01  0.17492539670E+02 -0.53810993037E+01  0.18410960788E+02  0.51100000000E-03 0.  1.
    9000005    1    3    3    0    0 -0.39963360208E+01  0.11775762970E+03 -0.84572870461E+02  0.14503930664E+03  0.10000000000E+01 0.  0.
    9000005    1    3    3    0    0 -0.13320742019E+02 -0.17389907693E+02  0.19010890212E+02  0.29021802221E+02  0.10000000000E+01 0.  0.
<mgrwt>
<rscale>  0 0.15495503E+03</rscale>
<asrwt>0</asrwt>
<pdfrwt beam="1">  1        1 0.18091858E-01 0.16124173E+03</pdfrwt>
<pdfrwt beam="2">  1       -1 0.29916137E-01 0.16124173E+03</pdfrwt>
<totfact> 0.29117192E+03</totfact>
</mgrwt>
</event>
<event>
 8    2  0.7478846E-004  0.1609700E+03  0.7818608E-02  0.1195948E+00
         -1   -1    0    0    0  501 -0.00000000000E+00  0.00000000000E+00  0.52135234992E+02  0.52135235235E+02  0.50400000000E-02 0.  1.
          1   -1    0    0  501    0  0.00000000000E+00 -0.00000000000E+00 -0.41992702638E+03  0.41992702641E+03  0.50400000000E-02 0. -1.
         25    2    1    2    0    0  0.92309771093E+02 -0.42019254067E+02 -0.18126086321E+03  0.24241869954E+03  0.12499845520E+03 0.  0.
         23    2    1    2    0    0 -0.92309771093E+02  0.42019254067E+02 -0.18653092818E+03  0.22964356210E+03  0.87496667926E+02 0.  0.
        -11    1    4    4    0    0 -0.76001010272E+00  0.21409789363E+02 -0.66739951995E+00  0.21433667869E+02  0.51100000000E-03 0.  1.
         11    1    4    4    0    0 -0.91549760990E+02  0.20609464704E+02 -0.18586352866E+03  0.20820989423E+03  0.51100000000E-03 0. -1.
    9000005    1    3    3    0    0  0.12332949568E+03 -0.26202277123E+02 -0.13950636552E+03  0.18804188324E+03  0.10000000000E+01 0.  0.
    9000005    1    3    3    0    0 -0.31019724591E+02 -0.15816976945E+02 -0.41754497692E+02  0.54376816300E+02  0.10000000000E+01 0.  0.
<mgrwt>
<rscale>  0 0.15374238E+03</rscale>
<asrwt>0</asrwt>
<pdfrwt beam="2">  1        1 0.64604156E-01 0.16096995E+03</pdfrwt>
<pdfrwt beam="1">  1       -1 0.80208057E-02 0.16096995E+03</pdfrwt>
<totfact> 0.47396629E+03</totfact>
</mgrwt>
</event>
<event>
 8    2  0.7478846E-004  0.1348985E+03  0.7818608E-02  0.1233147E+00
          1   -1    0    0  501    0  0.00000000000E+00  0.00000000000E+00  0.17446826845E+02  0.17446827572E+02  0.50400000000E-02 0. -1.
         -1   -1    0    0    0  501 -0.00000000000E+00 -0.00000000000E+00 -0.11567553102E+04  0.11567553102E+04  0.50400000000E-02 0.  1.
         25    2    1    2    0    0 -0.44218902396E+02  0.24839341405E+02 -0.94014122373E+03  0.94977003552E+03  0.12500118237E+03 0.  0.
         23    2    1    2    0    0  0.44218902396E+02 -0.24839341405E+02 -0.19916725964E+03  0.22443210229E+03  0.90165775172E+02 0.  0.
        -11    1    4    4    0    0  0.32392353142E+02 -0.52769044643E+02 -0.78332896760E+02  0.99849283071E+02  0.51100000000E-03 0. -1.
         11    1    4    4    0    0  0.11826549254E+02  0.27929703238E+02 -0.12083436288E+03  0.12458281922E+03  0.51100000000E-03 0.  1.
    9000005    1    3    3    0    0 -0.29948697923E+02 -0.37133654979E+02 -0.69075378480E+03  0.69239990184E+03  0.10000000000E+01 0.  0.
    9000005    1    3    3    0    0 -0.14270204473E+02  0.61972996383E+02 -0.24938743893E+03  0.25737013368E+03  0.10000000000E+01 0.  0.
<mgrwt>
<rscale>  0 0.12623776E+03</rscale>
<asrwt>0</asrwt>
<pdfrwt beam="1">  1        1 0.26841282E-02 0.13489848E+03</pdfrwt>
<pdfrwt beam="2">  1       -1 0.17796230E+00 0.13489848E+03</pdfrwt>
<totfact> 0.92590746E+02</totfact>
</mgrwt>
</event>
<event>
 8    2  0.7478846E-004  0.1447877E+03  0.7818608E-02  0.1217265E+00
          1   -1    0    0  501    0  0.00000000000E+00  0.00000000000E+00  0.17390269720E+04  0.17390269720E+04  0.50400000000E-02 0. -1.
         -1   -1    0    0    0  501 -0.00000000000E+00 -0.00000000000E+00 -0.10679428345E+02  0.10679429535E+02  0.50400000000E-02 0.  1.
         25    2    1    2    0    0  0.60596989709E+02  0.40800891237E+02  0.11984284803E+04  0.12071430343E+04  0.12500709972E+03 0.  0.
         23    2    1    2    0    0 -0.60596989709E+02 -0.40800891237E+02  0.52991906337E+03  0.54256336726E+03  0.90686745876E+02 0.  0.
        -11    1    4    4    0    0 -0.69568284607E+02 -0.52151647461E+02  0.30420789044E+03  0.31638897131E+03  0.51100000000E-03 0.  1.
         11    1    4    4    0    0  0.89712948982E+01  0.11350756223E+02  0.22571117293E+03  0.22617439595E+03  0.51100000000E-03 0. -1.
    9000005    1    3    3    0    0  0.30600872173E+02 -0.40262293392E+02  0.26982930184E+03  0.27452926579E+03  0.10000000000E+01 0.  0.
    9000005    1    3    3    0    0  0.29996117536E+02  0.81063184629E+02  0.92859917844E+03  0.93261376848E+03  0.10000000000E+01 0.  0.
<mgrwt>
<rscale>  0 0.13711483E+03</rscale>
<asrwt>0</asrwt>
<pdfrwt beam="1">  1        1 0.26754251E+00 0.14478772E+03</pdfrwt>
<pdfrwt beam="2">  1       -1 0.16429897E-02 0.14478772E+03</pdfrwt>
<totfact> 0.45075919E+03</totfact>
</mgrwt>
</event>
<event>
 8    2  0.7478846E-004  0.1557304E+03  0.7818608E-02  0.1202104E+00
          1   -1    0    0  501    0  0.00000000000E+00  0.00000000000E+00  0.32636918439E+03  0.32636918443E+03  0.50400000000E-02 0. -1.
         -1   -1    0    0    0  501 -0.00000000000E+00 -0.00000000000E+00 -0.67045883604E+02  0.67045883794E+02  0.50400000000E-02 0.  1.
         25    2    1    2    0    0 -0.87446931431E+02 -0.31317950132E+02  0.19307428926E+03  0.24805166137E+03  0.12499666283E+03 0.  0.
         23    2    1    2    0    0  0.87446931431E+02  0.31317950132E+02  0.66249011519E+02  0.14536340685E+03  0.90076682363E+02 0.  0.
        -11    1    4    4    0    0  0.59693786334E+02 -0.18504113209E+02  0.66093283201E+01  0.62844518883E+02  0.51100000000E-03 0.  1.
         11    1    4    4    0    0  0.27753145097E+02  0.49822063341E+02  0.59639683199E+02  0.82518887963E+02  0.51100000000E-03 0. -1.
    9000005    1    3    3    0    0 -0.11781885229E+03 -0.20824651796E+02  0.17231830824E+03  0.20978452619E+03  0.10000000000E+01 0.  0.
    9000005    1    3    3    0    0  0.30371920856E+02 -0.10493298337E+02  0.20755981027E+02  0.38267135180E+02  0.10000000000E+01 0.  0.
<mgrwt>
<rscale>  0 0.14868068E+03</rscale>
<asrwt>0</asrwt>
<pdfrwt beam="1">  1        1 0.50210642E-01 0.15573036E+03</pdfrwt>
<pdfrwt beam="2">  1       -1 0.10314752E-01 0.15573036E+03</pdfrwt>
<totfact> 0.44295758E+03</totfact>
</mgrwt>
</event>
<event>
 8    2  0.7478846E-004  0.1920754E+03  0.7818608E-02  0.1161678E+00
         -1   -1    0    0    0  501 -0.00000000000E+00  0.00000000000E+00  0.41976767303E+02  0.41976767606E+02  0.50400000000E-02 0.  1.
          1   -1    0    0  501    0  0.00000000000E+00 -0.00000000000E+00 -0.92935236675E+03  0.92935236677E+03  0.50400000000E-02 0. -1.
         25    2    1    2    0    0  0.13730457717E+03 -0.49146555544E+02 -0.27370620734E+03  0.33437713120E+03  0.12500018840E+03 0.  0.
         23    2    1    2    0    0 -0.13730457717E+03  0.49146555544E+02 -0.61366939211E+03  0.63695200317E+03  0.88599101032E+02 0.  0.
        -11    1    4    4    0    0 -0.10940183319E+03 -0.45918104364E+01 -0.36918711791E+03  0.38508307397E+03  0.51100000000E-03 0.  1.
         11    1    4    4    0    0 -0.27902743973E+02  0.53738365980E+02 -0.24448227419E+03  0.25186892920E+03  0.51100000000E-03 0. -1.
    9000005    1    3    3    0    0  0.14529650767E+03 -0.70254525466E+02 -0.19839701774E+03  0.25575212636E+03  0.10000000000E+01 0.  0.
    9000005    1    3    3    0    0 -0.79919305041E+01  0.21107969922E+02 -0.75309189602E+02  0.78625004839E+02  0.10000000000E+01 0.  0.
<mgrwt>
<rscale>  0 0.18647627E+03</rscale>
<asrwt>0</asrwt>
<pdfrwt beam="2">  1        1 0.14297727E+00 0.19207545E+03</pdfrwt>
<pdfrwt beam="1">  1       -1 0.64579649E-02 0.19207545E+03</pdfrwt>
<totfact> 0.21535599E+03</totfact>
</mgrwt>
</event>
<event>
 8    2  0.7478846E-004  0.1339073E+03  0.7818608E-02  0.1233978E+00
         -1   -1    0    0    0  501 -0.00000000000E+00  0.00000000000E+00  0.13133937896E+02  0.13133938863E+02  0.50400000000E-02 0.  1.
          1   -1    0    0  501    0  0.00000000000E+00 -0.00000000000E+00 -0.13486911466E+04  0.13486911466E+04  0.50400000000E-02 0. -1.
         25    2    1    2    0    0 -0.22359314503E+02  0.42504404131E+02 -0.10384707789E+04  0.10470686400E+04  0.12499845990E+03 0.  0.
         23    2    1    2    0    0  0.22359314503E+02 -0.42504404131E+02 -0.29708642975E+03  0.31475644540E+03  0.92220983837E+02 0.  0.
        -11    1    4    4    0    0  0.42469824082E+02  0.12841683696E+02 -0.10961549772E+03  0.11825460726E+03  0.51100000000E-03 0. -1.
         11    1    4    4    0    0 -0.20110509579E+02 -0.55346087827E+02 -0.18747093204E+03  0.19650183814E+03  0.51100000000E-03 0.  1.
    9000005    1    3    3    0    0 -0.56246295634E+02 -0.10842682880E+02 -0.72671472705E+03  0.72896948088E+03  0.10000000000E+01 0.  0.
    9000005    1    3    3    0    0  0.33886981131E+02  0.53347087010E+02 -0.31175605186E+03  0.31809915915E+03  0.10000000000E+01 0.  0.
<mgrwt>
<rscale>  0 0.12570076E+03</rscale>
<asrwt>0</asrwt>
<pdfrwt beam="2">  1        1 0.20749084E+00 0.13390735E+03</pdfrwt>
<pdfrwt beam="1">  1       -1 0.20206070E-02 0.13390735E+03</pdfrwt>
<totfact> 0.59726128E+03</totfact>
</mgrwt>
</event>
<event>
 8    2  0.7478846E-004  0.1328938E+03  0.7818608E-02  0.1236392E+00
          1   -1    0    0  501    0  0.00000000000E+00  0.00000000000E+00  0.19082693697E+02  0.19082694362E+02  0.50400000000E-02 0. -1.
         -1   -1    0    0    0  501 -0.00000000000E+00 -0.00000000000E+00 -0.71942972032E+03  0.71942972033E+03  0.50400000000E-02 0.  1.
         25    2    1    2    0    0  0.39672442689E+02  0.21484671245E+02 -0.41251611317E+03  0.43339392702E+03  0.12500103419E+03 0.  0.
         23    2    1    2    0    0 -0.39672442689E+02 -0.21484671245E+02 -0.28783091345E+03  0.30511848768E+03  0.90637536236E+02 0.  0.
        -11    1    4    4    0    0  0.10628763034E+02 -0.42283540559E+02 -0.16692692687E+03  0.17252671480E+03  0.51100000000E-03 0.  1.
         11    1    4    4    0    0 -0.50301205723E+02  0.20798869314E+02 -0.12090398658E+03  0.13259177287E+03  0.51100000000E-03 0. -1.
    9000005    1    3    3    0    0  0.81819817888E+02 -0.55794007017E+01 -0.23275802740E+03  0.24678515278E+03  0.10000000000E+01 0.  0.
    9000005    1    3    3    0    0 -0.42147375199E+02  0.27064071947E+02 -0.17975808577E+03  0.18660877424E+03  0.10000000000E+01 0.  0.
<mgrwt>
<rscale>  0 0.12415734E+03</rscale>
<asrwt>0</asrwt>
<pdfrwt beam="1">  1        1 0.29357996E-02 0.13289376E+03</pdfrwt>
<pdfrwt beam="2">  1       -1 0.11068147E+00 0.13289376E+03</pdfrwt>
<totfact> 0.27090158E+03</totfact>
</mgrwt>
</event>
<event>
 8    2  0.7478846E-004  0.1857531E+03  0.7818608E-02  0.1167792E+00
          1   -1    0    0  501    0  0.00000000000E+00  0.00000000000E+00  0.10841736570E+04  0.10841736570E+04  0.50400000000E-02 0. -1.
         -1   -1    0    0    0  501 -0.00000000000E+00 -0.00000000000E+00 -0.28941993942E+02  0.28941994381E+02  0.50400000000E-02 0.  1.
         25    2    1    2    0    0  0.14262432205E+02 -0.13665566215E+03  0.46970897979E+03  0.50510469571E+03  0.12500416376E+03 0.  0.
         23    2    1    2    0    0 -0.14262432205E+02  0.13665566215E+03  0.58552268325E+03  0.60801095567E+03  0.89231847698E+02 0.  0.
        -11    1    4    4    0    0  0.19482046601E+02  0.86351842607E+01  0.29183399959E+02  0.36135680157E+02  0.51100000000E-03 0.  1.
         11    1    4    4    0    0 -0.33744478806E+02  0.12802047789E+03  0.55633928329E+03  0.57187527551E+03  0.51100000000E-03 0. -1.
    9000005    1    3    3    0    0 -0.53647943900E+02 -0.80741320250E+02  0.27004680308E+03  0.28692078791E+03  0.10000000000E+01 0.  0.
    9000005    1    3    3    0    0  0.67910376105E+02 -0.55914341900E+02  0.19966217671E+03  0.21818390780E+03  0.10000000000E+01 0.  0.
<mgrwt>
<rscale>  0 0.18001179E+03</rscale>
<asrwt>0</asrwt>
<pdfrwt beam="1">  1        1 0.16679595E+00 0.18575314E+03</pdfrwt>
<pdfrwt beam="2">  1       -1 0.44526144E-02 0.18575314E+03</pdfrwt>
<totfact> 0.28832485E+03</totfact>
</mgrwt>
</event>
<event>
 8    2  0.7478846E-004  0.1387586E+03  0.7818608E-02  0.1224726E+00
         -1   -1    0    0    0  501 -0.00000000000E+00  0.00000000000E+00  0.12685614096E+04  0.12685614096E+04  0.50400000000E-02 0.  1.
          1   -1    0    0  501    0  0.00000000000E+00 -0.00000000000E+00 -0.12506875351E+02  0.12506876367E+02  0.50400000000E-02 0. -1.
         25    2    1    2    0    0  0.52230260961E+02  0.30007382021E+02  0.69905942276E+03  0.71269771141E+03  0.12500203265E+03 0.  0.
         23    2    1    2    0    0 -0.52230260961E+02 -0.30007382021E+02  0.55699511145E+03  0.56837057452E+03  0.95776368023E+02 0.  0.
        -11    1    4    4    0    0 -0.34167482919E+01 -0.56953488352E+02  0.30340552168E+03  0.30872363788E+03  0.51100000000E-03 0.  1.
         11    1    4    4    0    0 -0.48813512670E+02  0.26946106331E+02  0.25358958977E+03  0.25964693664E+03  0.51100000000E-03 0. -1.
    9000005    1    3    3    0    0  0.92414396037E+00  0.44389686414E+02  0.58628949260E+03  0.58796910415E+03  0.10000000000E+01 0.  0.
    9000005    1    3    3    0    0  0.51306117001E+02 -0.14382304392E+02  0.11276993016E+03  0.12472860726E+03  0.10000000000E+01 0.  0.
<mgrwt>
<rscale>  0 0.13185688E+03</rscale>
<asrwt>0</asrwt>
<pdfrwt beam="2">  1        1 0.19241337E-02 0.13875861E+03</pdfrwt>
<pdfrwt beam="1">  1       -1 0.19516340E+00 0.13875861E+03</pdfrwt>
<totfact> 0.11268184E+03</totfact>
</mgrwt>
</event>
<event>
 8    2  0.7478846E-004  0.1440571E+03  0.7818608E-02  0.1218188E+00
         -1   -1    0    0    0  501 -0.00000000000E+00  0.00000000000E+00  0.51927909313E+02  0.51927909557E+02  0.50400000000E-02 0.  1.
          1   -1    0    0  501    0  0.00000000000E+00 -0.00000000000E+00 -0.32902611494E+03  0.32902611498E+03  0.50400000000E-02 0. -1.
         25    2    1    2    0    0  0.97581881874E+01 -0.70967158308E+02 -0.13369731613E+03  0.19653857855E+03  0.12498352181E+03 0.  0.
         23    2    1    2    0    0 -0.97581881874E+01  0.70967158308E+02 -0.14340088950E+03  0.18441544599E+03  0.91179393583E+02 0.  0.
        -11    1    4    4    0    0  0.35949320905E+02  0.31541849630E+02 -0.97452294364E+02  0.10855501660E+03  0.51100000000E-03 0. -1.
         11    1    4    4    0    0 -0.45707509092E+02  0.39425308678E+02 -0.45948595135E+02  0.75860429388E+02  0.51100000000E-03 0.  1.
    9000005    1    3    3    0    0 -0.43136338938E+02  0.77305399269E+01 -0.19155610355E+02  0.47837667090E+02  0.10000000000E+01 0.  0.
    9000005    1    3    3    0    0  0.52894527126E+02 -0.78697698235E+02 -0.11454170577E+03  0.14870091146E+03  0.10000000000E+01 0.  0.
<mgrwt>
<rscale>  0 0.13644952E+03</rscale>
<asrwt>0</asrwt>
<pdfrwt beam="2">  1        1 0.50619401E-01 0.14405707E+03</pdfrwt>
<pdfrwt beam="1">  1       -1 0.79889094E-02 0.14405707E+03</pdfrwt>
<totfact> 0.64412915E+03</totfact>
</mgrwt>
</event>
<event>
 8    2  0.7478846E-004  0.1506176E+03  0.7818608E-02  0.1208499E+00
          1   -1    0    0  501    0  0.00000000000E+00  0.00000000000E+00  0.12937282354E+04  0.12937282354E+04  0.50400000000E-02 0. -1.
         -1   -1    0    0    0  501 -0.00000000000E+00 -0.00000000000E+00 -0.46558630265E+02  0.46558630537E+02  0.50400000000E-02 0.  1.
         25    2    1    2    0    0 -0.41055274191E+02 -0.73313029250E+02  0.11961938129E+04  0.12056389565E+04  0.12500127887E+03 0.  0.
         23    2    1    2    0    0  0.41055274191E+02  0.73313029250E+02  0.50975792248E+02  0.13464790942E+03  0.92039080385E+02 0.  0.
        -11    1    4    4    0    0 -0.96341921746E+01 -0.11252875421E+01  0.43176468786E+02  0.44252586229E+02  0.51100000000E-03 0. -1.
         11    1    4    4    0    0  0.50689466366E+02  0.74438316792E+02  0.77993234618E+01  0.90395323187E+02  0.51100000000E-03 0.  1.
    9000005    1    3    3    0    0 -0.81741837223E+02 -0.45501457394E+02  0.94743473387E+03  0.95204290110E+03  0.10000000000E+01 0.  0.
    9000005    1    3    3    0    0  0.40686563031E+02 -0.27811571856E+02  0.24875907902E+03  0.25359605544E+03  0.10000000000E+01 0.  0.
<mgrwt>
<rscale>  0 0.14365096E+03</rscale>
<asrwt>0</asrwt>
<pdfrwt beam="1">  1        1 0.19903513E+00 0.15061758E+03</pdfrwt>
<pdfrwt beam="2">  1       -1 0.71628658E-02 0.15061758E+03</pdfrwt>
<totfact> 0.10135034E+03</totfact>
</mgrwt>
</event>
<event>
 8    2  0.7478846E-004  0.2560762E+03  0.7818608E-02  0.1111838E+00
          1   -1    0    0  501    0  0.00000000000E+00  0.00000000000E+00  0.89174799123E+03  0.89174799125E+03  0.50400000000E-02 0. -1.
         -1   -1    0    0    0  501 -0.00000000000E+00 -0.00000000000E+00 -0.74278821982E+02  0.74278822153E+02  0.50400000000E-02 0.  1.
         25    2    1    2    0    0  0.17943141570E+03  0.13324409962E+03  0.54380882184E+03  0.60108488951E+03  0.12500154661E+03 0.  0.
         23    2    1    2    0    0 -0.17943141570E+03 -0.13324409962E+03  0.27366034741E+03  0.36494192389E+03  0.91340018857E+02 0.  0.
        -11    1    4    4    0    0 -0.95136367837E+02 -0.12449276921E+03  0.17902604251E+03  0.23790691871E+03  0.51100000000E-03 0. -1.
         11    1    4    4    0    0 -0.84295047868E+02 -0.87513304112E+01  0.94634304894E+02  0.12703500518E+03  0.51100000000E-03 0.  1.
    9000005    1    3    3    0    0  0.45394587997E+02  0.84901610365E+02  0.11933178723E+03  0.15332979979E+03  0.10000000000E+01 0.  0.
    9000005    1    3    3    0    0  0.13403682771E+03  0.48342489256E+02  0.42447703461E+03  0.44775508971E+03  0.10000000000E+01 0.  0.
<mgrwt>
<rscale>  0 0.25233563E+03</rscale>
<asrwt>0</asrwt>
<pdfrwt beam="1">  1        1 0.13719200E+00 0.25607618E+03</pdfrwt>
<pdfrwt beam="2">  1       -1 0.11427511E-01 0.25607618E+03</pdfrwt>
<totfact> 0.96129724E+02</totfact>
</mgrwt>
</event>
<event>
 8    2  0.7478846E-004  0.1278534E+03  0.7818608E-02  0.1244675E+00
          1   -1    0    0  501    0  0.00000000000E+00  0.00000000000E+00  0.17537603534E+04  0.17537603534E+04  0.50400000000E-02 0. -1.
         -1   -1    0    0    0  501 -0.00000000000E+00 -0.00000000000E+00 -0.71571296762E+01  0.71571314508E+01  0.50400000000E-02 0.  1.
         25    2    1    2    0    0  0.13799940666E+02  0.23024787452E+02  0.10240813504E+04  0.10320315373E+04  0.12500360960E+03 0.  0.
         23    2    1    2    0    0 -0.13799940666E+02 -0.23024787452E+02  0.72252187325E+03  0.72888594755E+03  0.92283736425E+02 0.  0.
        -11    1    4    4    0    0 -0.91267347633E+01  0.15274153733E+02  0.60358988575E+03  0.60385209054E+03  0.51100000000E-03 0. -1.
         11    1    4    4    0    0 -0.46732059030E+01 -0.38298941185E+02  0.11893198750E+03  0.12503385701E+03  0.51100000000E-03 0.  1.
    9000005    1    3    3    0    0  0.30698734970E+02  0.61978690140E+02  0.85132749107E+03  0.85413305018E+03  0.10000000000E+01 0.  0.
    9000005    1    3    3    0    0 -0.16898794304E+02 -0.38953902687E+02  0.17275385937E+03  0.17789848709E+03  0.10000000000E+01 0.  0.
<mgrwt>
<rscale>  0 0.11904871E+03</rscale>
<asrwt>0</asrwt>
<pdfrwt beam="1">  1        1 0.26980924E+00 0.12785336E+03</pdfrwt>
<pdfrwt beam="2">  1       -1 0.11010972E-02 0.12785336E+03</pdfrwt>
<totfact> 0.77955318E+03</totfact>
</mgrwt>
</event>
<event>
 8    2  0.7478846E-004  0.1279581E+03  0.7818608E-02  0.1244785E+00
          1   -1    0    0  501    0  0.00000000000E+00  0.00000000000E+00  0.10105365818E+04  0.10105365818E+04  0.50400000000E-02 0. -1.
         -1   -1    0    0    0  501 -0.00000000000E+00 -0.00000000000E+00 -0.19191981152E+02  0.19191981814E+02  0.50400000000E-02 0.  1.
         25    2    1    2    0    0 -0.14234582956E+01 -0.27324617226E+02  0.23694592500E+03  0.26928913850E+03  0.12499843119E+03 0.  0.
         23    2    1    2    0    0  0.14234582956E+01  0.27324617226E+02  0.75439867565E+03  0.76043942513E+03  0.91662950703E+02 0.  0.
        -11    1    4    4    0    0  0.10358887617E+02  0.56100697698E+02  0.32375418199E+03  0.32874209525E+03  0.51100000000E-03 0.  1.
         11    1    4    4    0    0 -0.89354293215E+01 -0.28776080471E+02  0.43064449366E+03  0.43169732988E+03  0.51100000000E-03 0. -1.
    9000005    1    3    3    0    0  0.50031141586E+02 -0.32390837152E+02  0.58571337644E+02  0.83569629970E+02  0.10000000000E+01 0.  0.
    9000005    1    3    3    0    0 -0.51454599882E+02  0.50662199261E+01  0.17837458736E+03  0.18571950853E+03  0.10000000000E+01 0.  0.
<mgrwt>
<rscale>  0 0.11898245E+03</rscale>
<asrwt>0</asrwt>
<pdfrwt beam="1">  1        1 0.15546716E+00 0.12795807E+03</pdfrwt>
<pdfrwt beam="2">  1       -1 0.29526127E-02 0.12795807E+03</pdfrwt>
<totfact> 0.58883201E+03</totfact>
</mgrwt>
</event>
<event>
 8    2  0.7478846E-004  0.1447190E+03  0.7818608E-02  0.1217211E+00
          1   -1    0    0  501    0  0.00000000000E+00  0.00000000000E+00  0.24543737729E+04  0.24543737729E+04  0.50400000000E-02 0. -1.
         -1   -1    0    0    0  501 -0.00000000000E+00 -0.00000000000E+00 -0.10025076287E+02  0.10025077554E+02  0.50400000000E-02 0.  1.
         25    2    1    2    0    0  0.39007837235E+02  0.61621739165E+02  0.19911956379E+04  0.19964477585E+04  0.12499893588E+03 0.  0.
         23    2    1    2    0    0 -0.39007837235E+02 -0.61621739165E+02  0.45315305866E+03  0.46795109190E+03  0.91168414094E+02 0.  0.
        -11    1    4    4    0    0 -0.76733957488E+01 -0.65895860365E+02  0.16159353649E+03  0.17468147141E+03  0.51100000000E-03 0.  1.
         11    1    4    4    0    0 -0.31334441486E+02  0.42741212008E+01  0.29155952217E+03  0.29326962049E+03  0.51100000000E-03 0. -1.
    9000005    1    3    3    0    0  0.11829455852E+02 -0.14376197275E+02  0.13580071633E+04  0.13581351430E+04  0.10000000000E+01 0.  0.
    9000005    1    3    3    0    0  0.27178381383E+02  0.75997936440E+02  0.63318847466E+03  0.63831261557E+03  0.10000000000E+01 0.  0.
<mgrwt>
<rscale>  0 0.13715392E+03</rscale>
<asrwt>0</asrwt>
<pdfrwt beam="1">  1        1 0.37759557E+00 0.14471898E+03</pdfrwt>
<pdfrwt beam="2">  1       -1 0.15423211E-02 0.14471898E+03</pdfrwt>
<totfact> 0.17186733E+03</totfact>
</mgrwt>
</event>
<event>
 8    2  0.7478846E-004  0.1291034E+03  0.7818608E-02  0.1242885E+00
          1   -1    0    0  501    0  0.00000000000E+00  0.00000000000E+00  0.86404232341E+02  0.86404232488E+02  0.50400000000E-02 0. -1.
         -1   -1    0    0    0  501 -0.00000000000E+00 -0.00000000000E+00 -0.22915666803E+03  0.22915666808E+03  0.50400000000E-02 0.  1.
         25    2    1    2    0    0  0.13176164952E+02 -0.29486081819E+02  0.15532638376E+02  0.13003441934E+03  0.12499858805E+03 0.  0.
         23    2    1    2    0    0 -0.13176164952E+02  0.29486081819E+02 -0.15828507406E+03  0.18552648123E+03  0.91229766098E+02 0.  0.
        -11    1    4    4    0    0 -0.14630247744E+02  0.23598818363E+02 -0.64872691232E+00  0.27773534598E+02  0.51100000000E-03 0. -1.
         11    1    4    4    0    0  0.14540827919E+01  0.58872634563E+01 -0.15763634715E+03  0.15775294663E+03  0.51100000000E-03 0.  1.
    9000005    1    3    3    0    0  0.28174740529E+02 -0.69079490670E+02  0.36177896986E+02  0.82919432375E+02  0.10000000000E+01 0.  0.
    9000005    1    3    3    0    0 -0.14998575576E+02  0.39593408851E+02 -0.20645258610E+02  0.47114986966E+02  0.10000000000E+01 0.  0.
<mgrwt>
<rscale>  0 0.12012876E+03</rscale>
<asrwt>0</asrwt>
<pdfrwt beam="1">  1        1 0.13292959E-01 0.12910340E+03</pdfrwt>
<pdfrwt beam="2">  1       -1 0.35254872E-01 0.12910340E+03</pdfrwt>
<totfact> 0.32452022E+03</totfact>
</mgrwt>
</event>
<event>
 8    2  0.7478846E-004  0.1409311E+03  0.7818608E-02  0.1222529E+00
         -1   -1    0    0    0  501 -0.00000000000E+00  0.00000000000E+00  0.25180783980E+02  0.25180784485E+02  0.50400000000E-02 0.  1.
          1   -1    0    0  501    0  0.00000000000E+00 -0.00000000000E+00 -0.65069671147E+03  0.65069671149E+03  0.50400000000E-02 0. -1.
         25    2    1    2    0    0 -0.41882648635E+02  0.49823524811E+02 -0.30444849174E+03  0.33548542645E+03  0.12500018943E+03 0.  0.
         23    2    1    2    0    0  0.41882648635E+02 -0.49823524811E+02 -0.32106743575E+03  0.34039206952E+03  0.92444160515E+02 0.  0.
        -11    1    4    4    0    0  0.33422882153E+02  0.12798641565E+02 -0.20626923842E+03  0.20935112371E+03  0.51100000000E-03 0.  1.
         11    1    4    4    0    0  0.84597664818E+01 -0.62622166376E+02 -0.11479819733E+03  0.13104094582E+03  0.51100000000E-03 0. -1.
    9000005    1    3    3    0    0 -0.51915145684E+02  0.63757785767E+02 -0.96306508373E+02  0.12663404421E+03  0.10000000000E+01 0.  0.
    9000005    1    3    3    0    0  0.10032497049E+02 -0.13934260957E+02 -0.20814198336E+03  0.20885138224E+03  0.10000000000E+01 0.  0.
<mgrwt>
<rscale>  0 0.13337734E+03</rscale>
<asrwt>0</asrwt>
<pdfrwt beam="2">  1        1 0.10010717E+00 0.14093114E+03</pdfrwt>
<pdfrwt beam="1">  1       -1 0.38739673E-02 0.14093114E+03</pdfrwt>
<totfact> 0.77868593E+03</totfact>
</mgrwt>
</event>
<event>
 8    2  0.7478846E-004  0.2991080E+03  0.7818608E-02  0.1087275E+00
         -1   -1    0    0    0  501 -0.00000000000E+00  0.00000000000E+00  0.16657068339E+03  0.16657068346E+03  0.50400000000E-02 0. -1.
          1   -1    0    0  501    0  0.00000000000E+00 -0.00000000000E+00 -0.52950216145E+03  0.52950216147E+03  0.50400000000E-02 0.  1.
         25    2    1    2    0    0 -0.86515721581E+02  0.25759609523E+03 -0.24255862090E+03  0.38509778817E+03  0.12499961409E+03 0.  0.
         23    2    1    2    0    0  0.86515721581E+02 -0.25759609523E+03 -0.12037285716E+03  0.31097505676E+03  0.91515806442E+02 0.  0.
        -11    1    4    4    0    0  0.10198385391E+03 -0.17684227777E+03 -0.92885443186E+02  0.22428018910E+03  0.51100000000E-03 0.  1.
         11    1    4    4    0    0 -0.15468132330E+02 -0.80753817462E+02 -0.27487413976E+02  0.86694867667E+02  0.51100000000E-03 0. -1.
    9000005    1    3    3    0    0 -0.19192436921E+02 -0.71662823031E+01 -0.11742296464E+01  0.20544684283E+02  0.10000000000E+01 0.  0.
    9000005    1    3    3    0    0 -0.67323284660E+02  0.26476237753E+03 -0.24138439125E+03  0.36455310389E+03  0.10000000000E+01 0.  0.
<mgrwt>
<rscale>  0 0.29596511E+03</rscale>
<asrwt>0</asrwt>
<pdfrwt beam="2">  1        1 0.81461870E-01 0.29910804E+03</pdfrwt>
<pdfrwt beam="1">  1       -1 0.25626259E-01 0.29910804E+03</pdfrwt>
<totfact> 0.56026655E+02</totfact>
</mgrwt>
</event>
<event>
 8    2  0.7478846E-004  0.1282738E+03  0.7818608E-02  0.1246832E+00
         -1   -1    0    0    0  501 -0.00000000000E+00  0.00000000000E+00  0.72679662726E+01  0.72679680201E+01  0.50400000000E-02 0.  1.
          1   -1    0    0  501    0  0.00000000000E+00 -0.00000000000E+00 -0.17873289754E+04  0.17873289754E+04  0.50400000000E-02 0. -1.
         25    2    1    2    0    0  0.17093826461E+02 -0.23167700804E+02 -0.78942638612E+03  0.79978008091E+03  0.12500086981E+03 0.  0.
         23    2    1    2    0    0 -0.17093826461E+02  0.23167700804E+02 -0.99063462304E+03  0.99481686255E+03  0.86456303324E+02 0.  0.
        -11    1    4    4    0    0 -0.40517847607E+02 -0.74743261833E+01 -0.26750330250E+03  0.27065767747E+03  0.51100000000E-03 0.  1.
         11    1    4    4    0    0  0.23424021146E+02  0.30642026987E+02 -0.72313132055E+03  0.72415918508E+03  0.51100000000E-03 0. -1.
    9000005    1    3    3    0    0  0.75863088075E+01  0.51962747602E+02 -0.32918470244E+03  0.33334853763E+03  0.10000000000E+01 0.  0.
    9000005    1    3    3    0    0  0.95075176535E+01 -0.75130448406E+02 -0.46024168368E+03  0.46643154328E+03  0.10000000000E+01 0.  0.
<mgrwt>
<rscale>  0 0.11776383E+03</rscale>
<asrwt>0</asrwt>
<pdfrwt beam="2">  1        1 0.27497334E+00 0.12827376E+03</pdfrwt>
<pdfrwt beam="1">  1       -1 0.11181502E-02 0.12827376E+03</pdfrwt>
<totfact> 0.72620685E+03</totfact>
</mgrwt>
</event>
<event>
 8    2  0.7478846E-004  0.1522333E+03  0.7818608E-02  0.1204929E+00
          1   -1    0    0  501    0  0.00000000000E+00  0.00000000000E+00  0.17527068453E+04  0.17527068454E+04  0.50400000000E-02 0. -1.
         -1   -1    0    0    0  501 -0.00000000000E+00 -0.00000000000E+00 -0.17091136571E+02  0.17091137314E+02  0.50400000000E-02 0.  1.
         25    2    1    2    0    0  0.73859217334E+02  0.45766133961E+02  0.14228412595E+04  0.14309619935E+04  0.12500101622E+03 0.  0.
         23    2    1    2    0    0 -0.73859217334E+02 -0.45766133961E+02  0.31277444923E+03  0.33883598914E+03  0.97119763397E+02 0.  0.
        -11    1    4    4    0    0 -0.62219959241E+02 -0.42335940862E+01  0.76702719965E+02  0.98856228418E+02  0.51100000000E-03 0.  1.
         11    1    4    4    0    0 -0.11639258093E+02 -0.41532539875E+02  0.23607172926E+03  0.23997976072E+03  0.51100000000E-03 0. -1.
    9000005    1    3    3    0    0 -0.22271286442E+02 -0.44956356443E+01  0.66573159151E+03  0.66611993881E+03  0.10000000000E+01 0.  0.
    9000005    1    3    3    0    0  0.96130503776E+02  0.50261769605E+02  0.75710966803E+03  0.76484205472E+03  0.10000000000E+01 0.  0.
<mgrwt>
<rscale>  0 0.14643023E+03</rscale>
<asrwt>0</asrwt>
<pdfrwt beam="1">  1        1 0.26964710E+00 0.15223330E+03</pdfrwt>
<pdfrwt beam="2">  1       -1 0.26294068E-02 0.15223330E+03</pdfrwt>
<totfact> 0.22384288E+03</totfact>
</mgrwt>
</event>
<event>
 8    2  0.7478846E-004  0.1299324E+03  0.7818608E-02  0.1241706E+00
         -1   -1    0    0    0  501 -0.00000000000E+00  0.00000000000E+00  0.46955362913E+02  0.46955363184E+02  0.50400000000E-02 0.  1.
          1   -1    0    0  501    0  0.00000000000E+00 -0.00000000000E+00 -0.27732387154E+03  0.27732387159E+03  0.50400000000E-02 0. -1.
         25    2    1    2    0    0 -0.18292280169E+02  0.30344083611E+02 -0.14709531511E+03  0.19626374935E+03  0.12500822636E+03 0.  0.
         23    2    1    2    0    0  0.18292280169E+02 -0.30344083611E+02 -0.83273193521E+02  0.12801548542E+03  0.90543739844E+02 0.  0.
        -11    1    4    4    0    0  0.29869638198E+01 -0.61723820516E+02 -0.59439961293E+02  0.85742993712E+02  0.51100000000E-03 0.  1.
         11    1    4    4    0    0  0.15305316349E+02  0.31379736905E+02 -0.23833232228E+02  0.42272491711E+02  0.51100000000E-03 0. -1.
    9000005    1    3    3    0    0 -0.19459692812E+02  0.20873416218E+02 -0.16950140340E+03  0.17188980454E+03  0.10000000000E+01 0.  0.
    9000005    1    3    3    0    0  0.11674126434E+01  0.94706673923E+01  0.22406088292E+02  0.24373944812E+02  0.10000000000E+01 0.  0.
<mgrwt>
<rscale>  0 0.12084742E+03</rscale>
<asrwt>0</asrwt>
<pdfrwt beam="2">  1        1 0.42665210E-01 0.12993240E+03</pdfrwt>
<pdfrwt beam="1">  1       -1 0.72239021E-02 0.12993240E+03</pdfrwt>
<totfact> 0.91982013E+03</totfact>
</mgrwt>
</event>
<event>
 8    2  0.7478846E-004  0.1292397E+03  0.7818608E-02  0.1242214E+00
          1   -1    0    0  501    0  0.00000000000E+00  0.00000000000E+00  0.37046952092E+03  0.37046952095E+03  0.50400000000E-02 0. -1.
         -1   -1    0    0    0  501 -0.00000000000E+00 -0.00000000000E+00 -0.34982341262E+02  0.34982341625E+02  0.50400000000E-02 0.  1.
         25    2    1    2    0    0 -0.32873590814E+02  0.40859395540E+00  0.20605396357E+03  0.24323061874E+03  0.12498823172E+03 0.  0.
         23    2    1    2    0    0  0.32873590814E+02 -0.40859395540E+00  0.12943321609E+03  0.16222124384E+03  0.92097419089E+02 0.  0.
        -11    1    4    4    0    0 -0.20725724384E+02 -0.23554005882E+02  0.17370339947E+02  0.35861895578E+02  0.51100000000E-03 0. -1.
         11    1    4    4    0    0  0.53599315198E+02  0.23145411926E+02  0.11206287614E+03  0.12635934826E+03  0.51100000000E-03 0.  1.
    9000005    1    3    3    0    0  0.10930802407E+02 -0.38630238975E+02  0.14190166732E+02  0.42592706376E+02  0.10000000000E+01 0.  0.
    9000005    1    3    3    0    0 -0.43804393221E+02  0.39038832930E+02  0.19186379684E+03  0.20063791237E+03  0.10000000000E+01 0.  0.
<mgrwt>
<rscale>  0 0.12053687E+03</rscale>
<asrwt>0</asrwt>
<pdfrwt beam="1">  1        1 0.56995310E-01 0.12923969E+03</pdfrwt>
<pdfrwt beam="2">  1       -1 0.53818987E-02 0.12923969E+03</pdfrwt>
<totfact> 0.99553583E+03</totfact>
</mgrwt>
</event>
<event>
 8    2  0.7478846E-004  0.1664479E+03  0.7818608E-02  0.1188366E+00
         -1   -1    0    0    0  501 -0.00000000000E+00  0.00000000000E+00  0.23013850985E+02  0.23013851537E+02  0.50400000000E-02 0.  1.
          1   -1    0    0  501    0  0.00000000000E+00 -0.00000000000E+00 -0.11466986841E+04  0.11466986841E+04  0.50400000000E-02 0. -1.
         25    2    1    2    0    0 -0.10230671899E+03  0.40179120436E+02 -0.77707559484E+03  0.79470208024E+03  0.12499555905E+03 0.  0.
         23    2    1    2    0    0  0.10230671899E+03 -0.40179120436E+02 -0.34660923830E+03  0.37501045543E+03  0.91727046916E+02 0.  0.
        -11    1    4    4    0    0  0.90202904048E+02 -0.51813269798E+02 -0.18266349321E+03  0.21020735139E+03  0.51100000000E-03 0. -1.
         11    1    4    4    0    0  0.12103814941E+02  0.11634149362E+02 -0.16394574509E+03  0.16480310404E+03  0.51100000000E-03 0.  1.
    9000005    1    3    3    0    0  0.12856067600E+02  0.38350030298E+02 -0.99589385934E+02  0.10749441422E+03  0.10000000000E+01 0.  0.
    9000005    1    3    3    0    0 -0.11516278659E+03  0.18290901377E+01 -0.67748620890E+03  0.68720766602E+03  0.10000000000E+01 0.  0.
<mgrwt>
<rscale>  0 0.16029297E+03</rscale>
<asrwt>0</asrwt>
<pdfrwt beam="2">  1        1 0.17641514E+00 0.16644794E+03</pdfrwt>
<pdfrwt beam="1">  1       -1 0.35405934E-02 0.16644794E+03</pdfrwt>
<totfact> 0.36447090E+03</totfact>
</mgrwt>
</event>
<event>
 8    2  0.7478846E-004  0.1369581E+03  0.7818608E-02  0.1229303E+00
          1   -1    0    0  501    0  0.00000000000E+00  0.00000000000E+00  0.11218672535E+04  0.11218672535E+04  0.50400000000E-02 0. -1.
         -1   -1    0    0    0  501 -0.00000000000E+00 -0.00000000000E+00 -0.14273228587E+02  0.14273229477E+02  0.50400000000E-02 0.  1.
         25    2    1    2    0    0 -0.29296027763E+02  0.47682730394E+02  0.46692243180E+03  0.48659437589E+03  0.12500251719E+03 0.  0.
         23    2    1    2    0    0  0.29296027763E+02 -0.47682730394E+02  0.64067159306E+03  0.64954610705E+03  0.91203919926E+02 0.  0.
        -11    1    4    4    0    0  0.56744954334E+02 -0.49995856884E+02  0.38218391023E+03  0.38959481104E+03  0.51100000000E-03 0. -1.
         11    1    4    4    0    0 -0.27448926571E+02  0.23131264892E+01  0.25848768283E+03  0.25995129601E+03  0.51100000000E-03 0.  1.
    9000005    1    3    3    0    0  0.33359690812E+02  0.35143922254E+02  0.73668127465E+02  0.88181388323E+02  0.10000000000E+01 0.  0.
    9000005    1    3    3    0    0 -0.62655718575E+02  0.12538808141E+02  0.39325430434E+03  0.39841298757E+03  0.10000000000E+01 0.  0.
<mgrwt>
<rscale>  0 0.12876321E+03</rscale>
<asrwt>0</asrwt>
<pdfrwt beam="1">  1        1 0.17259500E+00 0.13695813E+03</pdfrwt>
<pdfrwt beam="2">  1       -1 0.21958809E-02 0.13695813E+03</pdfrwt>
<totfact> 0.75577801E+03</totfact>
</mgrwt>
</event>
<event>
 8    2  0.7478846E-004  0.1561861E+03  0.7818608E-02  0.1201188E+00
          1   -1    0    0  501    0  0.00000000000E+00  0.00000000000E+00  0.31225555325E+02  0.31225555731E+02  0.50400000000E-02 0. -1.
         -1   -1    0    0    0  501 -0.00000000000E+00 -0.00000000000E+00 -0.66945774907E+03  0.66945774909E+03  0.50400000000E-02 0.  1.
         25    2    1    2    0    0  0.73129119321E+02  0.58490795890E+02 -0.38937458326E+03  0.41953149351E+03  0.12500026665E+03 0.  0.
         23    2    1    2    0    0 -0.73129119321E+02 -0.58490795890E+02 -0.24885761048E+03  0.28115181131E+03  0.91362954253E+02 0.  0.
        -11    1    4    4    0    0  0.17412509064E+01  0.17587836939E+02 -0.12025679523E+02  0.21377112321E+02  0.51100000000E-03 0. -1.
         11    1    4    4    0    0 -0.74870370228E+02 -0.76078632829E+02 -0.23683193096E+03  0.25977469899E+03  0.51100000000E-03 0.  1.
    9000005    1    3    3    0    0  0.24999457958E+02  0.85679091814E+02 -0.15631052838E+03  0.17999961376E+03  0.10000000000E+01 0.  0.
    9000005    1    3    3    0    0  0.48129661364E+02 -0.27188295924E+02 -0.23306405488E+03  0.23953187975E+03  0.10000000000E+01 0.  0.
<mgrwt>
<rscale>  0 0.14941970E+03</rscale>
<asrwt>0</asrwt>
<pdfrwt beam="1">  1        1 0.48039321E-02 0.15618613E+03</pdfrwt>
<pdfrwt beam="2">  1       -1 0.10299349E+00 0.15618613E+03</pdfrwt>
<totfact> 0.16272366E+03</totfact>
</mgrwt>
</event>
<event>
 8    2  0.7478846E-004  0.1810680E+03  0.7818608E-02  0.1172100E+00
          1   -1    0    0  501    0  0.00000000000E+00  0.00000000000E+00  0.66375374465E+03  0.66375374467E+03  0.50400000000E-02 0. -1.
         -1   -1    0    0    0  501 -0.00000000000E+00 -0.00000000000E+00 -0.44594332782E+02  0.44594333066E+02  0.50400000000E-02 0.  1.
         25    2    1    2    0    0  0.13055191311E+03 -0.10829550440E+02  0.28357419885E+03  0.33645198199E+03  0.12499811501E+03 0.  0.
         23    2    1    2    0    0 -0.13055191311E+03  0.10829550440E+02  0.33558521302E+03  0.37189609575E+03  0.92348197879E+02 0.  0.
        -11    1    4    4    0    0 -0.79165585446E+02  0.51638866629E+02  0.19036664681E+03  0.21253993197E+03  0.51100000000E-03 0.  1.
         11    1    4    4    0    0 -0.51386327662E+02 -0.40809316188E+02  0.14521856621E+03  0.15935616377E+03  0.51100000000E-03 0. -1.
    9000005    1    3    3    0    0  0.62325849909E+02 -0.56545176202E+02  0.20980177090E+03  0.22605232047E+03  0.10000000000E+01 0.  0.
    9000005    1    3    3    0    0  0.68226063199E+02  0.45715625762E+02  0.73772427949E+02  0.11039966152E+03  0.10000000000E+01 0.  0.
<mgrwt>
<rscale>  0 0.17563061E+03</rscale>
<asrwt>0</asrwt>
<pdfrwt beam="1">  1        1 0.10211595E+00 0.18106797E+03</pdfrwt>
<pdfrwt beam="2">  1       -1 0.68606673E-02 0.18106797E+03</pdfrwt>
<totfact> 0.32724151E+03</totfact>
</mgrwt>
</event>
<event>
 8    2  0.7478846E-004  0.1381624E+03  0.7818608E-02  0.1228335E+00
         -1   -1    0    0    0  501 -0.00000000000E+00  0.00000000000E+00  0.88181874102E+01  0.88181888505E+01  0.50400000000E-02 0.  1.
          1   -1    0    0  501    0  0.00000000000E+00 -0.00000000000E+00 -0.21630054102E+04  0.21630054102E+04  0.50400000000E-02 0. -1.
         25    2    1    2    0    0 -0.17123726542E+01 -0.58868950161E+02 -0.16887849774E+04  0.16944272054E+04  0.12498147432E+03 0.  0.
         23    2    1    2    0    0  0.17123726542E+01  0.58868950161E+02 -0.46540224540E+03  0.47739639369E+03  0.88541409350E+02 0.  0.
        -11    1    4    4    0    0  0.15776328118E+01  0.18179095906E+01  0.39304359233E+01  0.46089095648E+01  0.51100000000E-03 0.  1.
         11    1    4    4    0    0  0.13473984238E+00  0.57051040571E+02 -0.46933268133E+03  0.47278748413E+03  0.51100000000E-03 0. -1.
    9000005    1    3    3    0    0  0.27554879300E+02 -0.85639118442E+02 -0.14055848386E+04  0.14084612413E+04  0.10000000000E+01 0.  0.
    9000005    1    3    3    0    0 -0.29267251955E+02  0.26770168281E+02 -0.28320013882E+03  0.28596596401E+03  0.10000000000E+01 0.  0.
<mgrwt>
<rscale>  0 0.12940945E+03</rscale>
<asrwt>0</asrwt>
<pdfrwt beam="2">  1        1 0.33276964E+00 0.13816242E+03</pdfrwt>
<pdfrwt beam="1">  1       -1 0.13566461E-02 0.13816242E+03</pdfrwt>
<totfact> 0.31838604E+03</totfact>
</mgrwt>
</event>
<event>
 8    2  0.7478846E-004  0.1300477E+03  0.7818608E-02  0.1241671E+00
          1   -1    0    0  501    0  0.00000000000E+00  0.00000000000E+00  0.78865013929E+02  0.78865014090E+02  0.50400000000E-02 0. -1.
         -1   -1    0    0    0  501 -0.00000000000E+00 -0.00000000000E+00 -0.16586881329E+03  0.16586881337E+03  0.50400000000E-02 0.  1.
         25    2    1    2    0    0  0.32347714759E+02  0.15559979558E+02 -0.64298086004E+02  0.14507462577E+03  0.12499566218E+03 0.  0.
         23    2    1    2    0    0 -0.32347714759E+02 -0.15559979558E+02 -0.22705713359E+02  0.99659201692E+02  0.90154974621E+02 0.  0.
        -11    1    4    4    0    0  0.21344628817E+02 -0.18689924695E+02 -0.34429509282E+02  0.44612751250E+02  0.51100000000E-03 0.  1.
         11    1    4    4    0    0 -0.53692343575E+02  0.31299451364E+01  0.11723795924E+02  0.55046450442E+02  0.51100000000E-03 0. -1.
    9000005    1    3    3    0    0  0.22910734473E+02 -0.54440623492E+02 -0.24127991420E+02  0.63810995998E+02  0.10000000000E+01 0.  0.
    9000005    1    3    3    0    0  0.94369802853E+01  0.70000603050E+02 -0.40170094584E+02  0.81263629768E+02  0.10000000000E+01 0.  0.
<mgrwt>
<rscale>  0 0.12086837E+03</rscale>
<asrwt>0</asrwt>
<pdfrwt beam="1">  1        1 0.12133079E-01 0.13004770E+03</pdfrwt>
<pdfrwt beam="2">  1       -1 0.25518279E-01 0.13004770E+03</pdfrwt>
<totfact> 0.62927263E+03</totfact>
</mgrwt>
</event>
<event>
 8    2  0.7478846E-004  0.1283420E+03  0.7818608E-02  0.1244279E+00
         -1   -1    0    0    0  501 -0.00000000000E+00  0.00000000000E+00  0.82146063622E+02  0.82146063776E+02  0.50400000000E-02 0.  1.
          1   -1    0    0  501    0  0.00000000000E+00 -0.00000000000E+00 -0.15836464067E+03  0.15836464075E+03  0.50400000000E-02 0. -1.
         25    2    1    2    0    0  0.28712493817E+02  0.47172123930E+01 -0.65637291618E+02  0.14415243789E+03  0.12500004762E+03 0.  0.
         23    2    1    2    0    0 -0.28712493817E+02 -0.47172123930E+01 -0.10581285431E+02  0.96358266640E+02  0.91248520835E+02 0.  0.
        -11    1    4    4    0    0 -0.40078078286E+02 -0.33352862475E+02  0.17168543015E+02  0.54894668811E+02  0.51100000000E-03 0.  1.
         11    1    4    4    0    0  0.11365584468E+02  0.28635650082E+02 -0.27749828445E+02  0.41463597829E+02  0.51100000000E-03 0. -1.
    9000005    1    3    3    0    0 -0.36237177713E+02  0.38395219601E+02 -0.41316260909E+02  0.67047441057E+02  0.10000000000E+01 0.  0.
    9000005    1    3    3    0    0  0.64949671530E+02 -0.33678007208E+02 -0.24321030709E+02  0.77104996830E+02  0.10000000000E+01 0.  0.
<mgrwt>
<rscale>  0 0.11928622E+03</rscale>
<asrwt>0</asrwt>
<pdfrwt beam="2">  1        1 0.24363791E-01 0.12834201E+03</pdfrwt>
<pdfrwt beam="1">  1       -1 0.12637856E-01 0.12834201E+03</pdfrwt>
<totfact> 0.78654738E+03</totfact>
</mgrwt>
</event>
<event>
 8    2  0.7478846E-004  0.1506438E+03  0.7818608E-02  0.1208719E+00
          1   -1    0    0  501    0  0.00000000000E+00  0.00000000000E+00  0.33968971874E+02  0.33968972248E+02  0.50400000000E-02 0. -1.
         -1   -1    0    0    0  501 -0.00000000000E+00 -0.00000000000E+00 -0.59102219962E+03  0.59102219964E+03  0.50400000000E-02 0.  1.
         25    2    1    2    0    0  0.41936723492E+02  0.72829135937E+02 -0.38070201548E+03  0.40942347445E+03  0.12502313794E+03 0.  0.
         23    2    1    2    0    0 -0.41936723492E+02 -0.72829135937E+02 -0.17635121227E+03  0.21556769745E+03  0.91142253068E+02 0.  0.
        -11    1    4    4    0    0 -0.18271179377E+02 -0.11565442540E+02  0.54223798827E+01  0.22293444346E+02  0.51100000000E-03 0. -1.
         11    1    4    4    0    0 -0.23665544115E+02 -0.61263693398E+02 -0.18177359215E+03  0.19327425310E+03  0.51100000000E-03 0.  1.
    9000005    1    3    3    0    0  0.36624562047E+02  0.55097013644E+02 -0.38479243868E+03  0.39043982932E+03  0.10000000000E+01 0.  0.
    9000005    1    3    3    0    0  0.53121614456E+01  0.17732122293E+02  0.40904231995E+01  0.18983645124E+02  0.10000000000E+01 0.  0.
<mgrwt>
<rscale>  0 0.14348172E+03</rscale>
<asrwt>0</asrwt>
<pdfrwt beam="1">  1        1 0.52259961E-02 0.15064381E+03</pdfrwt>
<pdfrwt beam="2">  1       -1 0.90926485E-01 0.15064381E+03</pdfrwt>
<totfact> 0.18995727E+03</totfact>
</mgrwt>
</event>
<event>
 8    2  0.7478846E-004  0.1298274E+03  0.7818608E-02  0.1239403E+00
         -1   -1    0    0    0  501 -0.00000000000E+00  0.00000000000E+00  0.20952674097E+03  0.20952674103E+03  0.50400000000E-02 0.  1.
          1   -1    0    0  501    0  0.00000000000E+00 -0.00000000000E+00 -0.64301301676E+02  0.64301301874E+02  0.50400000000E-02 0. -1.
         25    2    1    2    0    0 -0.76152634740E+01  0.34234269690E+02  0.86766712130E+02  0.15615253432E+03  0.12500069672E+03 0.  0.
         23    2    1    2    0    0  0.76152634740E+01 -0.34234269690E+02  0.58458727166E+02  0.11767550859E+03  0.95917282490E+02 0.  0.
        -11    1    4    4    0    0  0.33102389117E+02  0.21727328031E+02  0.14847185926E+02  0.42288105642E+02  0.51100000000E-03 0. -1.
         11    1    4    4    0    0 -0.25487125643E+02 -0.55961597721E+02  0.43611541240E+02  0.75387402945E+02  0.51100000000E-03 0.  1.
    9000005    1    3    3    0    0  0.21177346969E+02 -0.33666836138E+02 -0.30822482149E+01  0.39905339670E+02  0.10000000000E+01 0.  0.
    9000005    1    3    3    0    0 -0.28792610443E+02  0.67901105828E+02  0.89848960345E+02  0.11624719465E+03  0.10000000000E+01 0.  0.
<mgrwt>
<rscale>  0 0.12226744E+03</rscale>
<asrwt>0</asrwt>
<pdfrwt beam="2">  1        1 0.98925079E-02 0.12982739E+03</pdfrwt>
<pdfrwt beam="1">  1       -1 0.32234884E-01 0.12982739E+03</pdfrwt>
<totfact> 0.55752538E+03</totfact>
</mgrwt>
</event>
<event>
 8    2  0.7478846E-004  0.1312607E+03  0.7818608E-02  0.1239118E+00
         -1   -1    0    0    0  501 -0.00000000000E+00  0.00000000000E+00  0.12692804456E+02  0.12692805457E+02  0.50400000000E-02 0.  1.
          1   -1    0    0  501    0  0.00000000000E+00 -0.00000000000E+00 -0.11593419466E+04  0.11593419466E+04  0.50400000000E-02 0. -1.
         25    2    1    2    0    0  0.40031041233E+02  0.13335936365E+01 -0.82507033541E+03  0.83544623963E+03  0.12500039284E+03 0.  0.
         23    2    1    2    0    0 -0.40031041233E+02 -0.13335936365E+01 -0.32157880674E+03  0.33658851244E+03  0.90965020905E+02 0.  0.
        -11    1    4    4    0    0 -0.29064714426E+02 -0.11842769098E+02 -0.26379257921E+02  0.40998464036E+02  0.51100000000E-03 0.  1.
         11    1    4    4    0    0 -0.10966326807E+02  0.10509175461E+02 -0.29519954882E+03  0.29559004840E+03  0.51100000000E-03 0. -1.
    9000005    1    3    3    0    0  0.27925490274E+02  0.62721724817E+02 -0.43849134926E+03  0.44383500442E+03  0.10000000000E+01 0.  0.
    9000005    1    3    3    0    0  0.12105550959E+02 -0.61388131180E+02 -0.38657898615E+03  0.39161123521E+03  0.10000000000E+01 0.  0.
<mgrwt>
<rscale>  0 0.12244456E+03</rscale>
<asrwt>0</asrwt>
<pdfrwt beam="2">  1        1 0.17836022E+00 0.13126066E+03</pdfrwt>
<pdfrwt beam="1">  1       -1 0.19527401E-02 0.13126066E+03</pdfrwt>
<totfact> 0.84136616E+03</totfact>
</mgrwt>
</event>
<event>
 8    2  0.7478846E-004  0.1664427E+03  0.7818608E-02  0.1188562E+00
          1   -1    0    0  501    0  0.00000000000E+00  0.00000000000E+00  0.34463456087E+04  0.34463456087E+04  0.50400000000E-02 0. -1.
         -1   -1    0    0    0  501 -0.00000000000E+00 -0.00000000000E+00 -0.70932945697E+01  0.70932963602E+01  0.50400000000E-02 0.  1.
         25    2    1    2    0    0 -0.10354247967E+03  0.36826107372E+02  0.15851136387E+04  0.15938282240E+04  0.12500381110E+03 0.  0.
         23    2    1    2    0    0  0.10354247967E+03 -0.36826107372E+02  0.18541386754E+04  0.18596106810E+04  0.90798954113E+02 0.  0.
        -11    1    4    4    0    0  0.52905802046E+02 -0.51830605143E+02  0.63089819023E+03  0.63523063682E+03  0.51100000000E-03 0.  1.
         11    1    4    4    0    0  0.50636677623E+02  0.15004497771E+02  0.12232404851E+04  0.12243800442E+04  0.51100000000E-03 0. -1.
    9000005    1    3    3    0    0 -0.25425321187E+02  0.56349415769E+02  0.30607951189E+03  0.31226170309E+03  0.10000000000E+01 0.  0.
    9000005    1    3    3    0    0 -0.78117158482E+02 -0.19523308397E+02  0.12790341268E+04  0.12815665209E+04  0.10000000000E+01 0.  0.
<mgrwt>
<rscale>  0 0.16011919E+03</rscale>
<asrwt>0</asrwt>
<pdfrwt beam="1">  1        1 0.53020669E+00 0.16644266E+03</pdfrwt>
<pdfrwt beam="2">  1       -1 0.10912769E-02 0.16644266E+03</pdfrwt>
<totfact> 0.58345193E+02</totfact>
</mgrwt>
</event>
<event>
 8    2  0.7478846E-004  0.1481853E+03  0.7818608E-02  0.1212380E+00
         -1   -1    0    0    0  501 -0.00000000000E+00  0.00000000000E+00  0.50314234012E+03  0.50314234014E+03  0.50400000000E-02 0. -1.
          1   -1    0    0  501    0  0.00000000000E+00 -0.00000000000E+00 -0.46126076184E+02  0.46126076459E+02  0.50400000000E-02 0.  1.
         25    2    1    2    0    0  0.61691601921E+02 -0.50285399034E+02  0.37586456979E+03  0.40402109823E+03  0.12499759153E+03 0.  0.
         23    2    1    2    0    0 -0.61691601921E+02  0.50285399034E+02  0.81151694145E+02  0.14524731837E+03  0.90425167563E+02 0.  0.
        -11    1    4    4    0    0 -0.96837213692E+01 -0.26219088579E+02  0.18330482410E+02  0.33424865761E+02  0.51100000000E-03 0.  1.
         11    1    4    4    0    0 -0.52007880552E+02  0.76504487613E+02  0.62821211735E+02  0.11182245261E+03  0.51100000000E-03 0. -1.
    9000005    1    3    3    0    0  0.21870407667E+02  0.42077379360E+02  0.12953748551E+03  0.13794847131E+03  0.10000000000E+01 0.  0.
    9000005    1    3    3    0    0  0.39821194254E+02 -0.92362778393E+02  0.24632708428E+03  0.26607262692E+03  0.10000000000E+01 0.  0.
<mgrwt>
<rscale>  0 0.14070730E+03</rscale>
<asrwt>0</asrwt>
<pdfrwt beam="2">  1        1 0.70963194E-02 0.14818527E+03</pdfrwt>
<pdfrwt beam="1">  1       -1 0.77406514E-01 0.14818527E+03</pdfrwt>
<totfact> 0.17502240E+03</totfact>
</mgrwt>
</event>
<event>
 8    2  0.7478846E-004  0.1489910E+03  0.7818608E-02  0.1210067E+00
         -1   -1    0    0    0  501 -0.00000000000E+00  0.00000000000E+00  0.24824919552E+02  0.24824920064E+02  0.50400000000E-02 0.  1.
          1   -1    0    0  501    0  0.00000000000E+00 -0.00000000000E+00 -0.75930253283E+03  0.75930253285E+03  0.50400000000E-02 0. -1.
         25    2    1    2    0    0  0.80633783747E+02 -0.85092149991E+01 -0.43460087451E+03  0.45943035688E+03  0.12499647544E+03 0.  0.
         23    2    1    2    0    0 -0.80633783747E+02  0.85092149991E+01 -0.29987673877E+03  0.32469709603E+03  0.94487734112E+02 0.  0.
        -11    1    4    4    0    0 -0.63779692744E+02 -0.35873245741E+02 -0.14069965186E+03  0.15859108109E+03  0.51100000000E-03 0.  1.
         11    1    4    4    0    0 -0.16854091003E+02  0.44382460740E+02 -0.15917708691E+03  0.16610601495E+03  0.51100000000E-03 0. -1.
    9000005    1    3    3    0    0  0.69945998644E+02 -0.27205464899E+02 -0.43110491396E+03  0.43759002147E+03  0.10000000000E+01 0.  0.
    9000005    1    3    3    0    0  0.10687785102E+02  0.18696249900E+02 -0.34959605519E+01  0.21840335411E+02  0.10000000000E+01 0.  0.
<mgrwt>
<rscale>  0 0.14245218E+03</rscale>
<asrwt>0</asrwt>
<pdfrwt beam="2">  1        1 0.11681576E+00 0.14899105E+03</pdfrwt>
<pdfrwt beam="1">  1       -1 0.38192190E-02 0.14899105E+03</pdfrwt>
<totfact> 0.63899372E+03</totfact>
</mgrwt>
</event>
<event>
 8    2  0.7478846E-004  0.1672258E+03  0.7818608E-02  0.1187369E+00
          1   -1    0    0  501    0  0.00000000000E+00  0.00000000000E+00  0.13381664549E+04  0.13381664549E+04  0.50400000000E-02 0. -1.
         -1   -1    0    0    0  501 -0.00000000000E+00 -0.00000000000E+00 -0.18355595029E+02  0.18355595720E+02  0.50400000000E-02 0.  1.
         25    2    1    2    0    0  0.58901995239E+02  0.94169528616E+02  0.78210495896E+03  0.79978286053E+03  0.12500844774E+03 0.  0.
         23    2    1    2    0    0 -0.58901995239E+02 -0.94169528616E+02  0.53770590093E+03  0.55673919012E+03  0.92160429443E+02 0.  0.
        -11    1    4    4    0    0 -0.82048761370E+02 -0.87819320581E+02  0.43860780855E+03  0.45477581513E+03  0.51100000000E-03 0. -1.
         11    1    4    4    0    0  0.23146766131E+02 -0.63502080354E+01  0.99098092378E+02  0.10196337498E+03  0.51100000000E-03 0.  1.
    9000005    1    3    3    0    0  0.20975519353E+02  0.49231996818E+02  0.67882568206E+03  0.68093249926E+03  0.10000000000E+01 0.  0.
    9000005    1    3    3    0    0  0.37926475886E+02  0.44937531799E+02  0.10327927690E+03  0.11885036127E+03  0.10000000000E+01 0.  0.
<mgrwt>
<rscale>  0 0.16118175E+03</rscale>
<asrwt>0</asrwt>
<pdfrwt beam="1">  1        1 0.20587179E+00 0.16722577E+03</pdfrwt>
<pdfrwt beam="2">  1       -1 0.28239374E-02 0.16722577E+03</pdfrwt>
<totfact> 0.37581325E+03</totfact>
</mgrwt>
</event>
<event>
 8    2  0.7478846E-004  0.2297171E+03  0.7818608E-02  0.1129772E+00
         -1   -1    0    0    0  501 -0.00000000000E+00  0.00000000000E+00  0.31941627624E+03  0.31941627628E+03  0.50400000000E-02 0.  1.
          1   -1    0    0  501    0  0.00000000000E+00 -0.00000000000E+00 -0.15926613282E+03  0.15926613290E+03  0.50400000000E-02 0. -1.
         25    2    1    2    0    0 -0.19079665820E+03  0.27211648319E+02  0.38928014946E+02  0.23299209702E+03  0.12500435330E+03 0.  0.
         23    2    1    2    0    0  0.19079665820E+03 -0.27211648319E+02  0.12122212847E+03  0.24569031216E+03  0.92331394848E+02 0.  0.
        -11    1    4    4    0    0  0.10864158368E+03  0.24193450993E+02  0.92186187394E+02  0.14452200498E+03  0.51100000000E-03 0.  1.
         11    1    4    4    0    0  0.82155074516E+02 -0.51405099311E+02  0.29035941077E+02  0.10116830718E+03  0.51100000000E-03 0. -1.
    9000005    1    3    3    0    0 -0.93330164557E+01 -0.16968767970E+02 -0.28460845857E+02  0.34439280327E+02  0.10000000000E+01 0.  0.
    9000005    1    3    3    0    0 -0.18146364174E+03  0.44180416289E+02  0.67388860803E+02  0.19855281670E+03  0.10000000000E+01 0.  0.
<mgrwt>
<rscale>  0 0.22560438E+03</rscale>
<asrwt>0</asrwt>
<pdfrwt beam="2">  1        1 0.24502482E-01 0.22971706E+03</pdfrwt>
<pdfrwt beam="1">  1       -1 0.49140965E-01 0.22971706E+03</pdfrwt>
<totfact> 0.83304571E+02</totfact>
</mgrwt>
</event>
<event>
 8    2  0.7478846E-004  0.1746813E+03  0.7818608E-02  0.1177663E+00
         -1   -1    0    0    0  501 -0.00000000000E+00  0.00000000000E+00  0.99507695315E+02  0.99507695443E+02  0.50400000000E-02 0.  1.
          1   -1    0    0  501    0  0.00000000000E+00 -0.00000000000E+00 -0.40508762248E+03  0.40508762251E+03  0.50400000000E-02 0. -1.
         25    2    1    2    0    0  0.74179642210E+02  0.96879500148E+02 -0.29999600617E+03  0.34714715902E+03  0.12500115770E+03 0.  0.
         23    2    1    2    0    0 -0.74179642210E+02 -0.96879500148E+02 -0.55839209884E+01  0.15744815893E+03  0.99350318123E+02 0.  0.
        -11    1    4    4    0    0 -0.34514216161E+02  0.15642894168E+02 -0.42544005499E+01  0.38131760770E+02  0.51100000000E-03 0. -1.
         11    1    4    4    0    0 -0.39665426049E+02 -0.11252239432E+03 -0.13295204385E+01  0.11931639816E+03  0.51100000000E-03 0.  1.
    9000005    1    3    3    0    0  0.44717160970E+02 -0.13523307283E+02 -0.34438529992E+02  0.58047538045E+02  0.10000000000E+01 0.  0.
    9000005    1    3    3    0    0  0.29462481240E+02  0.11040280743E+03 -0.26555747618E+03  0.28909962097E+03  0.10000000000E+01 0.  0.
<mgrwt>
<rscale>  0 0.17017699E+03</rscale>
<asrwt>0</asrwt>
<pdfrwt beam="2">  1        1 0.62321172E-01 0.17468127E+03</pdfrwt>
<pdfrwt beam="1">  1       -1 0.15308876E-01 0.17468127E+03</pdfrwt>
<totfact> 0.18335351E+03</totfact>
</mgrwt>
</event>
<event>
 8    2  0.7478846E-004  0.1332179E+03  0.7818608E-02  0.1235313E+00
         -1   -1    0    0    0  501 -0.00000000000E+00  0.00000000000E+00  0.36780980662E+03  0.36780980666E+03  0.50400000000E-02 0.  1.
          1   -1    0    0  501    0  0.00000000000E+00 -0.00000000000E+00 -0.45144937833E+02  0.45144938114E+02  0.50400000000E-02 0. -1.
         25    2    1    2    0    0  0.45963569179E+02  0.28146686407E+01  0.26123307147E+03  0.29324006242E+03  0.12500577797E+03 0.  0.
         23    2    1    2    0    0 -0.45963569179E+02 -0.28146686407E+01  0.61431797319E+02  0.11971468235E+03  0.91854054877E+02 0.  0.
        -11    1    4    4    0    0 -0.47831171289E+02  0.12322799685E+02  0.81019858302E+02  0.94888828523E+02  0.51100000000E-03 0.  1.
         11    1    4    4    0    0  0.18676021102E+01 -0.15137468325E+02 -0.19588060983E+02  0.24825853828E+02  0.51100000000E-03 0. -1.
    9000005    1    3    3    0    0 -0.36592625164E+02 -0.26947048514E+02  0.89371841980E+02  0.10026709220E+03  0.10000000000E+01 0.  0.
    9000005    1    3    3    0    0  0.82556194343E+02  0.29761717154E+02  0.17186122949E+03  0.19297297022E+03  0.10000000000E+01 0.  0.
<mgrwt>
<rscale>  0 0.12484420E+03</rscale>
<asrwt>0</asrwt>
<pdfrwt beam="2">  1        1 0.69453753E-02 0.13321793E+03</pdfrwt>
<pdfrwt beam="1">  1       -1 0.56586122E-01 0.13321793E+03</pdfrwt>
<totfact> 0.33008670E+03</totfact>
</mgrwt>
</event>
<event>
 8    2  0.7478846E-004  0.1254878E+03  0.7818608E-02  0.1249003E+00
          1   -1    0    0  501    0  0.00000000000E+00  0.00000000000E+00  0.56549546332E+03  0.56549546335E+03  0.50400000000E-02 0. -1.
         -1   -1    0    0    0  501 -0.00000000000E+00 -0.00000000000E+00 -0.29453223826E+02  0.29453224258E+02  0.50400000000E-02 0.  1.
         25    2    1    2    0    0  0.11747952424E+01 -0.11016796842E+02  0.45323973115E+03  0.47029080711E+03  0.12499775758E+03 0.  0.
         23    2    1    2    0    0 -0.11747952424E+01  0.11016796842E+02  0.82802508345E+02  0.12465788049E+03  0.92523412306E+02 0.  0.
        -11    1    4    4    0    0 -0.44240100398E+02 -0.68006027788E+01  0.28344157175E+02  0.52979485913E+02  0.51100000000E-03 0.  1.
         11    1    4    4    0    0  0.43065305156E+02  0.17817399621E+02  0.54458351170E+02  0.71678394582E+02  0.51100000000E-03 0. -1.
    9000005    1    3    3    0    0 -0.32141414111E+02 -0.22697359628E+02  0.41983886313E+03  0.42167986866E+03  0.10000000000E+01 0.  0.
    9000005    1    3    3    0    0  0.33316209353E+02  0.11680562786E+02  0.33400868022E+02  0.48610938453E+02  0.10000000000E+01 0.  0.
<mgrwt>
<rscale>  0 0.11648954E+03</rscale>
<asrwt>0</asrwt>
<pdfrwt beam="1">  1        1 0.86999299E-01 0.12548781E+03</pdfrwt>
<pdfrwt beam="2">  1       -1 0.45312654E-02 0.12548781E+03</pdfrwt>
<totfact> 0.74382750E+03</totfact>
</mgrwt>
</event>
<event>
 8    2  0.7478846E-004  0.1508248E+03  0.7818608E-02  0.1208042E+00
         -1   -1    0    0    0  501 -0.00000000000E+00  0.00000000000E+00  0.15831343261E+03  0.15831343269E+03  0.50400000000E-02 0.  1.
          1   -1    0    0  501    0  0.00000000000E+00 -0.00000000000E+00 -0.12711491276E+03  0.12711491286E+03  0.50400000000E-02 0. -1.
         25    2    1    2    0    0  0.65697616610E+02 -0.52980449088E+02  0.49558078746E+02  0.15875807145E+03  0.12500006908E+03 0.  0.
         23    2    1    2    0    0 -0.65697616610E+02  0.52980449088E+02 -0.18359558894E+02  0.12667027410E+03  0.92656247083E+02 0.  0.
        -11    1    4    4    0    0 -0.17374959730E+02  0.71440873173E+02 -0.85394774136E+01  0.74017634791E+02  0.51100000000E-03 0.  1.
         11    1    4    4    0    0 -0.48322656881E+02 -0.18460424085E+02 -0.98200814807E+01  0.52652639307E+02  0.51100000000E-03 0. -1.
    9000005    1    3    3    0    0  0.86209371982E+02 -0.16692473789E+02  0.70017848403E+02  0.11231292710E+03  0.10000000000E+01 0.  0.
    9000005    1    3    3    0    0 -0.20511755372E+02 -0.36287975298E+02 -0.20459769656E+02  0.46445144354E+02  0.10000000000E+01 0.  0.
<mgrwt>
<rscale>  0 0.14400271E+03</rscale>
<asrwt>0</asrwt>
<pdfrwt beam="2">  1        1 0.19556140E-01 0.15082481E+03</pdfrwt>
<pdfrwt beam="1">  1       -1 0.24355913E-01 0.15082481E+03</pdfrwt>
<totfact> 0.36979952E+03</totfact>
</mgrwt>
</event>
<event>
 8    2  0.7478846E-004  0.1401524E+03  0.7818608E-02  0.1222661E+00
         -1   -1    0    0    0  501 -0.00000000000E+00  0.00000000000E+00  0.67671002905E+02  0.67671003093E+02  0.50400000000E-02 0. -1.
          1   -1    0    0  501    0  0.00000000000E+00 -0.00000000000E+00 -0.47158350320E+03  0.47158350322E+03  0.50400000000E-02 0.  1.
         25    2    1    2    0    0  0.12207807228E+02 -0.62201593205E+02 -0.40077511151E+03  0.42457436987E+03  0.12499854715E+03 0.  0.
         23    2    1    2    0    0 -0.12207807228E+02  0.62201593205E+02 -0.31373887828E+01  0.11468013645E+03  0.95517651422E+02 0.  0.
        -11    1    4    4    0    0  0.16750291443E+02  0.21780558762E+02  0.40219145954E+02  0.48708774414E+02  0.51100000000E-03 0. -1.
         11    1    4    4    0    0 -0.28958098672E+02  0.40421034443E+02 -0.43356534737E+02  0.65971362035E+02  0.51100000000E-03 0.  1.
    9000005    1    3    3    0    0  0.60997383923E+02 -0.25688051235E+02 -0.11792828940E+03  0.13523549187E+03  0.10000000000E+01 0.  0.
    9000005    1    3    3    0    0 -0.48789576694E+02 -0.36513541970E+02 -0.28284682211E+03  0.28933887799E+03  0.10000000000E+01 0.  0.
<mgrwt>
<rscale>  0 0.13328519E+03</rscale>
<asrwt>0</asrwt>
<pdfrwt beam="2">  1        1 0.72551306E-01 0.14015244E+03</pdfrwt>
<pdfrwt beam="1">  1       -1 0.10410924E-01 0.14015244E+03</pdfrwt>
<totfact> 0.27290817E+03</totfact>
</mgrwt>
</event>
<event>
 8    2  0.7478846E-004  0.1955095E+03  0.7818608E-02  0.1158055E+00
          1   -1    0    0  501    0  0.00000000000E+00  0.00000000000E+00  0.11866384095E+03  0.11866384106E+03  0.50400000000E-02 0. -1.
         -1   -1    0    0    0  501 -0.00000000000E+00 -0.00000000000E+00 -0.31110418953E+03  0.31110418957E+03  0.50400000000E-02 0.  1.
         25    2    1    2    0    0 -0.35863634237E+02 -0.14599309749E+03 -0.46180413455E+02  0.20088946639E+03  0.12499504928E+03 0.  0.
         23    2    1    2    0    0  0.35863634237E+02  0.14599309749E+03 -0.14625993512E+03  0.22887856424E+03  0.91614648252E+02 0.  0.
        -11    1    4    4    0    0 -0.17411511950E+02  0.10986137511E+03 -0.84707801159E+02  0.13981449877E+03  0.51100000000E-03 0.  1.
         11    1    4    4    0    0  0.53275146186E+02  0.36131722381E+02 -0.61552133961E+02  0.89064065474E+02  0.51100000000E-03 0. -1.
    9000005    1    3    3    0    0 -0.66777409548E+02 -0.26182014476E+02 -0.15073100625E+02  0.73300195568E+02  0.10000000000E+01 0.  0.
    9000005    1    3    3    0    0  0.30913775311E+02 -0.11981108301E+03 -0.31107312830E+02  0.12758927082E+03  0.10000000000E+01 0.  0.
<mgrwt>
<rscale>  0 0.19045156E+03</rscale>
<asrwt>0</asrwt>
<pdfrwt beam="1">  1        1 0.18255976E-01 0.19550946E+03</pdfrwt>
<pdfrwt beam="2">  1       -1 0.47862183E-01 0.19550946E+03</pdfrwt>
<totfact> 0.12722267E+03</totfact>
</mgrwt>
</event>
<event>
 8    2  0.7478846E-004  0.2151081E+03  0.7818608E-02  0.1141239E+00
          1   -1    0    0  501    0  0.00000000000E+00  0.00000000000E+00  0.24666038449E+03  0.24666038454E+03  0.50400000000E-02 0. -1.
         -1   -1    0    0    0  501 -0.00000000000E+00 -0.00000000000E+00 -0.20753637348E+03  0.20753637354E+03  0.50400000000E-02 0.  1.
         25    2    1    2    0    0  0.72492270783E+02  0.15934592446E+03  0.11406850672E+03  0.24348128220E+03  0.12500103037E+03 0.  0.
         23    2    1    2    0    0 -0.72492270783E+02 -0.15934592446E+03 -0.74944495714E+02  0.21071547588E+03  0.90211315108E+02 0.  0.
        -11    1    4    4    0    0 -0.60721837840E+02 -0.14427711365E+03 -0.94918687908E+02  0.18306442699E+03  0.51100000000E-03 0.  1.
         11    1    4    4    0    0 -0.11770432942E+02 -0.15068810802E+02  0.19974192194E+02  0.27651048890E+02  0.51100000000E-03 0. -1.
    9000005    1    3    3    0    0 -0.35487448784E+02  0.37170835259E+02  0.35609269957E+02  0.62530393585E+02  0.10000000000E+01 0.  0.
    9000005    1    3    3    0    0  0.10797971957E+03  0.12217508920E+03  0.78459236761E+02  0.18095088862E+03  0.10000000000E+01 0.  0.
<mgrwt>
<rscale>  0 0.21041402E+03</rscale>
<asrwt>0</asrwt>
<pdfrwt beam="1">  1        1 0.37947751E-01 0.21510814E+03</pdfrwt>
<pdfrwt beam="2">  1       -1 0.31928673E-01 0.21510814E+03</pdfrwt>
<totfact> 0.10293974E+03</totfact>
</mgrwt>
</event>
<event>
 8    2  0.7478846E-004  0.1289366E+03  0.7818608E-02  0.1243487E+00
          1   -1    0    0  501    0  0.00000000000E+00  0.00000000000E+00  0.72867149246E+02  0.72867149420E+02  0.50400000000E-02 0. -1.
         -1   -1    0    0    0  501 -0.00000000000E+00 -0.00000000000E+00 -0.17479490914E+03  0.17479490921E+03  0.50400000000E-02 0.  1.
         25    2    1    2    0    0  0.23574395361E+02 -0.21056979015E+02 -0.68679357220E+02  0.14608726473E+03  0.12500194529E+03 0.  0.
         23    2    1    2    0    0 -0.23574395361E+02  0.21056979015E+02 -0.33248402673E+02  0.10157479390E+03  0.90624687552E+02 0.  0.
        -11    1    4    4    0    0  0.15821479368E+02 -0.23645955456E+02  0.74584619105E+01  0.29412226593E+02  0.51100000000E-03 0. -1.
         11    1    4    4    0    0 -0.39395874729E+02  0.44702934472E+02 -0.40706864584E+02  0.72162567309E+02  0.51100000000E-03 0.  1.
    9000005    1    3    3    0    0 -0.47849805293E+02 -0.23320927513E+02 -0.11275177932E+02  0.54420576660E+02  0.10000000000E+01 0.  0.
    9000005    1    3    3    0    0  0.71424200654E+02  0.22639484974E+01 -0.57404179288E+02  0.91666688070E+02  0.10000000000E+01 0.  0.
<mgrwt>
<rscale>  0 0.11976397E+03</rscale>
<asrwt>0</asrwt>
<pdfrwt beam="1">  1        1 0.11210331E-01 0.12893655E+03</pdfrwt>
<pdfrwt beam="2">  1       -1 0.26891524E-01 0.12893655E+03</pdfrwt>
<totfact> 0.63988867E+03</totfact>
</mgrwt>
</event>
<event>
 8    2  0.7478846E-004  0.1440350E+03  0.7818608E-02  0.1218358E+00
         -1   -1    0    0    0  501 -0.00000000000E+00  0.00000000000E+00  0.22456865059E+02  0.22456865625E+02  0.50400000000E-02 0.  1.
          1   -1    0    0  501    0  0.00000000000E+00 -0.00000000000E+00 -0.85401847892E+03  0.85401847894E+03  0.50400000000E-02 0. -1.
         25    2    1    2    0    0 -0.64196931733E+02 -0.31613851626E+02 -0.30395587039E+03  0.33635582113E+03  0.12500154241E+03 0.  0.
         23    2    1    2    0    0  0.64196931733E+02  0.31613851626E+02 -0.52760574347E+03  0.54011952343E+03  0.90777736189E+02 0.  0.
        -11    1    4    4    0    0  0.67806956873E+02  0.24260994451E+02 -0.20274555848E+03  0.21515608459E+03  0.51100000000E-03 0.  1.
         11    1    4    4    0    0 -0.36100251401E+01  0.73528571754E+01 -0.32486018500E+03  0.32496343885E+03  0.51100000000E-03 0. -1.
    9000005    1    3    3    0    0 -0.37045289563E+02 -0.79861833958E+02 -0.17110039451E+03  0.19242300019E+03  0.10000000000E+01 0.  0.
    9000005    1    3    3    0    0 -0.27151642170E+02  0.48247982332E+02 -0.13285547588E+03  0.14393282094E+03  0.10000000000E+01 0.  0.
<mgrwt>
<rscale>  0 0.13632701E+03</rscale>
<asrwt>0</asrwt>
<pdfrwt beam="2">  1        1 0.13138743E+00 0.14403495E+03</pdfrwt>
<pdfrwt beam="1">  1       -1 0.34549030E-02 0.14403495E+03</pdfrwt>
<totfact> 0.61836398E+03</totfact>
</mgrwt>
</event>
<event>
 8    2  0.7478846E-004  0.1560132E+03  0.7818608E-02  0.1198501E+00
         -1   -1    0    0    0  501 -0.00000000000E+00  0.00000000000E+00  0.19823416932E+03  0.19823416939E+03  0.50400000000E-02 0.  1.
          1   -1    0    0  501    0  0.00000000000E+00 -0.00000000000E+00 -0.11076634630E+03  0.11076634642E+03  0.50400000000E-02 0. -1.
         25    2    1    2    0    0  0.84597807899E+02  0.39474403054E+02  0.60048002215E+02  0.16717024892E+03  0.12500044783E+03 0.  0.
         23    2    1    2    0    0 -0.84597807899E+02 -0.39474403054E+02  0.27419820808E+02  0.14183026688E+03  0.10319380036E+03 0.  0.
        -11    1    4    4    0    0 -0.90411754461E+02 -0.15915124146E+02 -0.14942633490E+02  0.93009993103E+02  0.51100000000E-03 0. -1.
         11    1    4    4    0    0  0.58139465618E+01 -0.23559278908E+02  0.42362454298E+02  0.48820273777E+02  0.51100000000E-03 0.  1.
    9000005    1    3    3    0    0 -0.47632763676E+01 -0.18625470872E+02  0.57402701754E+02  0.60544753164E+02  0.10000000000E+01 0.  0.
    9000005    1    3    3    0    0  0.89361084266E+02  0.58099873925E+02  0.26453004611E+01  0.10662549576E+03  0.10000000000E+01 0.  0.
<mgrwt>
<rscale>  0 0.15161613E+03</rscale>
<asrwt>0</asrwt>
<pdfrwt beam="2">  1        1 0.17040976E-01 0.15601324E+03</pdfrwt>
<pdfrwt beam="1">  1       -1 0.30497565E-01 0.15601324E+03</pdfrwt>
<totfact> 0.30396390E+03</totfact>
</mgrwt>
</event>
<event>
 8    2  0.7478846E-004  0.1294810E+03  0.7818608E-02  0.1242328E+00
          1   -1    0    0  501    0  0.00000000000E+00  0.00000000000E+00  0.25054223160E+04  0.25054223160E+04  0.50400000000E-02 0. -1.
         -1   -1    0    0    0  501 -0.00000000000E+00 -0.00000000000E+00 -0.54102456686E+01  0.54102480161E+01  0.50400000000E-02 0.  1.
         25    2    1    2    0    0 -0.33749465876E+02  0.16962188381E+01  0.17078799789E+04  0.17127811712E+04  0.12499365845E+03 0.  0.
         23    2    1    2    0    0  0.33749465876E+02 -0.16962188381E+01  0.79213209142E+03  0.79805139276E+03  0.90944332560E+02 0.  0.
        -11    1    4    4    0    0 -0.21577718884E+02 -0.16701612965E+02  0.10346827663E+03  0.10700572928E+03  0.51100000000E-03 0.  1.
         11    1    4    4    0    0  0.55327184760E+02  0.15005394127E+02  0.68866381478E+03  0.69104566348E+03  0.51100000000E-03 0. -1.
    9000005    1    3    3    0    0  0.47681458435E+02 -0.22354956182E+01  0.67793143186E+03  0.67961058351E+03  0.10000000000E+01 0.  0.
    9000005    1    3    3    0    0 -0.81430924312E+02  0.39317144563E+01  0.10299485470E+04  0.10331705877E+04  0.10000000000E+01 0.  0.
<mgrwt>
<rscale>  0 0.12046729E+03</rscale>
<asrwt>0</asrwt>
<pdfrwt beam="1">  1        1 0.38544966E+00 0.12948096E+03</pdfrwt>
<pdfrwt beam="2">  1       -1 0.83234551E-03 0.12948096E+03</pdfrwt>
<totfact> 0.38424250E+03</totfact>
</mgrwt>
</event>
<event>
 8    2  0.7478846E-004  0.1412710E+03  0.7818608E-02  0.1224733E+00
          1   -1    0    0  501    0  0.00000000000E+00  0.00000000000E+00  0.33494038423E+03  0.33494038426E+03  0.50400000000E-02 0. -1.
         -1   -1    0    0    0  501 -0.00000000000E+00 -0.00000000000E+00 -0.51038321724E+02  0.51038321973E+02  0.50400000000E-02 0.  1.
         25    2    1    2    0    0 -0.62509043500E+02 -0.20732156220E+02  0.21916255401E+03  0.26074837436E+03  0.12498114591E+03 0.  0.
         23    2    1    2    0    0  0.62509043500E+02  0.20732156220E+02  0.64739508497E+02  0.12523033188E+03  0.84582676953E+02 0.  0.
        -11    1    4    4    0    0  0.42450676161E+02  0.53714730440E+02  0.38403030726E+02  0.78499203448E+02  0.51100000000E-03 0. -1.
         11    1    4    4    0    0  0.20058367339E+02 -0.32982574221E+02  0.26336477771E+02  0.46731128428E+02  0.51100000000E-03 0.  1.
    9000005    1    3    3    0    0 -0.10091995468E+03 -0.19719459892E+02  0.15980026985E+03  0.19002847311E+03  0.10000000000E+01 0.  0.
    9000005    1    3    3    0    0  0.38410911182E+02 -0.10126963274E+01  0.59362284161E+02  0.70719901247E+02  0.10000000000E+01 0.  0.
<mgrwt>
<rscale>  0 0.13185193E+03</rscale>
<asrwt>0</asrwt>
<pdfrwt beam="1">  1        1 0.51529289E-01 0.14127098E+03</pdfrwt>
<pdfrwt beam="2">  1       -1 0.78520497E-02 0.14127098E+03</pdfrwt>
<totfact> 0.64587044E+03</totfact>
</mgrwt>
</event>
<event>
 8    2  0.7478846E-004  0.1369053E+03  0.7818608E-02  0.1229199E+00
         -1   -1    0    0    0  501 -0.00000000000E+00  0.00000000000E+00  0.13406314504E+02  0.13406315451E+02  0.50400000000E-02 0.  1.
          1   -1    0    0  501    0  0.00000000000E+00 -0.00000000000E+00 -0.13452960160E+04  0.13452960160E+04  0.50400000000E-02 0. -1.
         25    2    1    2    0    0 -0.43294978575E+02  0.35299342322E+02 -0.45175310349E+03  0.47204229759E+03  0.12499026148E+03 0.  0.
         23    2    1    2    0    0  0.43294978575E+02 -0.35299342322E+02 -0.88013659796E+03  0.88666003382E+03  0.91679254865E+02 0.  0.
        -11    1    4    4    0    0  0.37133054937E+02 -0.11077826675E+02 -0.11976652967E+03  0.12587932174E+03  0.51100000000E-03 0.  1.
         11    1    4    4    0    0  0.61619236377E+01 -0.24221515648E+02 -0.76037006829E+03  0.76078071208E+03  0.51100000000E-03 0. -1.
    9000005    1    3    3    0    0 -0.13582754696E+02  0.67489640300E+02 -0.39168607480E+03  0.39769124200E+03  0.10000000000E+01 0.  0.
    9000005    1    3    3    0    0 -0.29712223879E+02 -0.32190297978E+02 -0.60067028696E+02  0.74351055595E+02  0.10000000000E+01 0.  0.
<mgrwt>
<rscale>  0 0.12883181E+03</rscale>
<asrwt>0</asrwt>
<pdfrwt beam="2">  1        1 0.20696851E+00 0.13690531E+03</pdfrwt>
<pdfrwt beam="1">  1       -1 0.20625111E-02 0.13690531E+03</pdfrwt>
<totfact> 0.58331910E+03</totfact>
</mgrwt>
</event>
<event>
 8    2  0.7478846E-004  0.1429790E+03  0.7818608E-02  0.1219636E+00
         -1   -1    0    0    0  501 -0.00000000000E+00  0.00000000000E+00  0.98013506669E+01  0.98013519628E+01  0.50400000000E-02 0.  1.
          1   -1    0    0  501    0  0.00000000000E+00 -0.00000000000E+00 -0.17066823952E+04  0.17066823952E+04  0.50400000000E-02 0. -1.
         25    2    1    2    0    0 -0.68245813576E+02  0.12712596190E+02 -0.10005086960E+04  0.10106733692E+04  0.12499562869E+03 0.  0.
         23    2    1    2    0    0  0.68245813576E+02 -0.12712596190E+02 -0.69637234845E+03  0.70581037792E+03  0.91731895908E+02 0.  0.
        -11    1    4    4    0    0  0.45882786346E+02  0.37993081512E+02 -0.35042735778E+03  0.35545469108E+03  0.51100000000E-03 0. -1.
         11    1    4    4    0    0  0.22363027230E+02 -0.50705677702E+02 -0.34594499067E+03  0.35035568685E+03  0.51100000000E-03 0.  1.
    9000005    1    3    3    0    0 -0.62675634840E+02 -0.32935396242E+02 -0.85818497761E+03  0.86110128982E+03  0.10000000000E+01 0.  0.
    9000005    1    3    3    0    0 -0.55701787360E+01  0.45647992432E+02 -0.14232371843E+03  0.14957207938E+03  0.10000000000E+01 0.  0.
<mgrwt>
<rscale>  0 0.13541446E+03</rscale>
<asrwt>0</asrwt>
<pdfrwt beam="2">  1        1 0.26256629E+00 0.14297905E+03</pdfrwt>
<pdfrwt beam="1">  1       -1 0.15079016E-02 0.14297905E+03</pdfrwt>
<totfact> 0.53464012E+03</totfact>
</mgrwt>
</event>
<event>
 8    2  0.7478846E-004  0.1340783E+03  0.7818608E-02  0.1233824E+00
          1   -1    0    0  501    0  0.00000000000E+00  0.00000000000E+00  0.48365419811E+03  0.48365419813E+03  0.50400000000E-02 0. -1.
         -1   -1    0    0    0  501 -0.00000000000E+00 -0.00000000000E+00 -0.30231637731E+02  0.30231638151E+02  0.50400000000E-02 0.  1.
         25    2    1    2    0    0  0.23937135409E+01  0.48428839276E+02  0.29987903967E+03  0.32848807729E+03  0.12500358454E+03 0.  0.
         23    2    1    2    0    0 -0.23937135409E+01 -0.48428839276E+02  0.15354352070E+03  0.18539775900E+03  0.91900130322E+02 0.  0.
        -11    1    4    4    0    0 -0.22512031819E+02 -0.53024659897E+01  0.13048248174E+03  0.13251636036E+03  0.51100000000E-03 0. -1.
         11    1    4    4    0    0  0.20118318278E+02 -0.43126373286E+02  0.23061038959E+02  0.52881398632E+02  0.51100000000E-03 0.  1.
    9000005    1    3    3    0    0 -0.27904505310E+02 -0.35173807342E+02  0.11007320316E+03  0.11888216096E+03  0.10000000000E+01 0.  0.
    9000005    1    3    3    0    0  0.30298218851E+02  0.83602646617E+02  0.18980583651E+03  0.20960591633E+03  0.10000000000E+01 0.  0.
<mgrwt>
<rscale>  0 0.12579988E+03</rscale>
<asrwt>0</asrwt>
<pdfrwt beam="1">  1        1 0.74408345E-01 0.13407826E+03</pdfrwt>
<pdfrwt beam="2">  1       -1 0.46510208E-02 0.13407826E+03</pdfrwt>
<totfact> 0.88292137E+03</totfact>
</mgrwt>
</event>
<event>
 8    2  0.7478846E-004  0.1419108E+03  0.7818608E-02  0.1221188E+00
         -1   -1    0    0    0  501 -0.00000000000E+00  0.00000000000E+00  0.81631154667E+02  0.81631154823E+02  0.50400000000E-02 0.  1.
          1   -1    0    0  501    0  0.00000000000E+00 -0.00000000000E+00 -0.21521321225E+03  0.21521321231E+03  0.50400000000E-02 0. -1.
         25    2    1    2    0    0 -0.62590247530E+02  0.24388561187E+02 -0.11234035029E+03  0.18099453846E+03  0.12500531047E+03 0.  0.
         23    2    1    2    0    0  0.62590247530E+02 -0.24388561187E+02 -0.21241707293E+02  0.11584982867E+03  0.91965383011E+02 0.  0.
        -11    1    4    4    0    0  0.47707792322E+02 -0.44229049729E+02  0.19707591311E+02  0.67975226691E+02  0.51100000000E-03 0.  1.
         11    1    4    4    0    0  0.14882455207E+02  0.19840488542E+02 -0.40949298604E+02  0.47874601982E+02  0.51100000000E-03 0. -1.
    9000005    1    3    3    0    0 -0.45620958941E+02  0.16329463516E+02  0.16187253993E+02  0.51097460458E+02  0.10000000000E+01 0.  0.
    9000005    1    3    3    0    0 -0.16969288588E+02  0.80590976714E+01 -0.12852760428E+03  0.12989707800E+03  0.10000000000E+01 0.  0.
<mgrwt>
<rscale>  0 0.13431636E+03</rscale>
<asrwt>0</asrwt>
<pdfrwt beam="2">  1        1 0.33109725E-01 0.14191078E+03</pdfrwt>
<pdfrwt beam="1">  1       -1 0.12558639E-01 0.14191078E+03</pdfrwt>
<totfact> 0.54546481E+03</totfact>
</mgrwt>
</event>
<event>
 8    2  0.7478846E-004  0.1938630E+03  0.7818608E-02  0.1159831E+00
          1   -1    0    0  501    0  0.00000000000E+00  0.00000000000E+00  0.55404861335E+03  0.55404861338E+03  0.50400000000E-02 0. -1.
         -1   -1    0    0    0  501 -0.00000000000E+00 -0.00000000000E+00 -0.60975725310E+02  0.60975725519E+02  0.50400000000E-02 0.  1.
         25    2    1    2    0    0  0.22073826908E+02  0.14652470462E+03  0.24438758256E+03  0.31194254579E+03  0.12500447378E+03 0.  0.
         23    2    1    2    0    0 -0.22073826908E+02 -0.14652470462E+03  0.24868530548E+03  0.30308179311E+03  0.89763295694E+02 0.  0.
        -11    1    4    4    0    0  0.28703490804E+02 -0.97355649344E+02  0.12981264934E+03  0.16478269561E+03  0.51100000000E-03 0. -1.
         11    1    4    4    0    0 -0.50777317712E+02 -0.49169055273E+02  0.11887265614E+03  0.13829909750E+03  0.51100000000E-03 0.  1.
    9000005    1    3    3    0    0 -0.22491886890E+02  0.34427399914E+02  0.15877061057E+03  0.16401291907E+03  0.10000000000E+01 0.  0.
    9000005    1    3    3    0    0  0.44565713797E+02  0.11209730470E+03  0.85616971993E+02  0.14792962672E+03  0.10000000000E+01 0.  0.
<mgrwt>
<rscale>  0 0.18848944E+03</rscale>
<asrwt>0</asrwt>
<pdfrwt beam="1">  1        1 0.85238248E-01 0.19386300E+03</pdfrwt>
<pdfrwt beam="2">  1       -1 0.93808809E-02 0.19386300E+03</pdfrwt>
<totfact> 0.26154475E+03</totfact>
</mgrwt>
</event>
<event>
 8    2  0.7478846E-004  0.2219790E+03  0.7818608E-02  0.1135776E+00
          1   -1    0    0  501    0  0.00000000000E+00  0.00000000000E+00  0.35379373063E+03  0.35379373067E+03  0.50400000000E-02 0. -1.
         -1   -1    0    0    0  501 -0.00000000000E+00 -0.00000000000E+00 -0.13312687530E+03  0.13312687539E+03  0.50400000000E-02 0.  1.
         25    2    1    2    0    0 -0.16930517278E+03  0.70610744427E+02  0.69527009012E+02  0.23261269487E+03  0.12499816827E+03 0.  0.
         23    2    1    2    0    0  0.16930517278E+03 -0.70610744427E+02  0.15113984632E+03  0.25430791119E+03  0.90438607831E+02 0.  0.
        -11    1    4    4    0    0  0.14313210610E+02  0.42517140893E+01 -0.10444958558E+02  0.18222025963E+02  0.51100000000E-03 0.  1.
         11    1    4    4    0    0  0.15499196217E+03 -0.74862458516E+02  0.16158480488E+03  0.23608588522E+03  0.51100000000E-03 0. -1.
    9000005    1    3    3    0    0  0.44256256156E+01 -0.14317206324E+02 -0.15304853996E+02  0.21443113459E+02  0.10000000000E+01 0.  0.
    9000005    1    3    3    0    0 -0.17373079840E+03  0.84927950750E+02  0.84831863008E+02  0.21116958141E+03  0.10000000000E+01 0.  0.
<mgrwt>
<rscale>  0 0.21747978E+03</rscale>
<asrwt>0</asrwt>
<pdfrwt beam="1">  1        1 0.54429804E-01 0.22197896E+03</pdfrwt>
<pdfrwt beam="2">  1       -1 0.20481058E-01 0.22197896E+03</pdfrwt>
<totfact> 0.13721841E+03</totfact>
</mgrwt>
</event>
<event>
 8    2  0.7478846E-004  0.1331644E+03  0.7818608E-02  0.1235160E+00
          1   -1    0    0  501    0  0.00000000000E+00  0.00000000000E+00  0.61346725631E+03  0.61346725633E+03  0.50400000000E-02 0. -1.
         -1   -1    0    0    0  501 -0.00000000000E+00 -0.00000000000E+00 -0.33392912616E+02  0.33392912996E+02  0.50400000000E-02 0.  1.
         25    2    1    2    0    0 -0.17359738810E+02  0.42479528622E+02  0.49655506610E+03  0.51410086957E+03  0.12500759794E+03 0.  0.
         23    2    1    2    0    0  0.17359738810E+02 -0.42479528622E+02  0.83519277595E+02  0.13275929976E+03  0.92432088899E+02 0.  0.
        -11    1    4    4    0    0 -0.44304807992E+00 -0.36317741667E+02  0.10083164024E+03  0.10717366433E+03  0.51100000000E-03 0. -1.
         11    1    4    4    0    0  0.17802786890E+02 -0.61617869550E+01 -0.17312362647E+02  0.25585635427E+02  0.51100000000E-03 0.  1.
    9000005    1    3    3    0    0 -0.46964874255E+02  0.43937001939E+02  0.11805050309E+03  0.13443615895E+03  0.10000000000E+01 0.  0.
    9000005    1    3    3    0    0  0.29605135445E+02 -0.14574733167E+01  0.37850456301E+03  0.37966471062E+03  0.10000000000E+01 0.  0.
<mgrwt>
<rscale>  0 0.12494178E+03</rscale>
<asrwt>0</asrwt>
<pdfrwt beam="1">  1        1 0.94379576E-01 0.13316445E+03</pdfrwt>
<pdfrwt beam="2">  1       -1 0.51373713E-02 0.13316445E+03</pdfrwt>
<totfact> 0.55552545E+03</totfact>
</mgrwt>
</event>
<event>
 8    2  0.7478846E-004  0.1650102E+03  0.7818608E-02  0.1191152E+00
         -1   -1    0    0    0  501 -0.00000000000E+00  0.00000000000E+00  0.10870006467E+02  0.10870007635E+02  0.50400000000E-02 0.  1.
          1   -1    0    0  501    0  0.00000000000E+00 -0.00000000000E+00 -0.24206148019E+04  0.24206148019E+04  0.50400000000E-02 0. -1.
         25    2    1    2    0    0  0.85036960998E+02 -0.66118005306E+02 -0.86678141295E+03  0.88234821656E+03  0.12500192823E+03 0.  0.
         23    2    1    2    0    0 -0.85036960998E+02  0.66118005306E+02 -0.15429633824E+04  0.15491365929E+04  0.86517678404E+02 0.  0.
        -11    1    4    4    0    0 -0.70934399735E+02  0.82203631183E+01 -0.58883586596E+03  0.59315001516E+03  0.51100000000E-03 0.  1.
         11    1    4    4    0    0 -0.14102561263E+02  0.57897642187E+02 -0.95412751647E+03  0.95598657777E+03  0.51100000000E-03 0. -1.
    9000005    1    3    3    0    0  0.11209034450E+03 -0.61153170493E+02 -0.56185966316E+03  0.57618680710E+03  0.10000000000E+01 0.  0.
    9000005    1    3    3    0    0 -0.27053383505E+02 -0.49648348126E+01 -0.30492174980E+03  0.30616140946E+03  0.10000000000E+01 0.  0.
<mgrwt>
<rscale>  0 0.15784420E+03</rscale>
<asrwt>0</asrwt>
<pdfrwt beam="2">  1        1 0.37240185E+00 0.16501017E+03</pdfrwt>
<pdfrwt beam="1">  1       -1 0.16723107E-02 0.16501017E+03</pdfrwt>
<totfact> 0.16064649E+03</totfact>
</mgrwt>
</event>
<event>
 8    2  0.7478846E-004  0.1258947E+03  0.7818608E-02  0.1249420E+00
         -1   -1    0    0    0  501 -0.00000000000E+00  0.00000000000E+00  0.77047595278E+01  0.77047611763E+01  0.50400000000E-02 0.  1.
          1   -1    0    0  501    0  0.00000000000E+00 -0.00000000000E+00 -0.15926817182E+04  0.15926817182E+04  0.50400000000E-02 0. -1.
         25    2    1    2    0    0 -0.43095009652E+01  0.14370206358E+02 -0.10652542571E+04  0.10726677483E+04  0.12499756596E+03 0.  0.
         23    2    1    2    0    0  0.43095009652E+01 -0.14370206358E+02 -0.51972270162E+03  0.52771873106E+03  0.90279000352E+02 0.  0.
        -11    1    4    4    0    0 -0.16015459332E+02 -0.49213643347E+01 -0.14968446224E+02  0.22467068058E+02  0.51100000000E-03 0.  1.
         11    1    4    4    0    0  0.20324960297E+02 -0.94488420237E+01 -0.50475425539E+03  0.50525166300E+03  0.51100000000E-03 0. -1.
    9000005    1    3    3    0    0 -0.44242100653E+02 -0.39155460146E+02 -0.50907161657E+03  0.51248943825E+03  0.10000000000E+01 0.  0.
    9000005    1    3    3    0    0  0.39932599688E+02  0.53525666505E+02 -0.55618264049E+03  0.56017831007E+03  0.10000000000E+01 0.  0.
<mgrwt>
<rscale>  0 0.11624680E+03</rscale>
<asrwt>0</asrwt>
<pdfrwt beam="2">  1        1 0.24502770E+00 0.12589466E+03</pdfrwt>
<pdfrwt beam="1">  1       -1 0.11853490E-02 0.12589466E+03</pdfrwt>
<totfact> 0.88846039E+03</totfact>
</mgrwt>
</event>
<event>
 8    2  0.7478846E-004  0.1579475E+03  0.7818608E-02  0.1199127E+00
         -1   -1    0    0    0  501 -0.00000000000E+00  0.00000000000E+00  0.12033630818E+03  0.12033630829E+03  0.50400000000E-02 0.  1.
          1   -1    0    0  501    0  0.00000000000E+00 -0.00000000000E+00 -0.40482418474E+03  0.40482418478E+03  0.50400000000E-02 0. -1.
         25    2    1    2    0    0  0.31946052971E+02 -0.91114092375E+02 -0.34518945231E+03  0.37960925189E+03  0.12500039202E+03 0.  0.
         23    2    1    2    0    0 -0.31946052971E+02  0.91114092375E+02  0.60701575743E+02  0.14555124118E+03  0.90433148681E+02 0.  0.
        -11    1    4    4    0    0 -0.20003613768E+02  0.27100918466E+01  0.52167565513E+02  0.55936965000E+02  0.51100000000E-03 0.  1.
         11    1    4    4    0    0 -0.11942439203E+02  0.88404000529E+02  0.85340102297E+01  0.89614276176E+02  0.51100000000E-03 0. -1.
    9000005    1    3    3    0    0  0.58293592554E+02 -0.30089805753E+01 -0.80815509105E+02  0.99696255741E+02  0.10000000000E+01 0.  0.
    9000005    1    3    3    0    0 -0.26347539582E+02 -0.88105111800E+02 -0.26437394320E+03  0.27991299615E+03  0.10000000000E+01 0.  0.
<mgrwt>
<rscale>  0 0.15110050E+03</rscale>
<asrwt>0</asrwt>
<pdfrwt beam="2">  1        1 0.62280643E-01 0.15794754E+03</pdfrwt>
<pdfrwt beam="1">  1       -1 0.18513278E-01 0.15794754E+03</pdfrwt>
<totfact> 0.13537189E+03</totfact>
</mgrwt>
</event>
<event>
 8    2  0.7478846E-004  0.1609055E+03  0.7818608E-02  0.1195902E+00
         -1   -1    0    0    0  501 -0.00000000000E+00  0.00000000000E+00  0.11718003733E+02  0.11718004817E+02  0.50400000000E-02 0.  1.
          1   -1    0    0  501    0  0.00000000000E+00 -0.00000000000E+00 -0.18810730708E+04  0.18810730708E+04  0.50400000000E-02 0. -1.
         25    2    1    2    0    0 -0.42712705930E+02 -0.91872818490E+02 -0.11212415857E+04  0.11327282415E+04  0.12500234189E+03 0.  0.
         23    2    1    2    0    0  0.42712705930E+02  0.91872818490E+02 -0.74811348130E+03  0.76006283410E+03  0.88072361415E+02 0.  0.
        -11    1    4    4    0    0  0.33277338732E+02  0.20505525276E+02 -0.91290775763E+02  0.99306916071E+02  0.51100000000E-03 0.  1.
         11    1    4    4    0    0  0.94353671979E+01  0.71367293215E+02 -0.65682270554E+03  0.66075591803E+03  0.51100000000E-03 0. -1.
    9000005    1    3    3    0    0 -0.44152929006E+01 -0.11478060084E+03 -0.87023766718E+03  0.87778623738E+03  0.10000000000E+01 0.  0.
    9000005    1    3    3    0    0 -0.38297413029E+02  0.22907782351E+02 -0.25100391854E+03  0.25494200411E+03  0.10000000000E+01 0.  0.
<mgrwt>
<rscale>  0 0.15378101E+03</rscale>
<asrwt>0</asrwt>
<pdfrwt beam="2">  1        1 0.28939562E+00 0.16090549E+03</pdfrwt>
<pdfrwt beam="1">  1       -1 0.18027714E-02 0.16090549E+03</pdfrwt>
<totfact> 0.32049086E+03</totfact>
</mgrwt>
</event>
<event>
 8    2  0.7478846E-004  0.1300371E+03  0.7818608E-02  0.1239293E+00
         -1   -1    0    0    0  501 -0.00000000000E+00  0.00000000000E+00  0.28454554020E+02  0.28454554466E+02  0.50400000000E-02 0.  1.
          1   -1    0    0  501    0  0.00000000000E+00 -0.00000000000E+00 -0.63702660009E+03  0.63702660011E+03  0.50400000000E-02 0. -1.
         25    2    1    2    0    0  0.28232377302E+02 -0.22095753977E+02 -0.16352630292E+03  0.20892704050E+03  0.12499746811E+03 0.  0.
         23    2    1    2    0    0 -0.28232377302E+02  0.22095753977E+02 -0.44504574315E+03  0.45655411408E+03  0.95344932291E+02 0.  0.
        -11    1    4    4    0    0  0.24593792294E+02 -0.17629213695E+02 -0.21777624907E+03  0.21986845716E+03  0.51100000000E-03 0. -1.
         11    1    4    4    0    0 -0.52826169596E+02  0.39724967672E+02 -0.22726949408E+03  0.23668565691E+03  0.51100000000E-03 0.  1.
    9000005    1    3    3    0    0  0.62193094609E+02  0.28923438902E+02 -0.81450974923E+02  0.10648853296E+03  0.10000000000E+01 0.  0.
    9000005    1    3    3    0    0 -0.33960717307E+02 -0.51019192879E+02 -0.82075327998E+02  0.10243850754E+03  0.10000000000E+01 0.  0.
<mgrwt>
<rscale>  0 0.12233592E+03</rscale>
<asrwt>0</asrwt>
<pdfrwt beam="2">  1        1 0.98004081E-01 0.13003714E+03</pdfrwt>
<pdfrwt beam="1">  1       -1 0.43776242E-02 0.13003714E+03</pdfrwt>
<totfact> 0.66706087E+03</totfact>
</mgrwt>
</event>
<event>
 8    2  0.7478846E-004  0.1892297E+03  0.7818608E-02  0.1163553E+00
          1   -1    0    0  501    0  0.00000000000E+00  0.00000000000E+00  0.79999515572E+03  0.79999515574E+03  0.50400000000E-02 0. -1.
         -1   -1    0    0    0  501 -0.00000000000E+00 -0.00000000000E+00 -0.99729254281E+02  0.99729254408E+02  0.50400000000E-02 0.  1.
         25    2    1    2    0    0 -0.14056823495E+03 -0.20593456542E+02  0.10949461249E+02  0.18954625635E+03  0.12499749384E+03 0.  0.
         23    2    1    2    0    0  0.14056823495E+03  0.20593456542E+02  0.68931644019E+03  0.71017815380E+03  0.94933325436E+02 0.  0.
        -11    1    4    4    0    0 -0.74262119614E+01 -0.42675202152E+01  0.57103825796E+01  0.10294115909E+02  0.51100000000E-03 0.  1.
         11    1    4    4    0    0  0.14799444691E+03  0.24860976757E+02  0.68360605761E+03  0.69988403789E+03  0.51100000000E-03 0. -1.
    9000005    1    3    3    0    0 -0.12139654369E+03  0.22736254529E+02  0.44714408238E+02  0.13135614334E+03  0.10000000000E+01 0.  0.
    9000005    1    3    3    0    0 -0.19171691260E+02 -0.43329711071E+02 -0.33764946989E+02  0.58190113013E+02  0.10000000000E+01 0.  0.
<mgrwt>
<rscale>  0 0.18446212E+03</rscale>
<asrwt>0</asrwt>
<pdfrwt beam="1">  1        1 0.12307618E+00 0.18922973E+03</pdfrwt>
<pdfrwt beam="2">  1       -1 0.15342962E-01 0.18922973E+03</pdfrwt>
<totfact> 0.71940729E+02</totfact>
</mgrwt>
</event>
<event>
 8    2  0.7478846E-004  0.1739929E+03  0.7818608E-02  0.1180033E+00
         -1   -1    0    0    0  501 -0.00000000000E+00  0.00000000000E+00  0.51838557593E+03  0.51838557595E+03  0.50400000000E-02 0.  1.
          1   -1    0    0  501    0  0.00000000000E+00 -0.00000000000E+00 -0.56800562383E+02  0.56800562607E+02  0.50400000000E-02 0. -1.
         25    2    1    2    0    0  0.10799293622E+03 -0.54650904990E+02  0.15314772067E+03  0.23179250788E+03  0.12499738667E+03 0.  0.
         23    2    1    2    0    0 -0.10799293622E+03  0.54650904990E+02  0.30843729287E+03  0.34339363068E+03  0.90202141133E+02 0.  0.
        -11    1    4    4    0    0 -0.75347560837E+02  0.77098097848E+02  0.25517823746E+03  0.27701498965E+03  0.51100000000E-03 0.  1.
         11    1    4    4    0    0 -0.32645375383E+02 -0.22447192858E+02  0.53259055407E+02  0.66378641024E+02  0.51100000000E-03 0. -1.
    9000005    1    3    3    0    0  0.78890595142E+02 -0.23668286518E+02  0.16771207971E+03  0.18684821505E+03  0.10000000000E+01 0.  0.
    9000005    1    3    3    0    0  0.29102341077E+02 -0.30982618473E+02 -0.14564359038E+02  0.44944292828E+02  0.10000000000E+01 0.  0.
<mgrwt>
<rscale>  0 0.16792151E+03</rscale>
<asrwt>0</asrwt>
<pdfrwt beam="2">  1        1 0.87385481E-02 0.17399294E+03</pdfrwt>
<pdfrwt beam="1">  1       -1 0.79751627E-01 0.17399294E+03</pdfrwt>
<totfact> 0.12503309E+03</totfact>
</mgrwt>
</event>
<event>
 8    2  0.7478846E-004  0.1624475E+03  0.7818608E-02  0.1193296E+00
         -1   -1    0    0    0  501 -0.00000000000E+00  0.00000000000E+00  0.13622249028E+02  0.13622249960E+02  0.50400000000E-02 0.  1.
          1   -1    0    0  501    0  0.00000000000E+00 -0.00000000000E+00 -0.17487175668E+04  0.17487175668E+04  0.50400000000E-02 0. -1.
         25    2    1    2    0    0  0.99680870931E+02 -0.28787259031E+02 -0.11341101359E+04  0.11456853819E+04  0.12499684622E+03 0.  0.
         23    2    1    2    0    0 -0.99680870931E+02  0.28787259031E+02 -0.60098518182E+03  0.61665443485E+03  0.91183994958E+02 0.  0.
        -11    1    4    4    0    0 -0.14753491729E+02  0.43512137655E+02 -0.30263583846E+03  0.30610361377E+03  0.51100000000E-03 0.  1.
         11    1    4    4    0    0 -0.84927379203E+02 -0.14724878624E+02 -0.29834934336E+03  0.31055082108E+03  0.51100000000E-03 0. -1.
    9000005    1    3    3    0    0  0.47774632430E+02  0.43560475902E+02 -0.66976988741E+03  0.67288381809E+03  0.10000000000E+01 0.  0.
    9000005    1    3    3    0    0  0.51906238501E+02 -0.72347734933E+02 -0.46434024849E+03  0.47280156378E+03  0.10000000000E+01 0.  0.
<mgrwt>
<rscale>  0 0.15599320E+03</rscale>
<asrwt>0</asrwt>
<pdfrwt beam="2">  1        1 0.26903329E+00 0.16244751E+03</pdfrwt>
<pdfrwt beam="1">  1       -1 0.20957321E-02 0.16244751E+03</pdfrwt>
<totfact> 0.31321893E+03</totfact>
</mgrwt>
</event>
<event>
 8    2  0.7478846E-004  0.1294822E+03  0.7818608E-02  0.1250308E+00
          1   -1    0    0  501    0  0.00000000000E+00  0.00000000000E+00  0.37132757561E+03  0.37132757565E+03  0.50400000000E-02 0. -1.
         -1   -1    0    0    0  501 -0.00000000000E+00 -0.00000000000E+00 -0.34988885706E+02  0.34988886069E+02  0.50400000000E-02 0.  1.
         25    2    1    2    0    0  0.13939867166E+02  0.30760435861E+02  0.27315429018E+03  0.30228942258E+03  0.12500041778E+03 0.  0.
         23    2    1    2    0    0 -0.13939867166E+02 -0.30760435861E+02  0.63184399725E+02  0.10402703914E+03  0.75424347481E+02 0.  0.
        -11    1    4    4    0    0 -0.15422282472E+02 -0.34330073343E+00  0.70943181213E+02  0.72600961515E+02  0.51100000000E-03 0. -1.
         11    1    4    4    0    0  0.14824153058E+01 -0.30417135127E+02 -0.77587814882E+01  0.31426077626E+02  0.51100000000E-03 0.  1.
    9000005    1    3    3    0    0  0.20860606729E+02  0.76144967563E+02  0.20881330438E+03  0.22324250734E+03  0.10000000000E+01 0.  0.
    9000005    1    3    3    0    0 -0.69207395630E+01 -0.45384531702E+02  0.64340985805E+02  0.79046915236E+02  0.10000000000E+01 0.  0.
<mgrwt>
<rscale>  0 0.11573239E+03</rscale>
<asrwt>0</asrwt>
<pdfrwt beam="1">  1        1 0.57127320E-01 0.12948216E+03</pdfrwt>
<pdfrwt beam="2">  1       -1 0.53829055E-02 0.12948216E+03</pdfrwt>
<totfact> 0.99252481E+03</totfact>
</mgrwt>
</event>
<event>
 8    2  0.7478846E-004  0.1313698E+03  0.7818608E-02  0.1239646E+00
          1   -1    0    0  501    0  0.00000000000E+00  0.00000000000E+00  0.22458310299E+03  0.22458310305E+03  0.50400000000E-02 0. -1.
         -1   -1    0    0    0  501 -0.00000000000E+00 -0.00000000000E+00 -0.58637902442E+02  0.58637902659E+02  0.50400000000E-02 0.  1.
         25    2    1    2    0    0  0.32385032419E+02 -0.24179950587E+02  0.98129733259E+02  0.16397401427E+03  0.12499828987E+03 0.  0.
         23    2    1    2    0    0 -0.32385032419E+02  0.24179950587E+02  0.67815467291E+02  0.11924699144E+03  0.89372518302E+02 0.  0.
        -11    1    4    4    0    0 -0.11914555842E+02  0.30057851545E+02  0.85598305043E+02  0.91501371066E+02  0.51100000000E-03 0. -1.
         11    1    4    4    0    0 -0.20470476577E+02 -0.58779009584E+01 -0.17782837752E+02  0.27745620371E+02  0.51100000000E-03 0.  1.
    9000005    1    3    3    0    0  0.71324356658E+02  0.13934708553E+02  0.35289447680E+02  0.80794090580E+02  0.10000000000E+01 0.  0.
    9000005    1    3    3    0    0 -0.38939324239E+02 -0.38114659140E+02  0.62840285579E+02  0.83179923691E+02  0.10000000000E+01 0.  0.
<mgrwt>
<rscale>  0 0.12211633E+03</rscale>
<asrwt>0</asrwt>
<pdfrwt beam="1">  1        1 0.34551247E-01 0.13136983E+03</pdfrwt>
<pdfrwt beam="2">  1       -1 0.90212156E-02 0.13136983E+03</pdfrwt>
<totfact> 0.85453528E+03</totfact>
</mgrwt>
</event>
<event>
 8    2  0.7478846E-004  0.1420839E+03  0.7818608E-02  0.1221226E+00
          1   -1    0    0  501    0  0.00000000000E+00  0.00000000000E+00  0.12630840009E+04  0.12630840009E+04  0.50400000000E-02 0. -1.
         -1   -1    0    0    0  501 -0.00000000000E+00 -0.00000000000E+00 -0.20943277579E+02  0.20943278186E+02  0.50400000000E-02 0.  1.
         25    2    1    2    0    0  0.31286128411E+02  0.59868802944E+02  0.10600065655E+04  0.10694866770E+04  0.12499895191E+03 0.  0.
         23    2    1    2    0    0 -0.31286128411E+02 -0.59868802944E+02  0.18213415781E+03  0.21454060209E+03  0.91058899101E+02 0.  0.
        -11    1    4    4    0    0 -0.60560357129E+01 -0.48594384264E+02  0.18031475215E+03  0.18684619234E+03  0.51100000000E-03 0. -1.
         11    1    4    4    0    0 -0.25230092698E+02 -0.11274418680E+02  0.18194056689E+01  0.27694409750E+02  0.51100000000E-03 0.  1.
    9000005    1    3    3    0    0  0.69418536110E+02  0.14150170222E+02  0.35700139238E+03  0.36396449639E+03  0.10000000000E+01 0.  0.
    9000005    1    3    3    0    0 -0.38132407699E+02  0.45718632721E+02  0.70300517309E+03  0.70552218058E+03  0.10000000000E+01 0.  0.
<mgrwt>
<rscale>  0 0.13428945E+03</rscale>
<asrwt>0</asrwt>
<pdfrwt beam="1">  1        1 0.19432065E+00 0.14208390E+03</pdfrwt>
<pdfrwt beam="2">  1       -1 0.32220422E-02 0.14208390E+03</pdfrwt>
<totfact> 0.34680808E+03</totfact>
</mgrwt>
</event>
<event>
 8    2  0.7478846E-004  0.1264950E+03  0.7818608E-02  0.1234159E+00
          1   -1    0    0  501    0  0.00000000000E+00  0.00000000000E+00  0.28426021070E+02  0.28426021517E+02  0.50400000000E-02 0. -1.
         -1   -1    0    0    0  501 -0.00000000000E+00 -0.00000000000E+00 -0.57952922024E+03  0.57952922026E+03  0.50400000000E-02 0.  1.
         25    2    1    2    0    0  0.11246335014E+02 -0.15676795769E+02 -0.20727655406E+03  0.24282616786E+03  0.12501494293E+03 0.  0.
         23    2    1    2    0    0 -0.11246335014E+02  0.15676795769E+02 -0.34382664510E+03  0.36512907392E+03  0.12136818677E+03 0.  0.
        -11    1    4    4    0    0  0.15705109153E+02 -0.47605999325E+02 -0.19221349407E+03  0.19864291814E+03  0.51100000000E-03 0.  1.
         11    1    4    4    0    0 -0.26951444167E+02  0.63282795094E+02 -0.15161315104E+03  0.16648615578E+03  0.51100000000E-03 0. -1.
    9000005    1    3    3    0    0  0.34838919907E+02  0.34164416485E+02 -0.30278959716E+02  0.57434946640E+02  0.10000000000E+01 0.  0.
    9000005    1    3    3    0    0 -0.23592584893E+02 -0.49841212254E+02 -0.17699759435E+03  0.18539122122E+03  0.10000000000E+01 0.  0.
<mgrwt>
<rscale>  0 0.12558448E+03</rscale>
<asrwt>0</asrwt>
<pdfrwt beam="1">  1        1 0.43732345E-02 0.12649497E+03</pdfrwt>
<pdfrwt beam="2">  1       -1 0.89158333E-01 0.12649497E+03</pdfrwt>
<totfact> 0.25062472E+03</totfact>
</mgrwt>
</event>
<event>
 8    2  0.7478846E-004  0.1657505E+03  0.7818608E-02  0.1188635E+00
         -1   -1    0    0    0  501 -0.00000000000E+00  0.00000000000E+00  0.10119161457E+03  0.10119161469E+03  0.50400000000E-02 0.  1.
          1   -1    0    0  501    0  0.00000000000E+00 -0.00000000000E+00 -0.29561112283E+03  0.29561112287E+03  0.50400000000E-02 0. -1.
         25    2    1    2    0    0 -0.75401340588E+02  0.78497629359E+02 -0.19066703837E+03  0.25264035148E+03  0.12500395073E+03 0.  0.
         23    2    1    2    0    0  0.75401340588E+02 -0.78497629359E+02 -0.37524698884E+01  0.14416238608E+03  0.94453547063E+02 0.  0.
        -11    1    4    4    0    0 -0.58031969835E-01 -0.49428113084E+02  0.28553684091E+02  0.57082874894E+02  0.51100000000E-03 0. -1.
         11    1    4    4    0    0  0.75459372558E+02 -0.29069516275E+02 -0.32306153979E+02  0.87079511186E+02  0.51100000000E-03 0.  1.
    9000005    1    3    3    0    0  0.36836263980E+01  0.81336378203E+02 -0.12794331526E+03  0.15165641247E+03  0.10000000000E+01 0.  0.
    9000005    1    3    3    0    0 -0.79084966986E+02 -0.28387488443E+01 -0.62723723115E+02  0.10098393902E+03  0.10000000000E+01 0.  0.
<mgrwt>
<rscale>  0 0.16005429E+03</rscale>
<asrwt>0</asrwt>
<pdfrwt beam="2">  1        1 0.45478634E-01 0.16575050E+03</pdfrwt>
<pdfrwt beam="1">  1       -1 0.15567941E-01 0.16575050E+03</pdfrwt>
<totfact> 0.26486467E+03</totfact>
</mgrwt>
</event>
<event>
 8    2  0.7478846E-004  0.3928289E+03  0.7818608E-02  0.1047100E+00
          1   -1    0    0  501    0  0.00000000000E+00  0.00000000000E+00  0.16697142096E+04  0.16697142096E+04  0.50400000000E-02 0. -1.
         -1   -1    0    0    0  501 -0.00000000000E+00 -0.00000000000E+00 -0.90436645361E+02  0.90436645501E+02  0.50400000000E-02 0.  1.
         25    2    1    2    0    0 -0.33712580507E+03  0.15822680771E+03  0.83148467659E+03  0.91960932388E+03  0.12500004012E+03 0.  0.
         23    2    1    2    0    0  0.33712580507E+03 -0.15822680771E+03  0.74779288766E+03  0.84054153125E+03  0.92878047982E+02 0.  0.
        -11    1    4    4    0    0  0.23083431063E+03 -0.90700677277E+02  0.39996333195E+03  0.47061848532E+03  0.51100000000E-03 0.  1.
         11    1    4    4    0    0  0.10629149444E+03 -0.67526130433E+02  0.34782955571E+03  0.36992304593E+03  0.51100000000E-03 0. -1.
    9000005    1    3    3    0    0 -0.28925739551E+03  0.10116111795E+03  0.56313571386E+03  0.64111328552E+03  0.10000000000E+01 0.  0.
    9000005    1    3    3    0    0 -0.47868409555E+02  0.57065689764E+02  0.26834896273E+03  0.27849603836E+03  0.10000000000E+01 0.  0.
<mgrwt>
<rscale>  0 0.39055640E+03</rscale>
<asrwt>0</asrwt>
<pdfrwt beam="1">  1        1 0.25687912E+00 0.39282890E+03</pdfrwt>
<pdfrwt beam="2">  1       -1 0.13913330E-01 0.39282890E+03</pdfrwt>
<totfact> 0.19722937E+02</totfact>
</mgrwt>
</event>
<event>
 8    2  0.7478846E-004  0.1399492E+03  0.7818608E-02  0.1224656E+00
         -1   -1    0    0    0  501 -0.00000000000E+00  0.00000000000E+00  0.40398372097E+02  0.40398372412E+02  0.50400000000E-02 0.  1.
          1   -1    0    0  501    0  0.00000000000E+00 -0.00000000000E+00 -0.64332830101E+03  0.64332830103E+03  0.50400000000E-02 0. -1.
         25    2    1    2    0    0 -0.24733290832E+02  0.57861981916E+02 -0.53736081200E+03  0.55528588320E+03  0.12500410064E+03 0.  0.
         23    2    1    2    0    0  0.24733290832E+02 -0.57861981916E+02 -0.65569116905E+02  0.12844079024E+03  0.90763334441E+02 0.  0.
        -11    1    4    4    0    0  0.31127855178E+02  0.87990524105E+01  0.31347319827E+01  0.32499126698E+02  0.51100000000E-03 0.  1.
         11    1    4    4    0    0 -0.63945643462E+01 -0.66661034327E+02 -0.68703848888E+02  0.95941663540E+02  0.51100000000E-03 0. -1.
    9000005    1    3    3    0    0 -0.59802836991E+02  0.56212347413E+02 -0.48711148952E+03  0.49397855270E+03  0.10000000000E+01 0.  0.
    9000005    1    3    3    0    0  0.35069546160E+02  0.16496345035E+01 -0.50249322488E+02  0.61307330494E+02  0.10000000000E+01 0.  0.
<mgrwt>
<rscale>  0 0.13190541E+03</rscale>
<asrwt>0</asrwt>
<pdfrwt beam="2">  1        1 0.98973577E-01 0.13994917E+03</pdfrwt>
<pdfrwt beam="1">  1       -1 0.62151347E-02 0.13994917E+03</pdfrwt>
<totfact> 0.39290547E+03</totfact>
</mgrwt>
</event>
<event>
 8    2  0.7478846E-004  0.1328318E+03  0.7818608E-02  0.1236598E+00
          1   -1    0    0  501    0  0.00000000000E+00  0.00000000000E+00  0.10881706909E+03  0.10881706921E+03  0.50400000000E-02 0. -1.
         -1   -1    0    0    0  501 -0.00000000000E+00 -0.00000000000E+00 -0.12729807036E+03  0.12729807046E+03  0.50400000000E-02 0.  1.
         25    2    1    2    0    0  0.44219475461E+02  0.79750317980E+01  0.31224426046E+01  0.13286844777E+03  0.12500124649E+03 0.  0.
         23    2    1    2    0    0 -0.44219475461E+02 -0.79750317980E+01 -0.21603443877E+02  0.10324669190E+03  0.90411323730E+02 0.  0.
        -11    1    4    4    0    0  0.23422079336E+02  0.12314179401E+01 -0.25781281467E+02  0.34853761130E+02  0.51100000000E-03 0.  1.
         11    1    4    4    0    0 -0.67641554797E+02 -0.92064497381E+01  0.41778375893E+01  0.68392930770E+02  0.51100000000E-03 0. -1.
    9000005    1    3    3    0    0  0.78750559847E+02 -0.26298716933E+02  0.10340105477E+02  0.83673119757E+02  0.10000000000E+01 0.  0.
    9000005    1    3    3    0    0 -0.34531084386E+02  0.34273748731E+02 -0.72176628722E+01  0.49195328013E+02  0.10000000000E+01 0.  0.
<mgrwt>
<rscale>  0 0.12402667E+03</rscale>
<asrwt>0</asrwt>
<pdfrwt beam="1">  1        1 0.16741088E-01 0.13283175E+03</pdfrwt>
<pdfrwt beam="2">  1       -1 0.19584319E-01 0.13283175E+03</pdfrwt>
<totfact> 0.63768819E+03</totfact>
</mgrwt>
</event>
<event>
 8    2  0.7478846E-004  0.1332695E+03  0.7818608E-02  0.1233709E+00
          1   -1    0    0  501    0  0.00000000000E+00  0.00000000000E+00  0.59660256201E+02  0.59660256414E+02  0.50400000000E-02 0. -1.
         -1   -1    0    0    0  501 -0.00000000000E+00 -0.00000000000E+00 -0.27232658394E+03  0.27232658398E+03  0.50400000000E-02 0.  1.
         25    2    1    2    0    0  0.19760547084E+02  0.41775463570E+02 -0.17383174780E+03  0.21903934832E+03  0.12500036396E+03 0.  0.
         23    2    1    2    0    0 -0.19760547084E+02 -0.41775463570E+02 -0.38834579932E+02  0.11294749208E+03  0.95463829749E+02 0.  0.
        -11    1    4    4    0    0 -0.48713689079E+02  0.15179269124E+01 -0.13101652439E+01  0.48754939637E+02  0.51100000000E-03 0. -1.
         11    1    4    4    0    0  0.28953141995E+02 -0.43293390482E+02 -0.37524414688E+02  0.64192552439E+02  0.51100000000E-03 0.  1.
    9000005    1    3    3    0    0 -0.26858538024E+02  0.58458431198E+02 -0.15172754395E+03  0.16480599757E+03  0.10000000000E+01 0.  0.
    9000005    1    3    3    0    0  0.46619085108E+02 -0.16682967629E+02 -0.22104203852E+02  0.54233350746E+02  0.10000000000E+01 0.  0.
<mgrwt>
<rscale>  0 0.12587439E+03</rscale>
<asrwt>0</asrwt>
<pdfrwt beam="1">  1        1 0.91785011E-02 0.13326950E+03</pdfrwt>
<pdfrwt beam="2">  1       -1 0.41896397E-01 0.13326950E+03</pdfrwt>
<totfact> 0.39215927E+03</totfact>
</mgrwt>
</event>
<event>
 8    2  0.7478846E-004  0.1648723E+03  0.7818608E-02  0.1191973E+00
         -1   -1    0    0    0  501 -0.00000000000E+00  0.00000000000E+00  0.40753463434E+02  0.40753463745E+02  0.50400000000E-02 0.  1.
          1   -1    0    0  501    0  0.00000000000E+00 -0.00000000000E+00 -0.56145198821E+03  0.56145198823E+03  0.50400000000E-02 0. -1.
         25    2    1    2    0    0 -0.10717736676E+03 -0.84346639674E+01 -0.31613942107E+03  0.35654874224E+03  0.12499896215E+03 0.  0.
         23    2    1    2    0    0  0.10717736676E+03  0.84346639674E+01 -0.20455910371E+03  0.24565670974E+03  0.83334630432E+02 0.  0.
        -11    1    4    4    0    0 -0.11609163000E+01  0.25963826622E+02 -0.33139978633E+02  0.42115628971E+02  0.51100000000E-03 0.  1.
         11    1    4    4    0    0  0.10833828306E+03 -0.17529162655E+02 -0.17141912508E+03  0.20354108077E+03  0.51100000000E-03 0. -1.
    9000005    1    3    3    0    0 -0.11052126750E+03  0.42780621175E+01 -0.32319371464E+03  0.34159688167E+03  0.10000000000E+01 0.  0.
    9000005    1    3    3    0    0  0.33439007487E+01 -0.12712726085E+02  0.70542935681E+01  0.14951860569E+02  0.10000000000E+01 0.  0.
<mgrwt>
<rscale>  0 0.15713228E+03</rscale>
<asrwt>0</asrwt>
<pdfrwt beam="2">  1        1 0.86377223E-01 0.16487229E+03</pdfrwt>
<pdfrwt beam="1">  1       -1 0.62697640E-02 0.16487229E+03</pdfrwt>
<totfact> 0.47049649E+03</totfact>
</mgrwt>
</event>
<event>
 8    2  0.7478846E-004  0.1666823E+03  0.7818608E-02  0.1188083E+00
          1   -1    0    0  501    0  0.00000000000E+00  0.00000000000E+00  0.41268279079E+02  0.41268279387E+02  0.50400000000E-02 0. -1.
         -1   -1    0    0    0  501 -0.00000000000E+00 -0.00000000000E+00 -0.65006184954E+03  0.65006184956E+03  0.50400000000E-02 0.  1.
         25    2    1    2    0    0 -0.67886406239E+02 -0.86890922229E+02 -0.43583646298E+03  0.46662234366E+03  0.12499757046E+03 0.  0.
         23    2    1    2    0    0  0.67886406239E+02  0.86890922229E+02 -0.17295710748E+03  0.22470778529E+03  0.91765087165E+02 0.  0.
        -11    1    4    4    0    0  0.67204482606E+02  0.42762300972E+02 -0.15996638231E+03  0.17870170770E+03  0.51100000000E-03 0.  1.
         11    1    4    4    0    0  0.68192363296E+00  0.44128621258E+02 -0.12990725173E+02  0.46006077585E+02  0.51100000000E-03 0. -1.
    9000005    1    3    3    0    0  0.18246585816E+02  0.11723853728E+02 -0.16360917852E+02  0.27185773359E+02  0.10000000000E+01 0.  0.
    9000005    1    3    3    0    0 -0.86132992055E+02 -0.98614775957E+02 -0.41947554513E+03  0.43943657030E+03  0.10000000000E+01 0.  0.
<mgrwt>
<rscale>  0 0.16054481E+03</rscale>
<asrwt>0</asrwt>
<pdfrwt beam="1">  1        1 0.63489665E-02 0.16668230E+03</pdfrwt>
<pdfrwt beam="2">  1       -1 0.10000951E+00 0.16668230E+03</pdfrwt>
<totfact> 0.11886049E+03</totfact>
</mgrwt>
</event>
<event>
 8    2  0.7478846E-004  0.1388894E+03  0.7818608E-02  0.1225587E+00
         -1   -1    0    0    0  501 -0.00000000000E+00  0.00000000000E+00  0.73723145183E+02  0.73723145355E+02  0.50400000000E-02 0.  1.
          1   -1    0    0  501    0  0.00000000000E+00 -0.00000000000E+00 -0.22972485317E+03  0.22972485322E+03  0.50400000000E-02 0. -1.
         25    2    1    2    0    0 -0.60542495317E+02  0.76957711848E+00 -0.12861284071E+03  0.18929215161E+03  0.12499707948E+03 0.  0.
         23    2    1    2    0    0  0.60542495317E+02 -0.76957711848E+00 -0.27388867274E+02  0.11415584696E+03  0.92819294099E+02 0.  0.
        -11    1    4    4    0    0  0.20212549619E+02 -0.12771574070E+02  0.32878413420E+02  0.40652802309E+02  0.51100000000E-03 0.  1.
         11    1    4    4    0    0  0.40329945698E+02  0.12001996952E+02 -0.60267280694E+02  0.73503044654E+02  0.51100000000E-03 0. -1.
    9000005    1    3    3    0    0  0.10638699617E+02 -0.43512822476E+02 -0.13327105590E+02  0.46745688494E+02  0.10000000000E+01 0.  0.
    9000005    1    3    3    0    0 -0.71181194934E+02  0.44282399595E+02 -0.11528573512E+03  0.14254646312E+03  0.10000000000E+01 0.  0.
<mgrwt>
<rscale>  0 0.13126767E+03</rscale>
<asrwt>0</asrwt>
<pdfrwt beam="2">  1        1 0.35342285E-01 0.13888937E+03</pdfrwt>
<pdfrwt beam="1">  1       -1 0.11342022E-01 0.13888937E+03</pdfrwt>
<totfact> 0.58797283E+03</totfact>
</mgrwt>
</event>
<event>
 8    2  0.7478846E-004  0.1328595E+03  0.7818608E-02  0.1236125E+00
          1   -1    0    0  501    0  0.00000000000E+00  0.00000000000E+00  0.73732470954E+03  0.73732470956E+03  0.50400000000E-02 0.  1.
         -1   -1    0    0    0  501 -0.00000000000E+00 -0.00000000000E+00 -0.21181410340E+02  0.21181410939E+02  0.50400000000E-02 0. -1.
         25    2    1    2    0    0 -0.43724254228E+02 -0.10703880300E+02  0.27051045078E+03  0.30137611625E+03  0.12500110403E+03 0.  0.
         23    2    1    2    0    0  0.43724254228E+02  0.10703880300E+02  0.44563284843E+03  0.45713000424E+03  0.91393772892E+02 0.  0.
        -11    1    4    4    0    0  0.63002164739E+02 -0.11438733354E+02  0.37821446780E+03  0.38359653418E+03  0.51100000000E-03 0.  1.
         11    1    4    4    0    0 -0.19277910510E+02  0.22142613653E+02  0.67418380622E+02  0.73533470059E+02  0.51100000000E-03 0. -1.
    9000005    1    3    3    0    0 -0.39051546359E+02 -0.53670648852E+02  0.70850682237E+02  0.97089551418E+02  0.10000000000E+01 0.  0.
    9000005    1    3    3    0    0 -0.46727078695E+01  0.42966768553E+02  0.19965976854E+03  0.20428656484E+03  0.10000000000E+01 0.  0.
<mgrwt>
<rscale>  0 0.12432690E+03</rscale>
<asrwt>0</asrwt>
<pdfrwt beam="1">  1        1 0.11343456E+00 0.13285955E+03</pdfrwt>
<pdfrwt beam="2">  1       -1 0.32586788E-02 0.13285955E+03</pdfrwt>
<totfact> 0.83642876E+03</totfact>
</mgrwt>
</event>
<event>
 8    2  0.7478846E-004  0.1267399E+03  0.7818608E-02  0.1247989E+00
         -1   -1    0    0    0  501 -0.00000000000E+00  0.00000000000E+00  0.12144678029E+02  0.12144679074E+02  0.50400000000E-02 0.  1.
          1   -1    0    0  501    0  0.00000000000E+00 -0.00000000000E+00 -0.10060521544E+04  0.10060521544E+04  0.50400000000E-02 0. -1.
         25    2    1    2    0    0 -0.20938931768E+02  0.17875593357E+00 -0.64156408880E+03  0.65396291537E+03  0.12499817527E+03 0.  0.
         23    2    1    2    0    0  0.20938931768E+02 -0.17875593357E+00 -0.35234338756E+03  0.36423391810E+03  0.89900019608E+02 0.  0.
        -11    1    4    4    0    0 -0.99475732745E+01 -0.32743238010E+02 -0.65503624808E+02  0.73903983063E+02  0.51100000000E-03 0.  1.
         11    1    4    4    0    0  0.30886505042E+02  0.32564482077E+02 -0.28683976275E+03  0.29032993504E+03  0.51100000000E-03 0. -1.
    9000005    1    3    3    0    0 -0.31748789756E+01  0.60188856563E+02 -0.39525216336E+03  0.39982252431E+03  0.10000000000E+01 0.  0.
    9000005    1    3    3    0    0 -0.17764052792E+02 -0.60010100630E+02 -0.24631192544E+03  0.25414039105E+03  0.10000000000E+01 0.  0.
<mgrwt>
<rscale>  0 0.11708282E+03</rscale>
<asrwt>0</asrwt>
<pdfrwt beam="2">  1        1 0.15477719E+00 0.12673995E+03</pdfrwt>
<pdfrwt beam="1">  1       -1 0.18684129E-02 0.12673995E+03</pdfrwt>
<totfact> 0.11487975E+04</totfact>
</mgrwt>
</event>
<event>
 8    2  0.7478846E-004  0.1344339E+03  0.7818608E-02  0.1234157E+00
          1   -1    0    0  501    0  0.00000000000E+00  0.00000000000E+00  0.30390124588E+04  0.30390124588E+04  0.50400000000E-02 0. -1.
         -1   -1    0    0    0  501 -0.00000000000E+00 -0.00000000000E+00 -0.46306429158E+01  0.46306456586E+01  0.50400000000E-02 0.  1.
         25    2    1    2    0    0 -0.19909945450E+00 -0.49485687442E+02  0.16301002651E+04  0.16356342340E+04  0.12499440028E+03 0.  0.
         23    2    1    2    0    0  0.19909945450E+00  0.49485687442E+02  0.14042815508E+04  0.14080088705E+04  0.89629418471E+02 0.  0.
        -11    1    4    4    0    0 -0.63353595502E+01  0.37592282491E+02  0.13771053910E+04  0.13776329607E+04  0.51100000000E-03 0. -1.
         11    1    4    4    0    0  0.65344590047E+01  0.11893404951E+02  0.27176159777E+02  0.30375909802E+02  0.51100000000E-03 0.  1.
    9000005    1    3    3    0    0  0.20417803702E+02 -0.50926309998E+02  0.27740223326E+03  0.28277796020E+03  0.10000000000E+01 0.  0.
    9000005    1    3    3    0    0 -0.20616903156E+02  0.14406225567E+01  0.13526980319E+04  0.13528562738E+04  0.10000000000E+01 0.  0.
<mgrwt>
<rscale>  0 0.12558527E+03</rscale>
<asrwt>0</asrwt>
<pdfrwt beam="1">  1        1 0.46753955E+00 0.13443390E+03</pdfrwt>
<pdfrwt beam="2">  1       -1 0.71240807E-03 0.13443390E+03</pdfrwt>
<totfact> 0.21056231E+03</totfact>
</mgrwt>
</event>
<event>
 8    2  0.7478846E-004  0.1769730E+03  0.7818608E-02  0.1176582E+00
         -1   -1    0    0    0  501 -0.00000000000E+00  0.00000000000E+00  0.15387544279E+02  0.15387545105E+02  0.50400000000E-02 0.  1.
          1   -1    0    0  501    0  0.00000000000E+00 -0.00000000000E+00 -0.24209101936E+04  0.24209101936E+04  0.50400000000E-02 0. -1.
         25    2    1    2    0    0  0.64940968463E+02 -0.10712705065E+03 -0.18818140855E+04  0.18901173779E+04  0.12500366292E+03 0.  0.
         23    2    1    2    0    0 -0.64940968463E+02  0.10712705065E+03 -0.52370856383E+03  0.54618036075E+03  0.91371725798E+02 0.  0.
        -11    1    4    4    0    0 -0.21498950542E+02  0.10073376495E+03 -0.27565983522E+03  0.29427511113E+03  0.51100000000E-03 0.  1.
         11    1    4    4    0    0 -0.43442017921E+02  0.63932857043E+01 -0.24804872861E+03  0.25190524962E+03  0.51100000000E-03 0. -1.
    9000005    1    3    3    0    0 -0.24031878687E+02 -0.46115475245E+02 -0.10567878796E+04  0.10580670067E+04  0.10000000000E+01 0.  0.
    9000005    1    3    3    0    0  0.88972847150E+02 -0.61011575407E+02 -0.82502620586E+03  0.83205037121E+03  0.10000000000E+01 0.  0.
<mgrwt>
<rscale>  0 0.17121916E+03</rscale>
<asrwt>0</asrwt>
<pdfrwt beam="2">  1        1 0.37244742E+00 0.17697302E+03</pdfrwt>
<pdfrwt beam="1">  1       -1 0.23673165E-02 0.17697302E+03</pdfrwt>
<totfact> 0.96852755E+02</totfact>
</mgrwt>
</event>
<event>
 8    2  0.7478846E-004  0.1557831E+03  0.7818608E-02  0.1203190E+00
          1   -1    0    0  501    0  0.00000000000E+00  0.00000000000E+00  0.68355480098E+02  0.68355480284E+02  0.50400000000E-02 0. -1.
         -1   -1    0    0    0  501 -0.00000000000E+00 -0.00000000000E+00 -0.38158759230E+03  0.38158759234E+03  0.50400000000E-02 0.  1.
         25    2    1    2    0    0 -0.71266312645E+02  0.59699658458E+02 -0.27831239188E+03  0.31894537656E+03  0.12500171685E+03 0.  0.
         23    2    1    2    0    0  0.71266312645E+02 -0.59699658458E+02 -0.34919720321E+02  0.13099769606E+03  0.85428759602E+02 0.  0.
        -11    1    4    4    0    0  0.14692838095E+02 -0.58142518211E+02 -0.43049275051E+02  0.73821893757E+02  0.51100000000E-03 0.  1.
         11    1    4    4    0    0  0.56573474550E+02 -0.15571402472E+01  0.81295547299E+01  0.57175802301E+02  0.51100000000E-03 0. -1.
    9000005    1    3    3    0    0  0.15281997625E+02 -0.26434313427E+02 -0.84716843460E+02  0.90056959440E+02  0.10000000000E+01 0.  0.
    9000005    1    3    3    0    0 -0.86548310270E+02  0.86133971885E+02 -0.19359554842E+03  0.22888841712E+03  0.10000000000E+01 0.  0.
<mgrwt>
<rscale>  0 0.14781029E+03</rscale>
<asrwt>0</asrwt>
<pdfrwt beam="1">  1        1 0.10516228E-01 0.15578307E+03</pdfrwt>
<pdfrwt beam="2">  1       -1 0.58705782E-01 0.15578307E+03</pdfrwt>
<totfact> 0.17804390E+03</totfact>
</mgrwt>
</event>
<event>
 8    2  0.7478846E-004  0.1320604E+03  0.7818608E-02  0.1236630E+00
          1   -1    0    0  501    0  0.00000000000E+00  0.00000000000E+00  0.42930118490E+02  0.42930118786E+02  0.50400000000E-02 0. -1.
         -1   -1    0    0    0  501 -0.00000000000E+00 -0.00000000000E+00 -0.32210563231E+03  0.32210563235E+03  0.50400000000E-02 0.  1.
         25    2    1    2    0    0  0.10801310025E+02  0.41199868194E+02 -0.14579198261E+03  0.19671106927E+03  0.12500338053E+03 0.  0.
         23    2    1    2    0    0 -0.10801310025E+02 -0.41199868194E+02 -0.13338353121E+03  0.16832468186E+03  0.93423416172E+02 0.  0.
        -11    1    4    4    0    0  0.26707353925E+01  0.15985727880E+02 -0.98862650512E+02  0.10018233372E+03  0.51100000000E-03 0.  1.
         11    1    4    4    0    0 -0.13472045417E+02 -0.57185596074E+02 -0.34520880698E+02  0.68142348143E+02  0.51100000000E-03 0. -1.
    9000005    1    3    3    0    0  0.23754633693E+01 -0.45065914301E+02 -0.44394873728E+02  0.63312591728E+02  0.10000000000E+01 0.  0.
    9000005    1    3    3    0    0  0.84258466553E+01  0.86265782494E+02 -0.10139710888E+03  0.13339847754E+03  0.10000000000E+01 0.  0.
<mgrwt>
<rscale>  0 0.12400664E+03</rscale>
<asrwt>0</asrwt>
<pdfrwt beam="1">  1        1 0.66046338E-02 0.13206037E+03</pdfrwt>
<pdfrwt beam="2">  1       -1 0.49554711E-01 0.13206037E+03</pdfrwt>
<totfact> 0.45109102E+03</totfact>
</mgrwt>
</event>
<event>
 8    2  0.7478846E-004  0.1634956E+03  0.7818608E-02  0.1191946E+00
          1   -1    0    0  501    0  0.00000000000E+00  0.00000000000E+00  0.23672438979E+03  0.23672438985E+03  0.50400000000E-02 0. -1.
         -1   -1    0    0    0  501 -0.00000000000E+00 -0.00000000000E+00 -0.10124126288E+03  0.10124126301E+03  0.50400000000E-02 0.  1.
         25    2    1    2    0    0 -0.35275384934E+02  0.99303817230E+02  0.10734446617E+03  0.19558538355E+03  0.12500082776E+03 0.  0.
         23    2    1    2    0    0  0.35275384934E+02 -0.99303817230E+02  0.28138660735E+02  0.14238026931E+03  0.91513692756E+02 0.  0.
        -11    1    4    4    0    0  0.50296212210E+02 -0.20210114472E+02 -0.67784401484E+01  0.54626961665E+02  0.51100000000E-03 0.  1.
         11    1    4    4    0    0 -0.15020827276E+02 -0.79093702758E+02  0.34917100883E+02  0.87753307644E+02  0.51100000000E-03 0. -1.
    9000005    1    3    3    0    0  0.42859308690E-01 -0.29401479701E+02  0.13132093497E+02  0.32216466676E+02  0.10000000000E+01 0.  0.
    9000005    1    3    3    0    0 -0.35318244243E+02  0.12870529693E+03  0.94212372675E+02  0.16336891687E+03  0.10000000000E+01 0.  0.
<mgrwt>
<rscale>  0 0.15715534E+03</rscale>
<asrwt>0</asrwt>
<pdfrwt beam="1">  1        1 0.36419136E-01 0.16349559E+03</pdfrwt>
<pdfrwt beam="2">  1       -1 0.15575579E-01 0.16349559E+03</pdfrwt>
<totfact> 0.34868395E+03</totfact>
</mgrwt>
</event>
<event>
 8    2  0.7478846E-004  0.1447081E+03  0.7818608E-02  0.1215658E+00
         -1   -1    0    0    0  501 -0.00000000000E+00  0.00000000000E+00  0.58923827846E+02  0.58923828062E+02  0.50400000000E-02 0.  1.
          1   -1    0    0  501    0  0.00000000000E+00 -0.00000000000E+00 -0.30613788106E+03  0.30613788110E+03  0.50400000000E-02 0. -1.
         25    2    1    2    0    0 -0.72834644756E+02 -0.32366680496E+01 -0.10638281014E+03  0.17960439027E+03  0.12500029286E+03 0.  0.
         23    2    1    2    0    0  0.72834644756E+02  0.32366680496E+01 -0.14083124308E+03  0.18545731890E+03  0.96154129442E+02 0.  0.
        -11    1    4    4    0    0  0.67144572359E+02 -0.17382578200E+02 -0.14754873796E+03  0.16303735062E+03  0.51100000000E-03 0. -1.
         11    1    4    4    0    0  0.56900723966E+01  0.20619246250E+02  0.67174948846E+01  0.22419968278E+02  0.51100000000E-03 0.  1.
    9000005    1    3    3    0    0 -0.83466741531E+02  0.32523525044E+02 -0.29799173683E+02  0.94411161286E+02  0.10000000000E+01 0.  0.
    9000005    1    3    3    0    0  0.10632096776E+02 -0.35760193093E+02 -0.76583636452E+02  0.85193228981E+02  0.10000000000E+01 0.  0.
<mgrwt>
<rscale>  0 0.13828289E+03</rscale>
<asrwt>0</asrwt>
<pdfrwt beam="2">  1        1 0.47098135E-01 0.14470810E+03</pdfrwt>
<pdfrwt beam="1">  1       -1 0.90652045E-02 0.14470810E+03</pdfrwt>
<totfact> 0.58187278E+03</totfact>
</mgrwt>
</event>
<event>
 8    2  0.7478846E-004  0.1362455E+03  0.7818608E-02  0.1230013E+00
          1   -1    0    0  501    0  0.00000000000E+00  0.00000000000E+00  0.32179252767E+03  0.32179252771E+03  0.50400000000E-02 0. -1.
         -1   -1    0    0    0  501 -0.00000000000E+00 -0.00000000000E+00 -0.60981133729E+02  0.60981133937E+02  0.50400000000E-02 0.  1.
         25    2    1    2    0    0  0.20143600233E+02 -0.50313008932E+02  0.23650378524E+03  0.27294114131E+03  0.12500265072E+03 0.  0.
         23    2    1    2    0    0 -0.20143600233E+02  0.50313008932E+02  0.24307608697E+02  0.10983252033E+03  0.92385925250E+02 0.  0.
        -11    1    4    4    0    0 -0.31350733526E+02  0.67161528011E+01 -0.26756810841E+02  0.41760054211E+02  0.51100000000E-03 0.  1.
         11    1    4    4    0    0  0.11207133293E+02  0.43596856131E+02  0.51064419538E+02  0.68072466124E+02  0.51100000000E-03 0. -1.
    9000005    1    3    3    0    0 -0.58461251960E+00 -0.54884804676E+02  0.24912181084E+02  0.60285158393E+02  0.10000000000E+01 0.  0.
    9000005    1    3    3    0    0  0.20728212752E+02  0.45717957436E+01  0.21159160416E+03  0.21265598292E+03  0.10000000000E+01 0.  0.
<mgrwt>
<rscale>  0 0.12829152E+03</rscale>
<asrwt>0</asrwt>
<pdfrwt beam="1">  1        1 0.49506543E-01 0.13624546E+03</pdfrwt>
<pdfrwt beam="2">  1       -1 0.93817129E-02 0.13624546E+03</pdfrwt>
<totfact> 0.51731970E+03</totfact>
</mgrwt>
</event>
<event>
 8    2  0.7478846E-004  0.1338333E+03  0.7818608E-02  0.1234970E+00
         -1   -1    0    0    0  501 -0.00000000000E+00  0.00000000000E+00  0.14531494369E+02  0.14531495243E+02  0.50400000000E-02 0.  1.
          1   -1    0    0  501    0  0.00000000000E+00 -0.00000000000E+00 -0.96861696413E+03  0.96861696415E+03  0.50400000000E-02 0. -1.
         25    2    1    2    0    0 -0.47292820125E+02 -0.70888378181E+01 -0.59327107152E+03  0.60817918998E+03  0.12499800144E+03 0.  0.
         23    2    1    2    0    0  0.47292820125E+02  0.70888378181E+01 -0.36081439825E+03  0.37496926941E+03  0.90155757249E+02 0.  0.
        -11    1    4    4    0    0  0.72280070091E+01 -0.31368477071E+02 -0.23819027218E+03  0.24035563484E+03  0.51100000000E-03 0. -1.
         11    1    4    4    0    0  0.40064813116E+02  0.38457314889E+02 -0.12262412607E+03  0.13461363457E+03  0.51100000000E-03 0.  1.
    9000005    1    3    3    0    0 -0.49551899808E+02 -0.35368560856E+02 -0.56445351495E+03  0.56772801271E+03  0.10000000000E+01 0.  0.
    9000005    1    3    3    0    0  0.22590796836E+01  0.28279723038E+02 -0.28817556569E+02  0.40451177272E+02  0.10000000000E+01 0.  0.
<mgrwt>
<rscale>  0 0.12506340E+03</rscale>
<asrwt>0</asrwt>
<pdfrwt beam="2">  1        1 0.14901794E+00 0.13383334E+03</pdfrwt>
<pdfrwt beam="1">  1       -1 0.22356154E-02 0.13383334E+03</pdfrwt>
<totfact> 0.94806973E+03</totfact>
</mgrwt>
</event>
<event>
 8    2  0.7478846E-004  0.1388671E+03  0.7818608E-02  0.1223027E+00
         -1   -1    0    0    0  501 -0.00000000000E+00  0.00000000000E+00  0.41828594173E+03  0.41828594176E+03  0.50400000000E-02 0.  1.
          1   -1    0    0  501    0  0.00000000000E+00 -0.00000000000E+00 -0.43713890602E+02  0.43713890893E+02  0.50400000000E-02 0. -1.
         25    2    1    2    0    0 -0.43717901545E+02 -0.41810789639E+02  0.12695447131E+03  0.18815290878E+03  0.12499872900E+03 0.  0.
         23    2    1    2    0    0  0.43717901545E+02  0.41810789639E+02  0.24761757981E+03  0.27384692387E+03  0.10009133246E+03 0.  0.
        -11    1    4    4    0    0  0.22850381215E+02  0.61297301150E+02  0.23252493148E+03  0.24155194640E+03  0.51100000000E-03 0.  1.
         11    1    4    4    0    0  0.20867520330E+02 -0.19486511510E+02  0.15092648334E+02  0.32294977466E+02  0.51100000000E-03 0. -1.
    9000005    1    3    3    0    0 -0.67613700075E+02 -0.54640464093E+02  0.13434767050E+03  0.16002340242E+03  0.10000000000E+01 0.  0.
    9000005    1    3    3    0    0  0.23895798531E+02  0.12829674454E+02 -0.73931991861E+01  0.28129506363E+02  0.10000000000E+01 0.  0.
<mgrwt>
<rscale>  0 0.13303047E+03</rscale>
<asrwt>0</asrwt>
<pdfrwt beam="2">  1        1 0.67252142E-02 0.13886713E+03</pdfrwt>
<pdfrwt beam="1">  1       -1 0.64351681E-01 0.13886713E+03</pdfrwt>
<totfact> 0.27054095E+03</totfact>
</mgrwt>
</event>
<event>
 8    2  0.7478846E-004  0.1534710E+03  0.7818608E-02  0.1204540E+00
         -1   -1    0    0    0  501 -0.00000000000E+00  0.00000000000E+00  0.15722333401E+02  0.15722334209E+02  0.50400000000E-02 0.  1.
          1   -1    0    0  501    0  0.00000000000E+00 -0.00000000000E+00 -0.12913462944E+04  0.12913462945E+04  0.50400000000E-02 0. -1.
         25    2    1    2    0    0 -0.88125508839E+02 -0.12845828056E+02 -0.59561337955E+03  0.61506801115E+03  0.12498895887E+03 0.  0.
         23    2    1    2    0    0  0.88125508839E+02  0.12845828056E+02 -0.68001058149E+03  0.69200061751E+03  0.92300287558E+02 0.  0.
        -11    1    4    4    0    0  0.71247782229E+02  0.46679443340E+02 -0.36917151601E+03  0.37887045957E+03  0.51100000000E-03 0.  1.
         11    1    4    4    0    0  0.16877726610E+02 -0.33833615284E+02 -0.31083906548E+03  0.31313015793E+03  0.51100000000E-03 0. -1.
    9000005    1    3    3    0    0 -0.10028745305E+03  0.33348301958E+02 -0.41111805229E+03  0.42448643724E+03  0.10000000000E+01 0.  0.
    9000005    1    3    3    0    0  0.12161944210E+02 -0.46194130014E+02 -0.18449532726E+03  0.19058157391E+03  0.10000000000E+01 0.  0.
<mgrwt>
<rscale>  0 0.14673783E+03</rscale>
<asrwt>0</asrwt>
<pdfrwt beam="2">  1        1 0.19866858E+00 0.15347104E+03</pdfrwt>
<pdfrwt beam="1">  1       -1 0.24188216E-02 0.15347104E+03</pdfrwt>
<totfact> 0.50509850E+03</totfact>
</mgrwt>
</event>
<event>
 8    2  0.7478846E-004  0.1831507E+03  0.7818608E-02  0.1170663E+00
         -1   -1    0    0    0  501 -0.00000000000E+00  0.00000000000E+00  0.48641300290E+02  0.48641300551E+02  0.50400000000E-02 0.  1.
          1   -1    0    0  501    0  0.00000000000E+00 -0.00000000000E+00 -0.62718927468E+03  0.62718927470E+03  0.50400000000E-02 0. -1.
         25    2    1    2    0    0 -0.79919765892E+02 -0.10738388837E+03 -0.24513272140E+03  0.30599710586E+03  0.12500283690E+03 0.  0.
         23    2    1    2    0    0  0.79919765892E+02  0.10738388837E+03 -0.33341525299E+03  0.36983346939E+03  0.87707443768E+02 0.  0.
        -11    1    4    4    0    0 -0.10188866302E+02  0.15656659915E+02 -0.11397900818E+03  0.11549960304E+03  0.51100000000E-03 0. -1.
         11    1    4    4    0    0  0.90108632194E+02  0.91727228454E+02 -0.21943624480E+03  0.25433386634E+03  0.51100000000E-03 0.  1.
    9000005    1    3    3    0    0 -0.71724102134E+02 -0.12583875020E+03 -0.14915590439E+03  0.20791397666E+03  0.10000000000E+01 0.  0.
    9000005    1    3    3    0    0 -0.81956637584E+01  0.18454861829E+02 -0.95976817012E+02  0.98083129198E+02  0.10000000000E+01 0.  0.
<mgrwt>
<rscale>  0 0.17707607E+03</rscale>
<asrwt>0</asrwt>
<pdfrwt beam="2">  1        1 0.96490652E-01 0.18315070E+03</pdfrwt>
<pdfrwt beam="1">  1       -1 0.74832774E-02 0.18315070E+03</pdfrwt>
<totfact> 0.31087609E+03</totfact>
</mgrwt>
</event>
<event>
 8    2  0.7478846E-004  0.1901993E+03  0.7818608E-02  0.1163163E+00
         -1   -1    0    0    0  501 -0.00000000000E+00  0.00000000000E+00  0.11264795727E+03  0.11264795738E+03  0.50400000000E-02 0.  1.
          1   -1    0    0  501    0  0.00000000000E+00 -0.00000000000E+00 -0.29998065144E+03  0.29998065148E+03  0.50400000000E-02 0. -1.
         25    2    1    2    0    0  0.90378058034E+02  0.11127914289E+03 -0.14058590346E+03  0.23651670923E+03  0.12499806590E+03 0.  0.
         23    2    1    2    0    0 -0.90378058034E+02 -0.11127914289E+03 -0.46746790711E+02  0.17611189963E+03  0.90988448345E+02 0.  0.
        -11    1    4    4    0    0 -0.10109770511E+03 -0.83295793012E+02 -0.14023194916E+02  0.13174059780E+03  0.51100000000E-03 0. -1.
         11    1    4    4    0    0  0.10719647079E+02 -0.27983349880E+02 -0.32723595794E+02  0.44371301829E+02  0.51100000000E-03 0.  1.
    9000005    1    3    3    0    0  0.12196270611E+03  0.81017258160E+02 -0.10669406707E+03  0.18117207773E+03  0.10000000000E+01 0.  0.
    9000005    1    3    3    0    0 -0.31584648080E+02  0.30261884732E+02 -0.33891836391E+02  0.55344631499E+02  0.10000000000E+01 0.  0.
<mgrwt>
<rscale>  0 0.18487894E+03</rscale>
<asrwt>0</asrwt>
<pdfrwt beam="2">  1        1 0.46150869E-01 0.19019926E+03</pdfrwt>
<pdfrwt beam="1">  1       -1 0.17330455E-01 0.19019926E+03</pdfrwt>
<totfact> 0.22034632E+03</totfact>
</mgrwt>
</event>
<event>
 8    2  0.7478846E-004  0.1358074E+03  0.7818608E-02  0.1233563E+00
         -1   -1    0    0    0  501 -0.00000000000E+00  0.00000000000E+00  0.24616197144E+02  0.24616197660E+02  0.50400000000E-02 0.  1.
          1   -1    0    0  501    0  0.00000000000E+00 -0.00000000000E+00 -0.57040717510E+03  0.57040717512E+03  0.50400000000E-02 0. -1.
         25    2    1    2    0    0 -0.10275868758E+02  0.52086750314E+02 -0.33530120099E+03  0.36176035706E+03  0.12500015009E+03 0.  0.
         23    2    1    2    0    0  0.10275868758E+02 -0.52086750314E+02 -0.21048977697E+03  0.23326301572E+03  0.85364309033E+02 0.  0.
        -11    1    4    4    0    0  0.27912437066E+02  0.58738179504E+00 -0.14372605753E+03  0.14641252943E+03  0.51100000000E-03 0. -1.
         11    1    4    4    0    0 -0.17636568308E+02 -0.52674132109E+02 -0.66763719436E+02  0.86850486287E+02  0.51100000000E-03 0.  1.
    9000005    1    3    3    0    0  0.32827112607E+01  0.62022913226E+02 -0.61399061286E+02  0.87341071009E+02  0.10000000000E+01 0.  0.
    9000005    1    3    3    0    0 -0.13558580019E+02 -0.99361629120E+01 -0.27390213970E+03  0.27441928605E+03  0.10000000000E+01 0.  0.
<mgrwt>
<rscale>  0 0.12596892E+03</rscale>
<asrwt>0</asrwt>
<pdfrwt beam="2">  1        1 0.87754940E-01 0.13580744E+03</pdfrwt>
<pdfrwt beam="1">  1       -1 0.37871077E-02 0.13580744E+03</pdfrwt>
<totfact> 0.96179377E+03</totfact>
</mgrwt>
</event>
<event>
 8    2  0.7478846E-004  0.1714485E+03  0.7818608E-02  0.1182816E+00
         -1   -1    0    0    0  501 -0.00000000000E+00  0.00000000000E+00  0.22589378810E+03  0.22589378816E+03  0.50400000000E-02 0.  1.
          1   -1    0    0  501    0  0.00000000000E+00 -0.00000000000E+00 -0.12820357604E+03  0.12820357614E+03  0.50400000000E-02 0. -1.
         25    2    1    2    0    0 -0.96794690725E+02 -0.66335299209E+02  0.11261057355E+03  0.20512367238E+03  0.12499998249E+03 0.  0.
         23    2    1    2    0    0  0.96794690725E+02  0.66335299209E+02 -0.14920361480E+02  0.14897369191E+03  0.90559149852E+02 0.  0.
        -11    1    4    4    0    0  0.74800409830E+01  0.19430130953E+02 -0.39935037570E+02  0.45036521046E+02  0.51100000000E-03 0. -1.
         11    1    4    4    0    0  0.89314649742E+02  0.46905168256E+02  0.25014676090E+02  0.10393717087E+03  0.51100000000E-03 0.  1.
    9000005    1    3    3    0    0 -0.93372325856E+02 -0.68466501571E+02  0.26332073296E+02  0.11874523636E+03  0.10000000000E+01 0.  0.
    9000005    1    3    3    0    0 -0.34223648690E+01  0.21312023621E+01  0.86278500250E+02  0.86378436025E+02  0.10000000000E+01 0.  0.
<mgrwt>
<rscale>  0 0.16532187E+03</rscale>
<asrwt>0</asrwt>
<pdfrwt beam="2">  1        1 0.19723627E-01 0.17144848E+03</pdfrwt>
<pdfrwt beam="1">  1       -1 0.34752891E-01 0.17144848E+03</pdfrwt>
<totfact> 0.20235642E+03</totfact>
</mgrwt>
</event>
<event>
 8    2  0.7478846E-004  0.1610834E+03  0.7818608E-02  0.1195178E+00
          1   -1    0    0  501    0  0.00000000000E+00  0.00000000000E+00  0.95872932604E+03  0.95872932605E+03  0.50400000000E-02 0. -1.
         -1   -1    0    0    0  501 -0.00000000000E+00 -0.00000000000E+00 -0.30590008975E+02  0.30590009390E+02  0.50400000000E-02 0.  1.
         25    2    1    2    0    0 -0.10102483036E+03  0.10799051473E+02  0.24796222525E+03  0.29569092206E+03  0.12500088149E+03 0.  0.
         23    2    1    2    0    0  0.10102483036E+03 -0.10799051473E+02  0.68017709182E+03  0.69362841339E+03  0.90315357295E+02 0.  0.
        -11    1    4    4    0    0  0.52188220842E+02 -0.17605610437E+01  0.11531381011E+03  0.12658587904E+03  0.51100000000E-03 0.  1.
         11    1    4    4    0    0  0.48836609518E+02 -0.90384904295E+01  0.56486328170E+03  0.56704253434E+03  0.51100000000E-03 0. -1.
    9000005    1    3    3    0    0 -0.85621035874E+02  0.43423670330E+02  0.24033450012E+03  0.25880156274E+03  0.10000000000E+01 0.  0.
    9000005    1    3    3    0    0 -0.15403794486E+02 -0.32624618857E+02  0.76277251291E+01  0.36889359316E+02  0.10000000000E+01 0.  0.
<mgrwt>
<rscale>  0 0.15439184E+03</rscale>
<asrwt>0</asrwt>
<pdfrwt beam="1">  1        1 0.14749683E+00 0.16108338E+03</pdfrwt>
<pdfrwt beam="2">  1       -1 0.47061551E-02 0.16108338E+03</pdfrwt>
<totfact> 0.32712543E+03</totfact>
</mgrwt>
</event>
<event>
 8    2  0.7478846E-004  0.1352335E+03  0.7818608E-02  0.1239277E+00
          1   -1    0    0  501    0  0.00000000000E+00  0.00000000000E+00  0.11484459062E+04  0.11484459062E+04  0.50400000000E-02 0.  1.
         -1   -1    0    0    0  501 -0.00000000000E+00 -0.00000000000E+00 -0.17874196865E+02  0.17874197576E+02  0.50400000000E-02 0. -1.
         25    2    1    2    0    0 -0.51056974701E+02 -0.74952009726E+01  0.98926791213E+03  0.99846837216E+03  0.12500038208E+03 0.  0.
         23    2    1    2    0    0  0.51056974701E+02  0.74952009726E+01  0.14130379721E+03  0.16785173164E+03  0.74461050254E+02 0.  0.
        -11    1    4    4    0    0  0.16343435874E+02 -0.81996466499E+01 -0.30657320403E+01  0.18540248503E+02  0.51100000000E-03 0. -1.
         11    1    4    4    0    0  0.34713538827E+02  0.15694847623E+02  0.14436952925E+03  0.14931148314E+03  0.51100000000E-03 0.  1.
    9000005    1    3    3    0    0 -0.86529529715E+02 -0.43943923452E+01  0.86090756658E+03  0.86525690311E+03  0.10000000000E+01 0.  0.
    9000005    1    3    3    0    0  0.35472555015E+02 -0.31008086274E+01  0.12836034556E+03  0.13321146905E+03  0.10000000000E+01 0.  0.
<mgrwt>
<rscale>  0 0.12234581E+03</rscale>
<asrwt>0</asrwt>
<pdfrwt beam="1">  1        1 0.17668396E+00 0.13523346E+03</pdfrwt>
<pdfrwt beam="2">  1       -1 0.27498769E-02 0.13523346E+03</pdfrwt>
<totfact> 0.52246673E+03</totfact>
</mgrwt>
</event>
<event>
 8    2  0.7478846E-004  0.3060763E+03  0.7818608E-02  0.1083526E+00
          1   -1    0    0  501    0  0.00000000000E+00  0.00000000000E+00  0.42429468992E+03  0.42429468995E+03  0.50400000000E-02 0. -1.
         -1   -1    0    0    0  501 -0.00000000000E+00 -0.00000000000E+00 -0.26136546333E+03  0.26136546338E+03  0.50400000000E-02 0.  1.
         25    2    1    2    0    0  0.21434989907E+03 -0.17919378155E+03  0.22946750334E+03  0.38254156914E+03  0.12500570570E+03 0.  0.
         23    2    1    2    0    0 -0.21434989907E+03  0.17919378155E+03 -0.66538276746E+02  0.30311858419E+03  0.96939379157E+02 0.  0.
        -11    1    4    4    0    0 -0.59838703728E+01  0.10946373785E+02 -0.30423494907E+02  0.32881892377E+02  0.51100000000E-03 0.  1.
         11    1    4    4    0    0 -0.20836602869E+03  0.16824740776E+03 -0.36114781840E+02  0.27023669181E+03  0.51100000000E-03 0. -1.
    9000005    1    3    3    0    0  0.15616715098E+03 -0.72542487690E+02  0.18608810114E+03  0.25353574295E+03  0.10000000000E+01 0.  0.
    9000005    1    3    3    0    0  0.58182748084E+02 -0.10665129386E+03  0.43379402195E+02  0.12900582619E+03  0.10000000000E+01 0.  0.
<mgrwt>
<rscale>  0 0.30345512E+03</rscale>
<asrwt>0</asrwt>
<pdfrwt beam="1">  1        1 0.65276106E-01 0.30607633E+03</pdfrwt>
<pdfrwt beam="2">  1       -1 0.40210072E-01 0.30607633E+03</pdfrwt>
<totfact> 0.34480060E+02</totfact>
</mgrwt>
</event>
<event>
 8    2  0.7478846E-004  0.1953411E+03  0.7818608E-02  0.1158215E+00
         -1   -1    0    0    0  501 -0.00000000000E+00  0.00000000000E+00  0.54402938962E+02  0.54402939195E+02  0.50400000000E-02 0.  1.
          1   -1    0    0  501    0  0.00000000000E+00 -0.00000000000E+00 -0.10504440693E+04  0.10504440693E+04  0.50400000000E-02 0. -1.
         25    2    1    2    0    0  0.14973623089E+03 -0.10691920921E+02 -0.86168095477E+03  0.88354525117E+03  0.12499154784E+03 0.  0.
         23    2    1    2    0    0 -0.14973623089E+03  0.10691920921E+02 -0.13436017558E+03  0.22130175735E+03  0.91578136102E+02 0.  0.
        -11    1    4    4    0    0 -0.11971904443E+03  0.37162605272E+02 -0.13072523865E+03  0.18111542411E+03  0.51100000000E-03 0. -1.
         11    1    4    4    0    0 -0.30017186458E+02 -0.26470684351E+02 -0.36349369300E+01  0.40186333244E+02  0.51100000000E-03 0.  1.
    9000005    1    3    3    0    0  0.13027687239E+03 -0.30139467439E+02 -0.83346592684E+03  0.84412493281E+03  0.10000000000E+01 0.  0.
    9000005    1    3    3    0    0  0.19459358500E+02  0.19447546517E+02 -0.28215027931E+02  0.39420318364E+02  0.10000000000E+01 0.  0.
<mgrwt>
<rscale>  0 0.19027351E+03</rscale>
<asrwt>0</asrwt>
<pdfrwt beam="2">  1        1 0.16160677E+00 0.19534109E+03</pdfrwt>
<pdfrwt beam="1">  1       -1 0.83696837E-02 0.19534109E+03</pdfrwt>
<totfact> 0.11807878E+03</totfact>
</mgrwt>
</event>
<event>
 8    2  0.7478846E-004  0.1642882E+03  0.7818608E-02  0.1192132E+00
         -1   -1    0    0    0  501 -0.00000000000E+00  0.00000000000E+00  0.20146132942E+03  0.20146132949E+03  0.50400000000E-02 0.  1.
          1   -1    0    0  501    0  0.00000000000E+00 -0.00000000000E+00 -0.12289181020E+03  0.12289181031E+03  0.50400000000E-02 0. -1.
         25    2    1    2    0    0 -0.10359728829E+03 -0.24939774687E+02  0.89199970213E+02  0.18694183377E+03  0.12504488804E+03 0.  0.
         23    2    1    2    0    0  0.10359728829E+03  0.24939774687E+02 -0.10630450992E+02  0.13741130602E+03  0.86107316942E+02 0.  0.
        -11    1    4    4    0    0  0.64340798087E+02  0.55627154636E+02  0.49698445054E+01  0.85198697091E+02  0.51100000000E-03 0.  1.
         11    1    4    4    0    0  0.39256490205E+02 -0.30687379948E+02 -0.15600295497E+02  0.52212608929E+02  0.51100000000E-03 0. -1.
    9000005    1    3    3    0    0 -0.36472153782E+02 -0.20709369905E+02  0.10902253324E+03  0.11681613226E+03  0.10000000000E+01 0.  0.
    9000005    1    3    3    0    0 -0.67125134510E+02 -0.42304047821E+01 -0.19822563024E+02  0.70125701511E+02  0.10000000000E+01 0.  0.
<mgrwt>
<rscale>  0 0.15699453E+03</rscale>
<asrwt>0</asrwt>
<pdfrwt beam="2">  1        1 0.18906433E-01 0.16428821E+03</pdfrwt>
<pdfrwt beam="1">  1       -1 0.30994050E-01 0.16428821E+03</pdfrwt>
<totfact> 0.25938290E+03</totfact>
</mgrwt>
</event>
<event>
 8    2  0.7478846E-004  0.1528670E+03  0.7818608E-02  0.1205397E+00
          1   -1    0    0  501    0  0.00000000000E+00  0.00000000000E+00  0.93574235712E+02  0.93574235848E+02  0.50400000000E-02 0. -1.
         -1   -1    0    0    0  501 -0.00000000000E+00 -0.00000000000E+00 -0.23327695927E+03  0.23327695932E+03  0.50400000000E-02 0.  1.
         25    2    1    2    0    0 -0.14553002946E+02  0.86808778586E+02 -0.23990245834E+02  0.15473801283E+03  0.12498306599E+03 0.  0.
         23    2    1    2    0    0  0.14553002946E+02 -0.86808778586E+02 -0.11571247772E+03  0.17211318234E+03  0.92119575017E+02 0.  0.
        -11    1    4    4    0    0  0.21977077200E+02  0.22740415919E+01 -0.66491511693E+02  0.70066285151E+02  0.51100000000E-03 0.  1.
         11    1    4    4    0    0 -0.74240742539E+01 -0.89082820178E+02 -0.49220966028E+02  0.10204689719E+03  0.51100000000E-03 0. -1.
    9000005    1    3    3    0    0 -0.52220182917E+02 -0.42356118848E+01 -0.20111158111E+02  0.56127948408E+02  0.10000000000E+01 0.  0.
    9000005    1    3    3    0    0  0.37667179971E+02  0.91044390471E+02 -0.38790877237E+01  0.98610064419E+02  0.10000000000E+01 0.  0.
<mgrwt>
<rscale>  0 0.14606194E+03</rscale>
<asrwt>0</asrwt>
<pdfrwt beam="1">  1        1 0.14396036E-01 0.15286700E+03</pdfrwt>
<pdfrwt beam="2">  1       -1 0.35888763E-01 0.15286700E+03</pdfrwt>
<totfact> 0.28613139E+03</totfact>
</mgrwt>
</event>
<event>
 8    2  0.7478846E-004  0.1538721E+03  0.7818608E-02  0.1204384E+00
         -1   -1    0    0    0  501 -0.00000000000E+00  0.00000000000E+00  0.20520594295E+03  0.20520594301E+03  0.50400000000E-02 0.  1.
          1   -1    0    0  501    0  0.00000000000E+00 -0.00000000000E+00 -0.99589957291E+02  0.99589957419E+02  0.50400000000E-02 0. -1.
         25    2    1    2    0    0  0.59117563843E+02 -0.67504588747E+02  0.83948950097E+02  0.17528276251E+03  0.12499945902E+03 0.  0.
         23    2    1    2    0    0 -0.59117563843E+02  0.67504588747E+02  0.21667035560E+02  0.12951313792E+03  0.90842922711E+02 0.  0.
        -11    1    4    4    0    0 -0.21599864439E+02  0.50802068571E+02 -0.30541020919E+02  0.63088495575E+02  0.51100000000E-03 0. -1.
         11    1    4    4    0    0 -0.37517699404E+02  0.16702520176E+02  0.52208056479E+02  0.66424642343E+02  0.51100000000E-03 0.  1.
    9000005    1    3    3    0    0  0.87273407544E+02 -0.57902350890E+02  0.22680507867E+02  0.10716685747E+03  0.10000000000E+01 0.  0.
    9000005    1    3    3    0    0 -0.28155843701E+02 -0.96022378565E+01  0.61268442229E+02  0.68115905041E+02  0.10000000000E+01 0.  0.
<mgrwt>
<rscale>  0 0.14686128E+03</rscale>
<asrwt>0</asrwt>
<pdfrwt beam="2">  1        1 0.15321532E-01 0.15387209E+03</pdfrwt>
<pdfrwt beam="1">  1       -1 0.31570145E-01 0.15387209E+03</pdfrwt>
<totfact> 0.32873709E+03</totfact>
</mgrwt>
</event>
<event>
 8    2  0.7478846E-004  0.1489571E+03  0.7818608E-02  0.1211122E+00
         -1   -1    0    0    0  501 -0.00000000000E+00  0.00000000000E+00  0.24533848530E+02  0.24533849048E+02  0.50400000000E-02 0.  1.
          1   -1    0    0  501    0  0.00000000000E+00 -0.00000000000E+00 -0.74739017235E+03  0.74739017236E+03  0.50400000000E-02 0. -1.
         25    2    1    2    0    0 -0.51123377347E+02  0.62840818881E+02 -0.39054805755E+03  0.41799044328E+03  0.12500262873E+03 0.  0.
         23    2    1    2    0    0  0.51123377347E+02 -0.62840818881E+02 -0.33230826626E+03  0.35393357813E+03  0.90981457833E+02 0.  0.
        -11    1    4    4    0    0 -0.10557727537E+02 -0.20864751899E+02 -0.20533755786E+03  0.20666474336E+03  0.51100000000E-03 0. -1.
         11    1    4    4    0    0  0.61681104884E+02 -0.41976066982E+02 -0.12697070841E+03  0.14726883476E+03  0.51100000000E-03 0.  1.
    9000005    1    3    3    0    0 -0.31379424145E+02 -0.21610084553E+01 -0.31426931283E+03  0.31584100304E+03  0.10000000000E+01 0.  0.
    9000005    1    3    3    0    0 -0.19743953202E+02  0.65001827337E+02 -0.76278744726E+02  0.10214944024E+03  0.10000000000E+01 0.  0.
<mgrwt>
<rscale>  0 0.14165304E+03</rscale>
<asrwt>0</asrwt>
<pdfrwt beam="2">  1        1 0.11498309E+00 0.14895713E+03</pdfrwt>
<pdfrwt beam="1">  1       -1 0.37744389E-02 0.14895713E+03</pdfrwt>
<totfact> 0.66548755E+03</totfact>
</mgrwt>
</event>
<event>
 8    2  0.7478846E-004  0.2769775E+03  0.7818608E-02  0.1099228E+00
         -1   -1    0    0    0  501 -0.00000000000E+00  0.00000000000E+00  0.22192915749E+04  0.22192915749E+04  0.50400000000E-02 0. -1.
          1   -1    0    0  501    0  0.00000000000E+00 -0.00000000000E+00 -0.34680679353E+02  0.34680679719E+02  0.50400000000E-02 0.  1.
         25    2    1    2    0    0  0.23793693050E+03  0.66927387232E+02  0.86519873518E+03  0.90845218902E+03  0.12499308113E+03 0.  0.
         23    2    1    2    0    0 -0.23793693050E+03 -0.66927387232E+02  0.13194121603E+04  0.13455200656E+04  0.92100705431E+02 0.  0.
        -11    1    4    4    0    0 -0.17536580768E+03 -0.89080897049E+02  0.94215278491E+03  0.96246581385E+03  0.51100000000E-03 0.  1.
         11    1    4    4    0    0 -0.62571122823E+02  0.22153509817E+02  0.37725937544E+03  0.38305425173E+03  0.51100000000E-03 0. -1.
    9000005    1    3    3    0    0  0.11426648726E+03 -0.24713405827E+02  0.28182677929E+03  0.30511459497E+03  0.10000000000E+01 0.  0.
    9000005    1    3    3    0    0  0.12367044324E+03  0.91640793059E+02  0.58337195588E+03  0.60333759405E+03  0.10000000000E+01 0.  0.
<mgrwt>
<rscale>  0 0.27361546E+03</rscale>
<asrwt>0</asrwt>
<pdfrwt beam="2">  1        1 0.53354882E-02 0.27697749E+03</pdfrwt>
<pdfrwt beam="1">  1       -1 0.34142954E+00 0.27697749E+03</pdfrwt>
<totfact> 0.32140111E+01</totfact>
</mgrwt>
</event>
<event>
 8    2  0.7478846E-004  0.2861908E+03  0.7818608E-02  0.1093795E+00
         -1   -1    0    0    0  501 -0.00000000000E+00  0.00000000000E+00  0.31174911948E+03  0.31174911952E+03  0.50400000000E-02 0.  1.
          1   -1    0    0  501    0  0.00000000000E+00 -0.00000000000E+00 -0.28020905935E+03  0.28020905939E+03  0.50400000000E-02 0. -1.
         25    2    1    2    0    0  0.96686837481E+01 -0.25726588558E+03  0.10815464129E+03  0.30594540011E+03  0.12500376830E+03 0.  0.
         23    2    1    2    0    0 -0.96686837481E+01  0.25726588558E+03 -0.76614581148E+02  0.28601277880E+03  0.98256278504E+02 0.  0.
        -11    1    4    4    0    0  0.14272432283E+02  0.16164317940E+03 -0.18327204785E+01  0.16228240396E+03  0.51100000000E-03 0.  1.
         11    1    4    4    0    0 -0.23941116031E+02  0.95622706184E+02 -0.74781860670E+02  0.12373037485E+03  0.51100000000E-03 0. -1.
    9000005    1    3    3    0    0  0.60506326776E+02 -0.17489287354E+03  0.45310382650E+02  0.19053231634E+03  0.10000000000E+01 0.  0.
    9000005    1    3    3    0    0 -0.50837643028E+02 -0.82373012040E+02  0.62844258636E+02  0.11541308377E+03  0.10000000000E+01 0.  0.
<mgrwt>
<rscale>  0 0.28349533E+03</rscale>
<asrwt>0</asrwt>
<pdfrwt beam="2">  1        1 0.43109086E-01 0.28619078E+03</pdfrwt>
<pdfrwt beam="1">  1       -1 0.47961403E-01 0.28619078E+03</pdfrwt>
<totfact> 0.42607050E+02</totfact>
</mgrwt>
</event>
<event>
 8    2  0.7478846E-004  0.1382466E+03  0.7818608E-02  0.1227184E+00
         -1   -1    0    0    0  501 -0.00000000000E+00  0.00000000000E+00  0.36187281180E+02  0.36187281531E+02  0.50400000000E-02 0.  1.
          1   -1    0    0  501    0  0.00000000000E+00 -0.00000000000E+00 -0.45634670087E+03  0.45634670090E+03  0.50400000000E-02 0. -1.
         25    2    1    2    0    0  0.30610399984E+02 -0.50500626567E+02 -0.30105065504E+03  0.33127574660E+03  0.12499925406E+03 0.  0.
         23    2    1    2    0    0 -0.30610399984E+02  0.50500626567E+02 -0.11910876465E+03  0.16125823583E+03  0.91268893577E+02 0.  0.
        -11    1    4    4    0    0 -0.47110040520E+02  0.65929020994E+02 -0.11062758474E+03  0.13712933396E+03  0.51100000000E-03 0.  1.
         11    1    4    4    0    0  0.16499640536E+02 -0.15428394426E+02 -0.84811799127E+01  0.24128901868E+02  0.51100000000E-03 0. -1.
    9000005    1    3    3    0    0 -0.20975168745E+02 -0.68608022774E+02 -0.10102978273E+03  0.12391543686E+03  0.10000000000E+01 0.  0.
    9000005    1    3    3    0    0  0.51585568729E+02  0.18107396207E+02 -0.20002087230E+03  0.20736030974E+03  0.10000000000E+01 0.  0.
<mgrwt>
<rscale>  0 0.13018344E+03</rscale>
<asrwt>0</asrwt>
<pdfrwt beam="2">  1        1 0.70207181E-01 0.13824660E+03</pdfrwt>
<pdfrwt beam="1">  1       -1 0.55672744E-02 0.13824660E+03</pdfrwt>
<totfact> 0.73064953E+03</totfact>
</mgrwt>
</event>
<event>
 8    2  0.7478846E-004  0.1418687E+03  0.7818608E-02  0.1221937E+00
          1   -1    0    0  501    0  0.00000000000E+00  0.00000000000E+00  0.14265403721E+03  0.14265403730E+03  0.50400000000E-02 0. -1.
         -1   -1    0    0    0  501 -0.00000000000E+00 -0.00000000000E+00 -0.11595294507E+03  0.11595294518E+03  0.50400000000E-02 0.  1.
         25    2    1    2    0    0  0.38836891511E+02 -0.54636406425E+02  0.34884811638E+02  0.14609471219E+03  0.12503309081E+03 0.  0.
         23    2    1    2    0    0 -0.38836891511E+02  0.54636406425E+02 -0.81837194983E+01  0.11251227029E+03  0.89992203288E+02 0.  0.
        -11    1    4    4    0    0 -0.13162861182E+02  0.32703699386E+02  0.40227134898E+02  0.53488459039E+02  0.51100000000E-03 0. -1.
         11    1    4    4    0    0 -0.25674030329E+02  0.21932707039E+02 -0.48410854396E+02  0.59023811255E+02  0.51100000000E-03 0.  1.
    9000005    1    3    3    0    0  0.80244555605E+02 -0.59340311483E+02  0.19723996095E+02  0.10173739378E+03  0.10000000000E+01 0.  0.
    9000005    1    3    3    0    0 -0.41407664094E+02  0.47039050588E+01  0.15160815543E+02  0.44357318409E+02  0.10000000000E+01 0.  0.
<mgrwt>
<rscale>  0 0.13379098E+03</rscale>
<asrwt>0</asrwt>
<pdfrwt beam="1">  1        1 0.21946775E-01 0.14186865E+03</pdfrwt>
<pdfrwt beam="2">  1       -1 0.17838915E-01 0.14186865E+03</pdfrwt>
<totfact> 0.52631181E+03</totfact>
</mgrwt>
</event>
<event>
 8    2  0.7478846E-004  0.1268586E+03  0.7818608E-02  0.1252523E+00
         -1   -1    0    0    0  501 -0.00000000000E+00  0.00000000000E+00  0.72248480419E+02  0.72248480595E+02  0.50400000000E-02 0.  1.
          1   -1    0    0  501    0  0.00000000000E+00 -0.00000000000E+00 -0.17417331407E+03  0.17417331415E+03  0.50400000000E-02 0. -1.
         25    2    1    2    0    0  0.17176854141E+02  0.13249140588E+02 -0.18899127584E+02  0.12825862939E+03  0.12499005938E+03 0.  0.
         23    2    1    2    0    0 -0.17176854141E+02 -0.13249140588E+02 -0.83025706071E+02  0.11816316536E+03  0.81232270274E+02 0.  0.
        -11    1    4    4    0    0 -0.28462147171E+02  0.28306637934E+02 -0.31584003646E+02  0.51077478984E+02  0.51100000000E-03 0. -1.
         11    1    4    4    0    0  0.11285293031E+02 -0.41555778522E+02 -0.51441702425E+02  0.67085686372E+02  0.51100000000E-03 0.  1.
    9000005    1    3    3    0    0  0.13302115320E+01 -0.48869315324E+01  0.52575742869E+02  0.52828593591E+02  0.10000000000E+01 0.  0.
    9000005    1    3    3    0    0  0.15846642609E+02  0.18136072120E+02 -0.71474870453E+02  0.75430035796E+02  0.10000000000E+01 0.  0.
<mgrwt>
<rscale>  0 0.11446209E+03</rscale>
<asrwt>0</asrwt>
<pdfrwt beam="2">  1        1 0.26795894E-01 0.12685858E+03</pdfrwt>
<pdfrwt beam="1">  1       -1 0.11115151E-01 0.12685858E+03</pdfrwt>
<totfact> 0.85005109E+03</totfact>
</mgrwt>
</event>
<event>
 8    2  0.7478846E-004  0.1265054E+03  0.7818608E-02  0.1248410E+00
         -1   -1    0    0    0  501 -0.00000000000E+00  0.00000000000E+00  0.60703579560E+03  0.60703579562E+03  0.50400000000E-02 0.  1.
          1   -1    0    0  501    0  0.00000000000E+00 -0.00000000000E+00 -0.28446361926E+02  0.28446362373E+02  0.50400000000E-02 0. -1.
         25    2    1    2    0    0  0.10547244948E+02 -0.16330719929E+02  0.49580327563E+03  0.51168790307E+03  0.12500274088E+03 0.  0.
         23    2    1    2    0    0 -0.10547244948E+02  0.16330719929E+02  0.82786158039E+02  0.12379425492E+03  0.89964063937E+02 0.  0.
        -11    1    4    4    0    0 -0.20793989179E+02  0.31204100353E+02 -0.15656368193E+01  0.37530482061E+02  0.51100000000E-03 0. -1.
         11    1    4    4    0    0  0.10246744232E+02 -0.14873380424E+02  0.84351794858E+02  0.86263772863E+02  0.51100000000E-03 0.  1.
    9000005    1    3    3    0    0  0.60658386990E+02  0.20747930136E+02  0.25808379026E+03  0.26592886138E+03  0.10000000000E+01 0.  0.
    9000005    1    3    3    0    0 -0.50111142042E+02 -0.37078650066E+02  0.23771948537E+03  0.24575904169E+03  0.10000000000E+01 0.  0.
<mgrwt>
<rscale>  0 0.11683601E+03</rscale>
<asrwt>0</asrwt>
<pdfrwt beam="2">  1        1 0.43763638E-02 0.12650542E+03</pdfrwt>
<pdfrwt beam="1">  1       -1 0.93390114E-01 0.12650542E+03</pdfrwt>
<totfact> 0.22686062E+03</totfact>
</mgrwt>
</event>
<event>
 8    2  0.7478846E-004  0.1339211E+03  0.7818608E-02  0.1234406E+00
         -1   -1    0    0    0  501 -0.00000000000E+00  0.00000000000E+00  0.26672207616E+02  0.26672208092E+02  0.50400000000E-02 0.  1.
          1   -1    0    0  501    0  0.00000000000E+00 -0.00000000000E+00 -0.59002960609E+03  0.59002960611E+03  0.50400000000E-02 0. -1.
         25    2    1    2    0    0 -0.47203002216E+02 -0.90269007710E+01 -0.21384603025E+03  0.25231923188E+03  0.12500104707E+03 0.  0.
         23    2    1    2    0    0  0.47203002216E+02  0.90269007710E+01 -0.34951136823E+03  0.36438258232E+03  0.91141984967E+02 0.  0.
        -11    1    4    4    0    0  0.59008212003E+02 -0.77097517689E+01 -0.33242632086E+03  0.33771092395E+03  0.51100000000E-03 0. -1.
         11    1    4    4    0    0 -0.11805209786E+02  0.16736652540E+02 -0.17085047366E+02  0.26671658368E+02  0.51100000000E-03 0.  1.
    9000005    1    3    3    0    0 -0.46348871000E+02 -0.54812118600E+02 -0.18436290611E+03  0.19784657525E+03  0.10000000000E+01 0.  0.
    9000005    1    3    3    0    0 -0.85413121586E+00  0.45785217829E+02 -0.29483124138E+02  0.54472656633E+02  0.10000000000E+01 0.  0.
<mgrwt>
<rscale>  0 0.12542507E+03</rscale>
<asrwt>0</asrwt>
<pdfrwt beam="2">  1        1 0.90773776E-01 0.13392113E+03</pdfrwt>
<pdfrwt beam="1">  1       -1 0.41034170E-02 0.13392113E+03</pdfrwt>
<totfact> 0.81614499E+03</totfact>
</mgrwt>
</event>
<event>
 8    2  0.7478846E-004  0.1274158E+03  0.7818608E-02  0.1246173E+00
          1   -1    0    0  501    0  0.00000000000E+00  0.00000000000E+00  0.12378057416E+03  0.12378057426E+03  0.50400000000E-02 0. -1.
         -1   -1    0    0    0  501 -0.00000000000E+00 -0.00000000000E+00 -0.99218102858E+02  0.99218102986E+02  0.50400000000E-02 0.  1.
         25    2    1    2    0    0  0.96391847591E+01  0.22681240588E+02  0.15047809905E+02  0.12830130716E+03  0.12500974473E+03 0.  0.
         23    2    1    2    0    0 -0.96391847591E+01 -0.22681240588E+02  0.95146613986E+01  0.94697370092E+02  0.90937948972E+02 0.  0.
        -11    1    4    4    0    0 -0.29833580119E+02  0.13975362424E+02 -0.24263614261E+02  0.40915476716E+02  0.51100000000E-03 0.  1.
         11    1    4    4    0    0  0.20194395360E+02 -0.36656603012E+02  0.33778275660E+02  0.53781893376E+02  0.51100000000E-03 0. -1.
    9000005    1    3    3    0    0  0.29233169915E+02 -0.75431379334E+01  0.62087673474E+02  0.69046045148E+02  0.10000000000E+01 0.  0.
    9000005    1    3    3    0    0 -0.19593985156E+02  0.30224378521E+02 -0.47039863569E+02  0.59255262010E+02  0.10000000000E+01 0.  0.
<mgrwt>
<rscale>  0 0.11815474E+03</rscale>
<asrwt>0</asrwt>
<pdfrwt beam="1">  1        1 0.19043165E-01 0.12741581E+03</pdfrwt>
<pdfrwt beam="2">  1       -1 0.15264324E-01 0.12741581E+03</pdfrwt>
<totfact> 0.79995909E+03</totfact>
</mgrwt>
</event>
<event>
 8    2  0.7478846E-004  0.1348186E+03  0.7818608E-02  0.1232640E+00
          1   -1    0    0  501    0  0.00000000000E+00  0.00000000000E+00  0.51445044903E+02  0.51445045150E+02  0.50400000000E-02 0. -1.
         -1   -1    0    0    0  501 -0.00000000000E+00 -0.00000000000E+00 -0.28792527655E+03  0.28792527660E+03  0.50400000000E-02 0.  1.
         25    2    1    2    0    0  0.37056550262E+02  0.34341690220E+02 -0.16254382884E+03  0.21117894520E+03  0.12499404384E+03 0.  0.
         23    2    1    2    0    0 -0.37056550262E+02 -0.34341690220E+02 -0.73936402804E+02  0.12819137655E+03  0.91727301046E+02 0.  0.
        -11    1    4    4    0    0 -0.82343826687E+01 -0.40060594872E+02 -0.86924221133E+02  0.96064959997E+02  0.51100000000E-03 0.  1.
         11    1    4    4    0    0 -0.28822167593E+02  0.57189046517E+01  0.12987818329E+02  0.32126416551E+02  0.51100000000E-03 0. -1.
    9000005    1    3    3    0    0 -0.14027064477E+02 -0.41212532952E+02 -0.49500367258E+02  0.65928125780E+02  0.10000000000E+01 0.  0.
    9000005    1    3    3    0    0  0.51083614739E+02  0.75554223172E+02 -0.11304346159E+03  0.14525081942E+03  0.10000000000E+01 0.  0.
<mgrwt>
<rscale>  0 0.12656701E+03</rscale>
<asrwt>0</asrwt>
<pdfrwt beam="1">  1        1 0.79146225E-02 0.13481858E+03</pdfrwt>
<pdfrwt beam="2">  1       -1 0.44296196E-01 0.13481858E+03</pdfrwt>
<totfact> 0.43332342E+03</totfact>
</mgrwt>
</event>
<event>
 8    2  0.7478846E-004  0.1600244E+03  0.7818608E-02  0.1195531E+00
          1   -1    0    0  501    0  0.00000000000E+00  0.00000000000E+00  0.32568461196E+03  0.32568461200E+03  0.50400000000E-02 0. -1.
         -1   -1    0    0    0  501 -0.00000000000E+00 -0.00000000000E+00 -0.85615744298E+02  0.85615744446E+02  0.50400000000E-02 0.  1.
         25    2    1    2    0    0  0.78038808695E+02 -0.62390812889E+02  0.22031695892E+03  0.27230012070E+03  0.12500049660E+03 0.  0.
         23    2    1    2    0    0 -0.78038808695E+02  0.62390812889E+02  0.19751908736E+02  0.13900023574E+03  0.94595234774E+02 0.  0.
        -11    1    4    4    0    0 -0.39806382891E+02  0.31309338054E+02 -0.37830944847E+02  0.63213947484E+02  0.51100000000E-03 0.  1.
         11    1    4    4    0    0 -0.38232425803E+02  0.31081474835E+02  0.57582853583E+02  0.75786288257E+02  0.51100000000E-03 0. -1.
    9000005    1    3    3    0    0  0.77453648115E+02 -0.65455156776E+02  0.73016926302E+02  0.12496366144E+03  0.10000000000E+01 0.  0.
    9000005    1    3    3    0    0  0.58516058006E+00  0.30643438870E+01  0.14730003262E+03  0.14733645926E+03  0.10000000000E+01 0.  0.
<mgrwt>
<rscale>  0 0.15409411E+03</rscale>
<asrwt>0</asrwt>
<pdfrwt beam="1">  1        1 0.50105325E-01 0.16002435E+03</pdfrwt>
<pdfrwt beam="2">  1       -1 0.13171653E-01 0.16002435E+03</pdfrwt>
<totfact> 0.30470877E+03</totfact>
</mgrwt>
</event>
<event>
 8    2  0.7478846E-004  0.1257641E+03  0.7818608E-02  0.1247858E+00
         -1   -1    0    0    0  501 -0.00000000000E+00  0.00000000000E+00  0.48638833526E+02  0.48638833787E+02  0.50400000000E-02 0.  1.
          1   -1    0    0  501    0  0.00000000000E+00 -0.00000000000E+00 -0.25051143388E+03  0.25051143393E+03  0.50400000000E-02 0. -1.
         25    2    1    2    0    0 -0.13868767704E+02  0.35764026756E+00 -0.10759792289E+03  0.16551110938E+03  0.12499657473E+03 0.  0.
         23    2    1    2    0    0  0.13868767704E+02 -0.35764026756E+00 -0.94274677466E+02  0.13363915833E+03  0.93697594445E+02 0.  0.
        -11    1    4    4    0    0 -0.36939794565E+02 -0.18359871364E+01 -0.15976080084E+02  0.40288390467E+02  0.51100000000E-03 0.  1.
         11    1    4    4    0    0  0.50808562269E+02  0.14783468688E+01 -0.78298597382E+02  0.93350767868E+02  0.51100000000E-03 0. -1.
    9000005    1    3    3    0    0 -0.25997339184E+02  0.15468365169E+02  0.20109018170E+02  0.36338747604E+02  0.10000000000E+01 0.  0.
    9000005    1    3    3    0    0  0.12128571480E+02 -0.15110724901E+02 -0.12770694106E+03  0.12917236178E+03  0.10000000000E+01 0.  0.
<mgrwt>
<rscale>  0 0.11715936E+03</rscale>
<asrwt>0</asrwt>
<pdfrwt beam="2">  1        1 0.38540220E-01 0.12576412E+03</pdfrwt>
<pdfrwt beam="1">  1       -1 0.74828976E-02 0.12576412E+03</pdfrwt>
<totfact> 0.98652957E+03</totfact>
</mgrwt>
</event>
<event>
 8    2  0.7478846E-004  0.1262818E+03  0.7818608E-02  0.1247805E+00
         -1   -1    0    0    0  501 -0.00000000000E+00  0.00000000000E+00  0.43222565519E+02  0.43222565813E+02  0.50400000000E-02 0.  1.
          1   -1    0    0  501    0  0.00000000000E+00 -0.00000000000E+00 -0.28342932572E+03  0.28342932576E+03  0.50400000000E-02 0. -1.
         25    2    1    2    0    0  0.38857223496E+01  0.17628567627E+02 -0.11939643088E+03  0.17378896217E+03  0.12498492082E+03 0.  0.
         23    2    1    2    0    0 -0.38857223496E+01 -0.17628567627E+02 -0.12081032932E+03  0.15286292940E+03  0.91902525973E+02 0.  0.
        -11    1    4    4    0    0  0.41891216394E+02 -0.13505142876E-01 -0.37695723844E+02  0.56354607529E+02  0.51100000000E-03 0.  1.
         11    1    4    4    0    0 -0.45776938744E+02 -0.17615062484E+02 -0.83114605478E+02  0.96508321875E+02  0.51100000000E-03 0. -1.
    9000005    1    3    3    0    0 -0.52453020638E+02  0.16567126030E+02 -0.18183699997E+02  0.57943386029E+02  0.10000000000E+01 0.  0.
    9000005    1    3    3    0    0  0.56338742988E+02  0.10614415971E+01 -0.10121273088E+03  0.11584557614E+03  0.10000000000E+01 0.  0.
<mgrwt>
<rscale>  0 0.11719054E+03</rscale>
<asrwt>0</asrwt>
<pdfrwt beam="2">  1        1 0.43604511E-01 0.12628181E+03</pdfrwt>
<pdfrwt beam="1">  1       -1 0.66496257E-02 0.12628181E+03</pdfrwt>
<totfact> 0.10113662E+04</totfact>
</mgrwt>
</event>
<event>
 8    2  0.7478846E-004  0.1340040E+03  0.7818608E-02  0.1243675E+00
          1   -1    0    0  501    0  0.00000000000E+00  0.00000000000E+00  0.88838754951E+03  0.88838754952E+03  0.50400000000E-02 0. -1.
         -1   -1    0    0    0  501 -0.00000000000E+00 -0.00000000000E+00 -0.13522271241E+02  0.13522272180E+02  0.50400000000E-02 0.  1.
         25    2    1    2    0    0  0.17243850292E+02  0.45111337624E+02  0.54227917554E+03  0.55859089570E+03  0.12499880553E+03 0.  0.
         23    2    1    2    0    0 -0.17243850292E+02 -0.45111337624E+02  0.33258610273E+03  0.34331892600E+03  0.70156867566E+02 0.  0.
        -11    1    4    4    0    0  0.26577556283E+02 -0.22438753652E+02  0.16470234135E+03  0.16833515797E+03  0.51100000000E-03 0. -1.
         11    1    4    4    0    0 -0.43821406574E+02 -0.22672583972E+02  0.16788376138E+03  0.17498376803E+03  0.51100000000E-03 0.  1.
    9000005    1    3    3    0    0  0.23067265787E+02  0.86291114711E+02  0.30989275929E+03  0.32251011998E+03  0.10000000000E+01 0.  0.
    9000005    1    3    3    0    0 -0.58234154951E+01 -0.41179777088E+02  0.23238641625E+03  0.23608077572E+03  0.10000000000E+01 0.  0.
<mgrwt>
<rscale>  0 0.11965019E+03</rscale>
<asrwt>0</asrwt>
<pdfrwt beam="1">  1        1 0.13667505E+00 0.13400405E+03</pdfrwt>
<pdfrwt beam="2">  1       -1 0.20803489E-02 0.13400405E+03</pdfrwt>
<totfact> 0.12098840E+04</totfact>
</mgrwt>
</event>
<event>
 8    2  0.7478846E-004  0.1344302E+03  0.7818608E-02  0.1233187E+00
          1   -1    0    0  501    0  0.00000000000E+00  0.00000000000E+00  0.61279904374E+03  0.61279904376E+03  0.50400000000E-02 0. -1.
         -1   -1    0    0    0  501 -0.00000000000E+00 -0.00000000000E+00 -0.28318060959E+02  0.28318061407E+02  0.50400000000E-02 0.  1.
         25    2    1    2    0    0  0.35068868501E+02  0.34876681753E+02  0.45671791505E+03  0.47609110587E+03  0.12500111476E+03 0.  0.
         23    2    1    2    0    0 -0.35068868501E+02 -0.34876681753E+02  0.12776306773E+03  0.16502599930E+03  0.91999839676E+02 0.  0.
        -11    1    4    4    0    0  0.80227160875E+01 -0.22616004797E+02  0.11634233686E+03  0.11879135909E+03  0.51100000000E-03 0. -1.
         11    1    4    4    0    0 -0.43091584588E+02 -0.12260676956E+02  0.11420730867E+02  0.46234640212E+02  0.51100000000E-03 0.  1.
    9000005    1    3    3    0    0  0.68446281949E+02  0.61090336906E+02  0.29904872138E+03  0.31280674631E+03  0.10000000000E+01 0.  0.
    9000005    1    3    3    0    0 -0.33377413448E+02 -0.26213655153E+02  0.15766919367E+03  0.16328435956E+03  0.10000000000E+01 0.  0.
<mgrwt>
<rscale>  0 0.12621230E+03</rscale>
<asrwt>0</asrwt>
<pdfrwt beam="1">  1        1 0.94276769E-01 0.13443023E+03</pdfrwt>
<pdfrwt beam="2">  1       -1 0.43566251E-02 0.13443023E+03</pdfrwt>
<totfact> 0.70996900E+03</totfact>
</mgrwt>
</event>
<event>
 8    2  0.7478846E-004  0.1502097E+03  0.7818608E-02  0.1210619E+00
         -1   -1    0    0    0  501 -0.00000000000E+00  0.00000000000E+00  0.17804805144E+03  0.17804805151E+03  0.50400000000E-02 0.  1.
          1   -1    0    0  501    0  0.00000000000E+00 -0.00000000000E+00 -0.10265711745E+03  0.10265711758E+03  0.50400000000E-02 0. -1.
         25    2    1    2    0    0  0.77440836225E+02 -0.30668347711E+02  0.45740760495E+02  0.15701969213E+03  0.12500134352E+03 0.  0.
         23    2    1    2    0    0 -0.77440836225E+02  0.30668347711E+02  0.29650173488E+02  0.12368547695E+03  0.86494703617E+02 0.  0.
        -11    1    4    4    0    0 -0.34742632525E+02  0.55012336602E+02  0.35615083958E+02  0.74174401910E+02  0.51100000000E-03 0.  1.
         11    1    4    4    0    0 -0.42698203700E+02 -0.24343988891E+02 -0.59649104704E+01  0.49511075039E+02  0.51100000000E-03 0. -1.
    9000005    1    3    3    0    0 -0.29214868744E+01 -0.54401477791E+02  0.48824488175E+02  0.73163423355E+02  0.10000000000E+01 0.  0.
    9000005    1    3    3    0    0  0.80362323099E+02  0.23733130080E+02 -0.30837276803E+01  0.83856268780E+02  0.10000000000E+01 0.  0.
<mgrwt>
<rscale>  0 0.14203335E+03</rscale>
<asrwt>0</asrwt>
<pdfrwt beam="2">  1        1 0.15793403E-01 0.15020974E+03</pdfrwt>
<pdfrwt beam="1">  1       -1 0.27392008E-01 0.15020974E+03</pdfrwt>
<totfact> 0.40070288E+03</totfact>
</mgrwt>
</event>
<event>
 8    2  0.7478846E-004  0.1261539E+03  0.7818608E-02  0.1248543E+00
          1   -1    0    0  501    0  0.00000000000E+00  0.00000000000E+00  0.10368362313E+04  0.10368362313E+04  0.50400000000E-02 0. -1.
         -1   -1    0    0    0  501 -0.00000000000E+00 -0.00000000000E+00 -0.13026633047E+02  0.13026634022E+02  0.50400000000E-02 0.  1.
         25    2    1    2    0    0 -0.12500817464E+02 -0.11574907457E+02  0.40572329279E+03  0.42488375054E+03  0.12499824895E+03 0.  0.
         23    2    1    2    0    0  0.12500817464E+02  0.11574907457E+02  0.61808630547E+03  0.62497911480E+03  0.90983317215E+02 0.  0.
        -11    1    4    4    0    0  0.24964022265E+02 -0.24429356683E+02  0.10878911807E+03  0.11425877685E+03  0.51100000000E-03 0.  1.
         11    1    4    4    0    0 -0.12463204801E+02  0.36004264140E+02  0.50929718740E+03  0.51072033795E+03  0.51100000000E-03 0. -1.
    9000005    1    3    3    0    0  0.37681125614E+02 -0.22871552965E+02  0.55402900279E+02  0.70805766162E+02  0.10000000000E+01 0.  0.
    9000005    1    3    3    0    0 -0.50181943077E+02  0.11296645507E+02  0.35032039251E+03  0.35407798438E+03  0.10000000000E+01 0.  0.
<mgrwt>
<rscale>  0 0.11675805E+03</rscale>
<asrwt>0</asrwt>
<pdfrwt beam="1">  1        1 0.15951331E+00 0.12615392E+03</pdfrwt>
<pdfrwt beam="2">  1       -1 0.20040969E-02 0.12615392E+03</pdfrwt>
<totfact> 0.98638717E+03</totfact>
</mgrwt>
</event>
<event>
 8    2  0.7478846E-004  0.1454136E+03  0.7818608E-02  0.1216527E+00
          1   -1    0    0  501    0  0.00000000000E+00  0.00000000000E+00  0.47252102401E+03  0.47252102403E+03  0.50400000000E-02 0. -1.
         -1   -1    0    0    0  501 -0.00000000000E+00 -0.00000000000E+00 -0.36731200415E+02  0.36731200761E+02  0.50400000000E-02 0.  1.
         25    2    1    2    0    0 -0.61414278639E+01  0.74043485449E+02  0.26673213449E+03  0.30379459082E+03  0.12499986788E+03 0.  0.
         23    2    1    2    0    0  0.61414278639E+01 -0.74043485449E+02  0.16905768910E+03  0.20545763397E+03  0.90067653680E+02 0.  0.
        -11    1    4    4    0    0 -0.22841564462E+02 -0.54636481878E+02  0.15820920212E+03  0.16892907936E+03  0.51100000000E-03 0. -1.
         11    1    4    4    0    0  0.28982992326E+02 -0.19407003571E+02  0.10848486983E+02  0.36528554610E+02  0.51100000000E-03 0.  1.
    9000005    1    3    3    0    0  0.62403573966E+01 -0.55992129452E+01 -0.11417777760E+02  0.14200665302E+02  0.10000000000E+01 0.  0.
    9000005    1    3    3    0    0 -0.12381785261E+02  0.79642698394E+02  0.27814991225E+03  0.28959392552E+03  0.10000000000E+01 0.  0.
<mgrwt>
<rscale>  0 0.13764965E+03</rscale>
<asrwt>0</asrwt>
<pdfrwt beam="1">  1        1 0.72695534E-01 0.14541362E+03</pdfrwt>
<pdfrwt beam="2">  1       -1 0.56509545E-02 0.14541362E+03</pdfrwt>
<totfact> 0.68534051E+03</totfact>
</mgrwt>
</event>
<event>
 8    2  0.7478846E-004  0.1613130E+03  0.7818608E-02  0.1194639E+00
          1   -1    0    0  501    0  0.00000000000E+00  0.00000000000E+00  0.32217870448E+02  0.32217870842E+02  0.50400000000E-02 0. -1.
         -1   -1    0    0    0  501 -0.00000000000E+00 -0.00000000000E+00 -0.83924712692E+03  0.83924712694E+03  0.50400000000E-02 0.  1.
         25    2    1    2    0    0 -0.62904147267E+02 -0.80249813319E+02 -0.61361112429E+03  0.63446078322E+03  0.12499963722E+03 0.  0.
         23    2    1    2    0    0  0.62904147267E+02  0.80249813319E+02 -0.19341813218E+03  0.23700421456E+03  0.91451952313E+02 0.  0.
        -11    1    4    4    0    0  0.63038503595E+02  0.74622513174E+02 -0.20334551797E+03  0.22559204792E+03  0.51100000000E-03 0.  1.
         11    1    4    4    0    0 -0.13435632846E+00  0.56273001453E+01  0.99273857869E+01  0.11412166638E+02  0.51100000000E-03 0. -1.
    9000005    1    3    3    0    0  0.37427113730E+02 -0.27436398523E+02 -0.22000573962E+03  0.22484899438E+03  0.10000000000E+01 0.  0.
    9000005    1    3    3    0    0 -0.10033126100E+03 -0.52813414797E+02 -0.39360538467E+03  0.40961178884E+03  0.10000000000E+01 0.  0.
<mgrwt>
<rscale>  0 0.15484860E+03</rscale>
<asrwt>0</asrwt>
<pdfrwt beam="1">  1        1 0.49565961E-02 0.16131297E+03</pdfrwt>
<pdfrwt beam="2">  1       -1 0.12911493E+00 0.16131297E+03</pdfrwt>
<totfact> 0.92246576E+02</totfact>
</mgrwt>
</event>
<event>
 8    2  0.7478846E-004  0.3207613E+03  0.7818608E-02  0.1076795E+00
         -1   -1    0    0    0  501 -0.00000000000E+00  0.00000000000E+00  0.17332531286E+03  0.17332531293E+03  0.50400000000E-02 0.  1.
          1   -1    0    0  501    0  0.00000000000E+00 -0.00000000000E+00 -0.60988724422E+03  0.60988724424E+03  0.50400000000E-02 0. -1.
         25    2    1    2    0    0 -0.24838160933E+03 -0.15990175784E+03 -0.32225895159E+03  0.45468522142E+03  0.12500329071E+03 0.  0.
         23    2    1    2    0    0  0.24838160933E+03  0.15990175784E+03 -0.11430297977E+03  0.32852733575E+03  0.87195430699E+02 0.  0.
        -11    1    4    4    0    0  0.12987397348E+02  0.43372716821E+02 -0.14381821082E+02  0.47504755891E+02  0.51100000000E-03 0. -1.
         11    1    4    4    0    0  0.23539421198E+03  0.11652904102E+03 -0.99921158691E+02  0.28102257986E+03  0.51100000000E-03 0.  1.
    9000005    1    3    3    0    0 -0.14017321914E+03 -0.13639883443E+03 -0.13679558383E+03  0.23867803660E+03  0.10000000000E+01 0.  0.
    9000005    1    3    3    0    0 -0.10820839019E+03 -0.23502923409E+02 -0.18546336776E+03  0.21600718483E+03  0.10000000000E+01 0.  0.
<mgrwt>
<rscale>  0 0.31752269E+03</rscale>
<asrwt>0</asrwt>
<pdfrwt beam="2">  1        1 0.93828806E-01 0.32076131E+03</pdfrwt>
<pdfrwt beam="1">  1       -1 0.26665433E-01 0.32076131E+03</pdfrwt>
<totfact> 0.43058856E+02</totfact>
</mgrwt>
</event>
<event>
 8    2  0.7478846E-004  0.1395764E+03  0.7818608E-02  0.1228273E+00
          1   -1    0    0  501    0  0.00000000000E+00  0.00000000000E+00  0.21491425762E+02  0.21491426353E+02  0.50400000000E-02 0. -1.
         -1   -1    0    0    0  501 -0.00000000000E+00 -0.00000000000E+00 -0.69105057847E+03  0.69105057849E+03  0.50400000000E-02 0.  1.
         25    2    1    2    0    0 -0.59739027309E+01  0.61803842812E+02 -0.41448089359E+03  0.43735111151E+03  0.12500472424E+03 0.  0.
         23    2    1    2    0    0  0.59739027309E+01 -0.61803842812E+02 -0.25507825912E+03  0.27519089334E+03  0.82520948867E+02 0.  0.
        -11    1    4    4    0    0  0.14343872408E+02 -0.44328797392E+02 -0.46886469964E+02  0.66099395004E+02  0.51100000000E-03 0. -1.
         11    1    4    4    0    0 -0.83699696773E+01 -0.17475045420E+02 -0.20819178915E+03  0.20909149833E+03  0.51100000000E-03 0.  1.
    9000005    1    3    3    0    0  0.36139156639E+02  0.19068702824E+02 -0.37008211568E+02  0.55138569019E+02  0.10000000000E+01 0.  0.
    9000005    1    3    3    0    0 -0.42113059370E+02  0.42735139987E+02 -0.37747268202E+03  0.38221254249E+03  0.10000000000E+01 0.  0.
<mgrwt>
<rscale>  0 0.12945081E+03</rscale>
<asrwt>0</asrwt>
<pdfrwt beam="1">  1        1 0.33063738E-02 0.13957644E+03</pdfrwt>
<pdfrwt beam="2">  1       -1 0.10631546E+00 0.13957644E+03</pdfrwt>
<totfact> 0.25238512E+03</totfact>
</mgrwt>
</event>
<event>
 8    2  0.7478846E-004  0.1336943E+03  0.7818608E-02  0.1235128E+00
          1   -1    0    0  501    0  0.00000000000E+00  0.00000000000E+00  0.19120049097E+04  0.19120049097E+04  0.50400000000E-02 0. -1.
         -1   -1    0    0    0  501 -0.00000000000E+00 -0.00000000000E+00 -0.78378768110E+01  0.78378784314E+01  0.50400000000E-02 0.  1.
         25    2    1    2    0    0 -0.34976051304E+02  0.32025844688E+02  0.13276886331E+04  0.13344029650E+04  0.12500074990E+03 0.  0.
         23    2    1    2    0    0  0.34976051304E+02 -0.32025844688E+02  0.57647839974E+03  0.58543982315E+03  0.90351880297E+02 0.  0.
        -11    1    4    4    0    0  0.19121290963E+02 -0.63758839921E+02  0.37368730550E+03  0.37956951370E+03  0.51100000000E-03 0. -1.
         11    1    4    4    0    0  0.15854760341E+02  0.31732995233E+02  0.20279109424E+03  0.20587030945E+03  0.51100000000E-03 0.  1.
    9000005    1    3    3    0    0  0.34115633513E+02  0.36506571889E+02  0.87732213091E+03  0.87874440404E+03  0.10000000000E+01 0.  0.
    9000005    1    3    3    0    0 -0.69091684817E+02 -0.44807272009E+01  0.45036650223E+03  0.45565856094E+03  0.10000000000E+01 0.  0.
<mgrwt>
<rscale>  0 0.12496222E+03</rscale>
<asrwt>0</asrwt>
<pdfrwt beam="1">  1        1 0.29415474E+00 0.13369430E+03</pdfrwt>
<pdfrwt beam="2">  1       -1 0.12058268E-02 0.13369430E+03</pdfrwt>
<totfact> 0.54408993E+03</totfact>
</mgrwt>
</event>
<event>
 8    2  0.7478846E-004  0.1293963E+03  0.7818608E-02  0.1244441E+00
          1   -1    0    0  501    0  0.00000000000E+00  0.00000000000E+00  0.45940902444E+02  0.45940902720E+02  0.50400000000E-02 0. -1.
         -1   -1    0    0    0  501 -0.00000000000E+00 -0.00000000000E+00 -0.35533218711E+03  0.35533218715E+03  0.50400000000E-02 0.  1.
         25    2    1    2    0    0  0.26204326280E+02  0.20759450438E+02 -0.27141153069E+03  0.30067860305E+03  0.12500312732E+03 0.  0.
         23    2    1    2    0    0 -0.26204326280E+02 -0.20759450438E+02 -0.37979753976E+02  0.10059448682E+03  0.86943473410E+02 0.  0.
        -11    1    4    4    0    0 -0.61785173620E+00  0.17693051136E+02  0.19840940914E+02  0.26591140177E+02  0.51100000000E-03 0. -1.
         11    1    4    4    0    0 -0.25586474544E+02 -0.38452501574E+02 -0.57820694890E+02  0.74003346645E+02  0.51100000000E-03 0.  1.
    9000005    1    3    3    0    0 -0.36376667677E+02  0.19754001138E+01 -0.21387988401E+02  0.42256481216E+02  0.10000000000E+01 0.  0.
    9000005    1    3    3    0    0  0.62580993957E+02  0.18784050324E+02 -0.25002354229E+03  0.25842212183E+03  0.10000000000E+01 0.  0.
<mgrwt>
<rscale>  0 0.11918903E+03</rscale>
<asrwt>0</asrwt>
<pdfrwt beam="1">  1        1 0.70678314E-02 0.12939630E+03</pdfrwt>
<pdfrwt beam="2">  1       -1 0.54666489E-01 0.12939630E+03</pdfrwt>
<totfact> 0.34323620E+03</totfact>
</mgrwt>
</event>
<event>
 8    2  0.7478846E-004  0.1788890E+03  0.7818608E-02  0.1174740E+00
         -1   -1    0    0    0  501 -0.00000000000E+00  0.00000000000E+00  0.13495047826E+03  0.13495047836E+03  0.50400000000E-02 0.  1.
          1   -1    0    0  501    0  0.00000000000E+00 -0.00000000000E+00 -0.26257500180E+03  0.26257500185E+03  0.50400000000E-02 0. -1.
         25    2    1    2    0    0 -0.12791705358E+03  0.36992338265E+01 -0.15730372320E+03  0.23821367000E+03  0.12499933726E+03 0.  0.
         23    2    1    2    0    0  0.12791705358E+03 -0.36992338265E+01  0.29679199666E+02  0.15931181020E+03  0.90127360158E+02 0.  0.
        -11    1    4    4    0    0  0.62068761573E+02 -0.28384543185E+02  0.51699478207E+02  0.85621548119E+02  0.51100000000E-03 0.  1.
         11    1    4    4    0    0  0.65848292008E+02  0.24685309359E+02 -0.22020278542E+02  0.73690262083E+02  0.51100000000E-03 0. -1.
    9000005    1    3    3    0    0 -0.35945901675E+02  0.55513223195E+02 -0.94597308419E+02  0.11542736485E+03  0.10000000000E+01 0.  0.
    9000005    1    3    3    0    0 -0.91971151906E+02 -0.51813989368E+02 -0.62706414783E+02  0.12278630515E+03  0.10000000000E+01 0.  0.
<mgrwt>
<rscale>  0 0.17301440E+03</rscale>
<asrwt>0</asrwt>
<pdfrwt beam="2">  1        1 0.40396154E-01 0.17888905E+03</pdfrwt>
<pdfrwt beam="1">  1       -1 0.20761612E-01 0.17888905E+03</pdfrwt>
<totfact> 0.19415926E+03</totfact>
</mgrwt>
</event>
<event>
 8    2  0.7478846E-004  0.2704691E+03  0.7818608E-02  0.1103135E+00
          1   -1    0    0  501    0  0.00000000000E+00  0.00000000000E+00  0.25359252339E+04  0.25359252339E+04  0.50400000000E-02 0. -1.
         -1   -1    0    0    0  501 -0.00000000000E+00 -0.00000000000E+00 -0.28580368791E+02  0.28580369235E+02  0.50400000000E-02 0.  1.
         25    2    1    2    0    0  0.19294344320E+03  0.14248633168E+03  0.15550047370E+04  0.15783514325E+04  0.12499594100E+03 0.  0.
         23    2    1    2    0    0 -0.19294344320E+03 -0.14248633168E+03  0.95234012806E+03  0.98615417063E+03  0.89547762396E+02 0.  0.
        -11    1    4    4    0    0 -0.16456203703E+03 -0.14248877294E+03  0.90625279723E+03  0.93202888740E+03  0.51100000000E-03 0.  1.
         11    1    4    4    0    0 -0.28381406172E+02  0.24412671253E-02  0.46087330821E+02  0.54125283230E+02  0.51100000000E-03 0. -1.
    9000005    1    3    3    0    0  0.37221639457E+02  0.59229623191E+02  0.79633579820E+03  0.79940309119E+03  0.10000000000E+01 0.  0.
    9000005    1    3    3    0    0  0.15572180375E+03  0.83256708486E+02  0.75866893882E+03  0.77894834129E+03  0.10000000000E+01 0.  0.
<mgrwt>
<rscale>  0 0.26678315E+03</rscale>
<asrwt>0</asrwt>
<pdfrwt beam="1">  1        1 0.39014250E+00 0.27046906E+03</pdfrwt>
<pdfrwt beam="2">  1       -1 0.43969781E-02 0.27046906E+03</pdfrwt>
<totfact> 0.32024130E+02</totfact>
</mgrwt>
</event>
<event>
 8    2  0.7478846E-004  0.1635366E+03  0.7818608E-02  0.1192060E+00
          1   -1    0    0  501    0  0.00000000000E+00  0.00000000000E+00  0.76973360597E+03  0.76973360599E+03  0.50400000000E-02 0. -1.
         -1   -1    0    0    0  501 -0.00000000000E+00 -0.00000000000E+00 -0.34689868837E+02  0.34689869204E+02  0.50400000000E-02 0.  1.
         25    2    1    2    0    0  0.96812271050E+02 -0.41795940188E+02  0.24160539552E+03  0.29174881545E+03  0.12499875090E+03 0.  0.
         23    2    1    2    0    0 -0.96812271050E+02  0.41795940188E+02  0.49343834161E+03  0.51267465974E+03  0.90743558072E+02 0.  0.
        -11    1    4    4    0    0 -0.46761366020E+02 -0.26071269984E+02  0.22608522767E+03  0.23233782869E+03  0.51100000000E-03 0. -1.
         11    1    4    4    0    0 -0.50050905030E+02  0.67867210172E+02  0.26735311394E+03  0.28033683105E+03  0.51100000000E-03 0.  1.
    9000005    1    3    3    0    0  0.63617723348E+02 -0.34328989880E+02  0.24693034895E+03  0.25729611638E+03  0.10000000000E+01 0.  0.
    9000005    1    3    3    0    0  0.33194547702E+02 -0.74669503081E+01 -0.53249534282E+01  0.34452699067E+02  0.10000000000E+01 0.  0.
<mgrwt>
<rscale>  0 0.15705697E+03</rscale>
<asrwt>0</asrwt>
<pdfrwt beam="1">  1        1 0.11842055E+00 0.16353655E+03</pdfrwt>
<pdfrwt beam="2">  1       -1 0.53369032E-02 0.16353655E+03</pdfrwt>
<totfact> 0.38319129E+03</totfact>
</mgrwt>
</event>
<event>
 8    2  0.7478846E-004  0.1495278E+03  0.7818608E-02  0.1210284E+00
         -1   -1    0    0    0  501 -0.00000000000E+00  0.00000000000E+00  0.17724573002E+02  0.17724573718E+02  0.50400000000E-02 0. -1.
          1   -1    0    0  501    0  0.00000000000E+00 -0.00000000000E+00 -0.12135246932E+04  0.12135246932E+04  0.50400000000E-02 0.  1.
         25    2    1    2    0    0  0.81871942447E+02  0.54497758641E+01 -0.87758912344E+03  0.89023661008E+03  0.12500334930E+03 0.  0.
         23    2    1    2    0    0 -0.81871942447E+02 -0.54497758641E+01 -0.31821099673E+03  0.34101265681E+03  0.91097083664E+02 0.  0.
        -11    1    4    4    0    0 -0.42205529840E+02  0.27676539091E+02 -0.63513372020E+02  0.81124878988E+02  0.51100000000E-03 0. -1.
         11    1    4    4    0    0 -0.39666412606E+02 -0.33126314955E+02 -0.25469762471E+03  0.25988777783E+03  0.51100000000E-03 0.  1.
    9000005    1    3    3    0    0  0.82221548747E+02 -0.48142396932E+02 -0.60012386018E+03  0.60764111202E+03  0.10000000000E+01 0.  0.
    9000005    1    3    3    0    0 -0.34960630071E+00  0.53592172796E+02 -0.27746526326E+03  0.28259549806E+03  0.10000000000E+01 0.  0.
<mgrwt>
<rscale>  0 0.14228735E+03</rscale>
<asrwt>0</asrwt>
<pdfrwt beam="2">  1        1 0.18669604E+00 0.14952776E+03</pdfrwt>
<pdfrwt beam="1">  1       -1 0.27268584E-02 0.14952776E+03</pdfrwt>
<totfact> 0.47870490E+03</totfact>
</mgrwt>
</event>
<event>
 8    2  0.7478846E-004  0.1328660E+03  0.7818608E-02  0.1236259E+00
         -1   -1    0    0    0  501 -0.00000000000E+00  0.00000000000E+00  0.85313215407E+02  0.85313215556E+02  0.50400000000E-02 0.  1.
          1   -1    0    0  501    0  0.00000000000E+00 -0.00000000000E+00 -0.17468017864E+03  0.17468017871E+03  0.50400000000E-02 0. -1.
         25    2    1    2    0    0 -0.25089932147E+02  0.37424541407E+02 -0.14200651777E+02  0.13362274772E+03  0.12499311662E+03 0.  0.
         23    2    1    2    0    0  0.25089932147E+02 -0.37424541407E+02 -0.75166311453E+02  0.12637064654E+03  0.91046498758E+02 0.  0.
        -11    1    4    4    0    0 -0.10898345450E+02  0.16252071730E+02  0.79205843750E+01  0.21110173523E+02  0.51100000000E-03 0.  1.
         11    1    4    4    0    0  0.35988277597E+02 -0.53676613137E+02 -0.83086895828E+02  0.10526047302E+03  0.51100000000E-03 0. -1.
    9000005    1    3    3    0    0  0.26896111022E+02 -0.11549606575E+02  0.35932599794E+02  0.46356724734E+02  0.10000000000E+01 0.  0.
    9000005    1    3    3    0    0 -0.51986043169E+02  0.48974147981E+02 -0.50133251571E+02  0.87266022987E+02  0.10000000000E+01 0.  0.
<mgrwt>
<rscale>  0 0.12424191E+03</rscale>
<asrwt>0</asrwt>
<pdfrwt beam="2">  1        1 0.26873873E-01 0.13286602E+03</pdfrwt>
<pdfrwt beam="1">  1       -1 0.13125110E-01 0.13286602E+03</pdfrwt>
<totfact> 0.65774066E+03</totfact>
</mgrwt>
</event>
<event>
 8    2  0.7478846E-004  0.1276716E+03  0.7818608E-02  0.1245007E+00
          1   -1    0    0  501    0  0.00000000000E+00  0.00000000000E+00  0.65759238811E+03  0.65759238813E+03  0.50400000000E-02 0. -1.
         -1   -1    0    0    0  501 -0.00000000000E+00 -0.00000000000E+00 -0.22575906107E+02  0.22575906670E+02  0.50400000000E-02 0.  1.
         25    2    1    2    0    0  0.19468274575E+02  0.17203168455E+02  0.48972801041E+03  0.50609638642E+03  0.12500026180E+03 0.  0.
         23    2    1    2    0    0 -0.19468274575E+02 -0.17203168455E+02  0.14528847160E+03  0.17407190838E+03  0.92289363357E+02 0.  0.
        -11    1    4    4    0    0 -0.20029727029E+02  0.17595865490E+02  0.21325613634E+01  0.26746070093E+02  0.51100000000E-03 0.  1.
         11    1    4    4    0    0  0.56145245311E+00 -0.34799033945E+02  0.14315591024E+03  0.14732583829E+03  0.51100000000E-03 0. -1.
    9000005    1    3    3    0    0  0.72365320903E+02  0.15634215979E+02  0.31123333579E+03  0.31991929871E+03  0.10000000000E+01 0.  0.
    9000005    1    3    3    0    0 -0.52897046328E+02  0.15689524752E+01  0.17849467462E+03  0.18617708771E+03  0.10000000000E+01 0.  0.
<mgrwt>
<rscale>  0 0.11884984E+03</rscale>
<asrwt>0</asrwt>
<pdfrwt beam="1">  1        1 0.10116804E+00 0.12767156E+03</pdfrwt>
<pdfrwt beam="2">  1       -1 0.34732169E-02 0.12767156E+03</pdfrwt>
<totfact> 0.89485864E+03</totfact>
</mgrwt>
</event>
<event>
 8    2  0.7478846E-004  0.1547243E+03  0.7818608E-02  0.1203607E+00
          1   -1    0    0  501    0  0.00000000000E+00  0.00000000000E+00  0.18749118510E+03  0.18749118517E+03  0.50400000000E-02 0. -1.
         -1   -1    0    0    0  501 -0.00000000000E+00 -0.00000000000E+00 -0.16202446408E+03  0.16202446416E+03  0.50400000000E-02 0.  1.
         25    2    1    2    0    0  0.90966874778E+02 -0.63337589912E+01  0.11565165499E+03  0.19317064915E+03  0.12499802230E+03 0.  0.
         23    2    1    2    0    0 -0.90966874778E+02  0.63337589912E+01 -0.90184933977E+02  0.15634500018E+03  0.89416709599E+02 0.  0.
        -11    1    4    4    0    0 -0.66143741535E+02 -0.12756177220E+02 -0.10253483188E+03  0.12268295053E+03  0.51100000000E-03 0.  1.
         11    1    4    4    0    0 -0.24823133243E+02  0.19089936211E+02  0.12349897900E+02  0.33662049655E+02  0.51100000000E-03 0. -1.
    9000005    1    3    3    0    0  0.72577592943E+02 -0.49443312478E+02  0.11697340334E+03  0.14627346046E+03  0.10000000000E+01 0.  0.
    9000005    1    3    3    0    0  0.18389281835E+02  0.43109553487E+02 -0.13217483436E+01  0.46897188689E+02  0.10000000000E+01 0.  0.
<mgrwt>
<rscale>  0 0.14747792E+03</rscale>
<asrwt>0</asrwt>
<pdfrwt beam="1">  1        1 0.28844797E-01 0.15472425E+03</pdfrwt>
<pdfrwt beam="2">  1       -1 0.24926841E-01 0.15472425E+03</pdfrwt>
<totfact> 0.21813211E+03</totfact>
</mgrwt>
</event>
<event>
 8    2  0.7478846E-004  0.1294600E+03  0.7818608E-02  0.1242071E+00
         -1   -1    0    0    0  501 -0.00000000000E+00  0.00000000000E+00  0.40264974016E+02  0.40264974331E+02  0.50400000000E-02 0.  1.
          1   -1    0    0  501    0  0.00000000000E+00 -0.00000000000E+00 -0.41346427314E+03  0.41346427317E+03  0.50400000000E-02 0. -1.
         25    2    1    2    0    0  0.33202179133E+02  0.56920254197E+01 -0.99865887088E+02  0.16350253267E+03  0.12500039573E+03 0.  0.
         23    2    1    2    0    0 -0.33202179133E+02 -0.56920254197E+01 -0.27333341204E+03  0.29022671484E+03  0.91572965532E+02 0.  0.
        -11    1    4    4    0    0 -0.28069249571E+02 -0.46553959594E+02 -0.12557804608E+03  0.13683932031E+03  0.51100000000E-03 0.  1.
         11    1    4    4    0    0 -0.51329295621E+01  0.40861934174E+02 -0.14775536596E+03  0.15338739453E+03  0.51100000000E-03 0. -1.
    9000005    1    3    3    0    0 -0.23627134973E+02 -0.84714377741E+01  0.18660022938E+02  0.31292223012E+02  0.10000000000E+01 0.  0.
    9000005    1    3    3    0    0  0.56829314107E+02  0.14163463194E+02 -0.11852591003E+03  0.13221030965E+03  0.10000000000E+01 0.  0.
<mgrwt>
<rscale>  0 0.12062393E+03</rscale>
<asrwt>0</asrwt>
<pdfrwt beam="2">  1        1 0.63609885E-01 0.12945997E+03</pdfrwt>
<pdfrwt beam="1">  1       -1 0.61946117E-02 0.12945997E+03</pdfrwt>
<totfact> 0.70386811E+03</totfact>
</mgrwt>
</event>
<event>
 8    2  0.7478846E-004  0.1431559E+03  0.7818608E-02  0.1219459E+00
          1   -1    0    0  501    0  0.00000000000E+00  0.00000000000E+00  0.87709391918E+02  0.87709392063E+02  0.50400000000E-02 0. -1.
         -1   -1    0    0    0  501 -0.00000000000E+00 -0.00000000000E+00 -0.28478617335E+03  0.28478617340E+03  0.50400000000E-02 0.  1.
         25    2    1    2    0    0 -0.14012776998E+02 -0.68354904946E+02  0.13168416461E+01  0.14316194923E+03  0.12499943474E+03 0.  0.
         23    2    1    2    0    0  0.14012776998E+02  0.68354904946E+02 -0.19839362308E+03  0.22933361624E+03  0.91461067710E+02 0.  0.
        -11    1    4    4    0    0  0.40692628421E+02  0.76981965554E+01 -0.39737923972E+02  0.57395599482E+02  0.51100000000E-03 0. -1.
         11    1    4    4    0    0 -0.26679851424E+02  0.60656708390E+02 -0.15865569911E+03  0.17193801675E+03  0.51100000000E-03 0.  1.
    9000005    1    3    3    0    0 -0.86365792875E+01 -0.66261839247E+02 -0.54993676477E+02  0.86547826631E+02  0.10000000000E+01 0.  0.
    9000005    1    3    3    0    0 -0.53761977102E+01 -0.20930656992E+01  0.56310518123E+02  0.56614122594E+02  0.10000000000E+01 0.  0.
<mgrwt>
<rscale>  0 0.13554010E+03</rscale>
<asrwt>0</asrwt>
<pdfrwt beam="1">  1        1 0.13493753E-01 0.14315589E+03</pdfrwt>
<pdfrwt beam="2">  1       -1 0.43813257E-01 0.14315589E+03</pdfrwt>
<totfact> 0.21872957E+03</totfact>
</mgrwt>
</event>
<event>
 8    2  0.7478846E-004  0.1349847E+03  0.7818608E-02  0.1231460E+00
          1   -1    0    0  501    0  0.00000000000E+00  0.00000000000E+00  0.59358793682E+02  0.59358793896E+02  0.50400000000E-02 0. -1.
         -1   -1    0    0    0  501 -0.00000000000E+00 -0.00000000000E+00 -0.25545064056E+03  0.25545064061E+03  0.50400000000E-02 0.  1.
         25    2    1    2    0    0 -0.17725713708E+02 -0.47780347211E+02 -0.79622928813E+02  0.15671846473E+03  0.12499481545E+03 0.  0.
         23    2    1    2    0    0  0.17725713708E+02  0.47780347211E+02 -0.11646891807E+03  0.15809096978E+03  0.93971183583E+02 0.  0.
        -11    1    4    4    0    0  0.18270304222E+02  0.98940396995E+01 -0.11834430886E+03  0.12015436521E+03  0.51100000000E-03 0.  1.
         11    1    4    4    0    0 -0.54459051375E+00  0.37886307511E+02  0.18753907931E+01  0.37936604573E+02  0.51100000000E-03 0. -1.
    9000005    1    3    3    0    0  0.36468149603E+02  0.24893494602E+02 -0.22559440514E+02  0.49593753288E+02  0.10000000000E+01 0.  0.
    9000005    1    3    3    0    0 -0.54193863311E+02 -0.72673841813E+02 -0.57063488299E+02  0.10712471144E+03  0.10000000000E+01 0.  0.
<mgrwt>
<rscale>  0 0.12733813E+03</rscale>
<asrwt>0</asrwt>
<pdfrwt beam="1">  1        1 0.91321223E-02 0.13498469E+03</pdfrwt>
<pdfrwt beam="2">  1       -1 0.39300098E-01 0.13498469E+03</pdfrwt>
<totfact> 0.44211583E+03</totfact>
</mgrwt>
</event>
<event>
 8    2  0.7478846E-004  0.1303579E+03  0.7818608E-02  0.1239599E+00
         -1   -1    0    0    0  501 -0.00000000000E+00  0.00000000000E+00  0.14574470364E+02  0.14574471235E+02  0.50400000000E-02 0.  1.
          1   -1    0    0  501    0  0.00000000000E+00 -0.00000000000E+00 -0.15547648950E+04  0.15547648950E+04  0.50400000000E-02 0. -1.
         25    2    1    2    0    0  0.30355654795E+02 -0.21107835251E+02 -0.13299075463E+04  0.13362811282E+04  0.12500466065E+03 0.  0.
         23    2    1    2    0    0 -0.30355654795E+02  0.21107835251E+02 -0.21028287830E+03  0.23305823809E+03  0.93435790498E+02 0.  0.
        -11    1    4    4    0    0 -0.28286089323E+02  0.28894019248E+02 -0.21810955539E+03  0.22182593480E+03  0.51100000000E-03 0. -1.
         11    1    4    4    0    0 -0.20695654718E+01 -0.77861839974E+01  0.78266770913E+01  0.11232303283E+02  0.51100000000E-03 0.  1.
    9000005    1    3    3    0    0  0.33196178103E+02 -0.47840807934E+02 -0.12604654459E+04  0.12618101559E+04  0.10000000000E+01 0.  0.
    9000005    1    3    3    0    0 -0.28405233082E+01  0.26732972683E+02 -0.69442100457E+02  0.74470972311E+02  0.10000000000E+01 0.  0.
<mgrwt>
<rscale>  0 0.12214574E+03</rscale>
<asrwt>0</asrwt>
<pdfrwt beam="2">  1        1 0.23919447E+00 0.13035786E+03</pdfrwt>
<pdfrwt beam="1">  1       -1 0.22422275E-02 0.13035786E+03</pdfrwt>
<totfact> 0.37692681E+03</totfact>
</mgrwt>
</event>
<event>
 8    2  0.7478846E-004  0.2428245E+03  0.7818608E-02  0.1121087E+00
         -1   -1    0    0    0  501 -0.00000000000E+00  0.00000000000E+00  0.31744969154E+03  0.31744969158E+03  0.50400000000E-02 0.  1.
          1   -1    0    0  501    0  0.00000000000E+00 -0.00000000000E+00 -0.18046941920E+03  0.18046941927E+03  0.50400000000E-02 0. -1.
         25    2    1    2    0    0 -0.16374420344E+03 -0.12855823058E+03  0.12535666727E+03  0.27327280684E+03  0.12499740044E+03 0.  0.
         23    2    1    2    0    0  0.16374420344E+03  0.12855823058E+03  0.11623605066E+02  0.22464630401E+03  0.83615016011E+02 0.  0.
        -11    1    4    4    0    0  0.11863086375E+03  0.40438634120E+02  0.51943816317E+01  0.12544140689E+03  0.51100000000E-03 0. -1.
         11    1    4    4    0    0  0.45113339695E+02  0.88119596460E+02  0.64292234339E+01  0.99204897122E+02  0.51100000000E-03 0.  1.
    9000005    1    3    3    0    0 -0.15613077887E+03 -0.14687117558E+03  0.89513423941E+02  0.23229639557E+03  0.10000000000E+01 0.  0.
    9000005    1    3    3    0    0 -0.76134245720E+01  0.18312945003E+02  0.35843243326E+02  0.40976411270E+02  0.10000000000E+01 0.  0.
<mgrwt>
<rscale>  0 0.23806670E+03</rscale>
<asrwt>0</asrwt>
<pdfrwt beam="2">  1        1 0.27764526E-01 0.24282449E+03</pdfrwt>
<pdfrwt beam="1">  1       -1 0.48838413E-01 0.24282449E+03</pdfrwt>
<totfact> 0.71896371E+02</totfact>
</mgrwt>
</event>
<event>
 8    2  0.7478846E-004  0.1502189E+03  0.7818608E-02  0.1210151E+00
         -1   -1    0    0    0  501 -0.00000000000E+00  0.00000000000E+00  0.21927917222E+03  0.21927917227E+03  0.50400000000E-02 0.  1.
          1   -1    0    0  501    0  0.00000000000E+00 -0.00000000000E+00 -0.16642612544E+03  0.16642612552E+03  0.50400000000E-02 0. -1.
         25    2    1    2    0    0  0.30369336675E+02  0.77581133257E+02  0.16315811106E+03  0.22177979065E+03  0.12499830994E+03 0.  0.
         23    2    1    2    0    0 -0.30369336675E+02 -0.77581133257E+02 -0.11030506429E+03  0.16392550714E+03  0.88109226740E+02 0.  0.
        -11    1    4    4    0    0 -0.39427643062E+02 -0.62093231559E+02 -0.26437906863E+02  0.78160548632E+02  0.51100000000E-03 0.  1.
         11    1    4    4    0    0  0.90583063872E+01 -0.15487901698E+02 -0.83867157423E+02  0.85764958509E+02  0.51100000000E-03 0. -1.
    9000005    1    3    3    0    0  0.35793601507E+02  0.13236088481E+02 -0.78580700885E+01  0.38975956853E+02  0.10000000000E+01 0.  0.
    9000005    1    3    3    0    0 -0.54242648323E+01  0.64345044777E+02  0.17101618115E+03  0.18280383380E+03  0.10000000000E+01 0.  0.
<mgrwt>
<rscale>  0 0.14238824E+03</rscale>
<asrwt>0</asrwt>
<pdfrwt beam="2">  1        1 0.25604019E-01 0.15021886E+03</pdfrwt>
<pdfrwt beam="1">  1       -1 0.33735257E-01 0.15021886E+03</pdfrwt>
<totfact> 0.15228939E+03</totfact>
</mgrwt>
</event>
<event>
 8    2  0.7478846E-004  0.1414029E+03  0.7818608E-02  0.1222378E+00
         -1   -1    0    0    0  501 -0.00000000000E+00  0.00000000000E+00  0.12290315719E+04  0.12290315719E+04  0.50400000000E-02 0.  1.
          1   -1    0    0  501    0  0.00000000000E+00 -0.00000000000E+00 -0.16060878101E+02  0.16060878892E+02  0.50400000000E-02 0. -1.
         25    2    1    2    0    0 -0.47770969711E+02  0.45656880191E+02  0.92947918889E+03  0.94017356610E+03  0.12501262161E+03 0.  0.
         23    2    1    2    0    0  0.47770969711E+02 -0.45656880191E+02  0.28349150495E+03  0.30491888474E+03  0.90782578928E+02 0.  0.
        -11    1    4    4    0    0  0.22680118612E+02 -0.71861890476E+02  0.17543601608E+03  0.19093536818E+03  0.51100000000E-03 0.  1.
         11    1    4    4    0    0  0.25090851099E+02  0.26205010284E+02  0.10805548886E+03  0.11398351656E+03  0.51100000000E-03 0. -1.
    9000005    1    3    3    0    0  0.97011496488E+01 -0.31721380974E+02  0.44271129491E+03  0.44395343107E+03  0.10000000000E+01 0.  0.
    9000005    1    3    3    0    0 -0.57472119360E+02  0.77378261165E+02  0.48676789398E+03  0.49622013504E+03  0.10000000000E+01 0.  0.
<mgrwt>
<rscale>  0 0.13348266E+03</rscale>
<asrwt>0</asrwt>
<pdfrwt beam="2">  1        1 0.24709035E-02 0.14140287E+03</pdfrwt>
<pdfrwt beam="1">  1       -1 0.18908185E+00 0.14140287E+03</pdfrwt>
<totfact> 0.87376158E+02</totfact>
</mgrwt>
</event>
<event>
 8    2  0.7478846E-004  0.2080624E+03  0.7818608E-02  0.1146975E+00
         -1   -1    0    0    0  501 -0.00000000000E+00  0.00000000000E+00  0.76121708098E+02  0.76121708265E+02  0.50400000000E-02 0.  1.
          1   -1    0    0  501    0  0.00000000000E+00 -0.00000000000E+00 -0.52522700254E+03  0.52522700256E+03  0.50400000000E-02 0. -1.
         25    2    1    2    0    0  0.16513498204E+03  0.19905999989E+02 -0.20375068092E+03  0.29121180160E+03  0.12499664909E+03 0.  0.
         23    2    1    2    0    0 -0.16513498204E+03 -0.19905999989E+02 -0.24535461352E+03  0.31013690923E+03  0.91215157522E+02 0.  0.
        -11    1    4    4    0    0 -0.10869526942E+03 -0.52855330544E+02 -0.18619379373E+03  0.22198305427E+03  0.51100000000E-03 0.  1.
         11    1    4    4    0    0 -0.56439712626E+02  0.32949330554E+02 -0.59160819784E+02  0.88153854953E+02  0.51100000000E-03 0. -1.
    9000005    1    3    3    0    0  0.12272532353E+03  0.64920948891E+02 -0.10256283602E+03  0.17261625061E+03  0.10000000000E+01 0.  0.
    9000005    1    3    3    0    0  0.42409658512E+02 -0.45014948902E+02 -0.10118784490E+03  0.11859555099E+03  0.10000000000E+01 0.  0.
<mgrwt>
<rscale>  0 0.20331151E+03</rscale>
<asrwt>0</asrwt>
<pdfrwt beam="2">  1        1 0.80804152E-01 0.20806243E+03</pdfrwt>
<pdfrwt beam="1">  1       -1 0.11711032E-01 0.20806243E+03</pdfrwt>
<totfact> 0.19978079E+03</totfact>
</mgrwt>
</event>
<event>
 8    2  0.7478846E-004  0.1254440E+03  0.7818608E-02  0.1249257E+00
          1   -1    0    0  501    0  0.00000000000E+00  0.00000000000E+00  0.13753077756E+04  0.13753077756E+04  0.50400000000E-02 0. -1.
         -1   -1    0    0    0  501 -0.00000000000E+00 -0.00000000000E+00 -0.10219854331E+02  0.10219855574E+02  0.50400000000E-02 0.  1.
         25    2    1    2    0    0 -0.64594076644E+01  0.82625551436E+01  0.10371767325E+04  0.10447352593E+04  0.12500477569E+03 0.  0.
         23    2    1    2    0    0  0.64594076644E+01 -0.82625551436E+01  0.32791118879E+03  0.34079237184E+03  0.92215504167E+02 0.  0.
        -11    1    4    4    0    0 -0.13635190728E+02 -0.23782290503E+00  0.15617418527E+01  0.13726398792E+02  0.51100000000E-03 0.  1.
         11    1    4    4    0    0  0.20094598392E+02 -0.80247322386E+01  0.32634944694E+03  0.32706597305E+03  0.51100000000E-03 0. -1.
    9000005    1    3    3    0    0  0.14968009359E+01  0.16457640600E+01  0.10338020830E+04  0.10338049602E+04  0.10000000000E+01 0.  0.
    9000005    1    3    3    0    0 -0.79562086003E+01  0.66167910836E+01  0.33746494618E+01  0.10930299105E+02  0.10000000000E+01 0.  0.
<mgrwt>
<rscale>  0 0.11634186E+03</rscale>
<asrwt>0</asrwt>
<pdfrwt beam="1">  1        1 0.21158560E+00 0.12544396E+03</pdfrwt>
<pdfrwt beam="2">  1       -1 0.15722870E-02 0.12544396E+03</pdfrwt>
<totfact> 0.82040924E+03</totfact>
</mgrwt>
</event>
<event>
 8    2  0.7478846E-004  0.1424636E+03  0.7818608E-02  0.1221702E+00
          1   -1    0    0  501    0  0.00000000000E+00  0.00000000000E+00  0.20005315364E+03  0.20005315370E+03  0.50400000000E-02 0. -1.
         -1   -1    0    0    0  501 -0.00000000000E+00 -0.00000000000E+00 -0.82274864182E+02  0.82274864336E+02  0.50400000000E-02 0.  1.
         25    2    1    2    0    0  0.55544943488E+01 -0.68135756120E+02  0.86464352419E+02  0.16664918138E+03  0.12499012660E+03 0.  0.
         23    2    1    2    0    0 -0.55544943488E+01  0.68135756120E+02  0.31313937036E+02  0.11567883665E+03  0.87907320101E+02 0.  0.
        -11    1    4    4    0    0  0.14360408655E+02  0.84417934273E+02  0.24563190708E+02  0.89084001379E+02  0.51100000000E-03 0.  1.
         11    1    4    4    0    0 -0.19914903004E+02 -0.16282178153E+02  0.67507463278E+01  0.26594835275E+02  0.51100000000E-03 0. -1.
    9000005    1    3    3    0    0  0.33002662809E+01  0.11161800921E+02 -0.26296873086E+02  0.28775042857E+02  0.10000000000E+01 0.  0.
    9000005    1    3    3    0    0  0.22542280679E+01 -0.79297557041E+02  0.11276122551E+03  0.13787413853E+03  0.10000000000E+01 0.  0.
<mgrwt>
<rscale>  0 0.13395535E+03</rscale>
<asrwt>0</asrwt>
<pdfrwt beam="1">  1        1 0.30777408E-01 0.14246356E+03</pdfrwt>
<pdfrwt beam="2">  1       -1 0.12657672E-01 0.14246356E+03</pdfrwt>
<totfact> 0.59022171E+03</totfact>
</mgrwt>
</event>
<event>
 8    2  0.7478846E-004  0.1921781E+03  0.7818608E-02  0.1160819E+00
          1   -1    0    0  501    0  0.00000000000E+00  0.00000000000E+00  0.13428696517E+04  0.13428696517E+04  0.50400000000E-02 0. -1.
         -1   -1    0    0    0  501 -0.00000000000E+00 -0.00000000000E+00 -0.26718577625E+02  0.26718578100E+02  0.50400000000E-02 0.  1.
         25    2    1    2    0    0  0.14333111451E+03 -0.27654197684E+02  0.86559910792E+03  0.88667595931E+03  0.12499551256E+03 0.  0.
         23    2    1    2    0    0 -0.14333111451E+03  0.27654197684E+02  0.45055196618E+03  0.48291227052E+03  0.94332516950E+02 0.  0.
        -11    1    4    4    0    0 -0.14517834303E+03  0.43216596690E+02  0.43586000272E+03  0.46143078299E+03  0.51100000000E-03 0. -1.
         11    1    4    4    0    0  0.18472285260E+01 -0.15562399006E+02  0.14691963456E+02  0.21481487530E+02  0.51100000000E-03 0.  1.
    9000005    1    3    3    0    0  0.10705878752E+03  0.38531790128E+02  0.44242071329E+03  0.45681875004E+03  0.10000000000E+01 0.  0.
    9000005    1    3    3    0    0  0.36272326987E+02 -0.66185987812E+02  0.42317839462E+03  0.42985720927E+03  0.10000000000E+01 0.  0.
<mgrwt>
<rscale>  0 0.18740958E+03</rscale>
<asrwt>0</asrwt>
<pdfrwt beam="1">  1        1 0.20659535E+00 0.19217815E+03</pdfrwt>
<pdfrwt beam="2">  1       -1 0.41105501E-02 0.19217815E+03</pdfrwt>
<totfact> 0.21513102E+03</totfact>
</mgrwt>
</event>
<event>
 8    2  0.7478846E-004  0.1257641E+03  0.7818608E-02  0.1248939E+00
          1   -1    0    0  501    0  0.00000000000E+00  0.00000000000E+00  0.58582975995E+03  0.58582975998E+03  0.50400000000E-02 0. -1.
         -1   -1    0    0    0  501 -0.00000000000E+00 -0.00000000000E+00 -0.20677655644E+02  0.20677656258E+02  0.50400000000E-02 0.  1.
         25    2    1    2    0    0  0.61494252448E+01  0.12389173084E+02  0.28785584291E+03  0.31412988954E+03  0.12500117666E+03 0.  0.
         23    2    1    2    0    0 -0.61494252448E+01 -0.12389173084E+02  0.27729626140E+03  0.29237752670E+03  0.91652029368E+02 0.  0.
        -11    1    4    4    0    0 -0.12177627232E+01  0.99997342171E+01  0.26709465775E+03  0.26728455591E+03  0.51100000000E-03 0. -1.
         11    1    4    4    0    0 -0.49316625216E+01 -0.22388907301E+02  0.10201603655E+02  0.25092970784E+02  0.51100000000E-03 0.  1.
    9000005    1    3    3    0    0  0.25366512281E+01  0.60806549928E+02  0.79145262139E+02  0.99844096634E+02  0.10000000000E+01 0.  0.
    9000005    1    3    3    0    0  0.36127740167E+01 -0.48417376844E+02  0.20871058077E+03  0.21428579290E+03  0.10000000000E+01 0.  0.
<mgrwt>
<rscale>  0 0.11652670E+03</rscale>
<asrwt>0</asrwt>
<pdfrwt beam="1">  1        1 0.90127638E-01 0.12576407E+03</pdfrwt>
<pdfrwt beam="2">  1       -1 0.31811785E-02 0.12576407E+03</pdfrwt>
<totfact> 0.11904612E+04</totfact>
</mgrwt>
</event>
<event>
 8    2  0.7478846E-004  0.1928194E+03  0.7818608E-02  0.1161113E+00
          1   -1    0    0  501    0  0.00000000000E+00  0.00000000000E+00  0.10775742102E+04  0.10775742102E+04  0.50400000000E-02 0. -1.
         -1   -1    0    0    0  501 -0.00000000000E+00 -0.00000000000E+00 -0.30738203441E+02  0.30738203854E+02  0.50400000000E-02 0.  1.
         25    2    1    2    0    0 -0.14315278086E+03 -0.32586279149E+02  0.57630324382E+03  0.60770448459E+03  0.12499891001E+03 0.  0.
         23    2    1    2    0    0  0.14315278086E+03  0.32586279149E+02  0.47053276298E+03  0.50060792951E+03  0.87479333540E+02 0.  0.
        -11    1    4    4    0    0  0.90543020331E+02  0.42900521317E+02  0.39797146945E+03  0.41038979490E+03  0.51100000000E-03 0. -1.
         11    1    4    4    0    0  0.52609760526E+02 -0.10314242167E+02  0.72561293526E+02  0.90218134610E+02  0.51100000000E-03 0.  1.
    9000005    1    3    3    0    0 -0.40456819666E+02  0.40690391314E+02  0.27726663064E+03  0.28314350896E+03  0.10000000000E+01 0.  0.
    9000005    1    3    3    0    0 -0.10269596119E+03 -0.73276670464E+02  0.29903661318E+03  0.32456097563E+03  0.10000000000E+01 0.  0.
<mgrwt>
<rscale>  0 0.18708944E+03</rscale>
<asrwt>0</asrwt>
<pdfrwt beam="1">  1        1 0.16578066E+00 0.19281938E+03</pdfrwt>
<pdfrwt beam="2">  1       -1 0.47289540E-02 0.19281938E+03</pdfrwt>
<totfact> 0.26669387E+03</totfact>
</mgrwt>
</event>
<event>
 8    2  0.7478846E-004  0.1319155E+03  0.7818608E-02  0.1238567E+00
          1   -1    0    0  501    0  0.00000000000E+00  0.00000000000E+00  0.10881063384E+04  0.10881063384E+04  0.50400000000E-02 0. -1.
         -1   -1    0    0    0  501 -0.00000000000E+00 -0.00000000000E+00 -0.13540329675E+02  0.13540330613E+02  0.50400000000E-02 0.  1.
         25    2    1    2    0    0 -0.72436928541E+01  0.41523654883E+02  0.43829883411E+03  0.45771995824E+03  0.12500002872E+03 0.  0.
         23    2    1    2    0    0  0.72436928541E+01 -0.41523654883E+02  0.63626717460E+03  0.64392671078E+03  0.89604722977E+02 0.  0.
        -11    1    4    4    0    0  0.10160324430E+02 -0.58361260388E+01  0.70149934280E+01  0.13656598871E+02  0.51100000000E-03 0.  1.
         11    1    4    4    0    0 -0.29166315754E+01 -0.35687528845E+02  0.62925218117E+03  0.63027011191E+03  0.51100000000E-03 0. -1.
    9000005    1    3    3    0    0  0.13191380165E+02  0.44652017346E+02  0.43411271557E+03  0.43660355586E+03  0.10000000000E+01 0.  0.
    9000005    1    3    3    0    0 -0.20435073020E+02 -0.31283624630E+01  0.41861185418E+01  0.21116402380E+02  0.10000000000E+01 0.  0.
<mgrwt>
<rscale>  0 0.12278819E+03</rscale>
<asrwt>0</asrwt>
<pdfrwt beam="1">  1        1 0.16740095E+00 0.13191547E+03</pdfrwt>
<pdfrwt beam="2">  1       -1 0.20831281E-02 0.13191547E+03</pdfrwt>
<totfact> 0.85977168E+03</totfact>
</mgrwt>
</event>
<event>
 8    2  0.7478846E-004  0.1301269E+03  0.7818608E-02  0.1240929E+00
          1   -1    0    0  501    0  0.00000000000E+00  0.00000000000E+00  0.64351500675E+03  0.64351500677E+03  0.50400000000E-02 0. -1.
         -1   -1    0    0    0  501 -0.00000000000E+00 -0.00000000000E+00 -0.20410773127E+02  0.20410773750E+02  0.50400000000E-02 0.  1.
         25    2    1    2    0    0  0.34724797703E+02  0.10145915959E+02  0.38131396406E+03  0.40290612329E+03  0.12499701522E+03 0.  0.
         23    2    1    2    0    0 -0.34724797703E+02 -0.10145915959E+02  0.24179026956E+03  0.26101965722E+03  0.91432903363E+02 0.  0.
        -11    1    4    4    0    0  0.19953543660E+02 -0.33214655969E+02  0.10448286025E+03  0.11143619413E+03  0.51100000000E-03 0. -1.
         11    1    4    4    0    0 -0.54678341362E+02  0.23068740010E+02  0.13730740931E+03  0.14958346310E+03  0.51100000000E-03 0.  1.
    9000005    1    3    3    0    0 -0.11213811159E+02  0.49801279271E+02  0.28145338547E+03  0.28604706810E+03  0.10000000000E+01 0.  0.
    9000005    1    3    3    0    0  0.45938608861E+02 -0.39655363312E+02  0.99860578593E+02  0.11685905519E+03  0.10000000000E+01 0.  0.
<mgrwt>
<rscale>  0 0.12132392E+03</rscale>
<asrwt>0</asrwt>
<pdfrwt beam="1">  1        1 0.99002327E-01 0.13012688E+03</pdfrwt>
<pdfrwt beam="2">  1       -1 0.31401184E-02 0.13012688E+03</pdfrwt>
<totfact> 0.10696341E+04</totfact>
</mgrwt>
</event>
<event>
 8    2  0.7478846E-004  0.1274123E+03  0.7818608E-02  0.1245854E+00
          1   -1    0    0  501    0  0.00000000000E+00  0.00000000000E+00  0.33422479643E+03  0.33422479646E+03  0.50400000000E-02 0. -1.
         -1   -1    0    0    0  501 -0.00000000000E+00 -0.00000000000E+00 -0.44368079329E+02  0.44368079616E+02  0.50400000000E-02 0.  1.
         25    2    1    2    0    0 -0.23975535755E+02  0.57891516193E+01  0.23935006377E+03  0.27115003689E+03  0.12500219555E+03 0.  0.
         23    2    1    2    0    0  0.23975535755E+02 -0.57891516193E+01  0.50506653332E+02  0.10744283919E+03  0.91568013358E+02 0.  0.
        -11    1    4    4    0    0  0.51676672834E+02  0.19568873540E+02  0.40699181448E+02  0.68628293711E+02  0.51100000000E-03 0.  1.
         11    1    4    4    0    0 -0.27701137079E+02 -0.25358025159E+02  0.98074718838E+01  0.38814545475E+02  0.51100000000E-03 0. -1.
    9000005    1    3    3    0    0 -0.69450443462E+02  0.86877698769E+01  0.84477542280E+02  0.10971005693E+03  0.10000000000E+01 0.  0.
    9000005    1    3    3    0    0  0.45474907707E+02 -0.28986182577E+01  0.15487252149E+03  0.16143997996E+03  0.10000000000E+01 0.  0.
<mgrwt>
<rscale>  0 0.11834415E+03</rscale>
<asrwt>0</asrwt>
<pdfrwt beam="1">  1        1 0.51419199E-01 0.12741228E+03</pdfrwt>
<pdfrwt beam="2">  1       -1 0.68258585E-02 0.12741228E+03</pdfrwt>
<totfact> 0.79377816E+03</totfact>
</mgrwt>
</event>
<event>
 8    2  0.7478846E-004  0.1267603E+03  0.7818608E-02  0.1247084E+00
          1   -1    0    0  501    0  0.00000000000E+00  0.00000000000E+00  0.33101830205E+03  0.33101830209E+03  0.50400000000E-02 0. -1.
         -1   -1    0    0    0  501 -0.00000000000E+00 -0.00000000000E+00 -0.55182160491E+02  0.55182160721E+02  0.50400000000E-02 0.  1.
         25    2    1    2    0    0  0.18363110765E+02 -0.10265936889E+02  0.26224078817E+03  0.29127032487E+03  0.12500231147E+03 0.  0.
         23    2    1    2    0    0 -0.18363110765E+02  0.10265936889E+02  0.13595353385E+02  0.94930137937E+02  0.91565846022E+02 0.  0.
        -11    1    4    4    0    0 -0.15628247006E+02  0.29918495353E+02  0.45926140205E+02  0.56996217620E+02  0.51100000000E-03 0. -1.
         11    1    4    4    0    0 -0.27348637596E+01 -0.19652558464E+02 -0.32330786819E+02  0.37933920316E+02  0.51100000000E-03 0.  1.
    9000005    1    3    3    0    0  0.48774289883E+02 -0.52932458340E+02  0.17869332723E+03  0.19264755824E+03  0.10000000000E+01 0.  0.
    9000005    1    3    3    0    0 -0.30411179118E+02  0.42666521451E+02  0.83547460944E+02  0.98622766632E+02  0.10000000000E+01 0.  0.
<mgrwt>
<rscale>  0 0.11761519E+03</rscale>
<asrwt>0</asrwt>
<pdfrwt beam="1">  1        1 0.50925893E-01 0.12676029E+03</pdfrwt>
<pdfrwt beam="2">  1       -1 0.84895632E-02 0.12676029E+03</pdfrwt>
<totfact> 0.57864951E+03</totfact>
</mgrwt>
</event>
<event>
 8    2  0.7478846E-004  0.1311555E+03  0.7818608E-02  0.1239026E+00
         -1   -1    0    0    0  501 -0.00000000000E+00  0.00000000000E+00  0.93603127490E+01  0.93603141059E+01  0.50400000000E-02 0.  1.
          1   -1    0    0  501    0  0.00000000000E+00 -0.00000000000E+00 -0.14319403391E+04  0.14319403391E+04  0.50400000000E-02 0. -1.
         25    2    1    2    0    0  0.36418497638E+02  0.15833089850E+02 -0.75714777316E+03  0.76842339110E+03  0.12499905549E+03 0.  0.
         23    2    1    2    0    0 -0.36418497638E+02 -0.15833089850E+02 -0.66543225319E+03  0.67287726213E+03  0.91579105637E+02 0.  0.
        -11    1    4    4    0    0 -0.27118843840E+02 -0.23679457373E+02 -0.84906096341E+02  0.92223606462E+02  0.51100000000E-03 0.  1.
         11    1    4    4    0    0 -0.92996537979E+01  0.78463675228E+01 -0.58052615685E+03  0.58065365566E+03  0.51100000000E-03 0. -1.
    9000005    1    3    3    0    0  0.49286905332E+01  0.29751154567E+02 -0.70667224032E+03  0.70731610926E+03  0.10000000000E+01 0.  0.
    9000005    1    3    3    0    0  0.31489807104E+02 -0.13918064717E+02 -0.50475532847E+02  0.61107281834E+02  0.10000000000E+01 0.  0.
<mgrwt>
<rscale>  0 0.12250182E+03</rscale>
<asrwt>0</asrwt>
<pdfrwt beam="2">  1        1 0.22029834E+00 0.13115547E+03</pdfrwt>
<pdfrwt beam="1">  1       -1 0.14400494E-02 0.13115547E+03</pdfrwt>
<totfact> 0.85604136E+03</totfact>
</mgrwt>
</event>
<event>
 8    2  0.7478846E-004  0.1389282E+03  0.7818608E-02  0.1226284E+00
         -1   -1    0    0    0  501 -0.00000000000E+00  0.00000000000E+00  0.11156141642E+02  0.11156142780E+02  0.50400000000E-02 0.  1.
          1   -1    0    0  501    0  0.00000000000E+00 -0.00000000000E+00 -0.13801262319E+04  0.13801262320E+04  0.50400000000E-02 0. -1.
         25    2    1    2    0    0 -0.11600147582E+02 -0.59505004158E+02 -0.78667901555E+03  0.79885225367E+03  0.12500256294E+03 0.  0.
         23    2    1    2    0    0  0.11600147582E+02  0.59505004158E+02 -0.58229107475E+03  0.59243012106E+03  0.90747692336E+02 0.  0.
        -11    1    4    4    0    0  0.30548992034E+02  0.18973328954E+02 -0.47258137696E+03  0.47394766164E+03  0.51100000000E-03 0. -1.
         11    1    4    4    0    0 -0.18948844452E+02  0.40531675203E+02 -0.10970969779E+03  0.11848245942E+03  0.51100000000E-03 0.  1.
    9000005    1    3    3    0    0  0.23022067374E+01  0.31317875311E+02 -0.75711352045E+02  0.81971448067E+02  0.10000000000E+01 0.  0.
    9000005    1    3    3    0    0 -0.13902354320E+02 -0.90822879468E+02 -0.71096766351E+03  0.71688080561E+03  0.10000000000E+01 0.  0.
<mgrwt>
<rscale>  0 0.13079295E+03</rscale>
<asrwt>0</asrwt>
<pdfrwt beam="2">  1        1 0.21232698E+00 0.13892822E+03</pdfrwt>
<pdfrwt beam="1">  1       -1 0.17163307E-02 0.13892822E+03</pdfrwt>
<totfact> 0.72133561E+03</totfact>
</mgrwt>
</event>
<event>
 8    2  0.7478846E-004  0.1349334E+03  0.7818608E-02  0.1232081E+00
         -1   -1    0    0    0  501 -0.00000000000E+00  0.00000000000E+00  0.88774105094E+02  0.88774105237E+02  0.50400000000E-02 0.  1.
          1   -1    0    0  501    0  0.00000000000E+00 -0.00000000000E+00 -0.20472429537E+03  0.20472429543E+03  0.50400000000E-02 0. -1.
         25    2    1    2    0    0  0.47893065511E+02 -0.16966402664E+02  0.22545705679E+01  0.13495219871E+03  0.12500163320E+03 0.  0.
         23    2    1    2    0    0 -0.47893065511E+02  0.16966402664E+02 -0.11820476084E+03  0.15854620196E+03  0.92644093861E+02 0.  0.
        -11    1    4    4    0    0  0.13757138069E+02  0.14309060554E+02  0.52467940788E+01  0.20531364060E+02  0.51100000000E-03 0.  1.
         11    1    4    4    0    0 -0.61650203579E+02  0.26573421100E+01 -0.12345155492E+03  0.13801483790E+03  0.51100000000E-03 0. -1.
    9000005    1    3    3    0    0  0.65925064649E+02  0.13794407201E+02  0.43682015120E+02  0.80283985102E+02  0.10000000000E+01 0.  0.
    9000005    1    3    3    0    0 -0.18031999139E+02 -0.30760809865E+02 -0.41427444552E+02  0.54668213603E+02  0.10000000000E+01 0.  0.
<mgrwt>
<rscale>  0 0.12693155E+03</rscale>
<asrwt>0</asrwt>
<pdfrwt beam="2">  1        1 0.31496045E-01 0.13493336E+03</pdfrwt>
<pdfrwt beam="1">  1       -1 0.13657555E-01 0.13493336E+03</pdfrwt>
<totfact> 0.50796409E+03</totfact>
</mgrwt>
</event>
<event>
 8    2  0.7478846E-004  0.1811048E+03  0.7818608E-02  0.1172209E+00
         -1   -1    0    0    0  501 -0.00000000000E+00  0.00000000000E+00  0.29776234148E+02  0.29776234575E+02  0.50400000000E-02 0.  1.
          1   -1    0    0  501    0  0.00000000000E+00 -0.00000000000E+00 -0.11897778115E+04  0.11897778116E+04  0.50400000000E-02 0. -1.
         25    2    1    2    0    0 -0.28196586676E+02  0.12798113054E+03 -0.86801884272E+03  0.88671058844E+03  0.12499895620E+03 0.  0.
         23    2    1    2    0    0  0.28196586676E+02 -0.12798113054E+03 -0.29198273467E+03  0.33284345769E+03  0.91414619760E+02 0.  0.
        -11    1    4    4    0    0  0.86685305826E+01 -0.12293405351E+03 -0.28659136948E+03  0.31196560387E+03  0.51100000000E-03 0. -1.
         11    1    4    4    0    0  0.19528056093E+02 -0.50470770324E+01 -0.53913651890E+01  0.20877853822E+02  0.51100000000E-03 0.  1.
    9000005    1    3    3    0    0  0.23548241904E+02  0.34277246294E+02 -0.54143297396E+03  0.54302864989E+03  0.10000000000E+01 0.  0.
    9000005    1    3    3    0    0 -0.51744828579E+02  0.93703884250E+02 -0.32658586876E+03  0.34368193855E+03  0.10000000000E+01 0.  0.
<mgrwt>
<rscale>  0 0.17552164E+03</rscale>
<asrwt>0</asrwt>
<pdfrwt beam="2">  1        1 0.18304270E+00 0.18110482E+03</pdfrwt>
<pdfrwt beam="1">  1       -1 0.45809600E-02 0.18110482E+03</pdfrwt>
<totfact> 0.23280251E+03</totfact>
</mgrwt>
</event>
<event>
 8    2  0.7478846E-004  0.1291202E+03  0.7818608E-02  0.1242914E+00
          1   -1    0    0  501    0  0.00000000000E+00  0.00000000000E+00  0.10223317171E+04  0.10223317172E+04  0.50400000000E-02 0. -1.
         -1   -1    0    0    0  501 -0.00000000000E+00 -0.00000000000E+00 -0.14021354369E+02  0.14021355275E+02  0.50400000000E-02 0.  1.
         25    2    1    2    0    0 -0.23555143068E+02  0.22182522012E+02  0.73941995358E+03  0.75060900890E+03  0.12500042974E+03 0.  0.
         23    2    1    2    0    0  0.23555143068E+02 -0.22182522012E+02  0.26889040920E+03  0.28574406354E+03  0.91108224884E+02 0.  0.
        -11    1    4    4    0    0  0.95288630779E+01  0.33547443540E+02  0.14559437449E+03  0.14971289886E+03  0.51100000000E-03 0. -1.
         11    1    4    4    0    0  0.14026279990E+02 -0.55729965552E+02  0.12329603470E+03  0.13603116468E+03  0.51100000000E-03 0.  1.
    9000005    1    3    3    0    0  0.17996003351E+02  0.30249424514E+02  0.65706836949E+03  0.65801118988E+03  0.10000000000E+01 0.  0.
    9000005    1    3    3    0    0 -0.41551146419E+02 -0.80669025020E+01  0.82351584088E+02  0.92597819016E+02  0.10000000000E+01 0.  0.
<mgrwt>
<rscale>  0 0.12011111E+03</rscale>
<asrwt>0</asrwt>
<pdfrwt beam="1">  1        1 0.15728181E+00 0.12912016E+03</pdfrwt>
<pdfrwt beam="2">  1       -1 0.21571315E-02 0.12912016E+03</pdfrwt>
<totfact> 0.90996426E+03</totfact>
</mgrwt>
</event>
<event>
 8    2  0.7478846E-004  0.1347510E+03  0.7818608E-02  0.1233735E+00
          1   -1    0    0  501    0  0.00000000000E+00  0.00000000000E+00  0.27521385317E+02  0.27521385778E+02  0.50400000000E-02 0. -1.
         -1   -1    0    0    0  501 -0.00000000000E+00 -0.00000000000E+00 -0.61645645545E+03  0.61645645547E+03  0.50400000000E-02 0.  1.
         25    2    1    2    0    0  0.30492938607E+02  0.40036892593E+02 -0.45946036363E+03  0.47881275632E+03  0.12500023116E+03 0.  0.
         23    2    1    2    0    0 -0.30492938607E+02 -0.40036892593E+02 -0.12947470649E+03  0.16516508493E+03  0.89347823607E+02 0.  0.
        -11    1    4    4    0    0 -0.17459991497E+02 -0.46638927798E+02 -0.18333090988E+02  0.53067345088E+02  0.51100000000E-03 0. -1.
         11    1    4    4    0    0 -0.13032947110E+02  0.66020352052E+01 -0.11114161551E+03  0.11209773984E+03  0.51100000000E-03 0.  1.
    9000005    1    3    3    0    0  0.20301329259E+02  0.34761641751E+02 -0.32635140059E+02  0.51832114307E+02  0.10000000000E+01 0.  0.
    9000005    1    3    3    0    0  0.10191609348E+02  0.52752508421E+01 -0.42682522358E+03  0.42698064201E+03  0.10000000000E+01 0.  0.
<mgrwt>
<rscale>  0 0.12585756E+03</rscale>
<asrwt>0</asrwt>
<pdfrwt beam="1">  1        1 0.42340598E-02 0.13475099E+03</pdfrwt>
<pdfrwt beam="2">  1       -1 0.94839444E-01 0.13475099E+03</pdfrwt>
<totfact> 0.23040727E+03</totfact>
</mgrwt>
</event>
<event>
 8    2  0.7478846E-004  0.1412427E+03  0.7818608E-02  0.1222367E+00
         -1   -1    0    0    0  501 -0.00000000000E+00  0.00000000000E+00  0.60828298252E+02  0.60828298461E+02  0.50400000000E-02 0.  1.
          1   -1    0    0  501    0  0.00000000000E+00 -0.00000000000E+00 -0.27661209724E+03  0.27661209728E+03  0.50400000000E-02 0. -1.
         25    2    1    2    0    0  0.43355365408E+02  0.49416366650E+02 -0.85191471404E+02  0.16494574559E+03  0.12501138822E+03 0.  0.
         23    2    1    2    0    0 -0.43355365408E+02 -0.49416366650E+02 -0.13059232758E+03  0.17249465015E+03  0.91533509198E+02 0.  0.
        -11    1    4    4    0    0 -0.18438640354E+02 -0.40518688969E+02 -0.13801382914E+03  0.14501573931E+03  0.51100000000E-03 0. -1.
         11    1    4    4    0    0 -0.24916725054E+02 -0.88976776811E+01  0.74215015576E+01  0.27478910844E+02  0.51100000000E-03 0.  1.
    9000005    1    3    3    0    0  0.25832545622E+01 -0.34655547661E+02 -0.58010324203E+02  0.67630450996E+02  0.10000000000E+01 0.  0.
    9000005    1    3    3    0    0  0.40772110846E+02  0.84071914310E+02 -0.27181147201E+02  0.97315294593E+02  0.10000000000E+01 0.  0.
<mgrwt>
<rscale>  0 0.13349047E+03</rscale>
<asrwt>0</asrwt>
<pdfrwt beam="2">  1        1 0.42555706E-01 0.14124274E+03</pdfrwt>
<pdfrwt beam="1">  1       -1 0.93581999E-02 0.14124274E+03</pdfrwt>
<totfact> 0.62768086E+03</totfact>
</mgrwt>
</event>
<event>
 8    2  0.7478846E-004  0.1371394E+03  0.7818608E-02  0.1229675E+00
          1   -1    0    0  501    0  0.00000000000E+00  0.00000000000E+00  0.15557667552E+04  0.15557667552E+04  0.50400000000E-02 0. -1.
         -1   -1    0    0    0  501 -0.00000000000E+00 -0.00000000000E+00 -0.11066775877E+02  0.11066777024E+02  0.50400000000E-02 0.  1.
         25    2    1    2    0    0  0.49483959381E+02 -0.27078872902E+02  0.11522217923E+04  0.11603543795E+04  0.12500119904E+03 0.  0.
         23    2    1    2    0    0 -0.49483959381E+02  0.27078872902E+02  0.39247818703E+03  0.40647915275E+03  0.89466455892E+02 0.  0.
        -11    1    4    4    0    0  0.56085905811E+01 -0.18235385040E+02  0.21669349618E+02  0.28871201378E+02  0.51100000000E-03 0.  1.
         11    1    4    4    0    0 -0.55092549963E+02  0.45314257943E+02  0.37080883741E+03  0.37760795137E+03  0.51100000000E-03 0. -1.
    9000005    1    3    3    0    0  0.91278328803E+02 -0.23176644472E+02  0.73007047939E+03  0.73612009552E+03  0.10000000000E+01 0.  0.
    9000005    1    3    3    0    0 -0.41794369422E+02 -0.39022284305E+01  0.42215131289E+03  0.42423428395E+03  0.10000000000E+01 0.  0.
<mgrwt>
<rscale>  0 0.12851594E+03</rscale>
<asrwt>0</asrwt>
<pdfrwt beam="1">  1        1 0.23934885E+00 0.13713944E+03</pdfrwt>
<pdfrwt beam="2">  1       -1 0.17025801E-02 0.13713944E+03</pdfrwt>
<totfact> 0.56046491E+03</totfact>
</mgrwt>
</event>
<event>
 8    2  0.7478846E-004  0.1280059E+03  0.7818608E-02  0.1245160E+00
         -1   -1    0    0    0  501 -0.00000000000E+00  0.00000000000E+00  0.52012877036E+02  0.52012877280E+02  0.50400000000E-02 0.  1.
          1   -1    0    0  501    0  0.00000000000E+00 -0.00000000000E+00 -0.29268950262E+03  0.29268950267E+03  0.50400000000E-02 0. -1.
         25    2    1    2    0    0  0.27555793241E+02 -0.75634885468E+00 -0.61580778017E+02  0.14204824844E+03  0.12500247541E+03 0.  0.
         23    2    1    2    0    0 -0.27555793241E+02  0.75634885468E+00 -0.17909584757E+03  0.20265413151E+03  0.90738528725E+02 0.  0.
        -11    1    4    4    0    0 -0.25892797243E+02  0.25062213182E+02 -0.17409263957E+03  0.17778300996E+03  0.51100000000E-03 0. -1.
         11    1    4    4    0    0 -0.16629959985E+01 -0.24305864328E+02 -0.50032080019E+01  0.24871121546E+02  0.51100000000E-03 0.  1.
    9000005    1    3    3    0    0  0.13940642267E+02  0.45782278611E+02 -0.77423907146E+02  0.91026479331E+02  0.10000000000E+01 0.  0.
    9000005    1    3    3    0    0  0.13615150974E+02 -0.46538627465E+02  0.15843129129E+02  0.51021769109E+02  0.10000000000E+01 0.  0.
<mgrwt>
<rscale>  0 0.11875799E+03</rscale>
<asrwt>0</asrwt>
<pdfrwt beam="2">  1        1 0.45029153E-01 0.12800591E+03</pdfrwt>
<pdfrwt beam="1">  1       -1 0.80019813E-02 0.12800591E+03</pdfrwt>
<totfact> 0.73714745E+03</totfact>
</mgrwt>
</event>
<event>
 8    2  0.7478846E-004  0.1446394E+03  0.7818608E-02  0.1216689E+00
         -1   -1    0    0    0  501 -0.00000000000E+00  0.00000000000E+00  0.75869738098E+02  0.75869738266E+02  0.50400000000E-02 0.  1.
          1   -1    0    0  501    0  0.00000000000E+00 -0.00000000000E+00 -0.23317238693E+03  0.23317238698E+03  0.50400000000E-02 0. -1.
         25    2    1    2    0    0 -0.67816915809E+02 -0.26400670389E+02 -0.10990331216E+03  0.18165704634E+03  0.12499765995E+03 0.  0.
         23    2    1    2    0    0  0.67816915809E+02  0.26400670389E+02 -0.47399336667E+02  0.12738507891E+03  0.93188688934E+02 0.  0.
        -11    1    4    4    0    0 -0.31346349066E+01  0.14029980504E+02 -0.53220857908E+02  0.55128268662E+02  0.51100000000E-03 0. -1.
         11    1    4    4    0    0  0.70951550715E+02  0.12370689884E+02  0.58215212411E+01  0.72256810246E+02  0.51100000000E-03 0.  1.
    9000005    1    3    3    0    0  0.26548302659E+02  0.22189088860E+02 -0.10342674901E+02  0.36126707055E+02  0.10000000000E+01 0.  0.
    9000005    1    3    3    0    0 -0.94365218468E+02 -0.48589759249E+02 -0.99560637262E+02  0.14553033929E+03  0.10000000000E+01 0.  0.
<mgrwt>
<rscale>  0 0.13753216E+03</rscale>
<asrwt>0</asrwt>
<pdfrwt beam="2">  1        1 0.35872675E-01 0.14463936E+03</pdfrwt>
<pdfrwt beam="1">  1       -1 0.11672267E-01 0.14463936E+03</pdfrwt>
<totfact> 0.55362239E+03</totfact>
</mgrwt>
</event>
<event>
 8    2  0.7478846E-004  0.1484049E+03  0.7818608E-02  0.1211722E+00
          1   -1    0    0  501    0  0.00000000000E+00  0.00000000000E+00  0.10893209206E+04  0.10893209206E+04  0.50400000000E-02 0. -1.
         -1   -1    0    0    0  501 -0.00000000000E+00 -0.00000000000E+00 -0.25418732933E+02  0.25418733432E+02  0.50400000000E-02 0.  1.
         25    2    1    2    0    0 -0.79837567851E+02  0.47557346487E+01  0.89143074969E+03  0.90369950520E+03  0.12500943952E+03 0.  0.
         23    2    1    2    0    0  0.79837567851E+02 -0.47557346487E+01  0.17247143793E+03  0.21104014879E+03  0.91623650041E+02 0.  0.
        -11    1    4    4    0    0  0.13004154564E+01  0.21008045736E+02  0.14570368999E+01  0.21098626088E+02  0.51100000000E-03 0.  1.
         11    1    4    4    0    0  0.78537152394E+02 -0.25763780385E+02  0.17101440103E+03  0.18994152270E+03  0.51100000000E-03 0. -1.
    9000005    1    3    3    0    0 -0.22638833464E+02 -0.53291731712E+02  0.22620688491E+03  0.23350177778E+03  0.10000000000E+01 0.  0.
    9000005    1    3    3    0    0 -0.57198734387E+02  0.58047466360E+02  0.66522386478E+03  0.67019772742E+03  0.10000000000E+01 0.  0.
<mgrwt>
<rscale>  0 0.14120104E+03</rscale>
<asrwt>0</asrwt>
<pdfrwt beam="1">  1        1 0.16758783E+00 0.14840490E+03</pdfrwt>
<pdfrwt beam="2">  1       -1 0.39105745E-02 0.14840490E+03</pdfrwt>
<totfact> 0.34461448E+03</totfact>
</mgrwt>
</event>
<event>
 8    2  0.7478846E-004  0.1827062E+03  0.7818608E-02  0.1170654E+00
          1   -1    0    0  501    0  0.00000000000E+00  0.00000000000E+00  0.40573603971E+03  0.40573603974E+03  0.50400000000E-02 0. -1.
         -1   -1    0    0    0  501 -0.00000000000E+00 -0.00000000000E+00 -0.96847605056E+02  0.96847605187E+02  0.50400000000E-02 0.  1.
         25    2    1    2    0    0 -0.95016242926E+01 -0.13292285294E+03  0.28649464558E+03  0.33979512967E+03  0.12499112969E+03 0.  0.
         23    2    1    2    0    0  0.95016242926E+01  0.13292285294E+03  0.22393789075E+02  0.16278851526E+03  0.90773637219E+02 0.  0.
        -11    1    4    4    0    0 -0.24507982927E+02  0.11869927147E+03  0.30634544309E+02  0.12501453347E+03  0.51100000000E-03 0. -1.
         11    1    4    4    0    0  0.34009607220E+02  0.14223581475E+02 -0.82407552348E+01  0.37773981791E+02  0.51100000000E-03 0.  1.
    9000005    1    3    3    0    0 -0.39388518518E+02 -0.18598313720E+02  0.19335260587E+02  0.47667651151E+02  0.10000000000E+01 0.  0.
    9000005    1    3    3    0    0  0.29886894225E+02 -0.11432453922E+03  0.26715938499E+03  0.29212747852E+03  0.10000000000E+01 0.  0.
<mgrwt>
<rscale>  0 0.17708579E+03</rscale>
<asrwt>0</asrwt>
<pdfrwt beam="1">  1        1 0.62420928E-01 0.18270618E+03</pdfrwt>
<pdfrwt beam="2">  1       -1 0.14899632E-01 0.18270618E+03</pdfrwt>
<totfact> 0.19119148E+03</totfact>
</mgrwt>
</event>
<event>
 8    2  0.7478846E-004  0.1346411E+03  0.7818608E-02  0.1233071E+00
         -1   -1    0    0    0  501 -0.00000000000E+00  0.00000000000E+00  0.53479781934E+01  0.53479805682E+01  0.50400000000E-02 0.  1.
          1   -1    0    0  501    0  0.00000000000E+00 -0.00000000000E+00 -0.32214414673E+04  0.32214414674E+04  0.50400000000E-02 0. -1.
         25    2    1    2    0    0 -0.17550748408E+02 -0.46854925013E+02 -0.24425673461E+04  0.24462754258E+04  0.12499922291E+03 0.  0.
         23    2    1    2    0    0  0.17550748408E+02  0.46854925013E+02 -0.77352614301E+03  0.78051402210E+03  0.91411334171E+02 0.  0.
        -11    1    4    4    0    0 -0.96753197320E+01 -0.24691189583E+02 -0.25355812181E+03  0.25494114574E+03  0.51100000000E-03 0.  1.
         11    1    4    4    0    0  0.27226068140E+02  0.71546114595E+02 -0.51996802120E+03  0.52557287636E+03  0.51100000000E-03 0. -1.
    9000005    1    3    3    0    0 -0.40944202859E+02 -0.64222409707E+02 -0.84090140650E+03  0.84434419588E+03  0.10000000000E+01 0.  0.
    9000005    1    3    3    0    0  0.23393454451E+02  0.17367484694E+02 -0.16016659396E+04  0.16019312299E+04  0.10000000000E+01 0.  0.
<mgrwt>
<rscale>  0 0.12628714E+03</rscale>
<asrwt>0</asrwt>
<pdfrwt beam="2">  1        1 0.49560483E+00 0.13464107E+03</pdfrwt>
<pdfrwt beam="1">  1       -1 0.82276863E-03 0.13464107E+03</pdfrwt>
<totfact> 0.12791207E+03</totfact>
</mgrwt>
</event>
<event>
 8    2  0.7478846E-004  0.1528582E+03  0.7818608E-02  0.1205172E+00
          1   -1    0    0  501    0  0.00000000000E+00  0.00000000000E+00  0.30639988485E+03  0.30639988489E+03  0.50400000000E-02 0. -1.
         -1   -1    0    0    0  501 -0.00000000000E+00 -0.00000000000E+00 -0.65950090121E+02  0.65950090314E+02  0.50400000000E-02 0.  1.
         25    2    1    2    0    0 -0.38007582857E+02 -0.79349275949E+02  0.15915136059E+03  0.22066891659E+03  0.12499892490E+03 0.  0.
         23    2    1    2    0    0  0.38007582857E+02  0.79349275949E+02  0.81298434143E+02  0.15168105861E+03  0.93042056080E+02 0.  0.
        -11    1    4    4    0    0  0.48320343379E+01  0.88475336086E+02  0.38092400901E+02  0.96448248600E+02  0.51100000000E-03 0.  1.
         11    1    4    4    0    0  0.33175548519E+02 -0.91260601371E+01  0.43206033242E+02  0.55232810013E+02  0.51100000000E-03 0. -1.
    9000005    1    3    3    0    0  0.43457244162E+02 -0.83747892053E+01  0.38071265720E+02  0.58387416777E+02  0.10000000000E+01 0.  0.
    9000005    1    3    3    0    0 -0.81464827019E+02 -0.70974486743E+02  0.12108009487E+03  0.16228149982E+03  0.10000000000E+01 0.  0.
<mgrwt>
<rscale>  0 0.14623938E+03</rscale>
<asrwt>0</asrwt>
<pdfrwt beam="1">  1        1 0.47138444E-01 0.15285815E+03</pdfrwt>
<pdfrwt beam="2">  1       -1 0.10146168E-01 0.15285815E+03</pdfrwt>
<totfact> 0.49096964E+03</totfact>
</mgrwt>
</event>
<event>
 8    2  0.7478846E-004  0.1507495E+03  0.7818608E-02  0.1208561E+00
         -1   -1    0    0    0  501 -0.00000000000E+00  0.00000000000E+00  0.52240704105E+02  0.52240704348E+02  0.50400000000E-02 0.  1.
          1   -1    0    0  501    0  0.00000000000E+00 -0.00000000000E+00 -0.52072889788E+03  0.52072889791E+03  0.50400000000E-02 0. -1.
         25    2    1    2    0    0 -0.84262693692E+02  0.33914730786E+00 -0.40784492917E+03  0.43481362267E+03  0.12500033458E+03 0.  0.
         23    2    1    2    0    0  0.84262693692E+02 -0.33914730786E+00 -0.60643264609E+02  0.13815597958E+03  0.91154553274E+02 0.  0.
        -11    1    4    4    0    0 -0.15669880565E+02  0.12715373937E+02 -0.22939798064E+02  0.30552581343E+02  0.51100000000E-03 0. -1.
         11    1    4    4    0    0  0.99932574257E+02 -0.13054521245E+02 -0.37703466546E+02  0.10760339824E+03  0.51100000000E-03 0.  1.
    9000005    1    3    3    0    0 -0.94091817862E+02 -0.67596131819E+01 -0.15346475454E+03  0.18014270301E+03  0.10000000000E+01 0.  0.
    9000005    1    3    3    0    0  0.98291241697E+01  0.70987604898E+01 -0.25438017463E+03  0.25467091967E+03  0.10000000000E+01 0.  0.
<mgrwt>
<rscale>  0 0.14360359E+03</rscale>
<asrwt>0</asrwt>
<pdfrwt beam="2">  1        1 0.80112134E-01 0.15074946E+03</pdfrwt>
<pdfrwt beam="1">  1       -1 0.80370318E-02 0.15074946E+03</pdfrwt>
<totfact> 0.35650331E+03</totfact>
</mgrwt>
</event>
<event>
 8    2  0.7478846E-004  0.2381908E+03  0.7818608E-02  0.1123826E+00
         -1   -1    0    0    0  501 -0.00000000000E+00  0.00000000000E+00  0.11790396518E+03  0.11790396529E+03  0.50400000000E-02 0.  1.
          1   -1    0    0  501    0  0.00000000000E+00 -0.00000000000E+00 -0.45521231024E+03  0.45521231027E+03  0.50400000000E-02 0. -1.
         25    2    1    2    0    0 -0.23344433669E+02 -0.20140727770E+03 -0.20767832565E+03  0.31601444230E+03  0.12499994681E+03 0.  0.
         23    2    1    2    0    0  0.23344433669E+02  0.20140727770E+03 -0.12963001940E+03  0.25710183325E+03  0.90485118320E+02 0.  0.
        -11    1    4    4    0    0  0.37346779842E+01  0.80902912429E+02 -0.10491101320E+03  0.13253508875E+03  0.51100000000E-03 0. -1.
         11    1    4    4    0    0  0.19609755685E+02  0.12050436527E+03 -0.24719006200E+02  0.12456674450E+03  0.51100000000E-03 0.  1.
    9000005    1    3    3    0    0 -0.31639044504E+02  0.43935419835E+01 -0.33122804025E+02  0.46026649832E+02  0.10000000000E+01 0.  0.
    9000005    1    3    3    0    0  0.82946108348E+01 -0.20580081968E+03 -0.17455552163E+03  0.26998779247E+03  0.10000000000E+01 0.  0.
<mgrwt>
<rscale>  0 0.23404356E+03</rscale>
<asrwt>0</asrwt>
<pdfrwt beam="2">  1        1 0.70032662E-01 0.23819077E+03</pdfrwt>
<pdfrwt beam="1">  1       -1 0.18139072E-01 0.23819077E+03</pdfrwt>
<totfact> 0.12096321E+03</totfact>
</mgrwt>
</event>
<event>
 8    2  0.7478846E-004  0.1281255E+03  0.7818608E-02  0.1245101E+00
          1   -1    0    0  501    0  0.00000000000E+00  0.00000000000E+00  0.50639827860E+03  0.50639827862E+03  0.50400000000E-02 0.  1.
         -1   -1    0    0    0  501 -0.00000000000E+00 -0.00000000000E+00 -0.36153106108E+02  0.36153106459E+02  0.50400000000E-02 0. -1.
         25    2    1    2    0    0 -0.22439851836E+02 -0.16914831481E+02  0.41183160095E+03  0.43130200021E+03  0.12500595733E+03 0.  0.
         23    2    1    2    0    0  0.22439851836E+02  0.16914831481E+02  0.58413571544E+02  0.11124938488E+03  0.90413615239E+02 0.  0.
        -11    1    4    4    0    0  0.44179108176E+01 -0.33814643661E+02  0.33905700374E+01  0.34270162348E+02  0.51100000000E-03 0. -1.
         11    1    4    4    0    0  0.18021941018E+02  0.50729475141E+02  0.55023001506E+02  0.76979222529E+02  0.51100000000E-03 0.  1.
    9000005    1    3    3    0    0 -0.62831150056E+02 -0.44246105207E+02  0.29145604585E+03  0.30141847639E+03  0.10000000000E+01 0.  0.
    9000005    1    3    3    0    0  0.40391298220E+02  0.27331273727E+02  0.12037555509E+03  0.12988352382E+03  0.10000000000E+01 0.  0.
<mgrwt>
<rscale>  0 0.11879308E+03</rscale>
<asrwt>0</asrwt>
<pdfrwt beam="1">  1        1 0.77907426E-01 0.12812552E+03</pdfrwt>
<pdfrwt beam="2">  1       -1 0.55620164E-02 0.12812552E+03</pdfrwt>
<totfact> 0.63654411E+03</totfact>
</mgrwt>
</event>
<event>
 8    2  0.7478846E-004  0.1291877E+03  0.7818608E-02  0.1245255E+00
         -1   -1    0    0    0  501 -0.00000000000E+00  0.00000000000E+00  0.89945395410E+02  0.89945395551E+02  0.50400000000E-02 0.  1.
          1   -1    0    0  501    0  0.00000000000E+00 -0.00000000000E+00 -0.16377010277E+03  0.16377010285E+03  0.50400000000E-02 0. -1.
         25    2    1    2    0    0 -0.22113082506E+02 -0.23973508580E+02 -0.93607060268E+02  0.15953601907E+03  0.12500296843E+03 0.  0.
         23    2    1    2    0    0  0.22113082506E+02  0.23973508580E+02  0.19782352908E+02  0.94179479331E+02  0.86108741188E+02 0.  0.
        -11    1    4    4    0    0 -0.11070345553E+01  0.28251968901E+02  0.49025625672E+02  0.56594268659E+02  0.51100000000E-03 0.  1.
         11    1    4    4    0    0  0.23220117062E+02 -0.42784603208E+01 -0.29243272764E+02  0.37585210672E+02  0.51100000000E-03 0. -1.
    9000005    1    3    3    0    0 -0.34016801568E+02 -0.54622667261E+01 -0.12017611271E+03  0.12502110707E+03  0.10000000000E+01 0.  0.
    9000005    1    3    3    0    0  0.11903719062E+02 -0.18511241854E+02  0.26569052443E+02  0.34514911998E+02  0.10000000000E+01 0.  0.
<mgrwt>
<rscale>  0 0.11870125E+03</rscale>
<asrwt>0</asrwt>
<pdfrwt beam="2">  1        1 0.25195400E-01 0.12918769E+03</pdfrwt>
<pdfrwt beam="1">  1       -1 0.13837753E-01 0.12918769E+03</pdfrwt>
<totfact> 0.65549333E+03</totfact>
</mgrwt>
</event>
<event>
 8    2  0.7478846E-004  0.1370886E+03  0.7818608E-02  0.1228332E+00
         -1   -1    0    0    0  501 -0.00000000000E+00  0.00000000000E+00  0.47426816688E+02  0.47426816956E+02  0.50400000000E-02 0.  1.
          1   -1    0    0  501    0  0.00000000000E+00 -0.00000000000E+00 -0.33239620916E+03  0.33239620920E+03  0.50400000000E-02 0. -1.
         25    2    1    2    0    0  0.15184625013E+02  0.54204933507E+02 -0.19623368284E+03  0.23937616202E+03  0.12499816404E+03 0.  0.
         23    2    1    2    0    0 -0.15184625013E+02 -0.54204933507E+02 -0.88735709641E+02  0.14044686413E+03  0.93180190096E+02 0.  0.
        -11    1    4    4    0    0 -0.40512917210E+02 -0.64122530228E+02 -0.83391761525E+02  0.11272613377E+03  0.51100000000E-03 0. -1.
         11    1    4    4    0    0  0.25328292197E+02  0.99175967205E+01 -0.53439481157E+01  0.27720730367E+02  0.51100000000E-03 0.  1.
    9000005    1    3    3    0    0 -0.34959939064E+02  0.71133142949E+02 -0.85204753344E+02  0.11637427275E+03  0.10000000000E+01 0.  0.
    9000005    1    3    3    0    0  0.50144564077E+02 -0.16928209442E+02 -0.11102892949E+03  0.12300188928E+03  0.10000000000E+01 0.  0.
<mgrwt>
<rscale>  0 0.12941117E+03</rscale>
<asrwt>0</asrwt>
<pdfrwt beam="2">  1        1 0.51137877E-01 0.13708862E+03</pdfrwt>
<pdfrwt beam="1">  1       -1 0.72964336E-02 0.13708862E+03</pdfrwt>
<totfact> 0.72682189E+03</totfact>
</mgrwt>
</event>
<event>
 8    2  0.7478846E-004  0.1320963E+03  0.7818608E-02  0.1237158E+00
          1   -1    0    0  501    0  0.00000000000E+00  0.00000000000E+00  0.14617574115E+03  0.14617574124E+03  0.50400000000E-02 0. -1.
         -1   -1    0    0    0  501 -0.00000000000E+00 -0.00000000000E+00 -0.11217385161E+03  0.11217385172E+03  0.50400000000E-02 0.  1.
         25    2    1    2    0    0  0.29372745928E+02 -0.31023457916E+02  0.71436987717E+02  0.15017545325E+03  0.12499684156E+03 0.  0.
         23    2    1    2    0    0 -0.29372745928E+02  0.31023457916E+02 -0.37435098174E+02  0.10817413972E+03  0.92060006427E+02 0.  0.
        -11    1    4    4    0    0 -0.34140943074E+02  0.76287847807E+01  0.23892187929E+02  0.42363179715E+02  0.51100000000E-03 0. -1.
         11    1    4    4    0    0  0.47681971461E+01  0.23394673135E+02 -0.61327286103E+02  0.65810960001E+02  0.51100000000E-03 0.  1.
    9000005    1    3    3    0    0  0.53826141502E+02 -0.81847479616E+01 -0.15830019207E+02  0.56708316112E+02  0.10000000000E+01 0.  0.
    9000005    1    3    3    0    0 -0.24453395574E+02 -0.22838709955E+02  0.87267006923E+02  0.93467137138E+02  0.10000000000E+01 0.  0.
<mgrwt>
<rscale>  0 0.12367272E+03</rscale>
<asrwt>0</asrwt>
<pdfrwt beam="1">  1        1 0.22488575E-01 0.13209627E+03</pdfrwt>
<pdfrwt beam="2">  1       -1 0.17257516E-01 0.13209627E+03</pdfrwt>
<totfact> 0.53551154E+03</totfact>
</mgrwt>
</event>
<event>
 8    2  0.7478846E-004  0.1356724E+03  0.7818608E-02  0.1231711E+00
         -1   -1    0    0    0  501 -0.00000000000E+00  0.00000000000E+00  0.69028650966E+03  0.69028650968E+03  0.50400000000E-02 0.  1.
          1   -1    0    0  501    0  0.00000000000E+00 -0.00000000000E+00 -0.31901862532E+02  0.31901862930E+02  0.50400000000E-02 0. -1.
         25    2    1    2    0    0  0.46877865338E+02  0.24233295470E+02  0.56756882958E+03  0.58355923329E+03  0.12498886184E+03 0.  0.
         23    2    1    2    0    0 -0.46877865338E+02 -0.24233295470E+02  0.90815817552E+02  0.13862913932E+03  0.90475072160E+02 0.  0.
        -11    1    4    4    0    0 -0.41532434781E+02  0.42748170653E+01 -0.15859645365E+01  0.41781963615E+02  0.51100000000E-03 0. -1.
         11    1    4    4    0    0 -0.53454305567E+01 -0.28508112535E+02  0.92401782089E+02  0.96847175703E+02  0.51100000000E-03 0.  1.
    9000005    1    3    3    0    0  0.28601300891E+02 -0.26269285954E+02  0.47460007591E+03  0.47618729703E+03  0.10000000000E+01 0.  0.
    9000005    1    3    3    0    0  0.18276564447E+02  0.50502581424E+02  0.92968753664E+02  0.10737193626E+03  0.10000000000E+01 0.  0.
<mgrwt>
<rscale>  0 0.12717363E+03</rscale>
<asrwt>0</asrwt>
<pdfrwt beam="2">  1        1 0.49079794E-02 0.13567241E+03</pdfrwt>
<pdfrwt beam="1">  1       -1 0.10619791E+00 0.13567241E+03</pdfrwt>
<totfact> 0.14672727E+03</totfact>
</mgrwt>
</event>
<event>
 8    2  0.7478846E-004  0.1269343E+03  0.7818608E-02  0.1247072E+00
         -1   -1    0    0    0  501 -0.00000000000E+00  0.00000000000E+00  0.21043212990E+02  0.21043213593E+02  0.50400000000E-02 0.  1.
          1   -1    0    0  501    0  0.00000000000E+00 -0.00000000000E+00 -0.57935601094E+03  0.57935601096E+03  0.50400000000E-02 0. -1.
         25    2    1    2    0    0  0.54213515338E+01 -0.21392871326E+02 -0.30560154029E+03  0.33091483639E+03  0.12500112607E+03 0.  0.
         23    2    1    2    0    0 -0.54213515338E+01  0.21392871326E+02 -0.25271125766E+03  0.26948438817E+03  0.90949489945E+02 0.  0.
        -11    1    4    4    0    0 -0.25568648863E+02 -0.12137991275E+02 -0.20866207703E+03  0.21057290668E+03  0.51100000000E-03 0. -1.
         11    1    4    4    0    0  0.20147297330E+02  0.33530862601E+02 -0.44049180629E+02  0.58911481485E+02  0.51100000000E-03 0.  1.
    9000005    1    3    3    0    0  0.20547488644E+02  0.46848084914E+02 -0.18045037682E+03  0.18756407130E+03  0.10000000000E+01 0.  0.
    9000005    1    3    3    0    0 -0.15126137110E+02 -0.68240956240E+02 -0.12515116347E+03  0.14335076508E+03  0.10000000000E+01 0.  0.
<mgrwt>
<rscale>  0 0.11762247E+03</rscale>
<asrwt>0</asrwt>
<pdfrwt beam="2">  1        1 0.89131682E-01 0.12693434E+03</pdfrwt>
<pdfrwt beam="1">  1       -1 0.32374179E-02 0.12693434E+03</pdfrwt>
<totfact> 0.11787823E+04</totfact>
</mgrwt>
</event>
<event>
 8    2  0.7478846E-004  0.1459857E+03  0.7818608E-02  0.1211848E+00
          1   -1    0    0  501    0  0.00000000000E+00  0.00000000000E+00  0.56978549530E+03  0.56978549533E+03  0.50400000000E-02 0. -1.
         -1   -1    0    0    0  501 -0.00000000000E+00 -0.00000000000E+00 -0.38794355796E+02  0.38794356123E+02  0.50400000000E-02 0.  1.
         25    2    1    2    0    0 -0.73902266117E+02  0.14963785370E+02  0.40012636383E+03  0.42592597716E+03  0.12500548460E+03 0.  0.
         23    2    1    2    0    0  0.73902266117E+02 -0.14963785370E+02  0.13086477567E+03  0.18265387428E+03  0.10271995166E+03 0.  0.
        -11    1    4    4    0    0  0.38779765593E+01 -0.13630652284E+02  0.10807813095E+03  0.10900328332E+03  0.51100000000E-03 0. -1.
         11    1    4    4    0    0  0.70024289558E+02 -0.13331330868E+01  0.22786644725E+02  0.73650590969E+02  0.51100000000E-03 0.  1.
    9000005    1    3    3    0    0 -0.80296035647E+02  0.30113267417E+01  0.40390280563E+03  0.41181913242E+03  0.10000000000E+01 0.  0.
    9000005    1    3    3    0    0  0.63937695293E+01  0.11952458629E+02 -0.37764417971E+01  0.14106844747E+02  0.10000000000E+01 0.  0.
<mgrwt>
<rscale>  0 0.14110601E+03</rscale>
<asrwt>0</asrwt>
<pdfrwt beam="1">  1        1 0.87659305E-01 0.14598572E+03</pdfrwt>
<pdfrwt beam="2">  1       -1 0.59683626E-02 0.14598572E+03</pdfrwt>
<totfact> 0.49371166E+03</totfact>
</mgrwt>
</event>
<event>
 8    2  0.7478846E-004  0.1452978E+03  0.7818608E-02  0.1215862E+00
          1   -1    0    0  501    0  0.00000000000E+00  0.00000000000E+00  0.30312304375E+03  0.30312304379E+03  0.50400000000E-02 0. -1.
         -1   -1    0    0    0  501 -0.00000000000E+00 -0.00000000000E+00 -0.71425534825E+02  0.71425535003E+02  0.50400000000E-02 0.  1.
         25    2    1    2    0    0 -0.30070780783E+02 -0.67691112017E+02  0.20766262534E+03  0.25344666365E+03  0.12500042741E+03 0.  0.
         23    2    1    2    0    0  0.30070780783E+02  0.67691112017E+02  0.24034883588E+02  0.12110191514E+03  0.92745133125E+02 0.  0.
        -11    1    4    4    0    0  0.37501736356E+02  0.53349334379E+02  0.55565890065E+02  0.85674382679E+02  0.51100000000E-03 0. -1.
         11    1    4    4    0    0 -0.74309555727E+01  0.14341777637E+02 -0.31531006477E+02  0.35427532460E+02  0.51100000000E-03 0.  1.
    9000005    1    3    3    0    0  0.62523691073E+01 -0.78672328545E+02  0.55162110012E+02  0.96292708857E+02  0.10000000000E+01 0.  0.
    9000005    1    3    3    0    0 -0.36323149891E+02  0.10981216528E+02  0.15250051532E+03  0.15715395480E+03  0.10000000000E+01 0.  0.
<mgrwt>
<rscale>  0 0.13813394E+03</rscale>
<asrwt>0</asrwt>
<pdfrwt beam="1">  1        1 0.46634316E-01 0.14529778E+03</pdfrwt>
<pdfrwt beam="2">  1       -1 0.10988544E-01 0.14529778E+03</pdfrwt>
<totfact> 0.43905353E+03</totfact>
</mgrwt>
</event>
<event>
 8    2  0.7478846E-004  0.1261653E+03  0.7818608E-02  0.1248306E+00
          1   -1    0    0  501    0  0.00000000000E+00  0.00000000000E+00  0.15667728689E+03  0.15667728697E+03  0.50400000000E-02 0. -1.
         -1   -1    0    0    0  501 -0.00000000000E+00 -0.00000000000E+00 -0.77328246879E+02  0.77328247043E+02  0.50400000000E-02 0.  1.
         25    2    1    2    0    0 -0.13036798257E+02 -0.11083732861E+02  0.56623396815E+02  0.13828920126E+03  0.12499954750E+03 0.  0.
         23    2    1    2    0    0  0.13036798257E+02  0.11083732861E+02  0.22725643198E+02  0.95716332756E+02  0.91391215413E+02 0.  0.
        -11    1    4    4    0    0  0.38042394443E+02 -0.24279052392E+02  0.26341861385E+02  0.52255045895E+02  0.51100000000E-03 0. -1.
         11    1    4    4    0    0 -0.25005596186E+02  0.35362785253E+02 -0.36162181874E+01  0.43461286862E+02  0.51100000000E-03 0.  1.
    9000005    1    3    3    0    0  0.32883915719E+02  0.43572786103E+02  0.20952575334E+02  0.58480338704E+02  0.10000000000E+01 0.  0.
    9000005    1    3    3    0    0 -0.45920713976E+02 -0.54656518963E+02  0.35670821481E+02  0.79808862555E+02  0.10000000000E+01 0.  0.
<mgrwt>
<rscale>  0 0.11689655E+03</rscale>
<asrwt>0</asrwt>
<pdfrwt beam="1">  1        1 0.24104198E-01 0.12616534E+03</pdfrwt>
<pdfrwt beam="2">  1       -1 0.11896653E-01 0.12616534E+03</pdfrwt>
<totfact> 0.87392088E+03</totfact>
</mgrwt>
</event>
<event>
 8    2  0.7478846E-004  0.1436105E+03  0.7818608E-02  0.1218727E+00
         -1   -1    0    0    0  501 -0.00000000000E+00  0.00000000000E+00  0.55765333672E+03  0.55765333674E+03  0.50400000000E-02 0.  1.
          1   -1    0    0  501    0  0.00000000000E+00 -0.00000000000E+00 -0.30626386260E+02  0.30626386675E+02  0.50400000000E-02 0. -1.
         25    2    1    2    0    0  0.65397642800E+02 -0.26914593799E+02  0.25490221055E+03  0.29257328142E+03  0.12499096371E+03 0.  0.
         23    2    1    2    0    0 -0.65397642800E+02  0.26914593799E+02  0.27212473991E+03  0.29570644200E+03  0.91592459999E+02 0.  0.
        -11    1    4    4    0    0 -0.83570421674E+02  0.10841796195E+01  0.20984863189E+03  0.22587970058E+03  0.51100000000E-03 0.  1.
         11    1    4    4    0    0  0.18172778873E+02  0.25830414180E+02  0.62276108013E+02  0.69826741426E+02  0.51100000000E-03 0. -1.
    9000005    1    3    3    0    0  0.27942176470E+01 -0.68359387058E+02  0.11606122834E+03  0.13472944064E+03  0.10000000000E+01 0.  0.
    9000005    1    3    3    0    0  0.62603425153E+02  0.41444793258E+02  0.13884098221E+03  0.15784384077E+03  0.10000000000E+01 0.  0.
<mgrwt>
<rscale>  0 0.13606269E+03</rscale>
<asrwt>0</asrwt>
<pdfrwt beam="2">  1        1 0.47117518E-02 0.14361054E+03</pdfrwt>
<pdfrwt beam="1">  1       -1 0.85792821E-01 0.14361054E+03</pdfrwt>
<totfact> 0.24697923E+03</totfact>
</mgrwt>
</event>
<event>
 8    2  0.7478846E-004  0.1623483E+03  0.7818608E-02  0.1193223E+00
         -1   -1    0    0    0  501 -0.00000000000E+00  0.00000000000E+00  0.23796402731E+03  0.23796402736E+03  0.50400000000E-02 0.  1.
          1   -1    0    0  501    0  0.00000000000E+00 -0.00000000000E+00 -0.10370828667E+03  0.10370828679E+03  0.50400000000E-02 0. -1.
         25    2    1    2    0    0 -0.10013649486E+03  0.26520190278E+02  0.23064282865E+02  0.16397844092E+03  0.12500531928E+03 0.  0.
         23    2    1    2    0    0  0.10013649486E+03 -0.26520190278E+02  0.11119145777E+03  0.17769387324E+03  0.92091987761E+02 0.  0.
        -11    1    4    4    0    0  0.99748459349E+02  0.28612915362E+01  0.10966352900E+03  0.14827013092E+03  0.51100000000E-03 0.  1.
         11    1    4    4    0    0  0.38803550943E+00 -0.29381481814E+02  0.15279287751E+01  0.29423742314E+02  0.51100000000E-03 0. -1.
    9000005    1    3    3    0    0 -0.96538162918E+02  0.86338692525E+01  0.66034438366E+02  0.11728472896E+03  0.10000000000E+01 0.  0.
    9000005    1    3    3    0    0 -0.35983319410E+01  0.17886321026E+02 -0.42970155500E+02  0.46693711957E+02  0.10000000000E+01 0.  0.
<mgrwt>
<rscale>  0 0.15605625E+03</rscale>
<asrwt>0</asrwt>
<pdfrwt beam="2">  1        1 0.15955121E-01 0.16234829E+03</pdfrwt>
<pdfrwt beam="1">  1       -1 0.36609850E-01 0.16234829E+03</pdfrwt>
<totfact> 0.24253378E+03</totfact>
</mgrwt>
</event>
<event>
 8    2  0.7478846E-004  0.1305644E+03  0.7818608E-02  0.1238924E+00
          1   -1    0    0  501    0  0.00000000000E+00  0.00000000000E+00  0.54572850496E+02  0.54572850729E+02  0.50400000000E-02 0. -1.
         -1   -1    0    0    0  501 -0.00000000000E+00 -0.00000000000E+00 -0.27640730968E+03  0.27640730973E+03  0.50400000000E-02 0.  1.
         25    2    1    2    0    0  0.37473445970E+02 -0.41412221504E+01 -0.69280806781E+02  0.14780697716E+03  0.12500265371E+03 0.  0.
         23    2    1    2    0    0 -0.37473445970E+02  0.41412221504E+01 -0.15255365241E+03  0.18317318330E+03  0.94119016912E+02 0.  0.
        -11    1    4    4    0    0 -0.47105596934E+02 -0.95810117263E+01 -0.15830990099E+03  0.16544714503E+03  0.51100000000E-03 0.  1.
         11    1    4    4    0    0  0.96321509638E+01  0.13722233877E+02  0.57562485811E+01  0.17726038270E+02  0.51100000000E-03 0. -1.
    9000005    1    3    3    0    0  0.52985860681E+02  0.31293772595E+02 -0.85918367575E+02  0.10568712089E+03  0.10000000000E+01 0.  0.
    9000005    1    3    3    0    0 -0.15512414711E+02 -0.35434994745E+02  0.16637560794E+02  0.42119856266E+02  0.10000000000E+01 0.  0.
<mgrwt>
<rscale>  0 0.12256508E+03</rscale>
<asrwt>0</asrwt>
<pdfrwt beam="1">  1        1 0.83958233E-02 0.13056444E+03</pdfrwt>
<pdfrwt beam="2">  1       -1 0.42524201E-01 0.13056444E+03</pdfrwt>
<totfact> 0.42964548E+03</totfact>
</mgrwt>
</event>
<event>
 8    2  0.7478846E-004  0.2024121E+03  0.7818608E-02  0.1151844E+00
          1   -1    0    0  501    0  0.00000000000E+00  0.00000000000E+00  0.30365209886E+03  0.30365209890E+03  0.50400000000E-02 0. -1.
         -1   -1    0    0    0  501 -0.00000000000E+00 -0.00000000000E+00 -0.12621592862E+03  0.12621592872E+03  0.50400000000E-02 0.  1.
         25    2    1    2    0    0 -0.14158645691E+03 -0.72794363834E+02  0.12900184661E+03  0.24002531586E+03  0.12499972657E+03 0.  0.
         23    2    1    2    0    0  0.14158645691E+03  0.72794363834E+02  0.48434323635E+02  0.18984271177E+03  0.91370823129E+02 0.  0.
        -11    1    4    4    0    0  0.75989681660E+02  0.70204788107E+02 -0.73188472644E+01  0.10371455789E+03  0.51100000000E-03 0. -1.
         11    1    4    4    0    0  0.65596775246E+02  0.25895757275E+01  0.55753170899E+02  0.86128153880E+02  0.51100000000E-03 0.  1.
    9000005    1    3    3    0    0 -0.14766368330E+03 -0.48251039195E+02  0.60007717762E+02  0.16653724010E+03  0.10000000000E+01 0.  0.
    9000005    1    3    3    0    0  0.60772263893E+01 -0.24543324639E+02  0.68994128843E+02  0.73488075766E+02  0.10000000000E+01 0.  0.
<mgrwt>
<rscale>  0 0.19752501E+03</rscale>
<asrwt>0</asrwt>
<pdfrwt beam="1">  1        1 0.46715707E-01 0.20241214E+03</pdfrwt>
<pdfrwt beam="2">  1       -1 0.19417835E-01 0.20241214E+03</pdfrwt>
<totfact> 0.18106209E+03</totfact>
</mgrwt>
</event>
<event>
 8    2  0.7478846E-004  0.1616236E+03  0.7818608E-02  0.1193692E+00
         -1   -1    0    0    0  501 -0.00000000000E+00  0.00000000000E+00  0.34830982465E+02  0.34830982830E+02  0.50400000000E-02 0.  1.
          1   -1    0    0  501    0  0.00000000000E+00 -0.00000000000E+00 -0.68500837468E+03  0.68500837470E+03  0.50400000000E-02 0. -1.
         25    2    1    2    0    0 -0.92297433879E+02 -0.44496670165E+02 -0.26572890589E+03  0.31102095775E+03  0.12499365896E+03 0.  0.
         23    2    1    2    0    0  0.92297433879E+02  0.44496670165E+02 -0.38444848632E+03  0.40881839977E+03  0.93984442334E+02 0.  0.
        -11    1    4    4    0    0  0.41924775770E+02  0.61822260982E+02 -0.14050719344E+03  0.15912872206E+03  0.51100000000E-03 0.  1.
         11    1    4    4    0    0  0.50372658109E+02 -0.17325590817E+02 -0.24394129289E+03  0.24968967771E+03  0.51100000000E-03 0. -1.
    9000005    1    3    3    0    0 -0.42136552222E+01 -0.40834188293E+02 -0.19124641496E+03  0.19560515602E+03  0.10000000000E+01 0.  0.
    9000005    1    3    3    0    0 -0.88083778657E+02 -0.36624818723E+01 -0.74482490928E+02  0.11541580174E+03  0.10000000000E+01 0.  0.
<mgrwt>
<rscale>  0 0.15565487E+03</rscale>
<asrwt>0</asrwt>
<pdfrwt beam="2">  1        1 0.10538589E+00 0.16162359E+03</pdfrwt>
<pdfrwt beam="1">  1       -1 0.53586132E-02 0.16162359E+03</pdfrwt>
<totfact> 0.45131319E+03</totfact>
</mgrwt>
</event>
<event>
 8    2  0.7478846E-004  0.1695172E+03  0.7818608E-02  0.1184764E+00
          1   -1    0    0  501    0  0.00000000000E+00  0.00000000000E+00  0.30758047959E+03  0.30758047963E+03  0.50400000000E-02 0. -1.
         -1   -1    0    0    0  501 -0.00000000000E+00 -0.00000000000E+00 -0.87563832729E+02  0.87563832874E+02  0.50400000000E-02 0.  1.
         25    2    1    2    0    0 -0.79914236101E+02 -0.81979810917E+02  0.64775021813E+02  0.18147146267E+03  0.12501645405E+03 0.  0.
         23    2    1    2    0    0  0.79914236101E+02  0.81979810917E+02  0.15524162505E+03  0.21367284983E+03  0.91919258474E+02 0.  0.
        -11    1    4    4    0    0  0.31804956563E+00  0.17775706291E+02 -0.92068371953E+01  0.20021057441E+02  0.51100000000E-03 0.  1.
         11    1    4    4    0    0  0.79596186535E+02  0.64204104626E+02  0.16444846225E+03  0.19365179239E+03  0.51100000000E-03 0. -1.
    9000005    1    3    3    0    0 -0.28985987703E+02 -0.78511353612E+02 -0.16675148126E+02  0.85342139029E+02  0.10000000000E+01 0.  0.
    9000005    1    3    3    0    0 -0.50928248398E+02 -0.34684573059E+01  0.81450169939E+02  0.96129323643E+02  0.10000000000E+01 0.  0.
<mgrwt>
<rscale>  0 0.16353349E+03</rscale>
<asrwt>0</asrwt>
<pdfrwt beam="1">  1        1 0.47320074E-01 0.16951722E+03</pdfrwt>
<pdfrwt beam="2">  1       -1 0.13471359E-01 0.16951722E+03</pdfrwt>
<totfact> 0.31668513E+03</totfact>
</mgrwt>
</event>
<event>
 8    2  0.7478846E-004  0.1291089E+03  0.7818608E-02  0.1242944E+00
          1   -1    0    0  501    0  0.00000000000E+00  0.00000000000E+00  0.43703761119E+03  0.43703761122E+03  0.50400000000E-02 0. -1.
         -1   -1    0    0    0  501 -0.00000000000E+00 -0.00000000000E+00 -0.52659634347E+02  0.52659634588E+02  0.50400000000E-02 0.  1.
         25    2    1    2    0    0  0.48058468201E+01 -0.31940136695E+02  0.44843220274E+02  0.13667487700E+03  0.12500335636E+03 0.  0.
         23    2    1    2    0    0 -0.48058468201E+01  0.31940136695E+02  0.33953475657E+03  0.35302236881E+03  0.91091566376E+02 0.  0.
        -11    1    4    4    0    0 -0.13847465146E+02 -0.15777709421E+02  0.17454787877E+02  0.27301245862E+02  0.51100000000E-03 0.  1.
         11    1    4    4    0    0  0.90416183260E+01  0.47717846117E+02  0.32207996869E+03  0.32572112295E+03  0.51100000000E-03 0. -1.
    9000005    1    3    3    0    0  0.10504479320E+02 -0.68574626711E+02  0.64471893783E+02  0.94712452203E+02  0.10000000000E+01 0.  0.
    9000005    1    3    3    0    0 -0.56986324998E+01  0.36634490016E+02 -0.19628673508E+02  0.41962424796E+02  0.10000000000E+01 0.  0.
<mgrwt>
<rscale>  0 0.12009252E+03</rscale>
<asrwt>0</asrwt>
<pdfrwt beam="1">  1        1 0.67236556E-01 0.12910890E+03</pdfrwt>
<pdfrwt beam="2">  1       -1 0.81014821E-02 0.12910890E+03</pdfrwt>
<totfact> 0.43879081E+03</totfact>
</mgrwt>
</event>
<event>
 8    2  0.7478846E-004  0.1254393E+03  0.7818608E-02  0.1248703E+00
          1   -1    0    0  501    0  0.00000000000E+00  0.00000000000E+00  0.12520880544E+03  0.12520880554E+03  0.50400000000E-02 0. -1.
         -1   -1    0    0    0  501 -0.00000000000E+00 -0.00000000000E+00 -0.96328903356E+02  0.96328903488E+02  0.50400000000E-02 0.  1.
         25    2    1    2    0    0  0.10473550556E+02  0.32970865834E+00  0.10299105886E+02  0.12586138497E+03  0.12500085070E+03 0.  0.
         23    2    1    2    0    0 -0.10473550556E+02 -0.32970865834E+00  0.18580796201E+02  0.95676324064E+02  0.93267942134E+02 0.  0.
        -11    1    4    4    0    0 -0.40043867496E+02 -0.92522597980E+01  0.40579044937E+02  0.57756164379E+02  0.51100000000E-03 0. -1.
         11    1    4    4    0    0  0.29570316941E+02  0.89225511397E+01 -0.21998248737E+02  0.37920159685E+02  0.51100000000E-03 0.  1.
    9000005    1    3    3    0    0  0.31359243697E+02  0.90689578688E+01 -0.50969723093E+02  0.60535616245E+02  0.10000000000E+01 0.  0.
    9000005    1    3    3    0    0 -0.20885693141E+02 -0.87392492105E+01  0.61268828979E+02  0.65325768723E+02  0.10000000000E+01 0.  0.
<mgrwt>
<rscale>  0 0.11666464E+03</rscale>
<asrwt>0</asrwt>
<pdfrwt beam="1">  1        1 0.19262893E-01 0.12543929E+03</pdfrwt>
<pdfrwt beam="2">  1       -1 0.14819831E-01 0.12543929E+03</pdfrwt>
<totfact> 0.82466980E+03</totfact>
</mgrwt>
</event>
<event>
 8    2  0.7478846E-004  0.1330475E+03  0.7818608E-02  0.1235128E+00
          1   -1    0    0  501    0  0.00000000000E+00  0.00000000000E+00  0.57695884707E+03  0.57695884709E+03  0.50400000000E-02 0. -1.
         -1   -1    0    0    0  501 -0.00000000000E+00 -0.00000000000E+00 -0.25611376366E+02  0.25611376862E+02  0.50400000000E-02 0.  1.
         25    2    1    2    0    0  0.33811471436E+02 -0.30584093674E+02  0.23936998706E+03  0.27386060772E+03  0.12499215722E+03 0.  0.
         23    2    1    2    0    0 -0.33811471436E+02  0.30584093674E+02  0.31197748364E+03  0.32870961624E+03  0.92959448797E+02 0.  0.
        -11    1    4    4    0    0 -0.34511027090E+02 -0.15832754719E+02  0.50708507995E+02  0.63348558754E+02  0.51100000000E-03 0.  1.
         11    1    4    4    0    0  0.69955565474E+00  0.46416848394E+02  0.26126897565E+03  0.26536105748E+03  0.51100000000E-03 0. -1.
    9000005    1    3    3    0    0 -0.82676132881E+01 -0.48445360427E+02  0.21784758737E+03  0.22332460165E+03  0.10000000000E+01 0.  0.
    9000005    1    3    3    0    0  0.42079084724E+02  0.17861266753E+02  0.21522399689E+02  0.50536006071E+02  0.10000000000E+01 0.  0.
<mgrwt>
<rscale>  0 0.12496251E+03</rscale>
<asrwt>0</asrwt>
<pdfrwt beam="1">  1        1 0.88762896E-01 0.13304752E+03</pdfrwt>
<pdfrwt beam="2">  1       -1 0.39402119E-02 0.13304752E+03</pdfrwt>
<totfact> 0.89247230E+03</totfact>
</mgrwt>
</event>
<event>
 8    2  0.7478846E-004  0.1643209E+03  0.7818608E-02  0.1191338E+00
          1   -1    0    0  501    0  0.00000000000E+00  0.00000000000E+00  0.10085627337E+03  0.10085627350E+03  0.50400000000E-02 0.  1.
         -1   -1    0    0    0  501 -0.00000000000E+00 -0.00000000000E+00 -0.27006615101E+03  0.27006615106E+03  0.50400000000E-02 0. -1.
         25    2    1    2    0    0 -0.10357796503E+03  0.25742942839E+02 -0.16299667896E+03  0.23145037206E+03  0.12494103980E+03 0.  0.
         23    2    1    2    0    0  0.10357796503E+03 -0.25742942839E+02 -0.62131986813E+01  0.13947205250E+03  0.89569836691E+02 0.  0.
        -11    1    4    4    0    0  0.11471024867E+03 -0.13517251734E+02 -0.20872578815E+02  0.11737470678E+03  0.51100000000E-03 0. -1.
         11    1    4    4    0    0 -0.11132283636E+02 -0.12225691105E+02  0.14659380133E+02  0.22097345725E+02  0.51100000000E-03 0.  1.
    9000005    1    3    3    0    0  0.19612339759E+02  0.14061119091E+02 -0.77148406080E+02  0.80840803445E+02  0.10000000000E+01 0.  0.
    9000005    1    3    3    0    0 -0.12319030479E+03  0.11681823747E+02 -0.85848272879E+02  0.15060956861E+03  0.10000000000E+01 0.  0.
<mgrwt>
<rscale>  0 0.15768252E+03</rscale>
<asrwt>0</asrwt>
<pdfrwt beam="1">  1        1 0.15516350E-01 0.16432090E+03</pdfrwt>
<pdfrwt beam="2">  1       -1 0.41548638E-01 0.16432090E+03</pdfrwt>
<totfact> 0.20151715E+03</totfact>
</mgrwt>
</event>
<event>
 8    2  0.7478846E-004  0.1357182E+03  0.7818608E-02  0.1232740E+00
         -1   -1    0    0    0  501 -0.00000000000E+00  0.00000000000E+00  0.46895923704E+02  0.46895923975E+02  0.50400000000E-02 0.  1.
          1   -1    0    0  501    0  0.00000000000E+00 -0.00000000000E+00 -0.12638127062E+04  0.12638127062E+04  0.50400000000E-02 0. -1.
         25    2    1    2    0    0  0.30987206174E+02  0.42833535025E+02 -0.58530302429E+02  0.14780129601E+03  0.12499803251E+03 0.  0.
         23    2    1    2    0    0 -0.30987206174E+02 -0.42833535025E+02 -0.11583864801E+04  0.11629073342E+04  0.87745723536E+02 0.  0.
        -11    1    4    4    0    0  0.18787499654E+02 -0.37298465148E+02 -0.79371826695E+03  0.79481622589E+03  0.51100000000E-03 0. -1.
         11    1    4    4    0    0 -0.49774705828E+02 -0.55350698772E+01 -0.36466821315E+03  0.36809110832E+03  0.51100000000E-03 0.  1.
    9000005    1    3    3    0    0  0.67274304159E+02  0.62903746359E+02 -0.27906613905E+02  0.96241843321E+02  0.10000000000E+01 0.  0.
    9000005    1    3    3    0    0 -0.36287097985E+02 -0.20070211334E+02 -0.30623688524E+02  0.51559452693E+02  0.10000000000E+01 0.  0.
<mgrwt>
<rscale>  0 0.12650199E+03</rscale>
<asrwt>0</asrwt>
<pdfrwt beam="2">  1        1 0.19443270E+00 0.13571819E+03</pdfrwt>
<pdfrwt beam="1">  1       -1 0.72147585E-02 0.13571819E+03</pdfrwt>
<totfact> 0.10509441E+03</totfact>
</mgrwt>
</event>
<event>
 8    2  0.7478846E-004  0.1440221E+03  0.7818608E-02  0.1217489E+00
         -1   -1    0    0    0  501 -0.00000000000E+00  0.00000000000E+00  0.35315860042E+03  0.35315860045E+03  0.50400000000E-02 0.  1.
          1   -1    0    0  501    0  0.00000000000E+00 -0.00000000000E+00 -0.69373514060E+02  0.69373514243E+02  0.50400000000E-02 0. -1.
         25    2    1    2    0    0  0.54182135079E+02  0.46709701912E+02  0.26728984274E+03  0.30362186664E+03  0.12499951141E+03 0.  0.
         23    2    1    2    0    0 -0.54182135079E+02 -0.46709701912E+02  0.16495243617E+02  0.11891024806E+03  0.93541723405E+02 0.  0.
        -11    1    4    4    0    0  0.42082043824E+01 -0.18407618484E+02 -0.32510311664E+02  0.37596140322E+02  0.51100000000E-03 0. -1.
         11    1    4    4    0    0 -0.58390339461E+02 -0.28302083427E+02  0.49005555280E+02  0.81314107739E+02  0.51100000000E-03 0.  1.
    9000005    1    3    3    0    0  0.29390726619E+02 -0.24678786975E+01 -0.12044649126E+01  0.29535672875E+02  0.10000000000E+01 0.  0.
    9000005    1    3    3    0    0  0.24791408460E+02  0.49177580609E+02  0.26849430765E+03  0.27408619376E+03  0.10000000000E+01 0.  0.
<mgrwt>
<rscale>  0 0.13695312E+03</rscale>
<asrwt>0</asrwt>
<pdfrwt beam="2">  1        1 0.10672849E-01 0.14402214E+03</pdfrwt>
<pdfrwt beam="1">  1       -1 0.54332092E-01 0.14402214E+03</pdfrwt>
<totfact> 0.20128073E+03</totfact>
</mgrwt>
</event>
<event>
 8    2  0.7478846E-004  0.1554768E+03  0.7818608E-02  0.1202066E+00
         -1   -1    0    0    0  501 -0.00000000000E+00  0.00000000000E+00  0.14885860656E+02  0.14885861509E+02  0.50400000000E-02 0.  1.
          1   -1    0    0  501    0  0.00000000000E+00 -0.00000000000E+00 -0.13824693011E+04  0.13824693011E+04  0.50400000000E-02 0. -1.
         25    2    1    2    0    0  0.47061837194E+02  0.79580964745E+02 -0.81016523821E+03  0.82494894243E+03  0.12500039179E+03 0.  0.
         23    2    1    2    0    0 -0.47061837194E+02 -0.79580964745E+02 -0.55741820225E+03  0.57240622020E+03  0.91574462893E+02 0.  0.
        -11    1    4    4    0    0 -0.17458187529E+02 -0.94366625381E+02 -0.38018061024E+03  0.39210603757E+03  0.51100000000E-03 0.  1.
         11    1    4    4    0    0 -0.29603649665E+02  0.14785660636E+02 -0.17723759202E+03  0.18030018263E+03  0.51100000000E-03 0. -1.
    9000005    1    3    3    0    0  0.41211738695E+01 -0.33012532705E+02 -0.13015658177E+03  0.13434488143E+03  0.10000000000E+01 0.  0.
    9000005    1    3    3    0    0  0.42940663324E+02  0.11259349745E+03 -0.68000865644E+03  0.69060406100E+03  0.10000000000E+01 0.  0.
<mgrwt>
<rscale>  0 0.14871119E+03</rscale>
<asrwt>0</asrwt>
<pdfrwt beam="2">  1        1 0.21268748E+00 0.15547683E+03</pdfrwt>
<pdfrwt beam="1">  1       -1 0.22901336E-02 0.15547683E+03</pdfrwt>
<totfact> 0.47560677E+03</totfact>
</mgrwt>
</event>
<event>
 8    2  0.7478846E-004  0.1305748E+03  0.7818608E-02  0.1237071E+00
          1   -1    0    0  501    0  0.00000000000E+00  0.00000000000E+00  0.24037811568E+03  0.24037811573E+03  0.50400000000E-02 0. -1.
         -1   -1    0    0    0  501 -0.00000000000E+00 -0.00000000000E+00 -0.71888048842E+02  0.71888049019E+02  0.50400000000E-02 0.  1.
         25    2    1    2    0    0  0.22890691823E+02 -0.30005560726E+02  0.16020050728E+03  0.20667362692E+03  0.12500187232E+03 0.  0.
         23    2    1    2    0    0 -0.22890691823E+02  0.30005560726E+02  0.82895595609E+01  0.10559253784E+03  0.98268763105E+02 0.  0.
        -11    1    4    4    0    0 -0.29799223104E+02 -0.21296602648E+02 -0.24728858957E+02  0.44193386921E+02  0.51100000000E-03 0.  1.
         11    1    4    4    0    0  0.69085312815E+01  0.51302163374E+02  0.33018418518E+02  0.61399150914E+02  0.51100000000E-03 0. -1.
    9000005    1    3    3    0    0  0.22328481188E+02 -0.34488581334E+02 -0.50067444539E+01  0.41401579736E+02  0.10000000000E+01 0.  0.
    9000005    1    3    3    0    0  0.56221063504E+00  0.44830206086E+01  0.16520725173E+03  0.16527204718E+03  0.10000000000E+01 0.  0.
<mgrwt>
<rscale>  0 0.12372780E+03</rscale>
<asrwt>0</asrwt>
<pdfrwt beam="1">  1        1 0.36981248E-01 0.13057483E+03</pdfrwt>
<pdfrwt beam="2">  1       -1 0.11059700E-01 0.13057483E+03</pdfrwt>
<totfact> 0.57561299E+03</totfact>
</mgrwt>
</event>
<event>
 8    2  0.7478846E-004  0.1629034E+03  0.7818608E-02  0.1189166E+00
         -1   -1    0    0    0  501 -0.00000000000E+00  0.00000000000E+00  0.18301550809E+02  0.18301551503E+02  0.50400000000E-02 0.  1.
          1   -1    0    0  501    0  0.00000000000E+00 -0.00000000000E+00 -0.14404308237E+04  0.14404308237E+04  0.50400000000E-02 0. -1.
         25    2    1    2    0    0  0.98872038801E+02 -0.33701576861E+02 -0.54359883639E+03  0.56748323621E+03  0.12500420839E+03 0.  0.
         23    2    1    2    0    0 -0.98872038801E+02  0.33701576861E+02 -0.87853043646E+03  0.89124913896E+03  0.10769319186E+03 0.  0.
        -11    1    4    4    0    0 -0.68094866898E+02  0.71032625501E+02 -0.66949521531E+03  0.67668780697E+03  0.51100000000E-03 0. -1.
         11    1    4    4    0    0 -0.30777171903E+02 -0.37331048640E+02 -0.20903522115E+03  0.21456133199E+03  0.51100000000E-03 0.  1.
    9000005    1    3    3    0    0  0.11085288605E+03 -0.65270532942E+02 -0.44726073007E+03  0.46539420439E+03  0.10000000000E+01 0.  0.
    9000005    1    3    3    0    0 -0.11980847247E+02  0.31568956081E+02 -0.96338106320E+02  0.10208903182E+03  0.10000000000E+01 0.  0.
<mgrwt>
<rscale>  0 0.15958532E+03</rscale>
<asrwt>0</asrwt>
<pdfrwt beam="2">  1        1 0.22160465E+00 0.16290343E+03</pdfrwt>
<pdfrwt beam="1">  1       -1 0.28156244E-02 0.16290343E+03</pdfrwt>
<totfact> 0.32273850E+03</totfact>
</mgrwt>
</event>
<event>
 8    2  0.7478846E-004  0.1257196E+03  0.7818608E-02  0.1249605E+00
          1   -1    0    0  501    0  0.00000000000E+00  0.00000000000E+00  0.23807758860E+03  0.23807758866E+03  0.50400000000E-02 0. -1.
         -1   -1    0    0    0  501 -0.00000000000E+00 -0.00000000000E+00 -0.54236768951E+02  0.54236769186E+02  0.50400000000E-02 0.  1.
         25    2    1    2    0    0  0.62053441000E+01 -0.11863083595E+02  0.14749199580E+03  0.19380223573E+03  0.12500471472E+03 0.  0.
         23    2    1    2    0    0 -0.62053441000E+01  0.11863083595E+02  0.36348823855E+02  0.98512122114E+02  0.90576830149E+02 0.  0.
        -11    1    4    4    0    0  0.33209578575E+02 -0.21190872632E+02  0.21939566692E+02  0.45091837165E+02  0.51100000000E-03 0. -1.
         11    1    4    4    0    0 -0.39414922675E+02  0.33053956227E+02  0.14409257163E+02  0.53420284948E+02  0.51100000000E-03 0.  1.
    9000005    1    3    3    0    0  0.88818964381E+01  0.55312531599E+01 -0.21479679826E+02  0.23913583823E+02  0.10000000000E+01 0.  0.
    9000005    1    3    3    0    0 -0.26765523381E+01 -0.17394336755E+02  0.16897167562E+03  0.16988865190E+03  0.10000000000E+01 0.  0.
<mgrwt>
<rscale>  0 0.11613945E+03</rscale>
<asrwt>0</asrwt>
<pdfrwt beam="1">  1        1 0.36627322E-01 0.12571960E+03</pdfrwt>
<pdfrwt beam="2">  1       -1 0.83441181E-02 0.12571960E+03</pdfrwt>
<totfact> 0.89165865E+03</totfact>
</mgrwt>
</event>
<event>
 8    2  0.7478846E-004  0.2090625E+03  0.7818608E-02  0.1146143E+00
         -1   -1    0    0    0  501 -0.00000000000E+00  0.00000000000E+00  0.61100754882E+02  0.61100755090E+02  0.50400000000E-02 0.  1.
          1   -1    0    0  501    0  0.00000000000E+00 -0.00000000000E+00 -0.75529211784E+03  0.75529211786E+03  0.50400000000E-02 0. -1.
         25    2    1    2    0    0 -0.16926131919E+02 -0.16671631485E+03 -0.51023140799E+03  0.55140115138E+03  0.12500526575E+03 0.  0.
         23    2    1    2    0    0  0.16926131919E+02  0.16671631485E+03 -0.18395995496E+03  0.26499172156E+03  0.91096234213E+02 0.  0.
        -11    1    4    4    0    0  0.25593086629E+02  0.11523861349E+03 -0.17638633490E+03  0.21224298165E+03  0.51100000000E-03 0. -1.
         11    1    4    4    0    0 -0.86669547100E+01  0.51477701356E+02 -0.75736200689E+01  0.52748739909E+02  0.51100000000E-03 0.  1.
    9000005    1    3    3    0    0 -0.43877306939E+02 -0.16786938409E+03 -0.37090355271E+03  0.40948234833E+03  0.10000000000E+01 0.  0.
    9000005    1    3    3    0    0  0.26951175020E+02  0.11530692373E+01 -0.13932785528E+03  0.14191880306E+03  0.10000000000E+01 0.  0.
<mgrwt>
<rscale>  0 0.20432147E+03</rscale>
<asrwt>0</asrwt>
<pdfrwt beam="2">  1        1 0.11619878E+00 0.20906253E+03</pdfrwt>
<pdfrwt beam="1">  1       -1 0.94001167E-02 0.20906253E+03</pdfrwt>
<totfact> 0.16839010E+03</totfact>
</mgrwt>
</event>
<event>
 8    2  0.7478846E-004  0.2111814E+03  0.7818608E-02  0.1144018E+00
          1   -1    0    0  501    0  0.00000000000E+00  0.00000000000E+00  0.96329636678E+03  0.96329636680E+03  0.50400000000E-02 0. -1.
         -1   -1    0    0    0  501 -0.00000000000E+00 -0.00000000000E+00 -0.42764750306E+02  0.42764750603E+02  0.50400000000E-02 0.  1.
         25    2    1    2    0    0  0.16415450139E+03  0.45012602144E+02  0.48722472526E+03  0.53102307845E+03  0.12499896903E+03 0.  0.
         23    2    1    2    0    0 -0.16415450139E+03 -0.45012602144E+02  0.43330689122E+03  0.47503803895E+03  0.94516886301E+02 0.  0.
        -11    1    4    4    0    0 -0.30018237925E+02 -0.41002819768E+01  0.14915023447E+02  0.33769288490E+02  0.51100000000E-03 0.  1.
         11    1    4    4    0    0 -0.13413626347E+03 -0.40912320167E+02  0.41839186777E+03  0.44126875046E+03  0.51100000000E-03 0. -1.
    9000005    1    3    3    0    0  0.14887756515E+03 -0.69552857136E+01  0.28440066161E+03  0.32108821487E+03  0.10000000000E+01 0.  0.
    9000005    1    3    3    0    0  0.15276936244E+02  0.51967887857E+02  0.20282406365E+03  0.20993486358E+03  0.10000000000E+01 0.  0.
<mgrwt>
<rscale>  0 0.20693341E+03</rscale>
<asrwt>0</asrwt>
<pdfrwt beam="1">  1        1 0.14819944E+00 0.21118138E+03</pdfrwt>
<pdfrwt beam="2">  1       -1 0.65791922E-02 0.21118138E+03</pdfrwt>
<totfact> 0.19751712E+03</totfact>
</mgrwt>
</event>
<event>
 8    2  0.7478846E-004  0.2210679E+03  0.7818608E-02  0.1136449E+00
         -1   -1    0    0    0  501 -0.00000000000E+00  0.00000000000E+00  0.60267289757E+02  0.60267289968E+02  0.50400000000E-02 0.  1.
          1   -1    0    0  501    0  0.00000000000E+00 -0.00000000000E+00 -0.75501673989E+03  0.75501673990E+03  0.50400000000E-02 0. -1.
         25    2    1    2    0    0  0.17254796993E+03  0.58934554801E+02 -0.39938339738E+03  0.45648451744E+03  0.12499973155E+03 0.  0.
         23    2    1    2    0    0 -0.17254796993E+03 -0.58934554801E+02 -0.29536605275E+03  0.35879951243E+03  0.90828967435E+02 0.  0.
        -11    1    4    4    0    0 -0.32861227912E+02 -0.51807048771E+02 -0.11724209378E+03  0.13232361526E+03  0.51100000000E-03 0.  1.
         11    1    4    4    0    0 -0.13968674201E+03 -0.71275060306E+01 -0.17812395897E+03  0.22647589717E+03  0.51100000000E-03 0. -1.
    9000005    1    3    3    0    0 -0.18546201579E+02 -0.15243335396E+01 -0.19531711478E+02  0.26995794839E+02  0.10000000000E+01 0.  0.
    9000005    1    3    3    0    0  0.19109417150E+03  0.60458888341E+02 -0.37985168590E+03  0.42948872260E+03  0.10000000000E+01 0.  0.
<mgrwt>
<rscale>  0 0.21659330E+03</rscale>
<asrwt>0</asrwt>
<pdfrwt beam="2">  1        1 0.11615642E+00 0.22106790E+03</pdfrwt>
<pdfrwt beam="1">  1       -1 0.92718913E-02 0.22106790E+03</pdfrwt>
<totfact> 0.17218487E+03</totfact>
</mgrwt>
</event>
<event>
 8    2  0.7478846E-004  0.1461202E+03  0.7818608E-02  0.1215036E+00
         -1   -1    0    0    0  501 -0.00000000000E+00  0.00000000000E+00  0.50577546329E+02  0.50577546580E+02  0.50400000000E-02 0.  1.
          1   -1    0    0  501    0  0.00000000000E+00 -0.00000000000E+00 -0.35419043698E+03  0.35419043702E+03  0.50400000000E-02 0. -1.
         25    2    1    2    0    0  0.26671704630E+02 -0.70815718259E+02 -0.13807182296E+03  0.20103468519E+03  0.12499948228E+03 0.  0.
         23    2    1    2    0    0 -0.26671704630E+02  0.70815718259E+02 -0.16554106769E+03  0.20373329841E+03  0.91526859496E+02 0.  0.
        -11    1    4    4    0    0 -0.66598290037E+01 -0.12234072749E+02 -0.85633875868E+02  0.86759360041E+02  0.51100000000E-03 0. -1.
         11    1    4    4    0    0 -0.20011875626E+02  0.83049791008E+02 -0.79907191818E+02  0.11697393837E+03  0.51100000000E-03 0.  1.
    9000005    1    3    3    0    0 -0.26688169702E+02 -0.56286443659E+02 -0.13127315903E+03  0.14530679414E+03  0.10000000000E+01 0.  0.
    9000005    1    3    3    0    0  0.53359874332E+02 -0.14529274600E+02 -0.67986639331E+01  0.55727891046E+02  0.10000000000E+01 0.  0.
<mgrwt>
<rscale>  0 0.13873890E+03</rscale>
<asrwt>0</asrwt>
<pdfrwt beam="2">  1        1 0.54490835E-01 0.14612021E+03</pdfrwt>
<pdfrwt beam="1">  1       -1 0.77811612E-02 0.14612021E+03</pdfrwt>
<totfact> 0.61189562E+03</totfact>
</mgrwt>
</event>
<event>
 8    2  0.7478846E-004  0.1335639E+03  0.7818608E-02  0.1233911E+00
         -1   -1    0    0    0  501 -0.00000000000E+00  0.00000000000E+00  0.46893209127E+03  0.46893209130E+03  0.50400000000E-02 0.  1.
          1   -1    0    0  501    0  0.00000000000E+00 -0.00000000000E+00 -0.31450184662E+02  0.31450185066E+02  0.50400000000E-02 0. -1.
         25    2    1    2    0    0 -0.46919806172E+02 -0.34040551444E+01  0.19702931399E+03  0.23803334070E+03  0.12500505954E+03 0.  0.
         23    2    1    2    0    0  0.46919806172E+02  0.34040551444E+01  0.24045259261E+03  0.26234893566E+03  0.93789439411E+02 0.  0.
        -11    1    4    4    0    0  0.56752125158E+02 -0.27510034986E+02  0.10022002290E+03  0.11841308511E+03  0.51100000000E-03 0. -1.
         11    1    4    4    0    0 -0.98323189857E+01  0.30914090130E+02  0.14023256971E+03  0.14393585055E+03  0.51100000000E-03 0.  1.
    9000005    1    3    3    0    0 -0.19695589606E+02 -0.45112200601E+02  0.18355692004E+02  0.52544822028E+02  0.10000000000E+01 0.  0.
    9000005    1    3    3    0    0 -0.27224216567E+02  0.41708145457E+02  0.17867362199E+03  0.18548851867E+03  0.10000000000E+01 0.  0.
<mgrwt>
<rscale>  0 0.12574418E+03</rscale>
<asrwt>0</asrwt>
<pdfrwt beam="2">  1        1 0.48384906E-02 0.13356392E+03</pdfrwt>
<pdfrwt beam="1">  1       -1 0.72143390E-01 0.13356392E+03</pdfrwt>
<totfact> 0.33772687E+03</totfact>
</mgrwt>
</event>
<event>
 8    2  0.7478846E-004  0.2782658E+03  0.7818608E-02  0.1098589E+00
          1   -1    0    0  501    0  0.00000000000E+00  0.00000000000E+00  0.43480514323E+02  0.43480514615E+02  0.50400000000E-02 0. -1.
         -1   -1    0    0    0  501 -0.00000000000E+00 -0.00000000000E+00 -0.17083617271E+04  0.17083617271E+04  0.50400000000E-02 0.  1.
         25    2    1    2    0    0 -0.23541684300E+03 -0.79912004572E+02 -0.93441146309E+03  0.97496495001E+03  0.12499941175E+03 0.  0.
         23    2    1    2    0    0  0.23541684300E+03  0.79912004572E+02 -0.73046974970E+03  0.77687729173E+03  0.90251053968E+02 0.  0.
        -11    1    4    4    0    0  0.31066921692E+02  0.35515772145E+02 -0.22433751883E+03  0.22924625635E+03  0.51100000000E-03 0. -1.
         11    1    4    4    0    0  0.20434992131E+03  0.44396232427E+02 -0.50613223087E+03  0.54763103538E+03  0.51100000000E-03 0.  1.
    9000005    1    3    3    0    0 -0.21032923442E+03 -0.35806074853E+02 -0.60175920421E+03  0.63846346935E+03  0.10000000000E+01 0.  0.
    9000005    1    3    3    0    0 -0.25087608580E+02 -0.44105929719E+02 -0.33265225889E+03  0.33650148065E+03  0.10000000000E+01 0.  0.
<mgrwt>
<rscale>  0 0.27475470E+03</rscale>
<asrwt>0</asrwt>
<pdfrwt beam="1">  1        1 0.66893113E-02 0.27826583E+03</pdfrwt>
<pdfrwt beam="2">  1       -1 0.26282483E+00 0.27826583E+03</pdfrwt>
<totfact> 0.73231674E+01</totfact>
</mgrwt>
</event>
<event>
 8    2  0.7478846E-004  0.1361135E+03  0.7818608E-02  0.1230150E+00
         -1   -1    0    0    0  501 -0.00000000000E+00  0.00000000000E+00  0.32331635368E+03  0.32331635372E+03  0.50400000000E-02 0.  1.
          1   -1    0    0  501    0  0.00000000000E+00 -0.00000000000E+00 -0.47321078506E+02  0.47321078774E+02  0.50400000000E-02 0. -1.
         25    2    1    2    0    0  0.50621775638E+02  0.18380659479E+02  0.18748233713E+03  0.23168189720E+03  0.12500584763E+03 0.  0.
         23    2    1    2    0    0 -0.50621775638E+02 -0.18380659479E+02  0.88512938042E+02  0.13895553530E+03  0.92594210276E+02 0.  0.
        -11    1    4    4    0    0 -0.58611549177E+01  0.34348114549E+02  0.46225271373E+02  0.57887147311E+02  0.51100000000E-03 0.  1.
         11    1    4    4    0    0 -0.44760620721E+02 -0.52728774028E+02  0.42287666669E+02  0.81068387984E+02  0.51100000000E-03 0. -1.
    9000005    1    3    3    0    0  0.47307536795E+02  0.23078063653E+02  0.93691857527E+01  0.53473186751E+02  0.10000000000E+01 0.  0.
    9000005    1    3    3    0    0  0.33142388431E+01 -0.46974041741E+01  0.17811315138E+03  0.17820871045E+03  0.10000000000E+01 0.  0.
<mgrwt>
<rscale>  0 0.12820077E+03</rscale>
<asrwt>0</asrwt>
<pdfrwt beam="2">  1        1 0.72801660E-02 0.13611346E+03</pdfrwt>
<pdfrwt beam="1">  1       -1 0.49740977E-01 0.13611346E+03</pdfrwt>
<totfact> 0.39359450E+03</totfact>
</mgrwt>
</event>
<event>
 8    2  0.7478846E-004  0.1326493E+03  0.7818608E-02  0.1236079E+00
          1   -1    0    0  501    0  0.00000000000E+00  0.00000000000E+00  0.14339849572E+04  0.14339849572E+04  0.50400000000E-02 0. -1.
         -1   -1    0    0    0  501 -0.00000000000E+00 -0.00000000000E+00 -0.12511913336E+02  0.12511914352E+02  0.50400000000E-02 0.  1.
         25    2    1    2    0    0  0.30635680172E+02  0.32109678582E+02  0.43653789109E+03  0.45624682680E+03  0.12500504091E+03 0.  0.
         23    2    1    2    0    0 -0.30635680172E+02 -0.32109678582E+02  0.98493515280E+03  0.99025004478E+03  0.92348901529E+02 0.  0.
        -11    1    4    4    0    0 -0.18729973997E+02 -0.58317325472E+02  0.85372841898E+03  0.85592285619E+03  0.51100000000E-03 0. -1.
         11    1    4    4    0    0 -0.11905706175E+02  0.26207646890E+02  0.13120673382E+03  0.13432718859E+03  0.51100000000E-03 0.  1.
    9000005    1    3    3    0    0 -0.51774506200E+01 -0.41918321427E+02  0.23161405524E+03  0.23543581344E+03  0.10000000000E+01 0.  0.
    9000005    1    3    3    0    0  0.35813130792E+02  0.74028000009E+02  0.20492383585E+03  0.22081101336E+03  0.10000000000E+01 0.  0.
<mgrwt>
<rscale>  0 0.12435593E+03</rscale>
<asrwt>0</asrwt>
<pdfrwt beam="1">  1        1 0.22061306E+00 0.13264930E+03</pdfrwt>
<pdfrwt beam="2">  1       -1 0.19249099E-02 0.13264930E+03</pdfrwt>
<totfact> 0.56276528E+03</totfact>
</mgrwt>
</event>
<event>
 8    2  0.7478846E-004  0.1304825E+03  0.7818608E-02  0.1239831E+00
          1   -1    0    0  501    0  0.00000000000E+00  0.00000000000E+00  0.13707286373E+03  0.13707286382E+03  0.50400000000E-02 0. -1.
         -1   -1    0    0    0  501 -0.00000000000E+00 -0.00000000000E+00 -0.15923972311E+03  0.15923972319E+03  0.50400000000E-02 0.  1.
         25    2    1    2    0    0  0.19689179892E+02 -0.31794878358E+02  0.80393939219E+02  0.15326079139E+03  0.12500842619E+03 0.  0.
         23    2    1    2    0    0 -0.19689179892E+02  0.31794878358E+02 -0.10256079861E+03  0.14305179562E+03  0.92447394370E+02 0.  0.
        -11    1    4    4    0    0  0.24075310212E+02 -0.20373790750E+02 -0.35346491213E+02  0.47371788574E+02  0.51100000000E-03 0.  1.
         11    1    4    4    0    0 -0.43764490104E+02  0.52168669108E+02 -0.67214307392E+02  0.95680007050E+02  0.51100000000E-03 0. -1.
    9000005    1    3    3    0    0  0.38425276668E+01 -0.65826388558E+02  0.15886912158E+01  0.65965160420E+02  0.10000000000E+01 0.  0.
    9000005    1    3    3    0    0  0.15846652225E+02  0.34031510199E+02  0.78805248003E+02  0.87295630968E+02  0.10000000000E+01 0.  0.
<mgrwt>
<rscale>  0 0.12200155E+03</rscale>
<asrwt>0</asrwt>
<pdfrwt beam="1">  1        1 0.21088133E-01 0.13048251E+03</pdfrwt>
<pdfrwt beam="2">  1       -1 0.24498419E-01 0.13048251E+03</pdfrwt>
<totfact> 0.33028783E+03</totfact>
</mgrwt>
</event>
<event>
 8    2  0.7478846E-004  0.1366336E+03  0.7818608E-02  0.1229780E+00
          1   -1    0    0  501    0  0.00000000000E+00  0.00000000000E+00  0.13101920683E+03  0.13101920692E+03  0.50400000000E-02 0. -1.
         -1   -1    0    0    0  501 -0.00000000000E+00 -0.00000000000E+00 -0.12037707220E+03  0.12037707230E+03  0.50400000000E-02 0.  1.
         25    2    1    2    0    0  0.11638599559E+02 -0.53928277386E+02 -0.24977809786E+02  0.13889791463E+03  0.12500009442E+03 0.  0.
         23    2    1    2    0    0 -0.11638599559E+02  0.53928277386E+02  0.35619944413E+02  0.11249836460E+03  0.91342134289E+02 0.  0.
        -11    1    4    4    0    0 -0.23903900093E+02 -0.83799741191E+01  0.41608864475E+02  0.48712606264E+02  0.51100000000E-03 0. -1.
         11    1    4    4    0    0  0.12265300535E+02  0.62308251505E+02 -0.59889200618E+01  0.63785758337E+02  0.51100000000E-03 0.  1.
    9000005    1    3    3    0    0 -0.15456918963E+02 -0.67748082787E+02  0.30286028784E+02  0.75808723803E+02  0.10000000000E+01 0.  0.
    9000005    1    3    3    0    0  0.27095518521E+02  0.13819805401E+02 -0.55263838570E+02  0.63089190824E+02  0.10000000000E+01 0.  0.
<mgrwt>
<rscale>  0 0.12844576E+03</rscale>
<asrwt>0</asrwt>
<pdfrwt beam="1">  1        1 0.20156801E-01 0.13663360E+03</pdfrwt>
<pdfrwt beam="2">  1       -1 0.18519550E-01 0.13663360E+03</pdfrwt>
<totfact> 0.55103722E+03</totfact>
</mgrwt>
</event>
<event>
 8    2  0.7478846E-004  0.1496239E+03  0.7818608E-02  0.1209867E+00
         -1   -1    0    0    0  501 -0.00000000000E+00  0.00000000000E+00  0.16051953936E+02  0.16051954728E+02  0.50400000000E-02 0.  1.
          1   -1    0    0  501    0  0.00000000000E+00 -0.00000000000E+00 -0.16403090871E+04  0.16403090872E+04  0.50400000000E-02 0. -1.
         25    2    1    2    0    0  0.78611630636E+02 -0.24124618744E+02 -0.42121181885E+03  0.44699743576E+03  0.12500210210E+03 0.  0.
         23    2    1    2    0    0 -0.78611630636E+02  0.24124618744E+02 -0.12030453144E+04  0.12093636061E+04  0.92089726479E+02 0.  0.
        -11    1    4    4    0    0 -0.37377608843E+02  0.55917251724E+02 -0.51909578431E+03  0.52343505612E+03  0.51100000000E-03 0.  1.
         11    1    4    4    0    0 -0.41234021794E+02 -0.31792632980E+02 -0.68394953005E+03  0.68592855001E+03  0.51100000000E-03 0. -1.
    9000005    1    3    3    0    0 -0.22115189713E+02  0.80507889859E+01 -0.16656714903E+02  0.28850354776E+02  0.10000000000E+01 0.  0.
    9000005    1    3    3    0    0  0.10072682035E+03 -0.32175407730E+02 -0.40455510395E+03  0.41814708098E+03  0.10000000000E+01 0.  0.
<mgrwt>
<rscale>  0 0.14260411E+03</rscale>
<asrwt>0</asrwt>
<pdfrwt beam="2">  1        1 0.25235511E+00 0.14962390E+03</pdfrwt>
<pdfrwt beam="1">  1       -1 0.24695327E-02 0.14962390E+03</pdfrwt>
<totfact> 0.28942409E+03</totfact>
</mgrwt>
</event>
<event>
 8    2  0.7478846E-004  0.1544158E+03  0.7818608E-02  0.1204947E+00
          1   -1    0    0  501    0  0.00000000000E+00  0.00000000000E+00  0.86186088875E+03  0.86186088876E+03  0.50400000000E-02 0. -1.
         -1   -1    0    0    0  501 -0.00000000000E+00 -0.00000000000E+00 -0.26127740770E+02  0.26127741256E+02  0.50400000000E-02 0.  1.
         25    2    1    2    0    0 -0.14935663443E+02 -0.89437550555E+02  0.29426068837E+03  0.33231549591E+03  0.12498834590E+03 0.  0.
         23    2    1    2    0    0  0.14935663443E+02  0.89437550555E+02  0.54147245961E+03  0.55567313411E+03  0.85779123119E+02 0.  0.
        -11    1    4    4    0    0  0.11957401956E+02  0.62448143040E+02  0.14568772982E+03  0.15895805941E+03  0.51100000000E-03 0.  1.
         11    1    4    4    0    0  0.29782614863E+01  0.26989407515E+02  0.39578472979E+03  0.39671507470E+03  0.51100000000E-03 0. -1.
    9000005    1    3    3    0    0  0.49931731737E+02 -0.27027285982E+02  0.66717034453E+02  0.87611727001E+02  0.10000000000E+01 0.  0.
    9000005    1    3    3    0    0 -0.64867395180E+02 -0.62410264573E+02  0.22754365391E+03  0.24470376891E+03  0.10000000000E+01 0.  0.
<mgrwt>
<rscale>  0 0.14641664E+03</rscale>
<asrwt>0</asrwt>
<pdfrwt beam="1">  1        1 0.13259400E+00 0.15441579E+03</pdfrwt>
<pdfrwt beam="2">  1       -1 0.40196521E-02 0.15441579E+03</pdfrwt>
<totfact> 0.48955523E+03</totfact>
</mgrwt>
</event>
<event>
 8    2  0.7478846E-004  0.1467906E+03  0.7818608E-02  0.1214590E+00
          1   -1    0    0  501    0  0.00000000000E+00  0.00000000000E+00  0.25414217696E+03  0.25414217701E+03  0.50400000000E-02 0. -1.
         -1   -1    0    0    0  501 -0.00000000000E+00 -0.00000000000E+00 -0.85610400099E+02  0.85610400248E+02  0.50400000000E-02 0.  1.
         25    2    1    2    0    0 -0.18879554353E+02 -0.74609079064E+02  0.17341367604E+02  0.14781142658E+03  0.12499817017E+03 0.  0.
         23    2    1    2    0    0  0.18879554353E+02  0.74609079064E+02  0.15119040926E+03  0.19194115068E+03  0.89777019446E+02 0.  0.
        -11    1    4    4    0    0 -0.35300845051E+02  0.18517583448E+02  0.43835186473E+02  0.59250098155E+02  0.51100000000E-03 0. -1.
         11    1    4    4    0    0  0.54180399404E+02  0.56091495616E+02  0.10735522279E+03  0.13269105252E+03  0.51100000000E-03 0.  1.
    9000005    1    3    3    0    0  0.48550545324E+02 -0.15107734935E+02 -0.13701506845E+02  0.52670014201E+02  0.10000000000E+01 0.  0.
    9000005    1    3    3    0    0 -0.67430099677E+02 -0.59501344129E+02  0.31042874449E+02  0.95141412380E+02  0.10000000000E+01 0.  0.
<mgrwt>
<rscale>  0 0.13906675E+03</rscale>
<asrwt>0</asrwt>
<pdfrwt beam="1">  1        1 0.39098796E-01 0.14679065E+03</pdfrwt>
<pdfrwt beam="2">  1       -1 0.13170831E-01 0.14679065E+03</pdfrwt>
<totfact> 0.41299810E+03</totfact>
</mgrwt>
</event>
<event>
 8    2  0.7478846E-004  0.1340221E+03  0.7818608E-02  0.1233994E+00
          1   -1    0    0  501    0  0.00000000000E+00  0.00000000000E+00  0.24243786981E+03  0.24243786987E+03  0.50400000000E-02 0. -1.
         -1   -1    0    0    0  501 -0.00000000000E+00 -0.00000000000E+00 -0.58816661373E+02  0.58816661589E+02  0.50400000000E-02 0.  1.
         25    2    1    2    0    0  0.13396838419E+02 -0.46440580802E+02  0.88930119268E+02  0.16084305189E+03  0.12500287359E+03 0.  0.
         23    2    1    2    0    0 -0.13396838419E+02  0.46440580802E+02  0.94691089173E+02  0.14041147956E+03  0.91721199290E+02 0.  0.
        -11    1    4    4    0    0  0.36772241169E+02  0.24291931409E+02  0.21728013155E+02  0.49136566915E+02  0.51100000000E-03 0.  1.
         11    1    4    4    0    0 -0.50169079588E+02  0.22148649392E+02  0.72963076017E+02  0.91274912647E+02  0.51100000000E-03 0. -1.
    9000005    1    3    3    0    0  0.57164527827E+02 -0.64355883740E+02  0.64756077818E+02  0.10772099437E+03  0.10000000000E+01 0.  0.
    9000005    1    3    3    0    0 -0.43767689408E+02  0.17915302938E+02  0.24174041451E+02  0.53122057524E+02  0.10000000000E+01 0.  0.
<mgrwt>
<rscale>  0 0.12569072E+03</rscale>
<asrwt>0</asrwt>
<pdfrwt beam="1">  1        1 0.37298134E-01 0.13402209E+03</pdfrwt>
<pdfrwt beam="2">  1       -1 0.90487170E-02 0.13402209E+03</pdfrwt>
<totfact> 0.77491726E+03</totfact>
</mgrwt>
</event>
<event>
 8    2  0.7478846E-004  0.1588825E+03  0.7818608E-02  0.1197759E+00
          1   -1    0    0  501    0  0.00000000000E+00  0.00000000000E+00  0.51708403186E+02  0.51708403432E+02  0.50400000000E-02 0. -1.
         -1   -1    0    0    0  501 -0.00000000000E+00 -0.00000000000E+00 -0.41716943982E+03  0.41716943985E+03  0.50400000000E-02 0.  1.
         25    2    1    2    0    0  0.32362463403E+02  0.92581303517E+02 -0.17934607277E+03  0.23960101959E+03  0.12500003188E+03 0.  0.
         23    2    1    2    0    0 -0.32362463403E+02 -0.92581303517E+02 -0.18611496386E+03  0.22927682369E+03  0.91161698707E+02 0.  0.
        -11    1    4    4    0    0 -0.45210134040E+02 -0.42645900419E+02 -0.38964886261E+02  0.73354559532E+02  0.51100000000E-03 0. -1.
         11    1    4    4    0    0  0.12847670637E+02 -0.49935403097E+02 -0.14715007760E+03  0.15592226416E+03  0.51100000000E-03 0.  1.
    9000005    1    3    3    0    0 -0.62836187213E+01  0.72009063105E+02 -0.18189650816E+03  0.19573484287E+03  0.10000000000E+01 0.  0.
    9000005    1    3    3    0    0  0.38646082124E+02  0.20572240411E+02  0.25504353867E+01  0.43866176717E+02  0.10000000000E+01 0.  0.
<mgrwt>
<rscale>  0 0.15223051E+03</rscale>
<asrwt>0</asrwt>
<pdfrwt beam="1">  1        1 0.79551392E-02 0.15888246E+03</pdfrwt>
<pdfrwt beam="2">  1       -1 0.64179912E-01 0.15888246E+03</pdfrwt>
<totfact> 0.21816453E+03</totfact>
</mgrwt>
</event>
<event>
 8    2  0.7478846E-004  0.1253143E+03  0.7818608E-02  0.1247198E+00
         -1   -1    0    0    0  501 -0.00000000000E+00  0.00000000000E+00  0.12082749785E+03  0.12082749796E+03  0.50400000000E-02 0.  1.
          1   -1    0    0  501    0  0.00000000000E+00 -0.00000000000E+00 -0.11791153518E+03  0.11791153529E+03  0.50400000000E-02 0. -1.
         25    2    1    2    0    0 -0.22709067582E+01 -0.87158300131E+01  0.44778293066E+02  0.13307430605E+03  0.12499021038E+03 0.  0.
         23    2    1    2    0    0  0.22709067582E+01  0.87158300131E+01 -0.41862330396E+02  0.10566472719E+03  0.96599467681E+02 0.  0.
        -11    1    4    4    0    0  0.13241765656E+02  0.50580424716E+02 -0.13768306445E+02  0.54067457725E+02  0.51100000000E-03 0.  1.
         11    1    4    4    0    0 -0.10970858898E+02 -0.41864594703E+02 -0.28094023951E+02  0.51597269469E+02  0.51100000000E-03 0. -1.
    9000005    1    3    3    0    0  0.30161417056E+02  0.14329989794E+02 -0.32210664387E+02  0.46406751520E+02  0.10000000000E+01 0.  0.
    9000005    1    3    3    0    0 -0.32432323815E+02 -0.23045819807E+02  0.76988957453E+02  0.86667554530E+02  0.10000000000E+01 0.  0.
<mgrwt>
<rscale>  0 0.11754768E+03</rscale>
<asrwt>0</asrwt>
<pdfrwt beam="2">  1        1 0.18140236E-01 0.12531431E+03</pdfrwt>
<pdfrwt beam="1">  1       -1 0.18588846E-01 0.12531431E+03</pdfrwt>
<totfact> 0.62277183E+03</totfact>
</mgrwt>
</event>
<event>
 8    2  0.7478846E-004  0.1286932E+03  0.7818608E-02  0.1242447E+00
         -1   -1    0    0    0  501 -0.00000000000E+00  0.00000000000E+00  0.22045174890E+03  0.22045174896E+03  0.50400000000E-02 0.  1.
          1   -1    0    0  501    0  0.00000000000E+00 -0.00000000000E+00 -0.59650686764E+02  0.59650686977E+02  0.50400000000E-02 0. -1.
         25    2    1    2    0    0 -0.26522119867E+02 -0.15259342201E+02  0.72207895530E+02  0.14756668058E+03  0.12500269866E+03 0.  0.
         23    2    1    2    0    0  0.26522119867E+02  0.15259342201E+02  0.88593166610E+02  0.13253575536E+03  0.93705426272E+02 0.  0.
        -11    1    4    4    0    0  0.35847458253E+02 -0.26197210067E+02  0.13765452663E+02  0.46484640106E+02  0.51100000000E-03 0. -1.
         11    1    4    4    0    0 -0.93253383861E+01  0.41456552269E+02  0.74827713947E+02  0.86051115256E+02  0.51100000000E-03 0.  1.
    9000005    1    3    3    0    0 -0.23406846730E+02 -0.51667429353E+02  0.90406697686E+02  0.10673225715E+03  0.10000000000E+01 0.  0.
    9000005    1    3    3    0    0 -0.31152731373E+01  0.36408087152E+02 -0.18198802156E+02  0.40834423428E+02  0.10000000000E+01 0.  0.
<mgrwt>
<rscale>  0 0.12039492E+03</rscale>
<asrwt>0</asrwt>
<pdfrwt beam="2">  1        1 0.91770287E-02 0.12869322E+03</pdfrwt>
<pdfrwt beam="1">  1       -1 0.33915654E-01 0.12869322E+03</pdfrwt>
<totfact> 0.56460377E+03</totfact>
</mgrwt>
</event>
<event>
 8    2  0.7478846E-004  0.1370122E+03  0.7818608E-02  0.1229093E+00
         -1   -1    0    0    0  501 -0.00000000000E+00  0.00000000000E+00  0.16728126512E+03  0.16728126519E+03  0.50400000000E-02 0.  1.
          1   -1    0    0  501    0  0.00000000000E+00 -0.00000000000E+00 -0.10997156049E+03  0.10997156060E+03  0.50400000000E-02 0. -1.
         25    2    1    2    0    0 -0.48657104810E+02 -0.27942651116E+02 -0.28359011381E+02  0.13991635023E+03  0.12499618368E+03 0.  0.
         23    2    1    2    0    0  0.48657104810E+02  0.27942651116E+02  0.85668716007E+02  0.13733647557E+03  0.91508868524E+02 0.  0.
        -11    1    4    4    0    0  0.36646397432E+02  0.29628889109E+02 -0.35855892673E+01  0.47261887026E+02  0.51100000000E-03 0. -1.
         11    1    4    4    0    0  0.12010707378E+02 -0.16862379933E+01  0.89254305274E+02  0.90074588540E+02  0.51100000000E-03 0.  1.
    9000005    1    3    3    0    0  0.99272115949E+01  0.86639521522E+01  0.40362122894E+02  0.42470160836E+02  0.10000000000E+01 0.  0.
    9000005    1    3    3    0    0 -0.58584316405E+02 -0.36606603268E+02 -0.68721134275E+02  0.97446189395E+02  0.10000000000E+01 0.  0.
<mgrwt>
<rscale>  0 0.12890250E+03</rscale>
<asrwt>0</asrwt>
<pdfrwt beam="2">  1        1 0.16918702E-01 0.13701223E+03</pdfrwt>
<pdfrwt beam="1">  1       -1 0.25735579E-01 0.13701223E+03</pdfrwt>
<totfact> 0.40448142E+03</totfact>
</mgrwt>
</event>
<event>
 8    2  0.7478846E-004  0.1572743E+03  0.7818608E-02  0.1199796E+00
          1   -1    0    0  501    0  0.00000000000E+00  0.00000000000E+00  0.10779835645E+04  0.10779835645E+04  0.50400000000E-02 0. -1.
         -1   -1    0    0    0  501 -0.00000000000E+00 -0.00000000000E+00 -0.19728400907E+02  0.19728401550E+02  0.50400000000E-02 0.  1.
         25    2    1    2    0    0 -0.19330894973E+02 -0.93462629614E+02  0.50556879004E+03  0.52946671664E+03  0.12500502361E+03 0.  0.
         23    2    1    2    0    0  0.19330894973E+02  0.93462629614E+02  0.55268637357E+03  0.56824524944E+03  0.91276992437E+02 0.  0.
        -11    1    4    4    0    0 -0.29037748257E+02  0.66655682580E+02  0.24238324323E+03  0.25305297359E+03  0.51100000000E-03 0.  1.
         11    1    4    4    0    0  0.48368643230E+02  0.26806947034E+02  0.31030313034E+03  0.31519227585E+03  0.51100000000E-03 0. -1.
    9000005    1    3    3    0    0 -0.26048008420E+02 -0.22364854680E+02  0.40311516312E+03  0.40457572864E+03  0.10000000000E+01 0.  0.
    9000005    1    3    3    0    0  0.67171134472E+01 -0.71097774934E+02  0.10245362692E+03  0.12489098800E+03  0.10000000000E+01 0.  0.
<mgrwt>
<rscale>  0 0.15055250E+03</rscale>
<asrwt>0</asrwt>
<pdfrwt beam="1">  1        1 0.16584362E+00 0.15727429E+03</pdfrwt>
<pdfrwt beam="2">  1       -1 0.30351387E-02 0.15727429E+03</pdfrwt>
<totfact> 0.50999399E+03</totfact>
</mgrwt>
</event>
<event>
 8    2  0.7478846E-004  0.1517077E+03  0.7818608E-02  0.1207334E+00
         -1   -1    0    0    0  501 -0.00000000000E+00  0.00000000000E+00  0.35928777199E+02  0.35928777552E+02  0.50400000000E-02 0.  1.
          1   -1    0    0  501    0  0.00000000000E+00 -0.00000000000E+00 -0.53887894109E+03  0.53887894112E+03  0.50400000000E-02 0. -1.
         25    2    1    2    0    0 -0.68965342464E+02 -0.51318151305E+02 -0.30550181205E+03  0.34109614299E+03  0.12500180191E+03 0.  0.
         23    2    1    2    0    0  0.68965342464E+02  0.51318151305E+02 -0.19744835184E+03  0.23371157568E+03  0.90804613577E+02 0.  0.
        -11    1    4    4    0    0 -0.40707582525E+01  0.51085274931E+02 -0.68979931807E+02  0.85933156464E+02  0.51100000000E-03 0. -1.
         11    1    4    4    0    0  0.73036100716E+02  0.23287637475E+00 -0.12846842003E+03  0.14777841921E+03  0.51100000000E-03 0.  1.
    9000005    1    3    3    0    0  0.72407407015E+01 -0.72137902522E+02 -0.13757665671E+03  0.15551412083E+03  0.10000000000E+01 0.  0.
    9000005    1    3    3    0    0 -0.76206083165E+02  0.20819751216E+02 -0.16792515535E+03  0.18558202216E+03  0.10000000000E+01 0.  0.
<mgrwt>
<rscale>  0 0.14455023E+03</rscale>
<asrwt>0</asrwt>
<pdfrwt beam="2">  1        1 0.82904447E-01 0.15170768E+03</pdfrwt>
<pdfrwt beam="1">  1       -1 0.55275046E-02 0.15170768E+03</pdfrwt>
<totfact> 0.59759367E+03</totfact>
</mgrwt>
</event>
<event>
 8    2  0.7478846E-004  0.1703523E+03  0.7818608E-02  0.1183545E+00
          1   -1    0    0  501    0  0.00000000000E+00  0.00000000000E+00  0.14536574576E+04  0.14536574576E+04  0.50400000000E-02 0. -1.
         -1   -1    0    0    0  501 -0.00000000000E+00 -0.00000000000E+00 -0.19278843480E+02  0.19278844138E+02  0.50400000000E-02 0.  1.
         25    2    1    2    0    0 -0.89555404503E+02  0.73324636317E+02  0.53836795470E+03  0.56467684907E+03  0.12499286561E+03 0.  0.
         23    2    1    2    0    0  0.89555404503E+02 -0.73324636317E+02  0.89601065946E+03  0.90825945272E+03  0.93292329959E+02 0.  0.
        -11    1    4    4    0    0  0.46122707418E+02 -0.53577216197E+02  0.77446485340E+03  0.77768478922E+03  0.51100000000E-03 0. -1.
         11    1    4    4    0    0  0.43432697085E+02 -0.19747420120E+02  0.12154580606E+03  0.13057466350E+03  0.51100000000E-03 0.  1.
    9000005    1    3    3    0    0 -0.75390028383E+02  0.85627820825E+02  0.24021407869E+03  0.26593153946E+03  0.10000000000E+01 0.  0.
    9000005    1    3    3    0    0 -0.14165376120E+02 -0.12303184508E+02  0.29815387602E+03  0.29874530961E+03  0.10000000000E+01 0.  0.
<mgrwt>
<rscale>  0 0.16464944E+03</rscale>
<asrwt>0</asrwt>
<pdfrwt beam="1">  1        1 0.22363966E+00 0.17035225E+03</pdfrwt>
<pdfrwt beam="2">  1       -1 0.29659753E-02 0.17035225E+03</pdfrwt>
<totfact> 0.29336826E+03</totfact>
</mgrwt>
</event>
<event>
 8    2  0.7478846E-004  0.1300127E+03  0.7818608E-02  0.1241606E+00
         -1   -1    0    0    0  501 -0.00000000000E+00  0.00000000000E+00  0.23822243031E+02  0.23822243564E+02  0.50400000000E-02 0.  1.
          1   -1    0    0  501    0  0.00000000000E+00 -0.00000000000E+00 -0.54200720380E+03  0.54200720382E+03  0.50400000000E-02 0. -1.
         25    2    1    2    0    0  0.12678984464E+02  0.33415312059E+02 -0.29512105606E+03  0.32248990250E+03  0.12500383897E+03 0.  0.
         23    2    1    2    0    0 -0.12678984464E+02 -0.33415312059E+02 -0.22306390471E+03  0.24333954489E+03  0.90439420581E+02 0.  0.
        -11    1    4    4    0    0 -0.11032728115E+01  0.73557023212E+01  0.65110432231E+01  0.98852036726E+01  0.51100000000E-03 0.  1.
         11    1    4    4    0    0 -0.11575711653E+02 -0.40771014380E+02 -0.22957494793E+03  0.23345434121E+03  0.51100000000E-03 0. -1.
    9000005    1    3    3    0    0 -0.41227560573E+01  0.64305701666E+02 -0.27395894788E+03  0.28143689436E+03  0.10000000000E+01 0.  0.
    9000005    1    3    3    0    0  0.16801740522E+02 -0.30890389607E+02 -0.21162108182E+02  0.41053008140E+02  0.10000000000E+01 0.  0.
<mgrwt>
<rscale>  0 0.12090837E+03</rscale>
<asrwt>0</asrwt>
<pdfrwt beam="2">  1        1 0.83385714E-01 0.13001269E+03</pdfrwt>
<pdfrwt beam="1">  1       -1 0.36649609E-02 0.13001269E+03</pdfrwt>
<totfact> 0.10769517E+04</totfact>
</mgrwt>
</event>
<event>
 8    2  0.7478846E-004  0.1270167E+03  0.7818608E-02  0.1248603E+00
         -1   -1    0    0    0  501 -0.00000000000E+00  0.00000000000E+00  0.16005903879E+03  0.16005903887E+03  0.50400000000E-02 0.  1.
          1   -1    0    0  501    0  0.00000000000E+00 -0.00000000000E+00 -0.74444170500E+02  0.74444170671E+02  0.50400000000E-02 0. -1.
         25    2    1    2    0    0 -0.13097079717E+02  0.18107930227E+02  0.40562933739E+02  0.13333638051E+03  0.12503522760E+03 0.  0.
         23    2    1    2    0    0  0.13097079717E+02 -0.18107930227E+02  0.45051934551E+02  0.10116682903E+03  0.87781660129E+02 0.  0.
        -11    1    4    4    0    0  0.26273268667E+02 -0.38255584751E+02 -0.39440961302E+01  0.46576070097E+02  0.51100000000E-03 0. -1.
         11    1    4    4    0    0 -0.13176188950E+02  0.20147654525E+02  0.48996030682E+02  0.54590758933E+02  0.51100000000E-03 0.  1.
    9000005    1    3    3    0    0 -0.37828499087E+02 -0.16906851799E+02 -0.29723062802E+02  0.51002916027E+02  0.10000000000E+01 0.  0.
    9000005    1    3    3    0    0  0.24731419369E+02  0.35014782026E+02  0.70285996541E+02  0.82333464485E+02  0.10000000000E+01 0.  0.
<mgrwt>
<rscale>  0 0.11672281E+03</rscale>
<asrwt>0</asrwt>
<pdfrwt beam="2">  1        1 0.11452950E-01 0.12701669E+03</pdfrwt>
<pdfrwt beam="1">  1       -1 0.24624467E-01 0.12701669E+03</pdfrwt>
<totfact> 0.71834042E+03</totfact>
</mgrwt>
</event>
<event>
 8    2  0.7478846E-004  0.1728325E+03  0.7818608E-02  0.1179865E+00
          1   -1    0    0  501    0  0.00000000000E+00  0.00000000000E+00  0.12481832000E+03  0.12481832010E+03  0.50400000000E-02 0. -1.
         -1   -1    0    0    0  501 -0.00000000000E+00 -0.00000000000E+00 -0.25052033500E+03  0.25052033505E+03  0.50400000000E-02 0.  1.
         25    2    1    2    0    0 -0.75743635144E+01  0.11910705709E+03  0.49922978571E+01  0.17290457241E+03  0.12500882406E+03 0.  0.
         23    2    1    2    0    0  0.75743635144E+01 -0.11910705709E+03 -0.13069431286E+03  0.20243408274E+03  0.98258294359E+02 0.  0.
        -11    1    4    4    0    0  0.23508797493E+02 -0.39373278281E+02  0.29998600785E+01  0.45955606436E+02  0.51100000000E-03 0.  1.
         11    1    4    4    0    0 -0.15934433979E+02 -0.79733778811E+02 -0.13369417293E+03  0.15647847630E+03  0.51100000000E-03 0. -1.
    9000005    1    3    3    0    0 -0.26209471212E+02  0.55915660391E+02 -0.55814188100E+02  0.83244946101E+02  0.10000000000E+01 0.  0.
    9000005    1    3    3    0    0  0.18635107697E+02  0.63191396702E+02  0.60806485957E+02  0.89659626312E+02  0.10000000000E+01 0.  0.
<mgrwt>
<rscale>  0 0.16807979E+03</rscale>
<asrwt>0</asrwt>
<pdfrwt beam="1">  1        1 0.19202819E-01 0.17283249E+03</pdfrwt>
<pdfrwt beam="2">  1       -1 0.38541590E-01 0.17283249E+03</pdfrwt>
<totfact> 0.17499929E+03</totfact>
</mgrwt>
</event>
<event>
 8    2  0.7478846E-004  0.1367100E+03  0.7818608E-02  0.1229023E+00
         -1   -1    0    0    0  501 -0.00000000000E+00  0.00000000000E+00  0.65838221033E+01  0.65838240324E+01  0.50400000000E-02 0.  1.
          1   -1    0    0  501    0  0.00000000000E+00 -0.00000000000E+00 -0.22784746677E+04  0.22784746677E+04  0.50400000000E-02 0. -1.
         25    2    1    2    0    0  0.26470604844E+02  0.48619007123E+02 -0.12486601004E+04  0.12561216790E+04  0.12500050155E+03 0.  0.
         23    2    1    2    0    0 -0.26470604844E+02 -0.48619007123E+02 -0.10232307452E+04  0.10289368127E+04  0.92980137042E+02 0.  0.
        -11    1    4    4    0    0  0.29809615640E+01  0.12986281460E+02 -0.24619450890E+02  0.27993695725E+02  0.51100000000E-03 0.  1.
         11    1    4    4    0    0 -0.29451566408E+02 -0.61605288583E+02 -0.99861129426E+03  0.10009431170E+04  0.51100000000E-03 0. -1.
    9000005    1    3    3    0    0  0.38845552536E+01 -0.41888782732E+02 -0.47412489647E+03  0.47598863152E+03  0.10000000000E+01 0.  0.
    9000005    1    3    3    0    0  0.22586049591E+02  0.90507789855E+02 -0.77453520394E+03  0.78013304750E+03  0.10000000000E+01 0.  0.
<mgrwt>
<rscale>  0 0.12894929E+03</rscale>
<asrwt>0</asrwt>
<pdfrwt beam="2">  1        1 0.35053394E+00 0.13671001E+03</pdfrwt>
<pdfrwt beam="1">  1       -1 0.10128977E-02 0.13671001E+03</pdfrwt>
<totfact> 0.40768544E+03</totfact>
</mgrwt>
</event>
<event>
 8    2  0.7478846E-004  0.1258970E+03  0.7818608E-02  0.1247780E+00
         -1   -1    0    0    0  501 -0.00000000000E+00  0.00000000000E+00  0.20604315419E+02  0.20604316035E+02  0.50400000000E-02 0.  1.
          1   -1    0    0  501    0  0.00000000000E+00 -0.00000000000E+00 -0.62656802316E+03  0.62656802318E+03  0.50400000000E-02 0. -1.
         25    2    1    2    0    0  0.15045732066E+02  0.35110623554E+00 -0.42120936544E+03  0.43962187201E+03  0.12499425380E+03 0.  0.
         23    2    1    2    0    0 -0.15045732066E+02 -0.35110623554E+00 -0.18475434230E+03  0.20755046720E+03  0.93362369881E+02 0.  0.
        -11    1    4    4    0    0 -0.13615366189E+02 -0.11139186076E+02 -0.19306049499E+03  0.19386029606E+03  0.51100000000E-03 0. -1.
         11    1    4    4    0    0 -0.14303658768E+01  0.10788079840E+02  0.83061526909E+01  0.13690171144E+02  0.51100000000E-03 0.  1.
    9000005    1    3    3    0    0  0.23694572613E+02 -0.15171954838E+02 -0.42088028438E+03  0.42182085624E+03  0.10000000000E+01 0.  0.
    9000005    1    3    3    0    0 -0.86488405469E+01  0.15523061073E+02 -0.32908106323E+00  0.17801015764E+02  0.10000000000E+01 0.  0.
<mgrwt>
<rscale>  0 0.11720528E+03</rscale>
<asrwt>0</asrwt>
<pdfrwt beam="2">  1        1 0.96395066E-01 0.12589702E+03</pdfrwt>
<pdfrwt beam="1">  1       -1 0.31698952E-02 0.12589702E+03</pdfrwt>
<totfact> 0.10920812E+04</totfact>
</mgrwt>
</event>
<event>
 8    2  0.7478846E-004  0.2378690E+03  0.7818608E-02  0.1123833E+00
          1   -1    0    0  501    0  0.00000000000E+00  0.00000000000E+00  0.81587973865E+02  0.81587974020E+02  0.50400000000E-02 0. -1.
         -1   -1    0    0    0  501 -0.00000000000E+00 -0.00000000000E+00 -0.65053779290E+03  0.65053779292E+03  0.50400000000E-02 0.  1.
         25    2    1    2    0    0 -0.17860699610E+03 -0.95177134355E+02 -0.29472562118E+03  0.37874114096E+03  0.12499005608E+03 0.  0.
         23    2    1    2    0    0  0.17860699610E+03  0.95177134355E+02 -0.27422419785E+03  0.35338462597E+03  0.93395059951E+02 0.  0.
        -11    1    4    4    0    0  0.11075961657E+03  0.20421019683E+02 -0.19446522047E+03  0.22472523819E+03  0.51100000000E-03 0. -1.
         11    1    4    4    0    0  0.67847379535E+02  0.74756114672E+02 -0.79758977387E+02  0.12865938778E+03  0.51100000000E-03 0.  1.
    9000005    1    3    3    0    0 -0.18561210679E+03 -0.55962582341E+02 -0.21426330848E+03  0.28895229739E+03  0.10000000000E+01 0.  0.
    9000005    1    3    3    0    0  0.70051106834E+01 -0.39214552014E+02 -0.80462312698E+02  0.89788843572E+02  0.10000000000E+01 0.  0.
<mgrwt>
<rscale>  0 0.23403350E+03</rscale>
<asrwt>0</asrwt>
<pdfrwt beam="1">  1        1 0.12551996E-01 0.23786900E+03</pdfrwt>
<pdfrwt beam="2">  1       -1 0.10008273E+00 0.23786900E+03</pdfrwt>
<totfact> 0.47603176E+02</totfact>
</mgrwt>
</event>
<event>
 8    2  0.7478846E-004  0.1309614E+03  0.7818608E-02  0.1240140E+00
         -1   -1    0    0    0  501 -0.00000000000E+00  0.00000000000E+00  0.13458303994E+02  0.13458304938E+02  0.50400000000E-02 0.  1.
          1   -1    0    0  501    0  0.00000000000E+00 -0.00000000000E+00 -0.12016892661E+04  0.12016892661E+04  0.50400000000E-02 0. -1.
         25    2    1    2    0    0 -0.33274990969E+02 -0.20457918891E+02 -0.40113134129E+03  0.42196828664E+03  0.12500052197E+03 0.  0.
         23    2    1    2    0    0  0.33274990969E+02  0.20457918891E+02 -0.78709962077E+03  0.79317928437E+03  0.89898902457E+02 0.  0.
        -11    1    4    4    0    0  0.36199017999E+02  0.10277091167E+02 -0.77883663236E+03  0.77974514260E+03  0.51100000000E-03 0. -1.
         11    1    4    4    0    0 -0.29240270305E+01  0.10180827724E+02 -0.82629884119E+01  0.13434141766E+02  0.51100000000E-03 0.  1.
    9000005    1    3    3    0    0  0.22910570287E+02 -0.45634846110E+02 -0.29398379373E+03  0.29838717196E+03  0.10000000000E+01 0.  0.
    9000005    1    3    3    0    0 -0.56185561256E+02  0.25176927220E+02 -0.10714754756E+03  0.12358111468E+03  0.10000000000E+01 0.  0.
<mgrwt>
<rscale>  0 0.12181032E+03</rscale>
<asrwt>0</asrwt>
<pdfrwt beam="2">  1        1 0.18487519E+00 0.13096138E+03</pdfrwt>
<pdfrwt beam="1">  1       -1 0.20705093E-02 0.13096138E+03</pdfrwt>
<totfact> 0.72310647E+03</totfact>
</mgrwt>
</event>
<event>
 8    2  0.7478846E-004  0.1512612E+03  0.7818608E-02  0.1207921E+00
          1   -1    0    0  501    0  0.00000000000E+00  0.00000000000E+00  0.69994280106E+02  0.69994280287E+02  0.50400000000E-02 0. -1.
         -1   -1    0    0    0  501 -0.00000000000E+00 -0.00000000000E+00 -0.41840354147E+03  0.41840354150E+03  0.50400000000E-02 0.  1.
         25    2    1    2    0    0  0.70131067817E+02 -0.48342839732E+02 -0.41020230048E+02  0.15672464247E+03  0.12499822981E+03 0.  0.
         23    2    1    2    0    0 -0.70131067817E+02  0.48342839732E+02 -0.30738903132E+03  0.33167317933E+03  0.90904809998E+02 0.  0.
        -11    1    4    4    0    0 -0.68910907579E+02  0.71552015099E+02 -0.22267657030E+03  0.24383038984E+03  0.51100000000E-03 0.  1.
         11    1    4    4    0    0 -0.12201602385E+01 -0.23209175368E+02 -0.84712461023E+02  0.87842789488E+02  0.51100000000E-03 0. -1.
    9000005    1    3    3    0    0  0.83499278893E+02  0.12993599809E+02 -0.57352527355E+01  0.84704523702E+02  0.10000000000E+01 0.  0.
    9000005    1    3    3    0    0 -0.13368211076E+02 -0.61336439541E+02 -0.35284977312E+02  0.72020118764E+02  0.10000000000E+01 0.  0.
<mgrwt>
<rscale>  0 0.14409667E+03</rscale>
<asrwt>0</asrwt>
<pdfrwt beam="1">  1        1 0.10768351E-01 0.15126121E+03</pdfrwt>
<pdfrwt beam="2">  1       -1 0.64369774E-01 0.15126121E+03</pdfrwt>
<totfact> 0.14446851E+03</totfact>
</mgrwt>
</event>
<event>
 8    2  0.7478846E-004  0.1315359E+03  0.7818608E-02  0.1238990E+00
         -1   -1    0    0    0  501 -0.00000000000E+00  0.00000000000E+00  0.75168182056E+01  0.75168198953E+01  0.50400000000E-02 0.  1.
          1   -1    0    0  501    0  0.00000000000E+00 -0.00000000000E+00 -0.20046270468E+04  0.20046270468E+04  0.50400000000E-02 0. -1.
         25    2    1    2    0    0  0.29464336561E+02 -0.28432352890E+02 -0.78012712241E+03  0.79113843440E+03  0.12500059778E+03 0.  0.
         23    2    1    2    0    0 -0.29464336561E+02  0.28432352890E+02 -0.12169831062E+04  0.12210054323E+04  0.90165620686E+02 0.  0.
        -11    1    4    4    0    0  0.19102960638E+01  0.33966435925E+02 -0.16162735769E+03  0.16516891582E+03  0.51100000000E-03 0.  1.
         11    1    4    4    0    0 -0.31374632625E+02 -0.55340830352E+01 -0.10553557485E+04  0.10558365165E+04  0.51100000000E-03 0. -1.
    9000005    1    3    3    0    0 -0.41246380846E+00 -0.56657144423E+02 -0.16162227700E+03  0.17126868530E+03  0.10000000000E+01 0.  0.
    9000005    1    3    3    0    0  0.29876800370E+02  0.28224791533E+02 -0.61850484541E+03  0.61986974910E+03  0.10000000000E+01 0.  0.
<mgrwt>
<rscale>  0 0.12252420E+03</rscale>
<asrwt>0</asrwt>
<pdfrwt beam="2">  1        1 0.30840374E+00 0.13153591E+03</pdfrwt>
<pdfrwt beam="1">  1       -1 0.11564353E-02 0.13153591E+03</pdfrwt>
<totfact> 0.50423489E+03</totfact>
</mgrwt>
</event>
<event>
 8    2  0.7478846E-004  0.1265889E+03  0.7818608E-02  0.1245530E+00
          1   -1    0    0  501    0  0.00000000000E+00  0.00000000000E+00  0.36224435900E+02  0.36224436251E+02  0.50400000000E-02 0. -1.
         -1   -1    0    0    0  501 -0.00000000000E+00 -0.00000000000E+00 -0.36588901992E+03  0.36588901995E+03  0.50400000000E-02 0.  1.
         25    2    1    2    0    0 -0.16476670830E+02 -0.11335402322E+02 -0.23167006731E+03  0.26399955155E+03  0.12499908442E+03 0.  0.
         23    2    1    2    0    0  0.16476670830E+02  0.11335402322E+02 -0.97994516713E+02  0.13811390465E+03  0.95249951838E+02 0.  0.
        -11    1    4    4    0    0  0.32922800612E+01  0.42695349216E+02 -0.94705153227E+02  0.10393650947E+03  0.51100000000E-03 0.  1.
         11    1    4    4    0    0  0.13184390769E+02 -0.31359946894E+02 -0.32893634861E+01  0.34177395184E+02  0.51100000000E-03 0. -1.
    9000005    1    3    3    0    0  0.39413752210E+01  0.40492596259E+02 -0.19030716606E+03  0.19460987191E+03  0.10000000000E+01 0.  0.
    9000005    1    3    3    0    0 -0.20418046051E+02 -0.51827998581E+02 -0.41362901246E+02  0.69389679643E+02  0.10000000000E+01 0.  0.
<mgrwt>
<rscale>  0 0.11853726E+03</rscale>
<asrwt>0</asrwt>
<pdfrwt beam="1">  1        1 0.55729904E-02 0.12658887E+03</pdfrwt>
<pdfrwt beam="2">  1       -1 0.56290616E-01 0.12658887E+03</pdfrwt>
<totfact> 0.44764269E+03</totfact>
</mgrwt>
</event>
<event>
 8    2  0.7478846E-004  0.1291434E+03  0.7818608E-02  0.1242697E+00
         -1   -1    0    0    0  501 -0.00000000000E+00  0.00000000000E+00  0.54311548888E+01  0.54311572273E+01  0.50400000000E-02 0.  1.
          1   -1    0    0  501    0  0.00000000000E+00 -0.00000000000E+00 -0.23552329343E+04  0.23552329343E+04  0.50400000000E-02 0. -1.
         25    2    1    2    0    0 -0.29335466977E+02  0.13871820441E+02 -0.13373349211E+04  0.13435559909E+04  0.12500004966E+03 0.  0.
         23    2    1    2    0    0  0.29335466977E+02 -0.13871820441E+02 -0.10124668582E+04  0.10171081006E+04  0.91469952480E+02 0.  0.
        -11    1    4    4    0    0 -0.25334274569E+02  0.26888340723E+01 -0.11331838523E+03  0.11614694024E+03  0.51100000000E-03 0.  1.
         11    1    4    4    0    0  0.54669741545E+02 -0.16560654513E+02 -0.89914847300E+03  0.90096116033E+03  0.51100000000E-03 0. -1.
    9000005    1    3    3    0    0 -0.28551033728E+02 -0.13510093654E+02 -0.81359109212E+02  0.87281090789E+02  0.10000000000E+01 0.  0.
    9000005    1    3    3    0    0 -0.78443324890E+00  0.27381914095E+02 -0.12559758119E+04  0.12562749001E+04  0.10000000000E+01 0.  0.
<mgrwt>
<rscale>  0 0.12024278E+03</rscale>
<asrwt>0</asrwt>
<pdfrwt beam="2">  1        1 0.36234271E+00 0.12914337E+03</pdfrwt>
<pdfrwt beam="1">  1       -1 0.83556435E-03 0.12914337E+03</pdfrwt>
<totfact> 0.47808163E+03</totfact>
</mgrwt>
</event>
<event>
 8    2  0.7478846E-004  0.1617175E+03  0.7818608E-02  0.1194419E+00
          1   -1    0    0  501    0  0.00000000000E+00  0.00000000000E+00  0.13776070246E+03  0.13776070255E+03  0.50400000000E-02 0. -1.
         -1   -1    0    0    0  501 -0.00000000000E+00 -0.00000000000E+00 -0.16813436789E+03  0.16813436796E+03  0.50400000000E-02 0.  1.
         25    2    1    2    0    0 -0.26764660506E+02 -0.99058157123E+02  0.13868439259E+02  0.16231111011E+03  0.12499478914E+03 0.  0.
         23    2    1    2    0    0  0.26764660506E+02  0.99058157123E+02 -0.44242104686E+02  0.14358396040E+03  0.90167201984E+02 0.  0.
        -11    1    4    4    0    0  0.18991545958E+02 -0.13065715493E+02 -0.73382943486E+00  0.23063613011E+02  0.51100000000E-03 0. -1.
         11    1    4    4    0    0  0.77731145478E+01  0.11212387262E+03 -0.43508275251E+02  0.12052034739E+03  0.51100000000E-03 0.  1.
    9000005    1    3    3    0    0 -0.27101206259E+02 -0.12854371113E+03  0.17694530360E+02  0.13255963735E+03  0.10000000000E+01 0.  0.
    9000005    1    3    3    0    0  0.33654575331E+00  0.29485554003E+02 -0.38260911009E+01  0.29751472754E+02  0.10000000000E+01 0.  0.
<mgrwt>
<rscale>  0 0.15503468E+03</rscale>
<asrwt>0</asrwt>
<pdfrwt beam="1">  1        1 0.21193954E-01 0.16171754E+03</pdfrwt>
<pdfrwt beam="2">  1       -1 0.25866826E-01 0.16171754E+03</pdfrwt>
<totfact> 0.30327866E+03</totfact>
</mgrwt>
</event>
<event>
 8    2  0.7478846E-004  0.1256109E+03  0.7818608E-02  0.1253189E+00
          1   -1    0    0  501    0  0.00000000000E+00  0.00000000000E+00  0.10028383381E+03  0.10028383393E+03  0.50400000000E-02 0. -1.
         -1   -1    0    0    0  501 -0.00000000000E+00 -0.00000000000E+00 -0.12807724535E+03  0.12807724545E+03  0.50400000000E-02 0.  1.
         25    2    1    2    0    0  0.28096127674E+01  0.12183931809E+02 -0.57136398199E+02  0.13799519351E+03  0.12498705259E+03 0.  0.
         23    2    1    2    0    0 -0.28096127674E+01 -0.12183931809E+02  0.29342986658E+02  0.90365885866E+02  0.84549632430E+02 0.  0.
        -11    1    4    4    0    0 -0.35943237670E+02 -0.20987660343E+02  0.36481771599E+02  0.55347248171E+02  0.51100000000E-03 0. -1.
         11    1    4    4    0    0  0.33133624903E+02  0.88037285346E+01 -0.71387849403E+01  0.35018637695E+02  0.51100000000E-03 0.  1.
    9000005    1    3    3    0    0 -0.60221811958E+02  0.17722224826E+01 -0.38240364591E+02  0.71366188717E+02  0.10000000000E+01 0.  0.
    9000005    1    3    3    0    0  0.63031424725E+02  0.10411709326E+02 -0.18896033608E+02  0.66629004796E+02  0.10000000000E+01 0.  0.
<mgrwt>
<rscale>  0 0.11408353E+03</rscale>
<asrwt>0</asrwt>
<pdfrwt beam="1">  1        1 0.15428282E-01 0.12561093E+03</pdfrwt>
<pdfrwt beam="2">  1       -1 0.19704192E-01 0.12561093E+03</pdfrwt>
<totfact> 0.69858812E+03</totfact>
</mgrwt>
</event>
<event>
 8    2  0.7478846E-004  0.1913478E+03  0.7818608E-02  0.1161873E+00
         -1   -1    0    0    0  501 -0.00000000000E+00  0.00000000000E+00  0.20276731799E+03  0.20276731805E+03  0.50400000000E-02 0.  1.
          1   -1    0    0  501    0  0.00000000000E+00 -0.00000000000E+00 -0.16263001901E+03  0.16263001908E+03  0.50400000000E-02 0. -1.
         25    2    1    2    0    0  0.65776998465E+02 -0.12908201625E+03  0.19120590530E+02  0.19230079622E+03  0.12500087519E+03 0.  0.
         23    2    1    2    0    0 -0.65776998465E+02  0.12908201625E+03  0.21016708449E+02  0.17309654091E+03  0.92368446961E+02 0.  0.
        -11    1    4    4    0    0 -0.26478461664E+02  0.12199113116E+03  0.36822256816E+02  0.13014923592E+03  0.51100000000E-03 0.  1.
         11    1    4    4    0    0 -0.39298536802E+02  0.70908850912E+01 -0.15805548368E+02  0.42947304986E+02  0.51100000000E-03 0. -1.
    9000005    1    3    3    0    0 -0.20517609852E+02  0.13082092955E+02 -0.29604708826E+01  0.24533199097E+02  0.10000000000E+01 0.  0.
    9000005    1    3    3    0    0  0.86294608317E+02 -0.14216410921E+03  0.22081061412E+02  0.16776759712E+03  0.10000000000E+01 0.  0.
<mgrwt>
<rscale>  0 0.18626598E+03</rscale>
<asrwt>0</asrwt>
<pdfrwt beam="2">  1        1 0.25020003E-01 0.19134785E+03</pdfrwt>
<pdfrwt beam="1">  1       -1 0.31194972E-01 0.19134785E+03</pdfrwt>
<totfact> 0.18049014E+03</totfact>
</mgrwt>
</event>
<event>
 8    2  0.7478846E-004  0.1391861E+03  0.7818608E-02  0.1226989E+00
         -1   -1    0    0    0  501 -0.00000000000E+00  0.00000000000E+00  0.11075469678E+03  0.11075469690E+03  0.50400000000E-02 0.  1.
          1   -1    0    0  501    0  0.00000000000E+00 -0.00000000000E+00 -0.15227728054E+03  0.15227728063E+03  0.50400000000E-02 0. -1.
         25    2    1    2    0    0  0.26120971136E+02 -0.55366789513E+02 -0.64870614708E+02  0.15356094792E+03  0.12499992624E+03 0.  0.
         23    2    1    2    0    0 -0.26120971136E+02  0.55366789513E+02  0.23348030946E+02  0.10947102960E+03  0.87698285380E+02 0.  0.
        -11    1    4    4    0    0 -0.33290586388E+02  0.76804898344E+02  0.13405767711E+02  0.84775999905E+02  0.51100000000E-03 0.  1.
         11    1    4    4    0    0  0.71696152517E+01 -0.21438108831E+02  0.99422632353E+01  0.24695029695E+02  0.51100000000E-03 0. -1.
    9000005    1    3    3    0    0 -0.26066741221E+02 -0.33256382152E+02  0.23658922536E+02  0.48437656501E+02  0.10000000000E+01 0.  0.
    9000005    1    3    3    0    0  0.52187712357E+02 -0.22110407361E+02 -0.88529537244E+02  0.10512329142E+03  0.10000000000E+01 0.  0.
<mgrwt>
<rscale>  0 0.13031497E+03</rscale>
<asrwt>0</asrwt>
<pdfrwt beam="2">  1        1 0.23427274E-01 0.13918609E+03</pdfrwt>
<pdfrwt beam="1">  1       -1 0.17039184E-01 0.13918609E+03</pdfrwt>
<totfact> 0.52064443E+03</totfact>
</mgrwt>
</event>
<event>
 8    2  0.7478846E-004  0.1352989E+03  0.7818608E-02  0.1232022E+00
          1   -1    0    0  501    0  0.00000000000E+00  0.00000000000E+00  0.37235186194E+03  0.37235186198E+03  0.50400000000E-02 0.  1.
         -1   -1    0    0    0  501 -0.00000000000E+00 -0.00000000000E+00 -0.52936641380E+02  0.52936641620E+02  0.50400000000E-02 0. -1.
         25    2    1    2    0    0  0.51454968504E+02 -0.57268677987E+01  0.65041985384E+02  0.15012081941E+03  0.12500155903E+03 0.  0.
         23    2    1    2    0    0 -0.51454968504E+02  0.57268677987E+01  0.25437323518E+03  0.27516768418E+03  0.91274864266E+02 0.  0.
        -11    1    4    4    0    0  0.42213862318E+01  0.21164901697E+02  0.95167328185E+01  0.23586889777E+02  0.51100000000E-03 0. -1.
         11    1    4    4    0    0 -0.55676354736E+02 -0.15438033898E+02  0.24485650236E+03  0.25158079441E+03  0.51100000000E-03 0.  1.
    9000005    1    3    3    0    0 -0.72792427102E+01 -0.31251348831E+02 -0.24250196034E+02  0.40233147849E+02  0.10000000000E+01 0.  0.
    9000005    1    3    3    0    0  0.58734211214E+02  0.25524481032E+02  0.89292181418E+02  0.10988767156E+03  0.10000000000E+01 0.  0.
<mgrwt>
<rscale>  0 0.12697015E+03</rscale>
<asrwt>0</asrwt>
<pdfrwt beam="1">  1        1 0.57284900E-01 0.13529893E+03</pdfrwt>
<pdfrwt beam="2">  1       -1 0.81440989E-02 0.13529893E+03</pdfrwt>
<totfact> 0.53415363E+03</totfact>
</mgrwt>
</event>
<event>
 8    2  0.7478846E-004  0.1407296E+03  0.7818608E-02  0.1223212E+00
          1   -1    0    0  501    0  0.00000000000E+00  0.00000000000E+00  0.39299674286E+03  0.39299674289E+03  0.50400000000E-02 0. -1.
         -1   -1    0    0    0  501 -0.00000000000E+00 -0.00000000000E+00 -0.41874148570E+02  0.41874148874E+02  0.50400000000E-02 0.  1.
         25    2    1    2    0    0 -0.90464399988E+01 -0.64001342000E+02  0.23248594059E+03  0.27176192082E+03  0.12500727651E+03 0.  0.
         23    2    1    2    0    0  0.90464399988E+01  0.64001342000E+02  0.11863665369E+03  0.16310897094E+03  0.91388571208E+02 0.  0.
        -11    1    4    4    0    0  0.19142480056E+02 -0.17539142532E+02  0.12302501260E+02  0.28729907779E+02  0.51100000000E-03 0.  1.
         11    1    4    4    0    0 -0.10096040057E+02  0.81540484532E+02  0.10633415243E+03  0.13437906316E+03  0.51100000000E-03 0. -1.
    9000005    1    3    3    0    0  0.56662759911E+02 -0.23937880660E+02  0.12770885838E+03  0.14175416396E+03  0.10000000000E+01 0.  0.
    9000005    1    3    3    0    0 -0.65709199909E+02 -0.40063461339E+02  0.10477708222E+03  0.13000775687E+03  0.10000000000E+01 0.  0.
<mgrwt>
<rscale>  0 0.13290231E+03</rscale>
<asrwt>0</asrwt>
<pdfrwt beam="1">  1        1 0.60461040E-01 0.14072963E+03</pdfrwt>
<pdfrwt beam="2">  1       -1 0.64421765E-02 0.14072963E+03</pdfrwt>
<totfact> 0.71154708E+03</totfact>
</mgrwt>
</event>
<event>
 8    2  0.7478846E-004  0.2900047E+03  0.7818608E-02  0.1092153E+00
          1   -1    0    0  501    0  0.00000000000E+00  0.00000000000E+00  0.84519114152E+03  0.84519114154E+03  0.50400000000E-02 0. -1.
         -1   -1    0    0    0  501 -0.00000000000E+00 -0.00000000000E+00 -0.14840233269E+03  0.14840233278E+03  0.50400000000E-02 0.  1.
         25    2    1    2    0    0  0.17706174384E+03  0.19268926136E+03  0.55551935889E+02  0.29527744011E+03  0.12499094558E+03 0.  0.
         23    2    1    2    0    0 -0.17706174384E+03 -0.19268926136E+03  0.64123687294E+03  0.69831603421E+03  0.89333889618E+02 0.  0.
        -11    1    4    4    0    0 -0.75468455025E+02 -0.26439034731E+02  0.22357560683E+03  0.23744591433E+03  0.51100000000E-03 0. -1.
         11    1    4    4    0    0 -0.10159328882E+03 -0.16625022663E+03  0.41766126611E+03  0.46087011988E+03  0.51100000000E-03 0.  1.
    9000005    1    3    3    0    0  0.11477278963E+03  0.18498409419E+03  0.10388489636E+02  0.21794684916E+03  0.10000000000E+01 0.  0.
    9000005    1    3    3    0    0  0.62288954215E+02  0.77051671689E+01  0.45163446253E+02  0.77330590944E+02  0.10000000000E+01 0.  0.
<mgrwt>
<rscale>  0 0.28657183E+03</rscale>
<asrwt>0</asrwt>
<pdfrwt beam="1">  1        1 0.13002941E+00 0.29000474E+03</pdfrwt>
<pdfrwt beam="2">  1       -1 0.22831128E-01 0.29000474E+03</pdfrwt>
<totfact> 0.34424630E+02</totfact>
</mgrwt>
</event>
<event>
 8    2  0.7478846E-004  0.1413541E+03  0.7818608E-02  0.1220350E+00
          1   -1    0    0  501    0  0.00000000000E+00  0.00000000000E+00  0.34190875374E+03  0.34190875377E+03  0.50400000000E-02 0. -1.
         -1   -1    0    0    0  501 -0.00000000000E+00 -0.00000000000E+00 -0.48916673757E+02  0.48916674017E+02  0.50400000000E-02 0.  1.
         25    2    1    2    0    0 -0.65443504642E+02  0.85773094176E+01  0.16234853237E+03  0.21526267221E+03  0.12499819818E+03 0.  0.
         23    2    1    2    0    0  0.65443504642E+02 -0.85773094176E+01  0.13064354761E+03  0.17556275558E+03  0.96943912018E+02 0.  0.
        -11    1    4    4    0    0  0.78896657181E+02 -0.32098902268E+02  0.11833312127E+03  0.14580037596E+03  0.51100000000E-03 0. -1.
         11    1    4    4    0    0 -0.13453152540E+02  0.23521592850E+02  0.12310426342E+02  0.29762379617E+02  0.51100000000E-03 0.  1.
    9000005    1    3    3    0    0  0.15265644494E+02 -0.40741836268E+02  0.31140727507E+02  0.53513381821E+02  0.10000000000E+01 0.  0.
    9000005    1    3    3    0    0 -0.80709149136E+02  0.49319145685E+02  0.13120780486E+03  0.16174929039E+03  0.10000000000E+01 0.  0.
<mgrwt>
<rscale>  0 0.13490778E+03</rscale>
<asrwt>0</asrwt>
<pdfrwt beam="1">  1        1 0.52601346E-01 0.14135407E+03</pdfrwt>
<pdfrwt beam="2">  1       -1 0.75256423E-02 0.14135407E+03</pdfrwt>
<totfact> 0.67113220E+03</totfact>
</mgrwt>
</event>
<event>
 8    2  0.7478846E-004  0.1253564E+03  0.7818608E-02  0.1249549E+00
         -1   -1    0    0    0  501 -0.00000000000E+00  0.00000000000E+00  0.17744252764E+02  0.17744253480E+02  0.50400000000E-02 0.  1.
          1   -1    0    0  501    0  0.00000000000E+00 -0.00000000000E+00 -0.66952157549E+03  0.66952157551E+03  0.50400000000E-02 0. -1.
         25    2    1    2    0    0  0.51618572212E+01 -0.79389598474E+01 -0.36150790008E+03  0.38262537852E+03  0.12499818642E+03 0.  0.
         23    2    1    2    0    0 -0.51618572212E+01  0.79389598474E+01 -0.29026942265E+03  0.30464045048E+03  0.91977141130E+02 0.  0.
        -11    1    4    4    0    0 -0.10867584887E+02 -0.38226828132E+02 -0.80503202620E+02  0.89778396191E+02  0.51100000000E-03 0.  1.
         11    1    4    4    0    0  0.57057276655E+01  0.46165787979E+02 -0.20976622002E+03  0.21486205429E+03  0.51100000000E-03 0. -1.
    9000005    1    3    3    0    0  0.10519985803E+02 -0.48696335176E+02 -0.32120664180E+03  0.32504878080E+03  0.10000000000E+01 0.  0.
    9000005    1    3    3    0    0 -0.53581285822E+01  0.40757375328E+02 -0.40301258280E+02  0.57576597715E+02  0.10000000000E+01 0.  0.
<mgrwt>
<rscale>  0 0.11617219E+03</rscale>
<asrwt>0</asrwt>
<pdfrwt beam="2">  1        1 0.10300330E+00 0.12535637E+03</pdfrwt>
<pdfrwt beam="1">  1       -1 0.27298856E-02 0.12535637E+03</pdfrwt>
<totfact> 0.12370836E+04</totfact>
</mgrwt>
</event>
<event>
 8    2  0.7478846E-004  0.1404238E+03  0.7818608E-02  0.1223952E+00
          1   -1    0    0  501    0  0.00000000000E+00  0.00000000000E+00  0.25312394984E+02  0.25312395485E+02  0.50400000000E-02 0. -1.
         -1   -1    0    0    0  501 -0.00000000000E+00 -0.00000000000E+00 -0.63105048621E+03  0.63105048623E+03  0.50400000000E-02 0.  1.
         25    2    1    2    0    0 -0.60450470810E+02  0.20967982033E+02 -0.30367099760E+03  0.33456675707E+03  0.12499969784E+03 0.  0.
         23    2    1    2    0    0  0.60450470810E+02 -0.20967982033E+02 -0.30206709362E+03  0.32179612465E+03  0.90632781573E+02 0.  0.
        -11    1    4    4    0    0 -0.17588744960E+02 -0.63009406406E+01 -0.15030871935E+02  0.23979009855E+02  0.51100000000E-03 0. -1.
         11    1    4    4    0    0  0.78039215770E+02 -0.14667041393E+02 -0.28703622169E+03  0.29781711479E+03  0.51100000000E-03 0.  1.
    9000005    1    3    3    0    0 -0.45700575612E+02  0.32602089788E+02 -0.30974912191E+03  0.31479669215E+03  0.10000000000E+01 0.  0.
    9000005    1    3    3    0    0 -0.14749895198E+02 -0.11634107755E+02  0.60781243048E+01  0.19770064913E+02  0.10000000000E+01 0.  0.
<mgrwt>
<rscale>  0 0.13238992E+03</rscale>
<asrwt>0</asrwt>
<pdfrwt beam="1">  1        1 0.38942151E-02 0.14042379E+03</pdfrwt>
<pdfrwt beam="2">  1       -1 0.97084678E-01 0.14042379E+03</pdfrwt>
<totfact> 0.24625527E+03</totfact>
</mgrwt>
</event>
<event>
 8    2  0.7478846E-004  0.1493291E+03  0.7818608E-02  0.1210906E+00
          1   -1    0    0  501    0  0.00000000000E+00  0.00000000000E+00  0.34723501221E+03  0.34723501224E+03  0.50400000000E-02 0. -1.
         -1   -1    0    0    0  501 -0.00000000000E+00 -0.00000000000E+00 -0.53747191791E+02  0.53747192027E+02  0.50400000000E-02 0.  1.
         25    2    1    2    0    0  0.55971918480E+02 -0.59505471027E+02  0.13505889260E+03  0.20134569058E+03  0.12500170361E+03 0.  0.
         23    2    1    2    0    0 -0.55971918480E+02  0.59505471027E+02  0.15842892782E+03  0.19963651369E+03  0.89895804622E+02 0.  0.
        -11    1    4    4    0    0 -0.15625620627E+02  0.65598803937E+02  0.50486367368E+02  0.84239161844E+02  0.51100000000E-03 0. -1.
         11    1    4    4    0    0 -0.40346297853E+02 -0.60933329095E+01  0.10794256045E+03  0.11539735185E+03  0.51100000000E-03 0.  1.
    9000005    1    3    3    0    0  0.21131210695E+02 -0.74047990513E+02  0.14330690293E+03  0.16268835665E+03  0.10000000000E+01 0.  0.
    9000005    1    3    3    0    0  0.34840707785E+02  0.14542519486E+02 -0.82480103278E+01  0.38657333927E+02  0.10000000000E+01 0.  0.
<mgrwt>
<rscale>  0 0.14181619E+03</rscale>
<asrwt>0</asrwt>
<pdfrwt beam="1">  1        1 0.53420770E-01 0.14932911E+03</pdfrwt>
<pdfrwt beam="2">  1       -1 0.82687989E-02 0.14932911E+03</pdfrwt>
<totfact> 0.57291985E+03</totfact>
</mgrwt>
</event>
<event>
 8    2  0.7478846E-004  0.1253746E+03  0.7818608E-02  0.1252230E+00
         -1   -1    0    0    0  501 -0.00000000000E+00  0.00000000000E+00  0.14359585269E+03  0.14359585278E+03  0.50400000000E-02 0.  1.
          1   -1    0    0  501    0  0.00000000000E+00 -0.00000000000E+00 -0.83784129271E+02  0.83784129422E+02  0.50400000000E-02 0. -1.
         25    2    1    2    0    0 -0.64934625049E+01  0.72326743162E+01  0.80725602718E+01  0.12563425753E+03  0.12499729518E+03 0.  0.
         23    2    1    2    0    0  0.64934625049E+01 -0.72326743162E+01  0.51739163149E+02  0.10174572468E+03  0.87067645274E+02 0.  0.
        -11    1    4    4    0    0 -0.24846227321E+02 -0.27981216668E+02 -0.45960136672E+00  0.37423184418E+02  0.51100000000E-03 0. -1.
         11    1    4    4    0    0  0.31339689826E+02  0.20748542352E+02  0.52198764516E+02  0.64322540259E+02  0.51100000000E-03 0.  1.
    9000005    1    3    3    0    0 -0.51556238800E+02  0.22072770597E+01  0.43962455465E+02  0.67798343060E+02  0.10000000000E+01 0.  0.
    9000005    1    3    3    0    0  0.45062776296E+02  0.50253972564E+01 -0.35889895193E+02  0.57835914465E+02  0.10000000000E+01 0.  0.
<mgrwt>
<rscale>  0 0.11462883E+03</rscale>
<asrwt>0</asrwt>
<pdfrwt beam="2">  1        1 0.12889866E-01 0.12537464E+03</pdfrwt>
<pdfrwt beam="1">  1       -1 0.22091669E-01 0.12537464E+03</pdfrwt>
<totfact> 0.73357121E+03</totfact>
</mgrwt>
</event>
<event>
 8    2  0.7478846E-004  0.1325583E+03  0.7818608E-02  0.1237625E+00
         -1   -1    0    0    0  501 -0.00000000000E+00  0.00000000000E+00  0.63506347345E+03  0.63506347347E+03  0.50400000000E-02 0.  1.
          1   -1    0    0  501    0  0.00000000000E+00 -0.00000000000E+00 -0.22338709970E+02  0.22338710538E+02  0.50400000000E-02 0. -1.
         25    2    1    2    0    0 -0.47045532238E+01 -0.43847341601E+02  0.27416943451E+03  0.30453337179E+03  0.12500789385E+03 0.  0.
         23    2    1    2    0    0  0.47045532238E+01  0.43847341601E+02  0.33855532896E+03  0.35286881222E+03  0.89173794797E+02 0.  0.
        -11    1    4    4    0    0  0.43262809824E+01  0.25535723352E+02  0.17422979833E+02  0.31214581541E+02  0.51100000000E-03 0. -1.
         11    1    4    4    0    0  0.37827224136E+00  0.18311618249E+02  0.32113234913E+03  0.32165423068E+03  0.51100000000E-03 0.  1.
    9000005    1    3    3    0    0 -0.55679454497E+02 -0.57223042679E+02  0.16479551356E+03  0.18312083321E+03  0.10000000000E+01 0.  0.
    9000005    1    3    3    0    0  0.50974901273E+02  0.13375701078E+02  0.10937392095E+03  0.12141253858E+03  0.10000000000E+01 0.  0.
<mgrwt>
<rscale>  0 0.12337903E+03</rscale>
<asrwt>0</asrwt>
<pdfrwt beam="2">  1        1 0.34367250E-02 0.13255827E+03</pdfrwt>
<pdfrwt beam="1">  1       -1 0.97702064E-01 0.13255827E+03</pdfrwt>
<totfact> 0.28767163E+03</totfact>
</mgrwt>
</event>
<event>
 8    2  0.7478846E-004  0.1516935E+03  0.7818608E-02  0.1207611E+00
         -1   -1    0    0    0  501 -0.00000000000E+00  0.00000000000E+00  0.20596284059E+02  0.20596284675E+02  0.50400000000E-02 0.  1.
          1   -1    0    0  501    0  0.00000000000E+00 -0.00000000000E+00 -0.94721663723E+03  0.94721663725E+03  0.50400000000E-02 0. -1.
         25    2    1    2    0    0  0.85809536316E+02 -0.47256658757E+01 -0.58216582303E+03  0.60160449683E+03  0.12500126661E+03 0.  0.
         23    2    1    2    0    0 -0.85809536316E+02  0.47256658757E+01 -0.34445453014E+03  0.36620842510E+03  0.89855878127E+02 0.  0.
        -11    1    4    4    0    0 -0.45415270182E+02  0.13091843080E+02 -0.49717628529E+02  0.68598729637E+02  0.51100000000E-03 0.  1.
         11    1    4    4    0    0 -0.40394266133E+02 -0.83661772045E+01 -0.29473690161E+03  0.29760969546E+03  0.51100000000E-03 0. -1.
    9000005    1    3    3    0    0  0.64763054248E+02 -0.60778666357E+02 -0.28718778404E+03  0.30060958531E+03  0.10000000000E+01 0.  0.
    9000005    1    3    3    0    0  0.21046482068E+02  0.56053000481E+02 -0.29497803899E+03  0.30099491151E+03  0.10000000000E+01 0.  0.
<mgrwt>
<rscale>  0 0.14433623E+03</rscale>
<asrwt>0</asrwt>
<pdfrwt beam="2">  1        1 0.14572560E+00 0.15169352E+03</pdfrwt>
<pdfrwt beam="1">  1       -1 0.31686599E-02 0.15169352E+03</pdfrwt>
<totfact> 0.59615256E+03</totfact>
</mgrwt>
</event>
<event>
 8    2  0.7478846E-004  0.2639666E+03  0.7818608E-02  0.1106814E+00
         -1   -1    0    0    0  501 -0.00000000000E+00  0.00000000000E+00  0.83889084296E+02  0.83889084447E+02  0.50400000000E-02 0.  1.
          1   -1    0    0  501    0  0.00000000000E+00 -0.00000000000E+00 -0.12755581569E+04  0.12755581569E+04  0.50400000000E-02 0. -1.
         25    2    1    2    0    0  0.10896211155E+03  0.20538024619E+03 -0.18569630116E+03  0.32274054410E+03  0.12499822106E+03 0.  0.
         23    2    1    2    0    0 -0.10896211155E+03 -0.20538024619E+03 -0.10059727714E+04  0.10367066972E+04  0.93411840559E+02 0.  0.
        -11    1    4    4    0    0 -0.37706984154E+02 -0.12714441039E+03 -0.39583036579E+03  0.41745562187E+03  0.51100000000E-03 0.  1.
         11    1    4    4    0    0 -0.71255127398E+02 -0.78235835796E+02 -0.61014240563E+03  0.61925107536E+03  0.51100000000E-03 0. -1.
    9000005    1    3    3    0    0  0.24173936090E+02  0.74030699833E+02  0.26895699763E+01  0.77930465741E+02  0.10000000000E+01 0.  0.
    9000005    1    3    3    0    0  0.84788175462E+02  0.13134954635E+03 -0.18838587113E+03  0.24481007836E+03  0.10000000000E+01 0.  0.
<mgrwt>
<rscale>  0 0.26054873E+03</rscale>
<asrwt>0</asrwt>
<pdfrwt beam="2">  1        1 0.19623970E+00 0.26396656E+03</pdfrwt>
<pdfrwt beam="1">  1       -1 0.12906014E-01 0.26396656E+03</pdfrwt>
<totfact> 0.41639235E+02</totfact>
</mgrwt>
</event>
<event>
 8    2  0.7478846E-004  0.1303491E+03  0.7818608E-02  0.1241117E+00
         -1   -1    0    0    0  501 -0.00000000000E+00  0.00000000000E+00  0.60723354113E+02  0.60723354322E+02  0.50400000000E-02 0.  1.
          1   -1    0    0  501    0  0.00000000000E+00 -0.00000000000E+00 -0.21553117356E+03  0.21553117362E+03  0.50400000000E-02 0. -1.
         25    2    1    2    0    0  0.32516255177E+02  0.17580280994E+02 -0.75723370705E+02  0.15074785724E+03  0.12499805782E+03 0.  0.
         23    2    1    2    0    0 -0.32516255177E+02 -0.17580280994E+02 -0.79084448745E+02  0.12550667071E+03  0.90173173550E+02 0.  0.
        -11    1    4    4    0    0 -0.13274932521E+02 -0.29467783915E+02  0.98133464118E+01  0.33776854358E+02  0.51100000000E-03 0.  1.
         11    1    4    4    0    0 -0.19241322657E+02  0.11887502921E+02 -0.88897795157E+02  0.91729816348E+02  0.51100000000E-03 0. -1.
    9000005    1    3    3    0    0 -0.16427613913E+00  0.54834217621E+02 -0.84175458194E+02  0.10046554718E+03  0.10000000000E+01 0.  0.
    9000005    1    3    3    0    0  0.32680531316E+02 -0.37253936627E+02  0.84520874890E+01  0.50282310053E+02  0.10000000000E+01 0.  0.
<mgrwt>
<rscale>  0 0.12120837E+03</rscale>
<asrwt>0</asrwt>
<pdfrwt beam="2">  1        1 0.33158642E-01 0.13034910E+03</pdfrwt>
<pdfrwt beam="1">  1       -1 0.93420546E-02 0.13034910E+03</pdfrwt>
<totfact> 0.85222365E+03</totfact>
</mgrwt>
</event>
<event>
 8    2  0.7478846E-004  0.1341846E+03  0.7818608E-02  0.1235488E+00
         -1   -1    0    0    0  501 -0.00000000000E+00  0.00000000000E+00  0.16947290938E+03  0.16947290945E+03  0.50400000000E-02 0.  1.
          1   -1    0    0  501    0  0.00000000000E+00 -0.00000000000E+00 -0.10555534914E+03  0.10555534926E+03  0.50400000000E-02 0. -1.
         25    2    1    2    0    0  0.48764294787E+02 -0.15763530957E+01  0.10126396142E+03  0.16810679760E+03  0.12500025673E+03 0.  0.
         23    2    1    2    0    0 -0.48764294787E+02  0.15763530957E+01 -0.37346401175E+02  0.10692146111E+03  0.87504307497E+02 0.  0.
        -11    1    4    4    0    0 -0.43554007318E+02 -0.30579815672E+02 -0.48984378768E+02  0.72329427231E+02  0.51100000000E-03 0. -1.
         11    1    4    4    0    0 -0.52102874694E+01  0.32156168768E+02  0.11637977593E+02  0.34592033882E+02  0.51100000000E-03 0.  1.
    9000005    1    3    3    0    0  0.95716539495E+01 -0.91269257695E+01  0.12227336508E+03  0.12299062217E+03  0.10000000000E+01 0.  0.
    9000005    1    3    3    0    0  0.39192640838E+02  0.75505726738E+01 -0.21009403660E+02  0.45116175433E+02  0.10000000000E+01 0.  0.
<mgrwt>
<rscale>  0 0.12473258E+03</rscale>
<asrwt>0</asrwt>
<pdfrwt beam="2">  1        1 0.16239285E-01 0.13418459E+03</pdfrwt>
<pdfrwt beam="1">  1       -1 0.26072755E-01 0.13418459E+03</pdfrwt>
<totfact> 0.41682727E+03</totfact>
</mgrwt>
</event>
<event>
 8    2  0.7478846E-004  0.3306826E+03  0.7818608E-02  0.1072093E+00
          1   -1    0    0  501    0  0.00000000000E+00  0.00000000000E+00  0.23420385454E+04  0.23420385454E+04  0.50400000000E-02 0. -1.
         -1   -1    0    0    0  501 -0.00000000000E+00 -0.00000000000E+00 -0.45199066148E+02  0.45199066429E+02  0.50400000000E-02 0.  1.
         25    2    1    2    0    0 -0.16963401525E+03 -0.25485285888E+03  0.12169809906E+04  0.12611081164E+04  0.12500108373E+03 0.  0.
         23    2    1    2    0    0  0.16963401525E+03  0.25485285888E+03  0.10798584886E+04  0.11261294954E+04  0.91365235101E+02 0.  0.
        -11    1    4    4    0    0  0.10291046493E+03  0.17818067174E+03  0.85426466192E+03  0.87869620926E+03  0.51100000000E-03 0. -1.
         11    1    4    4    0    0  0.66723550319E+02  0.76672187141E+02  0.22559382672E+03  0.24743328616E+03  0.51100000000E-03 0.  1.
    9000005    1    3    3    0    0 -0.12754975871E+03 -0.16076762894E+03  0.10006376916E+04  0.10214655948E+04  0.10000000000E+01 0.  0.
    9000005    1    3    3    0    0 -0.42084256542E+02 -0.94085229935E+02  0.21634329894E+03  0.23964252155E+03  0.10000000000E+01 0.  0.
<mgrwt>
<rscale>  0 0.32784795E+03</rscale>
<asrwt>0</asrwt>
<pdfrwt beam="1">  1        1 0.36031358E+00 0.33068255E+03</pdfrwt>
<pdfrwt beam="2">  1       -1 0.69537033E-02 0.33068255E+03</pdfrwt>
<totfact> 0.21270431E+02</totfact>
</mgrwt>
</event>
<event>
 8    2  0.7478846E-004  0.1412898E+03  0.7818608E-02  0.1222913E+00
          1   -1    0    0  501    0  0.00000000000E+00  0.00000000000E+00  0.10893315659E+04  0.10893315659E+04  0.50400000000E-02 0. -1.
         -1   -1    0    0    0  501 -0.00000000000E+00 -0.00000000000E+00 -0.16982685923E+02  0.16982686671E+02  0.50400000000E-02 0.  1.
         25    2    1    2    0    0  0.46715333589E+02  0.46422296553E+02  0.79513561819E+03  0.80759114753E+03  0.12500183297E+03 0.  0.
         23    2    1    2    0    0 -0.46715333589E+02 -0.46422296553E+02  0.27721326180E+03  0.29872310507E+03  0.89727080483E+02 0.  0.
        -11    1    4    4    0    0 -0.49886186080E+01  0.26658830560E+02  0.70411026364E+02  0.75453907760E+02  0.51100000000E-03 0. -1.
         11    1    4    4    0    0 -0.41726714981E+02 -0.73081127113E+02  0.20680223544E+03  0.22326919731E+03  0.51100000000E-03 0.  1.
    9000005    1    3    3    0    0 -0.31008144704E+02 -0.18215038318E+02  0.13288302451E+03  0.13766695632E+03  0.10000000000E+01 0.  0.
    9000005    1    3    3    0    0  0.77723478293E+02  0.64637334871E+02  0.66225259368E+03  0.66992419121E+03  0.10000000000E+01 0.  0.
<mgrwt>
<rscale>  0 0.13310967E+03</rscale>
<asrwt>0</asrwt>
<pdfrwt beam="1">  1        1 0.16758954E+00 0.14128981E+03</pdfrwt>
<pdfrwt beam="2">  1       -1 0.26127199E-02 0.14128981E+03</pdfrwt>
<totfact> 0.62018709E+03</totfact>
</mgrwt>
</event>
<event>
 8    2  0.7478846E-004  0.1743632E+03  0.7818608E-02  0.1179372E+00
          1   -1    0    0  501    0  0.00000000000E+00  0.00000000000E+00  0.92375354980E+03  0.92375354981E+03  0.50400000000E-02 0. -1.
         -1   -1    0    0    0  501 -0.00000000000E+00 -0.00000000000E+00 -0.28879796940E+02  0.28879797380E+02  0.50400000000E-02 0.  1.
         25    2    1    2    0    0 -0.34935526145E+02  0.11643058928E+03  0.46801421806E+03  0.49943951667E+03  0.12500379753E+03 0.  0.
         23    2    1    2    0    0  0.34935526145E+02 -0.11643058928E+03  0.42685953479E+03  0.45319383052E+03  0.91646126304E+02 0.  0.
        -11    1    4    4    0    0  0.63340533822E+02 -0.55793028188E+02  0.26172034997E+03  0.27499532143E+03  0.51100000000E-03 0. -1.
         11    1    4    4    0    0 -0.28405007677E+02 -0.60637561095E+02  0.16513918482E+03  0.17819850908E+03  0.51100000000E-03 0.  1.
    9000005    1    3    3    0    0  0.29517689022E+02 -0.10838173505E+02  0.74876489919E+02  0.81217293187E+02  0.10000000000E+01 0.  0.
    9000005    1    3    3    0    0 -0.64453215167E+02  0.12726876279E+03  0.39313772814E+03  0.41822222349E+03  0.10000000000E+01 0.  0.
<mgrwt>
<rscale>  0 0.16854658E+03</rscale>
<asrwt>0</asrwt>
<pdfrwt beam="1">  1        1 0.14211593E+00 0.17436319E+03</pdfrwt>
<pdfrwt beam="2">  1       -1 0.44430457E-02 0.17436319E+03</pdfrwt>
<totfact> 0.37952092E+03</totfact>
</mgrwt>
</event>
<event>
 8    2  0.7478846E-004  0.1263236E+03  0.7818608E-02  0.1248258E+00
          1   -1    0    0  501    0  0.00000000000E+00  0.00000000000E+00  0.32235478152E+02  0.32235478546E+02  0.50400000000E-02 0.  1.
         -1   -1    0    0    0  501 -0.00000000000E+00 -0.00000000000E+00 -0.55967587310E+03  0.55967587313E+03  0.50400000000E-02 0. -1.
         25    2    1    2    0    0 -0.63452130670E+01  0.17092312310E+02 -0.46060599514E+03  0.47761442482E+03  0.12500098870E+03 0.  0.
         23    2    1    2    0    0  0.63452130670E+01 -0.17092312310E+02 -0.66834399814E+02  0.11429692685E+03  0.90909524359E+02 0.  0.
        -11    1    4    4    0    0 -0.19852531946E+02 -0.14199130909E+02 -0.80843859252E+02  0.84448019055E+02  0.51100000000E-03 0. -1.
         11    1    4    4    0    0  0.26197745013E+02 -0.28931814008E+01  0.14009459438E+02  0.29848907792E+02  0.51100000000E-03 0.  1.
    9000005    1    3    3    0    0  0.32299727796E+02  0.59604943547E+02 -0.21820853231E+03  0.22849942075E+03  0.10000000000E+01 0.  0.
    9000005    1    3    3    0    0 -0.38644940863E+02 -0.42512631237E+02 -0.24239746283E+03  0.24911500408E+03  0.10000000000E+01 0.  0.
<mgrwt>
<rscale>  0 0.11692475E+03</rscale>
<asrwt>0</asrwt>
<pdfrwt beam="1">  1        1 0.49593048E-02 0.12632362E+03</pdfrwt>
<pdfrwt beam="2">  1       -1 0.86103973E-01 0.12632362E+03</pdfrwt>
<totfact> 0.22704579E+03</totfact>
</mgrwt>
</event>
<event>
 8    2  0.7478846E-004  0.1310916E+03  0.7818608E-02  0.1240170E+00
         -1   -1    0    0    0  501 -0.00000000000E+00  0.00000000000E+00  0.20556450176E+02  0.20556450793E+02  0.50400000000E-02 0.  1.
          1   -1    0    0  501    0  0.00000000000E+00 -0.00000000000E+00 -0.88090550235E+03  0.88090550237E+03  0.50400000000E-02 0. -1.
         25    2    1    2    0    0  0.64780867386E+01  0.38954908848E+02 -0.23997089798E+03  0.27344291490E+03  0.12500218118E+03 0.  0.
         23    2    1    2    0    0 -0.64780867386E+01 -0.38954908848E+02 -0.62037815419E+03  0.62801903826E+03  0.89327530385E+02 0.  0.
        -11    1    4    4    0    0 -0.29391977410E+02 -0.17574478533E+02 -0.83811629788E+02  0.90538057853E+02  0.51100000000E-03 0.  1.
         11    1    4    4    0    0  0.22913890671E+02 -0.21380430315E+02 -0.53656652441E+03  0.53748098041E+03  0.51100000000E-03 0. -1.
    9000005    1    3    3    0    0  0.63849719410E+02  0.25937375679E+02 -0.98457099661E+02  0.12018458553E+03  0.10000000000E+01 0.  0.
    9000005    1    3    3    0    0 -0.57371632672E+02  0.13017533169E+02 -0.14151379832E+03  0.15325832937E+03  0.10000000000E+01 0.  0.
<mgrwt>
<rscale>  0 0.12179181E+03</rscale>
<asrwt>0</asrwt>
<pdfrwt beam="2">  1        1 0.13552389E+00 0.13109156E+03</pdfrwt>
<pdfrwt beam="1">  1       -1 0.31625315E-02 0.13109156E+03</pdfrwt>
<totfact> 0.66724102E+03</totfact>
</mgrwt>
</event>
<event>
 8    2  0.7478846E-004  0.1332876E+03  0.7818608E-02  0.1235112E+00
          1   -1    0    0  501    0  0.00000000000E+00  0.00000000000E+00  0.31288366027E+02  0.31288366433E+02  0.50400000000E-02 0. -1.
         -1   -1    0    0    0  501 -0.00000000000E+00 -0.00000000000E+00 -0.45958729270E+03  0.45958729273E+03  0.50400000000E-02 0.  1.
         25    2    1    2    0    0 -0.14981732569E+02  0.43788037832E+02 -0.28241050861E+03  0.31228395288E+03  0.12499490903E+03 0.  0.
         23    2    1    2    0    0  0.14981732569E+02 -0.43788037832E+02 -0.14588841806E+03  0.17859170628E+03  0.92031095070E+02 0.  0.
        -11    1    4    4    0    0  0.15462574329E+02 -0.14933635822E+02 -0.14809690485E+03  0.14964891550E+03  0.51100000000E-03 0.  1.
         11    1    4    4    0    0 -0.48084176083E+00 -0.28854402011E+02  0.22084867863E+01  0.28942790783E+02  0.51100000000E-03 0. -1.
    9000005    1    3    3    0    0 -0.39308195393E+02  0.43064348412E+02 -0.45083370334E+02  0.73710125559E+02  0.10000000000E+01 0.  0.
    9000005    1    3    3    0    0  0.24326462825E+02  0.72368941995E+00 -0.23732713828E+03  0.23857382732E+03  0.10000000000E+01 0.  0.
<mgrwt>
<rscale>  0 0.12497255E+03</rscale>
<asrwt>0</asrwt>
<pdfrwt beam="1">  1        1 0.48135951E-02 0.13328755E+03</pdfrwt>
<pdfrwt beam="2">  1       -1 0.70705732E-01 0.13328755E+03</pdfrwt>
<totfact> 0.35392189E+03</totfact>
</mgrwt>
</event>
<event>
 8    2  0.7478846E-004  0.1379057E+03  0.7818608E-02  0.1227445E+00
         -1   -1    0    0    0  501 -0.00000000000E+00  0.00000000000E+00  0.16348529988E+02  0.16348530765E+02  0.50400000000E-02 0.  1.
          1   -1    0    0  501    0  0.00000000000E+00 -0.00000000000E+00 -0.93836906270E+03  0.93836906272E+03  0.50400000000E-02 0. -1.
         25    2    1    2    0    0 -0.15539923677E+02 -0.56181682568E+02 -0.47466715509E+03  0.49429433930E+03  0.12498045872E+03 0.  0.
         23    2    1    2    0    0  0.15539923677E+02  0.56181682568E+02 -0.44735337763E+03  0.46042325418E+03  0.92014443604E+02 0.  0.
        -11    1    4    4    0    0  0.27139894515E+02 -0.13929043957E+02 -0.68834411747E+02  0.75291223795E+02  0.51100000000E-03 0. -1.
         11    1    4    4    0    0 -0.11599970837E+02  0.70110726525E+02 -0.37851896588E+03  0.38513203039E+03  0.51100000000E-03 0.  1.
    9000005    1    3    3    0    0  0.82496468395E+01 -0.57557414769E+02 -0.46489752110E+03  0.46852066954E+03  0.10000000000E+01 0.  0.
    9000005    1    3    3    0    0 -0.23789570517E+02  0.13757322003E+01 -0.97696339930E+01  0.25773669758E+02  0.10000000000E+01 0.  0.
<mgrwt>
<rscale>  0 0.13000738E+03</rscale>
<asrwt>0</asrwt>
<pdfrwt beam="2">  1        1 0.14436443E+00 0.13790571E+03</pdfrwt>
<pdfrwt beam="1">  1       -1 0.25151592E-02 0.13790571E+03</pdfrwt>
<totfact> 0.84351116E+03</totfact>
</mgrwt>
</event>
<event>
 8    2  0.7478846E-004  0.1281261E+03  0.7818608E-02  0.1244405E+00
          1   -1    0    0  501    0  0.00000000000E+00  0.00000000000E+00  0.10597174730E+04  0.10597174730E+04  0.50400000000E-02 0. -1.
         -1   -1    0    0    0  501 -0.00000000000E+00 -0.00000000000E+00 -0.12050426638E+02  0.12050427692E+02  0.50400000000E-02 0.  1.
         25    2    1    2    0    0 -0.23287606456E+02 -0.15742626551E+02  0.66565581663E+03  0.67787458651E+03  0.12500458358E+03 0.  0.
         23    2    1    2    0    0  0.23287606456E+02  0.15742626551E+02  0.38201122975E+03  0.39389331422E+03  0.91810785971E+02 0.  0.
        -11    1    4    4    0    0 -0.72892161132E+01  0.38582746523E+02  0.76315446790E+02  0.85824288053E+02  0.51100000000E-03 0.  1.
         11    1    4    4    0    0  0.30576822570E+02 -0.22840119972E+02  0.30569578296E+03  0.30806902616E+03  0.51100000000E-03 0. -1.
    9000005    1    3    3    0    0  0.31232648833E+02  0.39380604067E+02  0.23891708414E+03  0.24414889601E+03  0.10000000000E+01 0.  0.
    9000005    1    3    3    0    0 -0.54520255290E+02 -0.55123230618E+02  0.42673873249E+03  0.43372569050E+03  0.10000000000E+01 0.  0.
<mgrwt>
<rscale>  0 0.11921084E+03</rscale>
<asrwt>0</asrwt>
<pdfrwt beam="1">  1        1 0.16303346E+00 0.12812607E+03</pdfrwt>
<pdfrwt beam="2">  1       -1 0.18539118E-02 0.12812607E+03</pdfrwt>
<totfact> 0.10635081E+04</totfact>
</mgrwt>
</event>
<event>
 8    2  0.7478846E-004  0.1444431E+03  0.7818608E-02  0.1218024E+00
          1   -1    0    0  501    0  0.00000000000E+00  0.00000000000E+00  0.26663002008E+03  0.26663002013E+03  0.50400000000E-02 0. -1.
         -1   -1    0    0    0  501 -0.00000000000E+00 -0.00000000000E+00 -0.69585052526E+02  0.69585052709E+02  0.50400000000E-02 0.  1.
         25    2    1    2    0    0 -0.68434292647E+02  0.23608305972E+02  0.15869107390E+03  0.21458489099E+03  0.12499285574E+03 0.  0.
         23    2    1    2    0    0  0.68434292647E+02 -0.23608305972E+02  0.38353893656E+02  0.12163018184E+03  0.89901476383E+02 0.  0.
        -11    1    4    4    0    0  0.12346196883E+02 -0.10457611050E+02  0.58425559092E+02  0.60624550817E+02  0.51100000000E-03 0. -1.
         11    1    4    4    0    0  0.56088095763E+02 -0.13150694922E+02 -0.20071665436E+02  0.61005631026E+02  0.51100000000E-03 0.  1.
    9000005    1    3    3    0    0 -0.98933730152E+02  0.17821934327E+02  0.75322183771E+02  0.12561821394E+03  0.10000000000E+01 0.  0.
    9000005    1    3    3    0    0  0.30499437506E+02  0.57863716450E+01  0.83368890129E+02  0.88966677056E+02  0.10000000000E+01 0.  0.
<mgrwt>
<rscale>  0 0.13656752E+03</rscale>
<asrwt>0</asrwt>
<pdfrwt beam="1">  1        1 0.41020002E-01 0.14444313E+03</pdfrwt>
<pdfrwt beam="2">  1       -1 0.10705393E-01 0.14444313E+03</pdfrwt>
<totfact> 0.53555976E+03</totfact>
</mgrwt>
</event>
<event>
 8    2  0.7478846E-004  0.1703017E+03  0.7818608E-02  0.1184503E+00
          1   -1    0    0  501    0  0.00000000000E+00  0.00000000000E+00  0.16153018331E+03  0.16153018339E+03  0.50400000000E-02 0. -1.
         -1   -1    0    0    0  501 -0.00000000000E+00 -0.00000000000E+00 -0.30726800298E+03  0.30726800302E+03  0.50400000000E-02 0.  1.
         25    2    1    2    0    0 -0.63359866120E+02  0.96762002723E+02 -0.24075448533E+03  0.29489897626E+03  0.12500130473E+03 0.  0.
         23    2    1    2    0    0  0.63359866120E+02 -0.96762002723E+02  0.95016665668E+02  0.17389921016E+03  0.88517855443E+02 0.  0.
        -11    1    4    4    0    0 -0.11125150587E+02 -0.16344211982E+02 -0.99491411477E+01  0.22133405765E+02  0.51100000000E-03 0.  1.
         11    1    4    4    0    0  0.74485016708E+02 -0.80417790741E+02  0.10496580682E+03  0.15176580439E+03  0.51100000000E-03 0. -1.
    9000005    1    3    3    0    0 -0.19910978993E+02  0.88126601321E+02 -0.59211165705E+02  0.10802641848E+03  0.10000000000E+01 0.  0.
    9000005    1    3    3    0    0 -0.43448887127E+02  0.86354014024E+01 -0.18154331963E+03  0.18687255778E+03  0.10000000000E+01 0.  0.
<mgrwt>
<rscale>  0 0.16377175E+03</rscale>
<asrwt>0</asrwt>
<pdfrwt beam="1">  1        1 0.24850798E-01 0.17030174E+03</pdfrwt>
<pdfrwt beam="2">  1       -1 0.47272000E-01 0.17030174E+03</pdfrwt>
<totfact> 0.87539793E+02</totfact>
</mgrwt>
</event>
<event>
 8    2  0.7478846E-004  0.1358308E+03  0.7818608E-02  0.1231139E+00
          1   -1    0    0  501    0  0.00000000000E+00  0.00000000000E+00  0.38004911629E+03  0.38004911632E+03  0.50400000000E-02 0. -1.
         -1   -1    0    0    0  501 -0.00000000000E+00 -0.00000000000E+00 -0.38834278259E+02  0.38834278586E+02  0.50400000000E-02 0.  1.
         25    2    1    2    0    0  0.43729515817E+02 -0.30221435869E+02  0.16840412897E+03  0.21635610885E+03  0.12499763775E+03 0.  0.
         23    2    1    2    0    0 -0.43729515817E+02  0.30221435869E+02  0.17281070906E+03  0.20252728606E+03  0.91258723920E+02 0.  0.
        -11    1    4    4    0    0 -0.63281608778E+02  0.34418289638E+01  0.69644240867E+02  0.94163307516E+02  0.51100000000E-03 0.  1.
         11    1    4    4    0    0  0.19552092961E+02  0.26779606905E+02  0.10316646819E+03  0.10836397854E+03  0.51100000000E-03 0. -1.
    9000005    1    3    3    0    0 -0.25463962455E+01  0.64219347946E+00 -0.19852959522E+02  0.20050849062E+02  0.10000000000E+01 0.  0.
    9000005    1    3    3    0    0  0.46275912063E+02 -0.30863629348E+02  0.18825708849E+03  0.19630525979E+03  0.10000000000E+01 0.  0.
<mgrwt>
<rscale>  0 0.12754882E+03</rscale>
<asrwt>0</asrwt>
<pdfrwt beam="1">  1        1 0.58469094E-01 0.13583083E+03</pdfrwt>
<pdfrwt beam="2">  1       -1 0.59745045E-02 0.13583083E+03</pdfrwt>
<totfact> 0.82858978E+03</totfact>
</mgrwt>
</event>
<event>
 8    2  0.7478846E-004  0.1522749E+03  0.7818608E-02  0.1205773E+00
         -1   -1    0    0    0  501 -0.00000000000E+00  0.00000000000E+00  0.33171293717E+02  0.33171294099E+02  0.50400000000E-02 0.  1.
          1   -1    0    0  501    0  0.00000000000E+00 -0.00000000000E+00 -0.61796383420E+03  0.61796383422E+03  0.50400000000E-02 0. -1.
         25    2    1    2    0    0  0.72739395626E+02  0.47582279246E+02 -0.38395479034E+03  0.41304832058E+03  0.12503016090E+03 0.  0.
         23    2    1    2    0    0 -0.72739395626E+02 -0.47582279246E+02 -0.20083775015E+03  0.23808680774E+03  0.93778639161E+02 0.  0.
        -11    1    4    4    0    0 -0.51947791938E+01 -0.59032162308E+02 -0.97779814244E+02  0.11433579488E+03  0.51100000000E-03 0. -1.
         11    1    4    4    0    0 -0.67544616432E+02  0.11449883062E+02 -0.10305793590E+03  0.12375101286E+03  0.51100000000E-03 0.  1.
    9000005    1    3    3    0    0 -0.30895111610E+02 -0.11211917667E+02 -0.92896105926E+02  0.98543906536E+02  0.10000000000E+01 0.  0.
    9000005    1    3    3    0    0  0.10363450724E+03  0.58794196913E+02 -0.29105868441E+03  0.31450441405E+03  0.10000000000E+01 0.  0.
<mgrwt>
<rscale>  0 0.14576703E+03</rscale>
<asrwt>0</asrwt>
<pdfrwt beam="2">  1        1 0.95071350E-01 0.15227486E+03</pdfrwt>
<pdfrwt beam="1">  1       -1 0.51032765E-02 0.15227486E+03</pdfrwt>
<totfact> 0.55920481E+03</totfact>
</mgrwt>
</event>
<event>
 8    2  0.7478846E-004  0.1965366E+03  0.7818608E-02  0.1157474E+00
         -1   -1    0    0    0  501 -0.00000000000E+00  0.00000000000E+00  0.30615249382E+03  0.30615249386E+03  0.50400000000E-02 0.  1.
          1   -1    0    0  501    0  0.00000000000E+00 -0.00000000000E+00 -0.11412259317E+03  0.11412259328E+03  0.50400000000E-02 0. -1.
         25    2    1    2    0    0  0.18248868709E+02 -0.15055868161E+03  0.12091872427E+03  0.23075520762E+03  0.12500276056E+03 0.  0.
         23    2    1    2    0    0 -0.18248868709E+02  0.15055868161E+03  0.71111176389E+02  0.18951987952E+03  0.88656908972E+02 0.  0.
        -11    1    4    4    0    0 -0.36679389190E+02  0.17301189820E+02  0.10033248224E+02  0.41777683405E+02  0.51100000000E-03 0. -1.
         11    1    4    4    0    0  0.18430520481E+02  0.13325749179E+03  0.61077928165E+02  0.14774219612E+03  0.51100000000E-03 0.  1.
    9000005    1    3    3    0    0  0.19721778787E+02  0.79717751764E+01  0.55142006432E+02  0.59111239467E+02  0.10000000000E+01 0.  0.
    9000005    1    3    3    0    0 -0.14729100781E+01 -0.15853045679E+03  0.65776717835E+02  0.17164396815E+03  0.10000000000E+01 0.  0.
<mgrwt>
<rscale>  0 0.19109916E+03</rscale>
<asrwt>0</asrwt>
<pdfrwt beam="2">  1        1 0.17557322E-01 0.19653658E+03</pdfrwt>
<pdfrwt beam="1">  1       -1 0.47100383E-01 0.19653658E+03</pdfrwt>
<totfact> 0.13779754E+03</totfact>
</mgrwt>
</event>
<event>
 8    2  0.7478846E-004  0.1754719E+03  0.7818608E-02  0.1178323E+00
         -1   -1    0    0    0  501 -0.00000000000E+00  0.00000000000E+00  0.28668700301E+02  0.28668700744E+02  0.50400000000E-02 0.  1.
          1   -1    0    0  501    0  0.00000000000E+00 -0.00000000000E+00 -0.10029828416E+04  0.10029828416E+04  0.50400000000E-02 0. -1.
         25    2    1    2    0    0 -0.67120755482E+02 -0.10322673464E+03 -0.39005817539E+03  0.42770991669E+03  0.12501775110E+03 0.  0.
         23    2    1    2    0    0  0.67120755482E+02  0.10322673464E+03 -0.58425596588E+03  0.60394162563E+03  0.90716585804E+02 0.  0.
        -11    1    4    4    0    0  0.89839330607E+02  0.80809558689E+02 -0.44961585718E+03  0.46557030524E+03  0.51100000000E-03 0.  1.
         11    1    4    4    0    0 -0.22718575125E+02  0.22417175956E+02 -0.13464010871E+03  0.13837132039E+03  0.51100000000E-03 0. -1.
    9000005    1    3    3    0    0 -0.51535931764E+02 -0.69738902251E+01 -0.26002467232E+03  0.26517620109E+03  0.10000000000E+01 0.  0.
    9000005    1    3    3    0    0 -0.15584823718E+02 -0.96252844420E+02 -0.13003350306E+03  0.16253371560E+03  0.10000000000E+01 0.  0.
<mgrwt>
<rscale>  0 0.16954522E+03</rscale>
<asrwt>0</asrwt>
<pdfrwt beam="2">  1        1 0.15430503E+00 0.17547191E+03</pdfrwt>
<pdfrwt beam="1">  1       -1 0.44105701E-02 0.17547191E+03</pdfrwt>
<totfact> 0.33457469E+03</totfact>
</mgrwt>
</event>
<event>
 8    2  0.7478846E-004  0.2997373E+03  0.7818608E-02  0.1086842E+00
          1   -1    0    0  501    0  0.00000000000E+00  0.00000000000E+00  0.34606513291E+03  0.34606513295E+03  0.50400000000E-02 0. -1.
         -1   -1    0    0    0  501 -0.00000000000E+00 -0.00000000000E+00 -0.26905704392E+03  0.26905704396E+03  0.50400000000E-02 0.  1.
         25    2    1    2    0    0 -0.20886294678E+03 -0.17490874770E+03 -0.43189932280E+02  0.30283295393E+03  0.12500250868E+03 0.  0.
         23    2    1    2    0    0  0.20886294678E+03  0.17490874770E+03  0.12019802128E+03  0.31228922298E+03  0.94128603023E+02 0.  0.
        -11    1    4    4    0    0  0.78401158943E+02  0.75810832628E+02 -0.58150491792E-01  0.10905974257E+03  0.51100000000E-03 0.  1.
         11    1    4    4    0    0  0.13046178784E+03  0.99097915077E+02  0.12025617177E+03  0.20322948041E+03  0.51100000000E-03 0. -1.
    9000005    1    3    3    0    0 -0.14254744716E+03 -0.15482415590E+03 -0.79044243980E+02  0.22480944475E+03  0.10000000000E+01 0.  0.
    9000005    1    3    3    0    0 -0.66315499624E+02 -0.20084591802E+02  0.35854311699E+02  0.78023509186E+02  0.10000000000E+01 0.  0.
<mgrwt>
<rscale>  0 0.29681829E+03</rscale>
<asrwt>0</asrwt>
<pdfrwt beam="1">  1        1 0.53240790E-01 0.29973726E+03</pdfrwt>
<pdfrwt beam="2">  1       -1 0.41393391E-01 0.29973726E+03</pdfrwt>
<totfact> 0.42579779E+02</totfact>
</mgrwt>
</event>
<event>
 8    2  0.7478846E-004  0.1326124E+03  0.7818608E-02  0.1235861E+00
         -1   -1    0    0    0  501 -0.00000000000E+00  0.00000000000E+00  0.10325084387E+03  0.10325084400E+03  0.50400000000E-02 0.  1.
          1   -1    0    0  501    0  0.00000000000E+00 -0.00000000000E+00 -0.18195524926E+03  0.18195524933E+03  0.50400000000E-02 0. -1.
         25    2    1    2    0    0  0.44238588782E+02  0.18623387356E+01  0.29457297508E+02  0.13584465060E+03  0.12500206269E+03 0.  0.
         23    2    1    2    0    0 -0.44238588782E+02 -0.18623387356E+01 -0.10816170290E+03  0.14936144273E+03  0.93001965340E+02 0.  0.
        -11    1    4    4    0    0 -0.19129852843E+01  0.41707205363E+02 -0.51452524637E+02  0.66260944633E+02  0.51100000000E-03 0. -1.
         11    1    4    4    0    0 -0.42325603498E+02 -0.43569544098E+02 -0.56709178260E+02  0.83100498095E+02  0.51100000000E-03 0.  1.
    9000005    1    3    3    0    0 -0.10735688146E+02 -0.45481272283E+02  0.41243160182E+02  0.62336180427E+02  0.10000000000E+01 0.  0.
    9000005    1    3    3    0    0  0.54974276928E+02  0.47343611018E+02 -0.11785862674E+02  0.73508470172E+02  0.10000000000E+01 0.  0.
<mgrwt>
<rscale>  0 0.12449498E+03</rscale>
<asrwt>0</asrwt>
<pdfrwt beam="2">  1        1 0.27993115E-01 0.13261236E+03</pdfrwt>
<pdfrwt beam="1">  1       -1 0.15884745E-01 0.13261236E+03</pdfrwt>
<totfact> 0.46392079E+03</totfact>
</mgrwt>
</event>
<event>
 8    2  0.7478846E-004  0.2967960E+03  0.7818608E-02  0.1088491E+00
         -1   -1    0    0    0  501 -0.00000000000E+00  0.00000000000E+00  0.10575348908E+03  0.10575348920E+03  0.50400000000E-02 0. -1.
          1   -1    0    0  501    0  0.00000000000E+00 -0.00000000000E+00 -0.14096792382E+04  0.14096792382E+04  0.50400000000E-02 0.  1.
         25    2    1    2    0    0  0.30584485936E+02  0.26744761030E+03 -0.16088071867E+03  0.33759509385E+03  0.12499682684E+03 0.  0.
         23    2    1    2    0    0 -0.30584485936E+02 -0.26744761030E+03 -0.11430450305E+04  0.11778376336E+04  0.91026997872E+02 0.  0.
        -11    1    4    4    0    0 -0.51473347828E+01 -0.25599956399E+03 -0.10438198257E+04  0.10747660677E+04  0.51100000000E-03 0.  1.
         11    1    4    4    0    0 -0.25437151153E+02 -0.11448046301E+02 -0.99225204788E+02  0.10307156586E+03  0.51100000000E-03 0. -1.
    9000005    1    3    3    0    0  0.54775789213E+02  0.89907404384E+02 -0.14615075707E+02  0.10629359757E+03  0.10000000000E+01 0.  0.
    9000005    1    3    3    0    0 -0.24191303277E+02  0.17754020591E+03 -0.14626564296E+03  0.23130149628E+03  0.10000000000E+01 0.  0.
<mgrwt>
<rscale>  0 0.29358645E+03</rscale>
<asrwt>0</asrwt>
<pdfrwt beam="2">  1        1 0.21687372E+00 0.29679596E+03</pdfrwt>
<pdfrwt beam="1">  1       -1 0.16269769E-01 0.29679596E+03</pdfrwt>
<totfact> 0.23232350E+02</totfact>
</mgrwt>
</event>
<event>
 8    2  0.7478846E-004  0.1541981E+03  0.7818608E-02  0.1204130E+00
          1   -1    0    0  501    0  0.00000000000E+00  0.00000000000E+00  0.28124153799E+03  0.28124153803E+03  0.50400000000E-02 0. -1.
         -1   -1    0    0    0  501 -0.00000000000E+00 -0.00000000000E+00 -0.80838990094E+02  0.80838990251E+02  0.50400000000E-02 0.  1.
         25    2    1    2    0    0 -0.89854317074E+02 -0.88720593954E+01  0.17272076927E+03  0.23153731385E+03  0.12499820732E+03 0.  0.
         23    2    1    2    0    0  0.89854317074E+02  0.88720593954E+01  0.27681778626E+02  0.13054321443E+03  0.90126234981E+02 0.  0.
        -11    1    4    4    0    0  0.76011468576E+02 -0.31130954189E+02  0.31652307774E+02  0.88026974568E+02  0.51100000000E-03 0.  1.
         11    1    4    4    0    0  0.13842848498E+02  0.40003013584E+02 -0.39705291481E+01  0.42516239866E+02  0.51100000000E-03 0. -1.
    9000005    1    3    3    0    0  0.13811532604E+02  0.36795150257E+02  0.59959471538E+02  0.71699231114E+02  0.10000000000E+01 0.  0.
    9000005    1    3    3    0    0 -0.10366584968E+03 -0.45667209652E+02  0.11276129773E+03  0.15983808274E+03  0.10000000000E+01 0.  0.
<mgrwt>
<rscale>  0 0.14706194E+03</rscale>
<asrwt>0</asrwt>
<pdfrwt beam="1">  1        1 0.43267929E-01 0.15419813E+03</pdfrwt>
<pdfrwt beam="2">  1       -1 0.12436768E-01 0.15419813E+03</pdfrwt>
<totfact> 0.39920314E+03</totfact>
</mgrwt>
</event>
<event>
 8    2  0.7478846E-004  0.1446305E+03  0.7818608E-02  0.1215974E+00
         -1   -1    0    0    0  501 -0.00000000000E+00  0.00000000000E+00  0.11388443037E+02  0.11388444152E+02  0.50400000000E-02 0.  1.
          1   -1    0    0  501    0  0.00000000000E+00 -0.00000000000E+00 -0.15408986344E+04  0.15408986344E+04  0.50400000000E-02 0. -1.
         25    2    1    2    0    0 -0.39875454980E+02 -0.60853300480E+02 -0.86930213863E+03  0.88125149077E+03  0.12499922268E+03 0.  0.
         23    2    1    2    0    0  0.39875454980E+02  0.60853300480E+02 -0.66020805270E+03  0.67103558776E+03  0.95503461172E+02 0.  0.
        -11    1    4    4    0    0 -0.12052135702E+02  0.66377698758E+02 -0.39816858979E+03  0.40384338396E+03  0.51100000000E-03 0.  1.
         11    1    4    4    0    0  0.51927590681E+02 -0.55243982789E+01 -0.26203946291E+03  0.26719220380E+03  0.51100000000E-03 0. -1.
    9000005    1    3    3    0    0  0.19449095556E+02  0.30101844749E+02 -0.19723707365E+03  0.20046907891E+03  0.10000000000E+01 0.  0.
    9000005    1    3    3    0    0 -0.59324550536E+02 -0.90955145228E+02 -0.67206506498E+03  0.68078241186E+03  0.10000000000E+01 0.  0.
<mgrwt>
<rscale>  0 0.13805219E+03</rscale>
<asrwt>0</asrwt>
<pdfrwt beam="2">  1        1 0.23706116E+00 0.14463050E+03</pdfrwt>
<pdfrwt beam="1">  1       -1 0.17520695E-02 0.14463050E+03</pdfrwt>
<totfact> 0.55076021E+03</totfact>
</mgrwt>
</event>
<event>
 8    2  0.7478846E-004  0.1360731E+03  0.7818608E-02  0.1230782E+00
          1   -1    0    0  501    0  0.00000000000E+00  0.00000000000E+00  0.39935589679E+02  0.39935589997E+02  0.50400000000E-02 0. -1.
         -1   -1    0    0    0  501 -0.00000000000E+00 -0.00000000000E+00 -0.42690189628E+03  0.42690189631E+03  0.50400000000E-02 0.  1.
         25    2    1    2    0    0 -0.38154877513E+02 -0.37882673295E+02 -0.12689290570E+03  0.18605831922E+03  0.12499998809E+03 0.  0.
         23    2    1    2    0    0  0.38154877513E+02  0.37882673295E+02 -0.26007340090E+03  0.28077916708E+03  0.91147546295E+02 0.  0.
        -11    1    4    4    0    0  0.13202602482E+02  0.53893115211E+02 -0.23644431074E+03  0.24286763610E+03  0.51100000000E-03 0.  1.
         11    1    4    4    0    0  0.24952275032E+02 -0.16010441916E+02 -0.23629090158E+02  0.37911530984E+02  0.51100000000E-03 0. -1.
    9000005    1    3    3    0    0  0.42967391064E+02 -0.30477562467E+02 -0.35001729762E+02  0.63255036124E+02  0.10000000000E+01 0.  0.
    9000005    1    3    3    0    0 -0.81122268577E+02 -0.74051108275E+01 -0.91891175934E+02  0.12280328310E+03  0.10000000000E+01 0.  0.
<mgrwt>
<rscale>  0 0.12778371E+03</rscale>
<asrwt>0</asrwt>
<pdfrwt beam="1">  1        1 0.61439372E-02 0.13607310E+03</pdfrwt>
<pdfrwt beam="2">  1       -1 0.65677212E-01 0.13607310E+03</pdfrwt>
<totfact> 0.29363004E+03</totfact>
</mgrwt>
</event>
<event>
 8    2  0.7478846E-004  0.1588922E+03  0.7818608E-02  0.1197818E+00
          1   -1    0    0  501    0  0.00000000000E+00  0.00000000000E+00  0.42516249644E+03  0.42516249647E+03  0.50400000000E-02 0. -1.
         -1   -1    0    0    0  501 -0.00000000000E+00 -0.00000000000E+00 -0.52890045924E+02  0.52890046164E+02  0.50400000000E-02 0.  1.
         25    2    1    2    0    0 -0.57146198682E+02  0.79730653750E+02  0.25368504418E+03  0.29933731300E+03  0.12499624052E+03 0.  0.
         23    2    1    2    0    0  0.57146198682E+02 -0.79730653750E+02  0.11858740634E+03  0.17871522964E+03  0.90848748974E+02 0.  0.
        -11    1    4    4    0    0  0.31297509881E+02 -0.56530861607E+02  0.10854432881E+02  0.65521684596E+02  0.51100000000E-03 0.  1.
         11    1    4    4    0    0  0.25848688801E+02 -0.23199792143E+02  0.10773297346E+03  0.11319354504E+03  0.51100000000E-03 0. -1.
    9000005    1    3    3    0    0  0.94312115925E+01  0.66286817287E+02  0.47091298565E+02  0.81862569583E+02  0.10000000000E+01 0.  0.
    9000005    1    3    3    0    0 -0.66577410275E+02  0.13443836463E+02  0.20659374562E+03  0.21747474342E+03  0.10000000000E+01 0.  0.
<mgrwt>
<rscale>  0 0.15218126E+03</rscale>
<asrwt>0</asrwt>
<pdfrwt beam="1">  1        1 0.65409617E-01 0.15889218E+03</pdfrwt>
<pdfrwt beam="2">  1       -1 0.81369298E-02 0.15889218E+03</pdfrwt>
<totfact> 0.45618841E+03</totfact>
</mgrwt>
</event>
<event>
 8    2  0.7478846E-004  0.1322647E+03  0.7818608E-02  0.1237579E+00
         -1   -1    0    0    0  501 -0.00000000000E+00  0.00000000000E+00  0.92591305075E+02  0.92591305212E+02  0.50400000000E-02 0.  1.
          1   -1    0    0  501    0  0.00000000000E+00 -0.00000000000E+00 -0.15061517189E+03  0.15061517198E+03  0.50400000000E-02 0. -1.
         25    2    1    2    0    0  0.43149285068E+02  0.27154204972E+01 -0.54065832880E+02  0.14288827121E+03  0.12499883781E+03 0.  0.
         23    2    1    2    0    0 -0.43149285068E+02 -0.27154204972E+01 -0.39580339365E+01  0.10031820598E+03  0.90436951007E+02 0.  0.
        -11    1    4    4    0    0  0.23714135400E+02 -0.19685058630E+02 -0.55552527395E+01  0.31316490613E+02  0.51100000000E-03 0.  1.
         11    1    4    4    0    0 -0.66863420468E+02  0.16969638133E+02  0.15972188030E+01  0.69001715364E+02  0.51100000000E-03 0. -1.
    9000005    1    3    3    0    0  0.67022949307E+02 -0.26319040397E+02 -0.71465808413E+02  0.10145506095E+03  0.10000000000E+01 0.  0.
    9000005    1    3    3    0    0 -0.23873664239E+02  0.29034460894E+02  0.17399975533E+02  0.41433210256E+02  0.10000000000E+01 0.  0.
<mgrwt>
<rscale>  0 0.12340799E+03</rscale>
<asrwt>0</asrwt>
<pdfrwt beam="2">  1        1 0.23171565E-01 0.13226467E+03</pdfrwt>
<pdfrwt beam="1">  1       -1 0.14244816E-01 0.13226467E+03</pdfrwt>
<totfact> 0.69720939E+03</totfact>
</mgrwt>
</event>
<event>
 8    2  0.7478846E-004  0.1340627E+03  0.7818608E-02  0.1233936E+00
          1   -1    0    0  501    0  0.00000000000E+00  0.00000000000E+00  0.17299756636E+03  0.17299756643E+03  0.50400000000E-02 0. -1.
         -1   -1    0    0    0  501 -0.00000000000E+00 -0.00000000000E+00 -0.82532431715E+02  0.82532431869E+02  0.50400000000E-02 0.  1.
         25    2    1    2    0    0  0.47047916152E+02 -0.11368323445E+02  0.38205855279E+02  0.13940050505E+03  0.12502027131E+03 0.  0.
         23    2    1    2    0    0 -0.47047916152E+02  0.11368323445E+02  0.52259279361E+02  0.11612949325E+03  0.91718491761E+02 0.  0.
        -11    1    4    4    0    0 -0.20925843687E+02 -0.26376588199E+02 -0.13213081027E+02  0.36169059285E+02  0.51100000000E-03 0.  1.
         11    1    4    4    0    0 -0.26122072465E+02  0.37744911644E+02  0.65472360388E+02  0.79960433965E+02  0.51100000000E-03 0. -1.
    9000005    1    3    3    0    0 -0.19774059388E+02  0.33857103964E+02  0.43452974757E+02  0.58536124989E+02  0.10000000000E+01 0.  0.
    9000005    1    3    3    0    0  0.66821975540E+02 -0.45225427409E+02 -0.52471194776E+01  0.80864380059E+02  0.10000000000E+01 0.  0.
<mgrwt>
<rscale>  0 0.12572813E+03</rscale>
<asrwt>0</asrwt>
<pdfrwt beam="1">  1        1 0.26615010E-01 0.13406272E+03</pdfrwt>
<pdfrwt beam="2">  1       -1 0.12697297E-01 0.13406272E+03</pdfrwt>
<totfact> 0.70125446E+03</totfact>
</mgrwt>
</event>
<event>
 8    2  0.7478846E-004  0.1476872E+03  0.7818608E-02  0.1213384E+00
          1   -1    0    0  501    0  0.00000000000E+00  0.00000000000E+00  0.49265885986E+03  0.49265885989E+03  0.50400000000E-02 0. -1.
         -1   -1    0    0    0  501 -0.00000000000E+00 -0.00000000000E+00 -0.56553735841E+02  0.56553736066E+02  0.50400000000E-02 0.  1.
         25    2    1    2    0    0  0.43347868498E+02  0.65634645827E+02  0.68518495397E+02  0.16280756908E+03  0.12499830360E+03 0.  0.
         23    2    1    2    0    0 -0.43347868498E+02 -0.65634645827E+02  0.36758662863E+03  0.38640502687E+03  0.89453735596E+02 0.  0.
        -11    1    4    4    0    0 -0.12009569371E+02 -0.61021408473E+02  0.10592455378E+03  0.12283262247E+03  0.51100000000E-03 0.  1.
         11    1    4    4    0    0 -0.31338299126E+02 -0.46132373535E+01  0.26166207485E+03  0.26357240440E+03  0.51100000000E-03 0. -1.
    9000005    1    3    3    0    0  0.22736050841E+02  0.35197330938E+02  0.10374025680E+03  0.11188753726E+03  0.10000000000E+01 0.  0.
    9000005    1    3    3    0    0  0.20611817657E+02  0.30437314889E+02 -0.35221761402E+02  0.50920031825E+02  0.10000000000E+01 0.  0.
<mgrwt>
<rscale>  0 0.13995901E+03</rscale>
<asrwt>0</asrwt>
<pdfrwt beam="1">  1        1 0.75793671E-01 0.14768724E+03</pdfrwt>
<pdfrwt beam="2">  1       -1 0.87005747E-02 0.14768724E+03</pdfrwt>
<totfact> 0.33967264E+03</totfact>
</mgrwt>
</event>
<event>
 8    2  0.7478846E-004  0.1420316E+03  0.7818608E-02  0.1221700E+00
         -1   -1    0    0    0  501 -0.00000000000E+00  0.00000000000E+00  0.53919287177E+03  0.53919287179E+03  0.50400000000E-02 0.  1.
          1   -1    0    0  501    0  0.00000000000E+00 -0.00000000000E+00 -0.55636684422E+02  0.55636684650E+02  0.50400000000E-02 0. -1.
         25    2    1    2    0    0  0.21611947468E+02 -0.63875181761E+02  0.45807951386E+03  0.47959337268E+03  0.12500338789E+03 0.  0.
         23    2    1    2    0    0 -0.21611947468E+02  0.63875181761E+02  0.25476673485E+02  0.11523618376E+03  0.89906629551E+02 0.  0.
        -11    1    4    4    0    0  0.39549643857E+01  0.70016863776E+02 -0.10253054651E+02  0.70874029702E+02  0.51100000000E-03 0. -1.
         11    1    4    4    0    0 -0.25566911853E+02 -0.61416820145E+01  0.35729728136E+02  0.44362154057E+02  0.51100000000E-03 0.  1.
    9000005    1    3    3    0    0  0.20959129671E+02 -0.85075847433E+02  0.17493623490E+03  0.19565498004E+03  0.10000000000E+01 0.  0.
    9000005    1    3    3    0    0  0.65281779605E+00  0.21200665672E+02  0.28314327896E+03  0.28393839264E+03  0.10000000000E+01 0.  0.
<mgrwt>
<rscale>  0 0.13395700E+03</rscale>
<asrwt>0</asrwt>
<pdfrwt beam="2">  1        1 0.85594896E-02 0.14203155E+03</pdfrwt>
<pdfrwt beam="1">  1       -1 0.82952753E-01 0.14203155E+03</pdfrwt>
<totfact> 0.11784348E+03</totfact>
</mgrwt>
</event>
<event>
 8    2  0.7478846E-004  0.1419943E+03  0.7818608E-02  0.1221392E+00
          1   -1    0    0  501    0  0.00000000000E+00  0.00000000000E+00  0.93991855218E+02  0.93991855353E+02  0.50400000000E-02 0. -1.
         -1   -1    0    0    0  501 -0.00000000000E+00 -0.00000000000E+00 -0.17941491774E+03  0.17941491781E+03  0.50400000000E-02 0.  1.
         25    2    1    2    0    0 -0.21922973231E+02 -0.63680182624E+02 -0.72612796827E+02  0.15948352320E+03  0.12500637381E+03 0.  0.
         23    2    1    2    0    0  0.21922973231E+02  0.63680182624E+02 -0.12810265696E+02  0.11392324997E+03  0.90986930722E+02 0.  0.
        -11    1    4    4    0    0  0.57144362295E+02  0.39015335015E+02 -0.15255925677E+02  0.70854906513E+02  0.51100000000E-03 0. -1.
         11    1    4    4    0    0 -0.35221389064E+02  0.24664847609E+02  0.24456599808E+01  0.43068343457E+02  0.51100000000E-03 0.  1.
    9000005    1    3    3    0    0  0.26453869806E+02 -0.61589941946E+02 -0.86182784206E+02  0.10918608185E+03  0.10000000000E+01 0.  0.
    9000005    1    3    3    0    0 -0.48376843037E+02 -0.20902406786E+01  0.13569987378E+02  0.50297441344E+02  0.10000000000E+01 0.  0.
<mgrwt>
<rscale>  0 0.13417310E+03</rscale>
<asrwt>0</asrwt>
<pdfrwt beam="1">  1        1 0.14460285E-01 0.14199428E+03</pdfrwt>
<pdfrwt beam="2">  1       -1 0.27602295E-01 0.14199428E+03</pdfrwt>
<totfact> 0.44211526E+03</totfact>
</mgrwt>
</event>
<event>
 8    2  0.7478846E-004  0.1293192E+03  0.7818608E-02  0.1242068E+00
          1   -1    0    0  501    0  0.00000000000E+00  0.00000000000E+00  0.16948264529E+03  0.16948264536E+03  0.50400000000E-02 0. -1.
         -1   -1    0    0    0  501 -0.00000000000E+00 -0.00000000000E+00 -0.90944225002E+02  0.90944225142E+02  0.50400000000E-02 0.  1.
         25    2    1    2    0    0 -0.27222333030E+02  0.19185051166E+02 -0.82710649026E+01  0.12958347280E+03  0.12495736995E+03 0.  0.
         23    2    1    2    0    0  0.27222333030E+02 -0.19185051166E+02  0.86809485186E+02  0.13084339770E+03  0.92059689335E+02 0.  0.
        -11    1    4    4    0    0  0.58053154024E+01 -0.33758621720E+02 -0.57444528888E+01  0.34732477116E+02  0.51100000000E-03 0.  1.
         11    1    4    4    0    0  0.21417017628E+02  0.14573570554E+02  0.92553938075E+02  0.96110920587E+02  0.51100000000E-03 0. -1.
    9000005    1    3    3    0    0  0.42454478666E+02  0.37237206266E+02  0.37412424067E+01  0.56603791252E+02  0.10000000000E+01 0.  0.
    9000005    1    3    3    0    0 -0.69676811696E+02 -0.18052155100E+02 -0.12012307309E+02  0.72979681548E+02  0.10000000000E+01 0.  0.
<mgrwt>
<rscale>  0 0.12062611E+03</rscale>
<asrwt>0</asrwt>
<pdfrwt beam="1">  1        1 0.26074253E-01 0.12931924E+03</pdfrwt>
<pdfrwt beam="2">  1       -1 0.13991419E-01 0.12931924E+03</pdfrwt>
<totfact> 0.61729774E+03</totfact>
</mgrwt>
</event>
<event>
 8    2  0.7478846E-004  0.2715314E+03  0.7818608E-02  0.1102348E+00
          1   -1    0    0  501    0  0.00000000000E+00  0.00000000000E+00  0.33051274325E+03  0.33051274329E+03  0.50400000000E-02 0. -1.
         -1   -1    0    0    0  501 -0.00000000000E+00 -0.00000000000E+00 -0.22787025177E+03  0.22787025183E+03  0.50400000000E-02 0.  1.
         25    2    1    2    0    0 -0.63450752732E+02 -0.23254997830E+03 -0.20489645465E+02  0.27230338052E+03  0.12499526006E+03 0.  0.
         23    2    1    2    0    0  0.63450752732E+02  0.23254997830E+03  0.12313213694E+03  0.28607961460E+03  0.92598770555E+02 0.  0.
        -11    1    4    4    0    0 -0.39631216336E+01  0.14992100177E+03  0.56106491124E+02  0.16012479961E+03  0.51100000000E-03 0.  1.
         11    1    4    4    0    0  0.67413874366E+02  0.82628976537E+02  0.67025645817E+02  0.12595481499E+03  0.51100000000E-03 0. -1.
    9000005    1    3    3    0    0 -0.35541912175E+02 -0.13889794329E+03  0.49958474501E+02  0.15183120675E+03  0.10000000000E+01 0.  0.
    9000005    1    3    3    0    0 -0.27908840557E+02 -0.93652035020E+02 -0.70448119966E+02  0.12047217376E+03  0.10000000000E+01 0.  0.
<mgrwt>
<rscale>  0 0.26814180E+03</rscale>
<asrwt>0</asrwt>
<pdfrwt beam="1">  1        1 0.50848114E-01 0.27153141E+03</pdfrwt>
<pdfrwt beam="2">  1       -1 0.35056962E-01 0.27153141E+03</pdfrwt>
<totfact> 0.60636213E+02</totfact>
</mgrwt>
</event>
<event>
 8    2  0.7478846E-004  0.1769318E+03  0.7818608E-02  0.1177866E+00
         -1   -1    0    0    0  501 -0.00000000000E+00  0.00000000000E+00  0.39028211622E+02  0.39028211948E+02  0.50400000000E-02 0.  1.
          1   -1    0    0  501    0  0.00000000000E+00 -0.00000000000E+00 -0.68880109883E+03  0.68880109885E+03  0.50400000000E-02 0. -1.
         25    2    1    2    0    0  0.12518561700E+03 -0.28834484829E+01 -0.36515295981E+03  0.40576046939E+03  0.12500048591E+03 0.  0.
         23    2    1    2    0    0 -0.12518561700E+03  0.28834484829E+01 -0.28461992740E+03  0.32206884141E+03  0.83905199824E+02 0.  0.
        -11    1    4    4    0    0 -0.45145084596E+02 -0.66235451433E+01 -0.20025891912E+03  0.20539129656E+03  0.51100000000E-03 0. -1.
         11    1    4    4    0    0 -0.80040532406E+02  0.95069936262E+01 -0.84361008274E+02  0.11667754485E+03  0.51100000000E-03 0.  1.
    9000005    1    3    3    0    0  0.91216674852E+02  0.45292826861E+02 -0.30490513722E+03  0.32146549525E+03  0.10000000000E+01 0.  0.
    9000005    1    3    3    0    0  0.33968942150E+02 -0.48176275344E+02 -0.60247822596E+02  0.84294974135E+02  0.10000000000E+01 0.  0.
<mgrwt>
<rscale>  0 0.16998286E+03</rscale>
<asrwt>0</asrwt>
<pdfrwt beam="2">  1        1 0.10596939E+00 0.17693184E+03</pdfrwt>
<pdfrwt beam="1">  1       -1 0.60043408E-02 0.17693184E+03</pdfrwt>
<totfact> 0.37902773E+03</totfact>
</mgrwt>
</event>
<event>
 8    2  0.7478846E-004  0.2148552E+03  0.7818608E-02  0.1141281E+00
          1   -1    0    0  501    0  0.00000000000E+00  0.00000000000E+00  0.41031127829E+03  0.41031127833E+03  0.50400000000E-02 0. -1.
         -1   -1    0    0    0  501 -0.00000000000E+00 -0.00000000000E+00 -0.10378623539E+03  0.10378623551E+03  0.50400000000E-02 0.  1.
         25    2    1    2    0    0 -0.17358613484E+03 -0.20161714139E+02  0.17151373340E+03  0.27491768081E+03  0.12499651814E+03 0.  0.
         23    2    1    2    0    0  0.17358613484E+03  0.20161714139E+02  0.13501130950E+03  0.23917983303E+03  0.91871093980E+02 0.  0.
        -11    1    4    4    0    0  0.17942476330E+03  0.33767345843E+01  0.11962213192E+03  0.21567128336E+03  0.51100000000E-03 0.  1.
         11    1    4    4    0    0 -0.58386284523E+01  0.16784979555E+02  0.15389177582E+02  0.23508549674E+02  0.51100000000E-03 0. -1.
    9000005    1    3    3    0    0 -0.16932276532E+03  0.18181002231E+02  0.11145539757E+03  0.20352899878E+03  0.10000000000E+01 0.  0.
    9000005    1    3    3    0    0 -0.42633695226E+01 -0.38342716370E+02  0.60058335832E+02  0.71388682025E+02  0.10000000000E+01 0.  0.
<mgrwt>
<rscale>  0 0.21036002E+03</rscale>
<asrwt>0</asrwt>
<pdfrwt beam="1">  1        1 0.63124811E-01 0.21485523E+03</pdfrwt>
<pdfrwt beam="2">  1       -1 0.15967113E-01 0.21485523E+03</pdfrwt>
<totfact> 0.16949687E+03</totfact>
</mgrwt>
</event>
<event>
 8    2  0.7478846E-004  0.1635667E+03  0.7818608E-02  0.1191893E+00
          1   -1    0    0  501    0  0.00000000000E+00  0.00000000000E+00  0.25102215318E+03  0.25102215323E+03  0.50400000000E-02 0. -1.
         -1   -1    0    0    0  501 -0.00000000000E+00 -0.00000000000E+00 -0.95071031962E+02  0.95071032095E+02  0.50400000000E-02 0.  1.
         25    2    1    2    0    0  0.10455730940E+03  0.14060384249E+02  0.50519073922E+02  0.17119066313E+03  0.12499656379E+03 0.  0.
         23    2    1    2    0    0 -0.10455730940E+03 -0.14060384249E+02  0.10543204730E+03  0.17490252219E+03  0.91351246944E+02 0.  0.
        -11    1    4    4    0    0 -0.62596505890E+02 -0.39383242409E+02  0.20332532318E+02  0.76699245127E+02  0.51100000000E-03 0.  1.
         11    1    4    4    0    0 -0.41960803509E+02  0.25322858160E+02  0.85099514980E+02  0.98203277066E+02  0.51100000000E-03 0. -1.
    9000005    1    3    3    0    0 -0.27284902919E+02  0.14525734252E+02  0.16375615341E+02  0.34994623311E+02  0.10000000000E+01 0.  0.
    9000005    1    3    3    0    0  0.13184221232E+03 -0.46535000309E+00  0.34143458581E+02  0.13619603982E+03  0.10000000000E+01 0.  0.
<mgrwt>
<rscale>  0 0.15720118E+03</rscale>
<asrwt>0</asrwt>
<pdfrwt beam="1">  1        1 0.38618792E-01 0.16356670E+03</pdfrwt>
<pdfrwt beam="2">  1       -1 0.14626313E-01 0.16356670E+03</pdfrwt>
<totfact> 0.35790520E+03</totfact>
</mgrwt>
</event>
<event>
 8    2  0.7478846E-004  0.1857277E+03  0.7818608E-02  0.1167502E+00
          1   -1    0    0  501    0  0.00000000000E+00  0.00000000000E+00  0.45465380319E+02  0.45465380598E+02  0.50400000000E-02 0. -1.
         -1   -1    0    0    0  501 -0.00000000000E+00 -0.00000000000E+00 -0.68342134660E+03  0.68342134662E+03  0.50400000000E-02 0.  1.
         25    2    1    2    0    0 -0.13689002205E+03 -0.11461805523E+02 -0.30067713530E+03  0.35341411032E+03  0.12499817021E+03 0.  0.
         23    2    1    2    0    0  0.13689002205E+03  0.11461805523E+02 -0.33727883098E+03  0.37547261690E+03  0.91391602941E+02 0.  0.
        -11    1    4    4    0    0  0.58762309402E+02 -0.74037161584E+01 -0.24959576159E+03  0.25652654487E+03  0.51100000000E-03 0.  1.
         11    1    4    4    0    0  0.78127712651E+02  0.18865521682E+02 -0.87683069390E+02  0.11894607203E+03  0.51100000000E-03 0. -1.
    9000005    1    3    3    0    0 -0.17493802650E+02 -0.41595202887E+02 -0.25265894819E+02  0.51725810533E+02  0.10000000000E+01 0.  0.
    9000005    1    3    3    0    0 -0.11939621940E+03  0.30133397363E+02 -0.27541124048E+03  0.30168829978E+03  0.10000000000E+01 0.  0.
<mgrwt>
<rscale>  0 0.18031171E+03</rscale>
<asrwt>0</asrwt>
<pdfrwt beam="1">  1        1 0.69946744E-02 0.18572774E+03</pdfrwt>
<pdfrwt beam="2">  1       -1 0.10514174E+00 0.18572774E+03</pdfrwt>
<totfact> 0.93398598E+02</totfact>
</mgrwt>
</event>
<event>
 8    2  0.7478846E-004  0.1299090E+03  0.7818608E-02  0.1240623E+00
          1   -1    0    0  501    0  0.00000000000E+00  0.00000000000E+00  0.13418681370E+03  0.13418681379E+03  0.50400000000E-02 0. -1.
         -1   -1    0    0    0  501 -0.00000000000E+00 -0.00000000000E+00 -0.99600210119E+02  0.99600210247E+02  0.50400000000E-02 0.  1.
         25    2    1    2    0    0 -0.44368850169E+01 -0.35095891799E+02  0.48680569306E+01  0.13000017894E+03  0.12499976390E+03 0.  0.
         23    2    1    2    0    0  0.44368850169E+01  0.35095891799E+02  0.29718546648E+02  0.10378684510E+03  0.92936051300E+02 0.  0.
        -11    1    4    4    0    0 -0.99689662118E+01  0.44565481076E+02 -0.20966668008E+02  0.50250010532E+02  0.51100000000E-03 0.  1.
         11    1    4    4    0    0  0.14405851229E+02 -0.94695892765E+01  0.50685214656E+02  0.53536834569E+02  0.51100000000E-03 0. -1.
    9000005    1    3    3    0    0 -0.50126921176E+02  0.23632686701E+02  0.25289879942E-01  0.55427545020E+02  0.10000000000E+01 0.  0.
    9000005    1    3    3    0    0  0.45690036159E+02 -0.58728578501E+02  0.48427670507E+01  0.74572633919E+02  0.10000000000E+01 0.  0.
<mgrwt>
<rscale>  0 0.12151246E+03</rscale>
<asrwt>0</asrwt>
<pdfrwt beam="1">  1        1 0.20644125E-01 0.12990900E+03</pdfrwt>
<pdfrwt beam="2">  1       -1 0.15323109E-01 0.12990900E+03</pdfrwt>
<totfact> 0.71875605E+03</totfact>
</mgrwt>
</event>
<event>
 8    2  0.7478846E-004  0.2084833E+03  0.7818608E-02  0.1146751E+00
         -1   -1    0    0    0  501 -0.00000000000E+00  0.00000000000E+00  0.34083606532E+03  0.34083606535E+03  0.50400000000E-02 0. -1.
          1   -1    0    0  501    0  0.00000000000E+00 -0.00000000000E+00 -0.13452572981E+03  0.13452572990E+03  0.50400000000E-02 0.  1.
         25    2    1    2    0    0 -0.15270270072E+03  0.67246318737E+02  0.19784938099E+02  0.20942001305E+03  0.12500046360E+03 0.  0.
         23    2    1    2    0    0  0.15270270072E+03 -0.67246318737E+02  0.18652539741E+03  0.26594178221E+03  0.89961799981E+02 0.  0.
        -11    1    4    4    0    0  0.10620433551E+03 -0.77931201923E+01  0.14466703389E+03  0.17963475248E+03  0.51100000000E-03 0. -1.
         11    1    4    4    0    0  0.46498365208E+02 -0.59453198545E+02  0.41858363521E+02  0.86307029732E+02  0.51100000000E-03 0.  1.
    9000005    1    3    3    0    0 -0.86388682759E+02  0.85414378333E+02 -0.29252315570E+02  0.12496126800E+03  0.10000000000E+01 0.  0.
    9000005    1    3    3    0    0 -0.66314017960E+02 -0.18168059596E+02  0.49037253669E+02  0.84458745046E+02  0.10000000000E+01 0.  0.
<mgrwt>
<rscale>  0 0.20358260E+03</rscale>
<asrwt>0</asrwt>
<pdfrwt beam="2">  1        1 0.20696266E-01 0.20848333E+03</pdfrwt>
<pdfrwt beam="1">  1       -1 0.52436319E-01 0.20848333E+03</pdfrwt>
<totfact> 0.91577843E+02</totfact>
</mgrwt>
</event>
<event>
 8    2  0.7478846E-004  0.1382165E+03  0.7818608E-02  0.1226828E+00
          1   -1    0    0  501    0  0.00000000000E+00  0.00000000000E+00  0.11962998468E+04  0.11962998468E+04  0.50400000000E-02 0. -1.
         -1   -1    0    0    0  501 -0.00000000000E+00 -0.00000000000E+00 -0.12903132432E+02  0.12903133416E+02  0.50400000000E-02 0.  1.
         25    2    1    2    0    0 -0.24140499682E+02  0.53786541826E+02  0.70420079607E+03  0.71763679723E+03  0.12501222237E+03 0.  0.
         23    2    1    2    0    0  0.24140499682E+02 -0.53786541826E+02  0.47919591826E+03  0.49156618296E+03  0.92373309712E+02 0.  0.
        -11    1    4    4    0    0  0.24246113782E+02  0.14360333266E+02  0.27189581871E+03  0.27335220767E+03  0.51100000000E-03 0. -1.
         11    1    4    4    0    0 -0.10561409979E+00 -0.68146875092E+02  0.20730009955E+03  0.21821397529E+03  0.51100000000E-03 0.  1.
    9000005    1    3    3    0    0 -0.15794719008E+02  0.36936698577E+01  0.55962797839E+01  0.17188213781E+02  0.10000000000E+01 0.  0.
    9000005    1    3    3    0    0 -0.83457806743E+01  0.50092871968E+02  0.69860451629E+03  0.70044858345E+03  0.10000000000E+01 0.  0.
<mgrwt>
<rscale>  0 0.13042369E+03</rscale>
<asrwt>0</asrwt>
<pdfrwt beam="1">  1        1 0.18404616E+00 0.13821654E+03</pdfrwt>
<pdfrwt beam="2">  1       -1 0.19850971E-02 0.13821654E+03</pdfrwt>
<totfact> 0.77689344E+03</totfact>
</mgrwt>
</event>
<event>
 8    2  0.7478846E-004  0.1316425E+03  0.7818608E-02  0.1238404E+00
          1   -1    0    0  501    0  0.00000000000E+00  0.00000000000E+00  0.17424385879E+02  0.17424386608E+02  0.50400000000E-02 0. -1.
         -1   -1    0    0    0  501 -0.00000000000E+00 -0.00000000000E+00 -0.78394767141E+03  0.78394767142E+03  0.50400000000E-02 0.  1.
         25    2    1    2    0    0 -0.34793499609E+02 -0.22267920887E+02 -0.38117049661E+03  0.40326256701E+03  0.12499321004E+03 0.  0.
         23    2    1    2    0    0  0.34793499609E+02  0.22267920887E+02 -0.38535278892E+03  0.39810949102E+03  0.91038162289E+02 0.  0.
        -11    1    4    4    0    0  0.31985171462E+02  0.48518154200E+02 -0.34518663178E+03  0.35004410185E+03  0.51100000000E-03 0.  1.
         11    1    4    4    0    0  0.28083281464E+01 -0.26250233313E+02 -0.40166157141E+02  0.48065389166E+02  0.51100000000E-03 0. -1.
    9000005    1    3    3    0    0 -0.67906377812E+02  0.80434284248E+01 -0.32088799464E+03  0.32809461744E+03  0.10000000000E+01 0.  0.
    9000005    1    3    3    0    0  0.33112878203E+02 -0.30311349312E+02 -0.60282501967E+02  0.75167949575E+02  0.10000000000E+01 0.  0.
<mgrwt>
<rscale>  0 0.12289004E+03</rscale>
<asrwt>0</asrwt>
<pdfrwt beam="1">  1        1 0.26806754E-02 0.13164251E+03</pdfrwt>
<pdfrwt beam="2">  1       -1 0.12060731E+00 0.13164251E+03</pdfrwt>
<totfact> 0.25178516E+03</totfact>
</mgrwt>
</event>
<event>
 8    2  0.7478846E-004  0.1725634E+03  0.7818608E-02  0.1181468E+00
          1   -1    0    0  501    0  0.00000000000E+00  0.00000000000E+00  0.39431666996E+03  0.39431666999E+03  0.50400000000E-02 0. -1.
         -1   -1    0    0    0  501 -0.00000000000E+00 -0.00000000000E+00 -0.70822712229E+02  0.70822712408E+02  0.50400000000E-02 0.  1.
         25    2    1    2    0    0  0.11347534049E+03  0.35705048639E+02  0.11116026961E+03  0.20526745078E+03  0.12500646949E+03 0.  0.
         23    2    1    2    0    0 -0.11347534049E+03 -0.35705048639E+02  0.21233368812E+03  0.25987193162E+03  0.91084149747E+02 0.  0.
        -11    1    4    4    0    0 -0.53290201030E+02 -0.26812510812E+02  0.18271426851E+03  0.19220629589E+03  0.51100000000E-03 0. -1.
         11    1    4    4    0    0 -0.60185139455E+02 -0.88925378272E+01  0.29619419610E+02  0.67665635729E+02  0.51100000000E-03 0.  1.
    9000005    1    3    3    0    0  0.62428292673E+02  0.32424551062E+02 -0.12487093650E+02  0.71453276660E+02  0.10000000000E+01 0.  0.
    9000005    1    3    3    0    0  0.51047047813E+02  0.32804975770E+01  0.12364736326E+03  0.13381417412E+03  0.10000000000E+01 0.  0.
<mgrwt>
<rscale>  0 0.16657440E+03</rscale>
<asrwt>0</asrwt>
<pdfrwt beam="1">  1        1 0.60664102E-01 0.17256338E+03</pdfrwt>
<pdfrwt beam="2">  1       -1 0.10895802E-01 0.17256338E+03</pdfrwt>
<totfact> 0.32243296E+03</totfact>
</mgrwt>
</event>
<event>
 8    2  0.7478846E-004  0.1251404E+03  0.7818608E-02  0.1247929E+00
         -1   -1    0    0    0  501 -0.00000000000E+00  0.00000000000E+00  0.10223909960E+04  0.10223909960E+04  0.50400000000E-02 0. -1.
          1   -1    0    0  501    0  0.00000000000E+00 -0.00000000000E+00 -0.13822251135E+02  0.13822252054E+02  0.50400000000E-02 0.  1.
         25    2    1    2    0    0  0.48294718463E+01  0.34865294496E+01  0.75057511429E+03  0.76093568468E+03  0.12499853736E+03 0.  0.
         23    2    1    2    0    0 -0.48294718463E+01 -0.34865294496E+01  0.25799363060E+03  0.27527756341E+03  0.95820372584E+02 0.  0.
        -11    1    4    4    0    0 -0.19563065772E+02  0.34738408359E+02  0.20200771527E+03  0.20590431658E+03  0.51100000000E-03 0. -1.
         11    1    4    4    0    0  0.14733593926E+02 -0.38224937808E+02  0.55985915334E+02  0.69373246835E+02  0.51100000000E-03 0.  1.
    9000005    1    3    3    0    0  0.43857915789E+02 -0.31265845878E+02  0.17783109954E+03  0.18581165157E+03  0.10000000000E+01 0.  0.
    9000005    1    3    3    0    0 -0.39028443943E+02  0.34752375328E+02  0.57274401475E+03  0.57512403311E+03  0.10000000000E+01 0.  0.
<mgrwt>
<rscale>  0 0.11711754E+03</rscale>
<asrwt>0</asrwt>
<pdfrwt beam="2">  1        1 0.21265008E-02 0.12514038E+03</pdfrwt>
<pdfrwt beam="1">  1       -1 0.15729088E+00 0.12514038E+03</pdfrwt>
<totfact> 0.17876722E+03</totfact>
</mgrwt>
</event>
<event>
 8    2  0.7478846E-004  0.1274209E+03  0.7818608E-02  0.1246491E+00
          1   -1    0    0  501    0  0.00000000000E+00  0.00000000000E+00  0.16790192373E+04  0.16790192373E+04  0.50400000000E-02 0.  1.
         -1   -1    0    0    0  501 -0.00000000000E+00 -0.00000000000E+00 -0.76101057529E+01  0.76101074218E+01  0.50400000000E-02 0. -1.
         25    2    1    2    0    0 -0.27029545613E+01  0.24652509746E+02  0.78268034526E+03  0.79298462580E+03  0.12498416579E+03 0.  0.
         23    2    1    2    0    0  0.27029545613E+01 -0.24652509746E+02  0.88872878630E+03  0.89364471895E+03  0.90260599906E+02 0.  0.
        -11    1    4    4    0    0  0.26094484396E+00 -0.27780333340E+02  0.88921317259E+03  0.88964705435E+03  0.51100000000E-03 0.  1.
         11    1    4    4    0    0  0.24420097173E+01  0.31278235939E+01 -0.48438628218E+00  0.39976645964E+01  0.51100000000E-03 0. -1.
    9000005    1    3    3    0    0  0.31749843321E+02 -0.21639720964E+02  0.60384357310E+03  0.60506560871E+03  0.10000000000E+01 0.  0.
    9000005    1    3    3    0    0 -0.34452797882E+02  0.46292230710E+02  0.17883677217E+03  0.18791901709E+03  0.10000000000E+01 0.  0.
<mgrwt>
<rscale>  0 0.11796581E+03</rscale>
<asrwt>0</asrwt>
<pdfrwt beam="1">  1        1 0.25831103E+00 0.12742093E+03</pdfrwt>
<pdfrwt beam="2">  1       -1 0.11707839E-02 0.12742093E+03</pdfrwt>
<totfact> 0.79679510E+03</totfact>
</mgrwt>
</event>
<event>
 8    2  0.7478846E-004  0.1625105E+03  0.7818608E-02  0.1192602E+00
         -1   -1    0    0    0  501 -0.00000000000E+00  0.00000000000E+00  0.74068398069E+03  0.74068398071E+03  0.50400000000E-02 0.  1.
          1   -1    0    0  501    0  0.00000000000E+00 -0.00000000000E+00 -0.37984538576E+02  0.37984538911E+02  0.50400000000E-02 0. -1.
         25    2    1    2    0    0  0.10382790820E+03  0.13556360734E+01  0.20483665501E+03  0.26147222672E+03  0.12501039092E+03 0.  0.
         23    2    1    2    0    0 -0.10382790820E+03 -0.13556360734E+01  0.49786278711E+03  0.51719629290E+03  0.94034984646E+02 0.  0.
        -11    1    4    4    0    0 -0.77092994682E+02  0.31110733466E+02  0.20321667986E+03  0.21956371863E+03  0.51100000000E-03 0. -1.
         11    1    4    4    0    0 -0.26734913518E+02 -0.32466369539E+02  0.29464610725E+03  0.29763257427E+03  0.51100000000E-03 0.  1.
    9000005    1    3    3    0    0  0.74428443621E+02 -0.44590762222E+01  0.21674112512E+03  0.22920992976E+03  0.10000000000E+01 0.  0.
    9000005    1    3    3    0    0  0.29399464578E+02  0.58147122957E+01 -0.11904470111E+02  0.32262296960E+02  0.10000000000E+01 0.  0.
<mgrwt>
<rscale>  0 0.15658904E+03</rscale>
<asrwt>0</asrwt>
<pdfrwt beam="2">  1        1 0.58437751E-02 0.16251052E+03</pdfrwt>
<pdfrwt beam="1">  1       -1 0.11395138E+00 0.16251052E+03</pdfrwt>
<totfact> 0.99016116E+02</totfact>
</mgrwt>
</event>
<event>
 8    2  0.7478846E-004  0.1325779E+03  0.7818608E-02  0.1236762E+00
         -1   -1    0    0    0  501 -0.00000000000E+00  0.00000000000E+00  0.77141053649E+01  0.77141070113E+01  0.50400000000E-02 0.  1.
          1   -1    0    0  501    0  0.00000000000E+00 -0.00000000000E+00 -0.23597145202E+04  0.23597145202E+04  0.50400000000E-02 0. -1.
         25    2    1    2    0    0 -0.83449426725E+01 -0.43382753597E+02 -0.70734217495E+03  0.71965953862E+03  0.12500079073E+03 0.  0.
         23    2    1    2    0    0  0.83449426725E+01  0.43382753597E+02 -0.16446582399E+04  0.16477690886E+04  0.91052413151E+02 0.  0.
        -11    1    4    4    0    0 -0.28258319170E+01  0.70045190455E+02 -0.99395414330E+03  0.99642317969E+03  0.51100000000E-03 0.  1.
         11    1    4    4    0    0  0.11170774589E+02 -0.26662436858E+02 -0.65070409657E+03  0.65134590889E+03  0.51100000000E-03 0. -1.
    9000005    1    3    3    0    0  0.17239036911E+02 -0.77191908100E+02 -0.30506523464E+03  0.31515325233E+03  0.10000000000E+01 0.  0.
    9000005    1    3    3    0    0 -0.25583979584E+02  0.33809154503E+02 -0.40227694032E+03  0.40450628629E+03  0.10000000000E+01 0.  0.
<mgrwt>
<rscale>  0 0.12392323E+03</rscale>
<asrwt>0</asrwt>
<pdfrwt beam="2">  1        1 0.36303243E+00 0.13257790E+03</pdfrwt>
<pdfrwt beam="1">  1       -1 0.11867874E-02 0.13257790E+03</pdfrwt>
<totfact> 0.28817979E+03</totfact>
</mgrwt>
</event>
<event>
 8    2  0.7478846E-004  0.1403295E+03  0.7818608E-02  0.1224011E+00
          1   -1    0    0  501    0  0.00000000000E+00  0.00000000000E+00  0.66205127519E+03  0.66205127521E+03  0.50400000000E-02 0. -1.
         -1   -1    0    0    0  501 -0.00000000000E+00 -0.00000000000E+00 -0.33248018083E+02  0.33248018465E+02  0.50400000000E-02 0.  1.
         25    2    1    2    0    0  0.12930099777E+02 -0.62451377883E+02  0.52455021516E+03  0.54299658891E+03  0.12500002105E+03 0.  0.
         23    2    1    2    0    0 -0.12930099777E+02  0.62451377883E+02  0.10425304194E+03  0.15230270476E+03  0.90884844960E+02 0.  0.
        -11    1    4    4    0    0 -0.25533699349E+02  0.65108901409E+02  0.28596084923E+02  0.75557097075E+02  0.51100000000E-03 0.  1.
         11    1    4    4    0    0  0.12603599572E+02 -0.26575235264E+01  0.75656957016E+02  0.76745607683E+02  0.51100000000E-03 0. -1.
    9000005    1    3    3    0    0  0.26271616743E+02 -0.89808304485E+02  0.25312761004E+03  0.26987092538E+03  0.10000000000E+01 0.  0.
    9000005    1    3    3    0    0 -0.13341516966E+02  0.27356926602E+02  0.27142260512E+03  0.27312566353E+03  0.10000000000E+01 0.  0.
<mgrwt>
<rscale>  0 0.13234902E+03</rscale>
<asrwt>0</asrwt>
<pdfrwt beam="1">  1        1 0.10185403E+00 0.14032950E+03</pdfrwt>
<pdfrwt beam="2">  1       -1 0.51150802E-02 0.14032950E+03</pdfrwt>
<totfact> 0.50435480E+03</totfact>
</mgrwt>
</event>
<event>
 8    2  0.7478846E-004  0.1635109E+03  0.7818608E-02  0.1193110E+00
         -1   -1    0    0    0  501 -0.00000000000E+00  0.00000000000E+00  0.22112192121E+02  0.22112192695E+02  0.50400000000E-02 0.  1.
          1   -1    0    0  501    0  0.00000000000E+00 -0.00000000000E+00 -0.10572866744E+04  0.10572866744E+04  0.50400000000E-02 0. -1.
         25    2    1    2    0    0  0.38732937916E+02  0.98034730746E+02 -0.45475071349E+03  0.48325356646E+03  0.12499899666E+03 0.  0.
         23    2    1    2    0    0 -0.38732937916E+02 -0.98034730746E+02 -0.58042376876E+03  0.59614530061E+03  0.85944279579E+02 0.  0.
        -11    1    4    4    0    0 -0.23922827753E+02 -0.10392662138E+02 -0.31818916773E+03  0.31925641039E+03  0.51100000000E-03 0. -1.
         11    1    4    4    0    0 -0.14810110164E+02 -0.87642068608E+02 -0.26223460103E+03  0.27688889023E+03  0.51100000000E-03 0.  1.
    9000005    1    3    3    0    0  0.26292709005E+02 -0.27038882247E+02 -0.98433549956E+02  0.10541618214E+03  0.10000000000E+01 0.  0.
    9000005    1    3    3    0    0  0.12440228911E+02  0.12507361299E+03 -0.35631716353E+03  0.37783738432E+03  0.10000000000E+01 0.  0.
<mgrwt>
<rscale>  0 0.15615251E+03</rscale>
<asrwt>0</asrwt>
<pdfrwt beam="2">  1        1 0.16265945E+00 0.16351085E+03</pdfrwt>
<pdfrwt beam="1">  1       -1 0.34018766E-02 0.16351085E+03</pdfrwt>
<totfact> 0.44708945E+03</totfact>
</mgrwt>
</event>
<event>
 8    2  0.7478846E-004  0.2152580E+03  0.7818608E-02  0.1140900E+00
         -1   -1    0    0    0  501 -0.00000000000E+00  0.00000000000E+00  0.43715330014E+02  0.43715330304E+02  0.50400000000E-02 0.  1.
          1   -1    0    0  501    0  0.00000000000E+00 -0.00000000000E+00 -0.10085164849E+04  0.10085164849E+04  0.50400000000E-02 0. -1.
         25    2    1    2    0    0 -0.16436407519E+03  0.60784223142E+02 -0.59423615825E+03  0.63202263681E+03  0.12500292268E+03 0.  0.
         23    2    1    2    0    0  0.16436407519E+03 -0.60784223142E+02 -0.37056499660E+03  0.42020917836E+03  0.92450342781E+02 0.  0.
        -11    1    4    4    0    0  0.74531210972E+02 -0.52673324315E+02 -0.10184147674E+03  0.13675184419E+03  0.51100000000E-03 0.  1.
         11    1    4    4    0    0  0.89832864220E+02 -0.81108988264E+01 -0.26872351986E+03  0.28345733418E+03  0.51100000000E-03 0. -1.
    9000005    1    3    3    0    0  0.25867263453E+01  0.43410135997E+02 -0.79680335980E+02  0.90780432927E+02  0.10000000000E+01 0.  0.
    9000005    1    3    3    0    0 -0.16695080154E+03  0.17374087145E+02 -0.51455582227E+03  0.54124220389E+03  0.10000000000E+01 0.  0.
<mgrwt>
<rscale>  0 0.21084318E+03</rscale>
<asrwt>0</asrwt>
<pdfrwt beam="2">  1        1 0.15515637E+00 0.21525799E+03</pdfrwt>
<pdfrwt beam="1">  1       -1 0.67254362E-02 0.21525799E+03</pdfrwt>
<totfact> 0.17674957E+03</totfact>
</mgrwt>
</event>
<event>
 8    2  0.7478846E-004  0.1505713E+03  0.7818608E-02  0.1208514E+00
          1   -1    0    0  501    0  0.00000000000E+00  0.00000000000E+00  0.54436475080E+02  0.54436475313E+02  0.50400000000E-02 0. -1.
         -1   -1    0    0    0  501 -0.00000000000E+00 -0.00000000000E+00 -0.34816400750E+03  0.34816400754E+03  0.50400000000E-02 0.  1.
         25    2    1    2    0    0 -0.57655478022E+02 -0.61015909799E+02 -0.16508332785E+03  0.22343725755E+03  0.12499843012E+03 0.  0.
         23    2    1    2    0    0  0.57655478022E+02  0.61015909799E+02 -0.12864420457E+03  0.17916322530E+03  0.92211900181E+02 0.  0.
        -11    1    4    4    0    0  0.76094613848E+02  0.25439169452E+02 -0.61992567522E+02  0.10139339242E+03  0.51100000000E-03 0.  1.
         11    1    4    4    0    0 -0.18439135826E+02  0.35576740347E+02 -0.66651637046E+02  0.77769832871E+02  0.51100000000E-03 0. -1.
    9000005    1    3    3    0    0 -0.87922342897E+02 -0.72407386442E+02 -0.14828032111E+03  0.18697920103E+03  0.10000000000E+01 0.  0.
    9000005    1    3    3    0    0  0.30266864875E+02  0.11391476643E+02 -0.16803006747E+02  0.36458056520E+02  0.10000000000E+01 0.  0.
<mgrwt>
<rscale>  0 0.14363931E+03</rscale>
<asrwt>0</asrwt>
<pdfrwt beam="1">  1        1 0.83748426E-02 0.15057126E+03</pdfrwt>
<pdfrwt beam="2">  1       -1 0.53563692E-01 0.15057126E+03</pdfrwt>
<totfact> 0.28610531E+03</totfact>
</mgrwt>
</event>
<event>
 8    2  0.7478846E-004  0.1306754E+03  0.7818608E-02  0.1238659E+00
          1   -1    0    0  501    0  0.00000000000E+00  0.00000000000E+00  0.56928845563E+03  0.56928845565E+03  0.50400000000E-02 0. -1.
         -1   -1    0    0    0  501 -0.00000000000E+00 -0.00000000000E+00 -0.29107024511E+02  0.29107024947E+02  0.50400000000E-02 0.  1.
         25    2    1    2    0    0  0.10012847696E+02 -0.36759634298E+02  0.16951650129E+03  0.21403713574E+03  0.12499809371E+03 0.  0.
         23    2    1    2    0    0 -0.10012847696E+02  0.36759634298E+02  0.37066492983E+03  0.38435834486E+03  0.94272579409E+02 0.  0.
        -11    1    4    4    0    0  0.19584031891E+02  0.19277416337E+02  0.32986734589E+03  0.33100999829E+03  0.51100000000E-03 0. -1.
         11    1    4    4    0    0 -0.29596879587E+02  0.17482217961E+02  0.40797583935E+02  0.53348346566E+02  0.51100000000E-03 0.  1.
    9000005    1    3    3    0    0  0.24112446729E+02  0.91520926954E+01  0.16361424059E+03  0.16563752779E+03  0.10000000000E+01 0.  0.
    9000005    1    3    3    0    0 -0.14099599033E+02 -0.45911726994E+02  0.59022607051E+01  0.48399607952E+02  0.10000000000E+01 0.  0.
<mgrwt>
<rscale>  0 0.12273101E+03</rscale>
<asrwt>0</asrwt>
<pdfrwt beam="1">  1        1 0.87582839E-01 0.13067537E+03</pdfrwt>
<pdfrwt beam="2">  1       -1 0.44780038E-02 0.13067537E+03</pdfrwt>
<totfact> 0.75205798E+03</totfact>
</mgrwt>
</event>
<event>
 8    2  0.7478846E-004  0.1365233E+03  0.7818608E-02  0.1231056E+00
          1   -1    0    0  501    0  0.00000000000E+00  0.00000000000E+00  0.64355280338E+03  0.64355280340E+03  0.50400000000E-02 0. -1.
         -1   -1    0    0    0  501 -0.00000000000E+00 -0.00000000000E+00 -0.32506247173E+02  0.32506247563E+02  0.50400000000E-02 0.  1.
         25    2    1    2    0    0 -0.42330764390E+02  0.35026872770E+02  0.14765448713E+03  0.20109811610E+03  0.12497931548E+03 0.  0.
         23    2    1    2    0    0  0.42330764390E+02 -0.35026872770E+02  0.46339206908E+03  0.47496093487E+03  0.88526292921E+02 0.  0.
        -11    1    4    4    0    0  0.80177176347E+01  0.29780442296E+02  0.13306766689E+03  0.13659488465E+03  0.51100000000E-03 0.  1.
         11    1    4    4    0    0  0.34313046755E+02 -0.64807315066E+02  0.33032440219E+03  0.33836605022E+03  0.51100000000E-03 0. -1.
    9000005    1    3    3    0    0  0.36404319104E+01 -0.14933502615E+02  0.13004216996E+03  0.13095124365E+03  0.10000000000E+01 0.  0.
    9000005    1    3    3    0    0 -0.45971196300E+02  0.49960375385E+02  0.17612317170E+02  0.70146872446E+02  0.10000000000E+01 0.  0.
<mgrwt>
<rscale>  0 0.12760337E+03</rscale>
<asrwt>0</asrwt>
<pdfrwt beam="1">  1        1 0.99008120E-01 0.13652328E+03</pdfrwt>
<pdfrwt beam="2">  1       -1 0.50009613E-02 0.13652328E+03</pdfrwt>
<totfact> 0.54183419E+03</totfact>
</mgrwt>
</event>
<event>
 8    2  0.7478846E-004  0.1527737E+03  0.7818608E-02  0.1204951E+00
          1   -1    0    0  501    0  0.00000000000E+00  0.00000000000E+00  0.15508891878E+03  0.15508891886E+03  0.50400000000E-02 0. -1.
         -1   -1    0    0    0  501 -0.00000000000E+00 -0.00000000000E+00 -0.13110242856E+03  0.13110242865E+03  0.50400000000E-02 0.  1.
         25    2    1    2    0    0 -0.34169879820E+02  0.80916131655E+02 -0.93959722823E+01  0.15306239810E+03  0.12499924946E+03 0.  0.
         23    2    1    2    0    0  0.34169879820E+02 -0.80916131655E+02  0.33382462504E+02  0.13312894942E+03  0.94307620700E+02 0.  0.
        -11    1    4    4    0    0 -0.21965951138E+02 -0.18669055193E+02 -0.18777667888E+02  0.34404032362E+02  0.51100000000E-03 0.  1.
         11    1    4    4    0    0  0.56135830958E+02 -0.62247076461E+02  0.52160130392E+02  0.98724917058E+02  0.51100000000E-03 0. -1.
    9000005    1    3    3    0    0 -0.48505812372E+02  0.33449704707E+02 -0.58667160883E+02  0.83153667056E+02  0.10000000000E+01 0.  0.
    9000005    1    3    3    0    0  0.14335932552E+02  0.47466426948E+02  0.49271188601E+02  0.69908731039E+02  0.10000000000E+01 0.  0.
<mgrwt>
<rscale>  0 0.14641286E+03</rscale>
<asrwt>0</asrwt>
<pdfrwt beam="1">  1        1 0.23859834E-01 0.15277373E+03</pdfrwt>
<pdfrwt beam="2">  1       -1 0.20169604E-01 0.15277373E+03</pdfrwt>
<totfact> 0.39068914E+03</totfact>
</mgrwt>
</event>
<event>
 8    2  0.7478846E-004  0.1695879E+03  0.7818608E-02  0.1185891E+00
          1   -1    0    0  501    0  0.00000000000E+00  0.00000000000E+00  0.67197435077E+03  0.67197435079E+03  0.50400000000E-02 0. -1.
         -1   -1    0    0    0  501 -0.00000000000E+00 -0.00000000000E+00 -0.40216970717E+02  0.40216971032E+02  0.50400000000E-02 0.  1.
         25    2    1    2    0    0 -0.22709723377E+02  0.11233290840E+03  0.23014554769E+03  0.28587938878E+03  0.12500255183E+03 0.  0.
         23    2    1    2    0    0  0.22709723377E+02 -0.11233290840E+03  0.40161183236E+03  0.42631193304E+03  0.85530032826E+02 0.  0.
        -11    1    4    4    0    0 -0.12000530863E+02 -0.10670102126E+03  0.31669672028E+03  0.33440384764E+03  0.51100000000E-03 0. -1.
         11    1    4    4    0    0  0.34710254240E+02 -0.56318871347E+01  0.84915112076E+02  0.91908085396E+02  0.51100000000E-03 0.  1.
    9000005    1    3    3    0    0  0.51112928255E+02  0.33007805112E+02  0.73856986831E+02  0.95696923340E+02  0.10000000000E+01 0.  0.
    9000005    1    3    3    0    0 -0.73822651632E+02  0.79325103284E+02  0.15628856086E+03  0.19018246544E+03  0.10000000000E+01 0.  0.
<mgrwt>
<rscale>  0 0.16251081E+03</rscale>
<asrwt>0</asrwt>
<pdfrwt beam="1">  1        1 0.10338067E+00 0.16958789E+03</pdfrwt>
<pdfrwt beam="2">  1       -1 0.61872265E-02 0.16958789E+03</pdfrwt>
<totfact> 0.37482039E+03</totfact>
</mgrwt>
</event>
<event>
 8    2  0.7478846E-004  0.2617119E+03  0.7818608E-02  0.1108368E+00
         -1   -1    0    0    0  501 -0.00000000000E+00  0.00000000000E+00  0.40251993787E+02  0.40251994102E+02  0.50400000000E-02 0.  1.
          1   -1    0    0  501    0  0.00000000000E+00 -0.00000000000E+00 -0.16127540363E+04  0.16127540363E+04  0.50400000000E-02 0. -1.
         25    2    1    2    0    0  0.49328131147E+02  0.22458029797E+03 -0.85483559321E+03  0.89400057109E+03  0.12499421953E+03 0.  0.
         23    2    1    2    0    0 -0.49328131147E+02 -0.22458029797E+03 -0.71766644931E+03  0.75900545933E+03  0.90413384380E+02 0.  0.
        -11    1    4    4    0    0 -0.14532562486E+02 -0.10388098843E+03 -0.46688803416E+03  0.47852574808E+03  0.51100000000E-03 0. -1.
         11    1    4    4    0    0 -0.34795568661E+02 -0.12069930954E+03 -0.25077841514E+03  0.28047971125E+03  0.51100000000E-03 0.  1.
    9000005    1    3    3    0    0 -0.25237036756E+02  0.22704115436E+02 -0.24421852886E+03  0.24656860044E+03  0.10000000000E+01 0.  0.
    9000005    1    3    3    0    0  0.74565167903E+02  0.20187618254E+03 -0.61061706435E+03  0.64743197065E+03  0.10000000000E+01 0.  0.
<mgrwt>
<rscale>  0 0.25797234E+03</rscale>
<asrwt>0</asrwt>
<pdfrwt beam="2">  1        1 0.24811596E+00 0.26171192E+03</pdfrwt>
<pdfrwt beam="1">  1       -1 0.61926157E-02 0.26171192E+03</pdfrwt>
<totfact> 0.76893868E+02</totfact>
</mgrwt>
</event>
<event>
 8    2  0.7478846E-004  0.1280073E+03  0.7818608E-02  0.1245177E+00
         -1   -1    0    0    0  501 -0.00000000000E+00  0.00000000000E+00  0.21694459783E+03  0.21694459789E+03  0.50400000000E-02 0.  1.
          1   -1    0    0  501    0  0.00000000000E+00 -0.00000000000E+00 -0.57716494513E+02  0.57716494733E+02  0.50400000000E-02 0. -1.
         25    2    1    2    0    0 -0.54142467811E+01 -0.27056864796E+02  0.78606747108E+02  0.15021613400E+03  0.12499791287E+03 0.  0.
         23    2    1    2    0    0  0.54142467811E+01  0.27056864796E+02  0.80621356212E+02  0.12444495862E+03  0.90693751982E+02 0.  0.
        -11    1    4    4    0    0 -0.77248745989E+01 -0.22164473812E+02 -0.57520994910E+01  0.24166593383E+02  0.51100000000E-03 0. -1.
         11    1    4    4    0    0  0.13139121380E+02  0.49221338608E+02  0.86373455703E+02  0.10027836524E+03  0.51100000000E-03 0.  1.
    9000005    1    3    3    0    0 -0.18891907574E+02  0.47984241361E+02  0.27833244964E+02  0.58609565056E+02  0.10000000000E+01 0.  0.
    9000005    1    3    3    0    0  0.13477660792E+02 -0.75041106157E+02  0.50773502143E+02  0.91606568944E+02  0.10000000000E+01 0.  0.
<mgrwt>
<rscale>  0 0.11874801E+03</rscale>
<asrwt>0</asrwt>
<pdfrwt beam="2">  1        1 0.88794608E-02 0.12800729E+03</pdfrwt>
<pdfrwt beam="1">  1       -1 0.33376092E-01 0.12800729E+03</pdfrwt>
<totfact> 0.60602592E+03</totfact>
</mgrwt>
</event>
<event>
 8    2  0.7478846E-004  0.2068588E+03  0.7818608E-02  0.1148078E+00
         -1   -1    0    0    0  501 -0.00000000000E+00  0.00000000000E+00  0.27406945884E+02  0.27406946347E+02  0.50400000000E-02 0.  1.
          1   -1    0    0  501    0  0.00000000000E+00 -0.00000000000E+00 -0.14421758484E+04  0.14421758484E+04  0.50400000000E-02 0. -1.
         25    2    1    2    0    0 -0.41876218607E+02  0.15941139831E+03 -0.65472484499E+03  0.68662593475E+03  0.12499976011E+03 0.  0.
         23    2    1    2    0    0  0.41876218607E+02 -0.15941139831E+03 -0.76004405754E+03  0.78295686002E+03  0.90492340313E+02 0.  0.
        -11    1    4    4    0    0  0.36713487854E+02 -0.12218917981E+03 -0.37554713269E+03  0.39662794244E+03  0.51100000000E-03 0.  1.
         11    1    4    4    0    0  0.51627307528E+01 -0.37222218501E+02 -0.38449692485E+03  0.38632891758E+03  0.51100000000E-03 0. -1.
    9000005    1    3    3    0    0  0.41499610959E+02  0.86865720528E+02 -0.31310162556E+03  0.32756907522E+03  0.10000000000E+01 0.  0.
    9000005    1    3    3    0    0 -0.83375829566E+02  0.72545677782E+02 -0.34162321943E+03  0.35905685953E+03  0.10000000000E+01 0.  0.
<mgrwt>
<rscale>  0 0.20198123E+03</rscale>
<asrwt>0</asrwt>
<pdfrwt beam="2">  1        1 0.22187315E+00 0.20685877E+03</pdfrwt>
<pdfrwt beam="1">  1       -1 0.42164544E-02 0.20685877E+03</pdfrwt>
<totfact> 0.17789229E+03</totfact>
</mgrwt>
</event>
<event>
 8    2  0.7478846E-004  0.1300124E+03  0.7818608E-02  0.1243217E+00
          1   -1    0    0  501    0  0.00000000000E+00  0.00000000000E+00  0.28825563093E+03  0.28825563097E+03  0.50400000000E-02 0. -1.
         -1   -1    0    0    0  501 -0.00000000000E+00 -0.00000000000E+00 -0.56270038925E+02  0.56270039151E+02  0.50400000000E-02 0.  1.
         25    2    1    2    0    0  0.26604424427E+02 -0.23876003771E+02  0.49355028254E+02  0.13906520221E+03  0.12500141078E+03 0.  0.
         23    2    1    2    0    0 -0.26604424427E+02  0.23876003771E+02  0.18263056375E+03  0.20546046792E+03  0.87075955957E+02 0.  0.
        -11    1    4    4    0    0  0.33444411578E+01  0.16969615658E+01 -0.92568195662E+01  0.99876761039E+01  0.51100000000E-03 0.  1.
         11    1    4    4    0    0 -0.29948865584E+02  0.22179042205E+02  0.19188738332E+03  0.19547279181E+03  0.51100000000E-03 0. -1.
    9000005    1    3    3    0    0 -0.44960552868E+02 -0.24632506355E+02  0.43514763541E+02  0.67251366749E+02  0.10000000000E+01 0.  0.
    9000005    1    3    3    0    0  0.71564977295E+02  0.75650258400E+00  0.58402647125E+01  0.71813835458E+02  0.10000000000E+01 0.  0.
<mgrwt>
<rscale>  0 0.11992733E+03</rscale>
<asrwt>0</asrwt>
<pdfrwt beam="1">  1        1 0.44347022E-01 0.13001235E+03</pdfrwt>
<pdfrwt beam="2">  1       -1 0.86569288E-02 0.13001235E+03</pdfrwt>
<totfact> 0.66778185E+03</totfact>
</mgrwt>
</event>
<event>
 8    2  0.7478846E-004  0.2278816E+03  0.7818608E-02  0.1130590E+00
         -1   -1    0    0    0  501 -0.00000000000E+00  0.00000000000E+00  0.33543742431E+02  0.33543742809E+02  0.50400000000E-02 0.  1.
          1   -1    0    0  501    0  0.00000000000E+00 -0.00000000000E+00 -0.16572804553E+04  0.16572804553E+04  0.50400000000E-02 0. -1.
         25    2    1    2    0    0 -0.54256263262E+02 -0.18265084031E+03 -0.54104352054E+03  0.58707591123E+03  0.12499985144E+03 0.  0.
         23    2    1    2    0    0  0.54256263262E+02  0.18265084031E+03 -0.10826931923E+04  0.11037482869E+04  0.98644110407E+02 0.  0.
        -11    1    4    4    0    0  0.57954886429E+02  0.94120815095E+02 -0.38833397558E+03  0.40375831048E+03  0.51100000000E-03 0.  1.
         11    1    4    4    0    0 -0.36986231669E+01  0.88530025216E+02 -0.69435921672E+03  0.69998997637E+03  0.51100000000E-03 0. -1.
    9000005    1    3    3    0    0 -0.42063374816E+02 -0.20051872246E+03 -0.46784976264E+03  0.51074600925E+03  0.10000000000E+01 0.  0.
    9000005    1    3    3    0    0 -0.12192888446E+02  0.17867882153E+02 -0.73193757897E+02  0.76329901981E+02  0.10000000000E+01 0.  0.
<mgrwt>
<rscale>  0 0.22447546E+03</rscale>
<asrwt>0</asrwt>
<pdfrwt beam="2">  1        1 0.25496616E+00 0.22788162E+03</pdfrwt>
<pdfrwt beam="1">  1       -1 0.51605771E-02 0.22788162E+03</pdfrwt>
<totfact> 0.94958538E+02</totfact>
</mgrwt>
</event>
<event>
 8    2  0.7478846E-004  0.1502193E+03  0.7818608E-02  0.1209418E+00
         -1   -1    0    0    0  501 -0.00000000000E+00  0.00000000000E+00  0.93582324952E+02  0.93582325088E+02  0.50400000000E-02 0.  1.
          1   -1    0    0  501    0  0.00000000000E+00 -0.00000000000E+00 -0.19994179374E+03  0.19994179380E+03  0.50400000000E-02 0. -1.
         25    2    1    2    0    0  0.18258764574E+01 -0.83259584458E+02 -0.63784152847E+02  0.16320001183E+03  0.12502133210E+03 0.  0.
         23    2    1    2    0    0 -0.18258764574E+01  0.83259584458E+02 -0.42575315939E+02  0.13032410706E+03  0.90753639728E+02 0.  0.
        -11    1    4    4    0    0 -0.25472341887E+02 -0.87733712873E+01 -0.20428441758E+01  0.27018243051E+02  0.51100000000E-03 0. -1.
         11    1    4    4    0    0  0.23646465430E+02  0.92032955745E+02 -0.40532471764E+02  0.10330586401E+03  0.51100000000E-03 0.  1.
    9000005    1    3    3    0    0 -0.20936690439E+02  0.17033172733E+02  0.17436553970E+02  0.32148209814E+02  0.10000000000E+01 0.  0.
    9000005    1    3    3    0    0  0.22762566896E+02 -0.10029275719E+03 -0.81220706817E+02  0.13105180202E+03  0.10000000000E+01 0.  0.
<mgrwt>
<rscale>  0 0.14294651E+03</rscale>
<asrwt>0</asrwt>
<pdfrwt beam="2">  1        1 0.30760276E-01 0.15021926E+03</pdfrwt>
<pdfrwt beam="1">  1       -1 0.14397281E-01 0.15021926E+03</pdfrwt>
<totfact> 0.48479751E+03</totfact>
</mgrwt>
</event>
<event>
 8    2  0.7478846E-004  0.1275061E+03  0.7818608E-02  0.1256919E+00
          1   -1    0    0  501    0  0.00000000000E+00  0.00000000000E+00  0.83482154317E+03  0.83482154319E+03  0.50400000000E-02 0. -1.
         -1   -1    0    0    0  501 -0.00000000000E+00 -0.00000000000E+00 -0.17581749501E+02  0.17581750224E+02  0.50400000000E-02 0.  1.
         25    2    1    2    0    0  0.23970613195E+02  0.76101149967E+01  0.70798345422E+03  0.71937360059E+03  0.12500120648E+03 0.  0.
         23    2    1    2    0    0 -0.23970613195E+02 -0.76101149967E+01  0.10925633945E+03  0.13302969282E+03  0.71606196073E+02 0.  0.
        -11    1    4    4    0    0 -0.37794397359E+02 -0.22634352600E+02  0.10243114461E+03  0.11150277923E+03  0.51100000000E-03 0.  1.
         11    1    4    4    0    0  0.13823784164E+02  0.15024237603E+02  0.68251948402E+01  0.21526913597E+02  0.51100000000E-03 0. -1.
    9000005    1    3    3    0    0 -0.20628067320E+02  0.34835742552E+02  0.57596762067E+03  0.57738959653E+03  0.10000000000E+01 0.  0.
    9000005    1    3    3    0    0  0.44598680515E+02 -0.27225627555E+02  0.13201583355E+03  0.14198400406E+03  0.10000000000E+01 0.  0.
<mgrwt>
<rscale>  0 0.11199550E+03</rscale>
<asrwt>0</asrwt>
<pdfrwt beam="1">  1        1 0.12843403E+00 0.12750610E+03</pdfrwt>
<pdfrwt beam="2">  1       -1 0.27048858E-02 0.12750610E+03</pdfrwt>
<totfact> 0.90883912E+03</totfact>
</mgrwt>
</event>
<event>
 8    2  0.7478846E-004  0.1480719E+03  0.7818608E-02  0.1212071E+00
          1   -1    0    0  501    0  0.00000000000E+00  0.00000000000E+00  0.38940759728E+03  0.38940759731E+03  0.50400000000E-02 0.  1.
         -1   -1    0    0    0  501 -0.00000000000E+00 -0.00000000000E+00 -0.61961592208E+02  0.61961592413E+02  0.50400000000E-02 0. -1.
         25    2    1    2    0    0 -0.30013469965E+02  0.73485245517E+02  0.64139871733E+02  0.16136673024E+03  0.12499763516E+03 0.  0.
         23    2    1    2    0    0  0.30013469965E+02 -0.73485245517E+02  0.26330613334E+03  0.29000245948E+03  0.92034868199E+02 0.  0.
        -11    1    4    4    0    0  0.25339339708E+02 -0.94645303996E+02  0.19321078003E+03  0.21663384136E+03  0.51100000000E-03 0. -1.
         11    1    4    4    0    0  0.46741302562E+01  0.21160058479E+02  0.70095353310E+02  0.73368618118E+02  0.51100000000E-03 0.  1.
    9000005    1    3    3    0    0 -0.93951668444E+01 -0.61613249704E+01  0.77233876305E+02  0.78053204511E+02  0.10000000000E+01 0.  0.
    9000005    1    3    3    0    0 -0.20618303120E+02  0.79646570488E+02 -0.13094004572E+02  0.83313525731E+02  0.10000000000E+01 0.  0.
<mgrwt>
<rscale>  0 0.14093924E+03</rscale>
<asrwt>0</asrwt>
<pdfrwt beam="1">  1        1 0.59908862E-01 0.14807194E+03</pdfrwt>
<pdfrwt beam="2">  1       -1 0.95325525E-02 0.14807194E+03</pdfrwt>
<totfact> 0.39949928E+03</totfact>
</mgrwt>
</event>
<event>
 8    2  0.7478846E-004  0.1596118E+03  0.7818608E-02  0.1196784E+00
          1   -1    0    0  501    0  0.00000000000E+00  0.00000000000E+00  0.89559812222E+02  0.89559812364E+02  0.50400000000E-02 0. -1.
         -1   -1    0    0    0  501 -0.00000000000E+00 -0.00000000000E+00 -0.27478317242E+03  0.27478317247E+03  0.50400000000E-02 0.  1.
         25    2    1    2    0    0  0.79221917747E+02  0.59797101822E+02 -0.36862470620E+02  0.16381319767E+03  0.12499646536E+03 0.  0.
         23    2    1    2    0    0 -0.79221917747E+02 -0.59797101822E+02 -0.14836088958E+03  0.20052978716E+03  0.91375250171E+02 0.  0.
        -11    1    4    4    0    0 -0.29165558318E+02  0.18066303822E+02 -0.74807291351E+02  0.82299161389E+02  0.51100000000E-03 0.  1.
         11    1    4    4    0    0 -0.50056359429E+02 -0.77863405644E+02 -0.73553598231E+02  0.11823062577E+03  0.51100000000E-03 0. -1.
    9000005    1    3    3    0    0 -0.16755330645E+02  0.89111821223E+01 -0.50844608072E+02  0.54280055654E+02  0.10000000000E+01 0.  0.
    9000005    1    3    3    0    0  0.95977248392E+02  0.50885919700E+02  0.13982137452E+02  0.10953314202E+03  0.10000000000E+01 0.  0.
<mgrwt>
<rscale>  0 0.15304225E+03</rscale>
<asrwt>0</asrwt>
<pdfrwt beam="1">  1        1 0.13778433E-01 0.15961179E+03</pdfrwt>
<pdfrwt beam="2">  1       -1 0.42274334E-01 0.15961179E+03</pdfrwt>
<totfact> 0.22787921E+03</totfact>
</mgrwt>
</event>
<event>
 8    2  0.7478846E-004  0.1588653E+03  0.7818608E-02  0.1195640E+00
          1   -1    0    0  501    0  0.00000000000E+00  0.00000000000E+00  0.51046475694E+03  0.51046475696E+03  0.50400000000E-02 0. -1.
         -1   -1    0    0    0  501 -0.00000000000E+00 -0.00000000000E+00 -0.96561879451E+02  0.96561879582E+02  0.50400000000E-02 0.  1.
         25    2    1    2    0    0  0.12452777742E+02  0.97253538162E+02 -0.11312600051E+02  0.15926759355E+03  0.12499947631E+03 0.  0.
         23    2    1    2    0    0 -0.12452777742E+02 -0.97253538162E+02  0.42521547754E+03  0.44775904299E+03  0.10033262623E+03 0.  0.
        -11    1    4    4    0    0 -0.35597931570E+02 -0.38184854367E+02  0.32489172676E+03  0.32905915874E+03  0.51100000000E-03 0. -1.
         11    1    4    4    0    0  0.23145153828E+02 -0.59068683795E+02  0.10032375078E+03  0.11869988425E+03  0.51100000000E-03 0.  1.
    9000005    1    3    3    0    0  0.22936690429E+02  0.12014398232E+03  0.14525728334E+02  0.12317737226E+03  0.10000000000E+01 0.  0.
    9000005    1    3    3    0    0 -0.10483912687E+02 -0.22890444153E+02 -0.25838328385E+02  0.36090221286E+02  0.10000000000E+01 0.  0.
<mgrwt>
<rscale>  0 0.15400147E+03</rscale>
<asrwt>0</asrwt>
<pdfrwt beam="1">  1        1 0.78533039E-01 0.15886532E+03</pdfrwt>
<pdfrwt beam="2">  1       -1 0.14855674E-01 0.15886532E+03</pdfrwt>
<totfact> 0.14229880E+03</totfact>
</mgrwt>
</event>
<event>
 8    2  0.7478846E-004  0.1251693E+03  0.7818608E-02  0.1251111E+00
          1   -1    0    0  501    0  0.00000000000E+00  0.00000000000E+00  0.27615231122E+02  0.27615231582E+02  0.50400000000E-02 0. -1.
         -1   -1    0    0    0  501 -0.00000000000E+00 -0.00000000000E+00 -0.54609750929E+03  0.54609750931E+03  0.50400000000E-02 0.  1.
         25    2    1    2    0    0 -0.46414560318E+01 -0.45719868356E+01 -0.42857805407E+03  0.44648237304E+03  0.12499965930E+03 0.  0.
         23    2    1    2    0    0  0.46414560318E+01  0.45719868356E+01 -0.89904224099E+02  0.12723036786E+03  0.89790594256E+02 0.  0.
        -11    1    4    4    0    0  0.35665244755E+02 -0.23777677666E+02 -0.24168430670E+02  0.49208745970E+02  0.51100000000E-03 0. -1.
         11    1    4    4    0    0 -0.31023788724E+02  0.28349664501E+02 -0.65735793428E+02  0.78021621888E+02  0.51100000000E-03 0.  1.
    9000005    1    3    3    0    0 -0.42715833267E+02 -0.17225209473E+02 -0.59606615879E+02  0.75334579773E+02  0.10000000000E+01 0.  0.
    9000005    1    3    3    0    0  0.38074377235E+02  0.12653222638E+02 -0.36897143819E+03  0.37114779326E+03  0.10000000000E+01 0.  0.
<mgrwt>
<rscale>  0 0.11526998E+03</rscale>
<asrwt>0</asrwt>
<pdfrwt beam="1">  1        1 0.42484975E-02 0.12516933E+03</pdfrwt>
<pdfrwt beam="2">  1       -1 0.84014993E-01 0.12516933E+03</pdfrwt>
<totfact> 0.29509695E+03</totfact>
</mgrwt>
</event>
<event>
 8    2  0.7478846E-004  0.2017336E+03  0.7818608E-02  0.1152596E+00
         -1   -1    0    0    0  501 -0.00000000000E+00  0.00000000000E+00  0.40531206477E+02  0.40531206791E+02  0.50400000000E-02 0.  1.
          1   -1    0    0  501    0  0.00000000000E+00 -0.00000000000E+00 -0.13922290331E+04  0.13922290331E+04  0.50400000000E-02 0. -1.
         25    2    1    2    0    0 -0.85339405370E+02  0.13337167193E+03 -0.27666147071E+03  0.34240038186E+03  0.12500254053E+03 0.  0.
         23    2    1    2    0    0  0.85339405370E+02 -0.13337167193E+03 -0.10750363559E+04  0.10903598580E+04  0.90059072312E+02 0.  0.
        -11    1    4    4    0    0  0.10170819133E+03 -0.90207384328E+02 -0.79176009096E+03  0.80334673088E+03  0.51100000000E-03 0. -1.
         11    1    4    4    0    0 -0.16368785962E+02 -0.43164287604E+02 -0.28327626491E+03  0.28701312712E+03  0.51100000000E-03 0.  1.
    9000005    1    3    3    0    0 -0.10806747383E+03  0.11126242065E+03 -0.16560021602E+03  0.22689719411E+03  0.10000000000E+01 0.  0.
    9000005    1    3    3    0    0  0.22728068455E+02  0.22109251284E+02 -0.11106125469E+03  0.11550318775E+03  0.10000000000E+01 0.  0.
<mgrwt>
<rscale>  0 0.19665076E+03</rscale>
<asrwt>0</asrwt>
<pdfrwt beam="2">  1        1 0.21418905E+00 0.20173362E+03</pdfrwt>
<pdfrwt beam="1">  1       -1 0.62355713E-02 0.20173362E+03</pdfrwt>
<totfact> 0.10696032E+03</totfact>
</mgrwt>
</event>
<event>
 8    2  0.7478846E-004  0.1977265E+03  0.7818608E-02  0.1156113E+00
         -1   -1    0    0    0  501 -0.00000000000E+00  0.00000000000E+00  0.55525200112E+02  0.55525200341E+02  0.50400000000E-02 0.  1.
          1   -1    0    0  501    0  0.00000000000E+00 -0.00000000000E+00 -0.63651791320E+03  0.63651791322E+03  0.50400000000E-02 0. -1.
         25    2    1    2    0    0 -0.33297829662E+02 -0.14957663872E+03 -0.31576884583E+03  0.37256639973E+03  0.12495535961E+03 0.  0.
         23    2    1    2    0    0  0.33297829662E+02  0.14957663872E+03 -0.26522386726E+03  0.31947671384E+03  0.90773094069E+02 0.  0.
        -11    1    4    4    0    0  0.57373287795E+02  0.67712262497E+02 -0.10134232191E+03  0.13471047047E+03  0.51100000000E-03 0.  1.
         11    1    4    4    0    0 -0.24075458133E+02  0.81864376227E+02 -0.16388154536E+03  0.18476624337E+03  0.51100000000E-03 0. -1.
    9000005    1    3    3    0    0  0.35812261128E+02 -0.11869059407E+02 -0.31224713334E+02  0.48983419042E+02  0.10000000000E+01 0.  0.
    9000005    1    3    3    0    0 -0.69110090790E+02 -0.13770757932E+03 -0.28454413250E+03  0.32358298068E+03  0.10000000000E+01 0.  0.
<mgrwt>
<rscale>  0 0.19262743E+03</rscale>
<asrwt>0</asrwt>
<pdfrwt beam="2">  1        1 0.97925828E-01 0.19772647E+03</pdfrwt>
<pdfrwt beam="1">  1       -1 0.85423389E-02 0.19772647E+03</pdfrwt>
<totfact> 0.24951263E+03</totfact>
</mgrwt>
</event>
<event>
 8    2  0.7478846E-004  0.1396891E+03  0.7818608E-02  0.1225499E+00
         -1   -1    0    0    0  501 -0.00000000000E+00  0.00000000000E+00  0.26978383508E+03  0.26978383512E+03  0.50400000000E-02 0.  1.
          1   -1    0    0  501    0  0.00000000000E+00 -0.00000000000E+00 -0.57385115833E+02  0.57385116055E+02  0.50400000000E-02 0. -1.
         25    2    1    2    0    0  0.62306642555E+02 -0.24334092502E+01  0.11664817982E+03  0.18198856161E+03  0.12499999805E+03 0.  0.
         23    2    1    2    0    0 -0.62306642555E+02  0.24334092502E+01  0.95750539427E+02  0.14518038957E+03  0.89560820279E+02 0.  0.
        -11    1    4    4    0    0 -0.58671630180E+02 -0.24841127557E+02  0.23571012422E+02  0.67934044728E+02  0.51100000000E-03 0. -1.
         11    1    4    4    0    0 -0.36350123752E+01  0.27274536807E+02  0.72179527006E+02  0.77246344846E+02  0.51100000000E-03 0.  1.
    9000005    1    3    3    0    0  0.31097093097E+02 -0.57189768270E+02  0.22891590556E+02  0.69012489536E+02  0.10000000000E+01 0.  0.
    9000005    1    3    3    0    0  0.31209549458E+02  0.54756359019E+02  0.93756589260E+02  0.11297607207E+03  0.10000000000E+01 0.  0.
<mgrwt>
<rscale>  0 0.13132792E+03</rscale>
<asrwt>0</asrwt>
<pdfrwt beam="2">  1        1 0.88284794E-02 0.13968908E+03</pdfrwt>
<pdfrwt beam="1">  1       -1 0.41505206E-01 0.13968908E+03</pdfrwt>
<totfact> 0.42110393E+03</totfact>
</mgrwt>
</event>
<event>
 8    2  0.7478846E-004  0.1681196E+03  0.7818608E-02  0.1186271E+00
          1   -1    0    0  501    0  0.00000000000E+00  0.00000000000E+00  0.79024968104E+03  0.79024968105E+03  0.50400000000E-02 0. -1.
         -1   -1    0    0    0  501 -0.00000000000E+00 -0.00000000000E+00 -0.32602601625E+02  0.32602602015E+02  0.50400000000E-02 0.  1.
         25    2    1    2    0    0  0.54980450300E+02 -0.98009920033E+02  0.49222124464E+03  0.52014032177E+03  0.12504161832E+03 0.  0.
         23    2    1    2    0    0 -0.54980450300E+02  0.98009920033E+02  0.26542583477E+03  0.30271196130E+03  0.92492504620E+02 0.  0.
        -11    1    4    4    0    0 -0.70218357611E+02  0.32982674249E+02  0.12330290605E+03  0.14567800516E+03  0.51100000000E-03 0. -1.
         11    1    4    4    0    0  0.15237907310E+02  0.65027245784E+02  0.14212292872E+03  0.15703395614E+03  0.51100000000E-03 0.  1.
    9000005    1    3    3    0    0  0.53086287782E+02  0.12923447015E+02  0.12264943669E+03  0.13427231194E+03  0.10000000000E+01 0.  0.
    9000005    1    3    3    0    0  0.18941625184E+01 -0.11093336705E+03  0.36957180795E+03  0.38586800982E+03  0.10000000000E+01 0.  0.
<mgrwt>
<rscale>  0 0.16216752E+03</rscale>
<asrwt>0</asrwt>
<pdfrwt beam="1">  1        1 0.12157686E+00 0.16811960E+03</pdfrwt>
<pdfrwt beam="2">  1       -1 0.50157853E-02 0.16811960E+03</pdfrwt>
<totfact> 0.40437697E+03</totfact>
</mgrwt>
</event>
<event>
 8    2  0.7478846E-004  0.1544941E+03  0.7818608E-02  0.1203457E+00
          1   -1    0    0  501    0  0.00000000000E+00  0.00000000000E+00  0.21384251930E+04  0.21384251930E+04  0.50400000000E-02 0.  1.
         -1   -1    0    0    0  501 -0.00000000000E+00 -0.00000000000E+00 -0.94092099033E+01  0.94092112531E+01  0.50400000000E-02 0. -1.
         25    2    1    2    0    0 -0.56268489469E+02 -0.71248275242E+02  0.12247872931E+04  0.12344927480E+04  0.12500388810E+03 0.  0.
         23    2    1    2    0    0  0.56268489469E+02  0.71248275242E+02  0.90422869003E+03  0.91334165624E+03  0.91219501779E+02 0.  0.
        -11    1    4    4    0    0  0.98898720110E+01  0.27920774255E+02  0.67035007277E+03  0.67100417232E+03  0.51100000000E-03 0.  1.
         11    1    4    4    0    0  0.46378617458E+02  0.43327500987E+02  0.23387861726E+03  0.24233748392E+03  0.51100000000E-03 0. -1.
    9000005    1    3    3    0    0 -0.72598561473E+02 -0.83548115738E+01  0.91763856260E+03  0.92054434199E+03  0.10000000000E+01 0.  0.
    9000005    1    3    3    0    0  0.16330072003E+02 -0.62893463668E+02  0.30714873049E+03  0.31394840606E+03  0.10000000000E+01 0.  0.
<mgrwt>
<rscale>  0 0.14759710E+03</rscale>
<asrwt>0</asrwt>
<pdfrwt beam="1">  1        1 0.32898871E+00 0.15449412E+03</pdfrwt>
<pdfrwt beam="2">  1       -1 0.14475699E-02 0.15449412E+03</pdfrwt>
<totfact> 0.30102226E+03</totfact>
</mgrwt>
</event>
<event>
 8    2  0.7478846E-004  0.1408769E+03  0.7818608E-02  0.1222473E+00
         -1   -1    0    0    0  501 -0.00000000000E+00  0.00000000000E+00  0.48484455646E+02  0.48484455908E+02  0.50400000000E-02 0.  1.
          1   -1    0    0  501    0  0.00000000000E+00 -0.00000000000E+00 -0.45806640085E+03  0.45806640087E+03  0.50400000000E-02 0. -1.
         25    2    1    2    0    0  0.38962220048E+02 -0.51985871805E+02 -0.89258805730E+02  0.16677358660E+03  0.12500283728E+03 0.  0.
         23    2    1    2    0    0 -0.38962220048E+02  0.51985871805E+02 -0.32032313947E+03  0.33977727019E+03  0.92849847587E+02 0.  0.
        -11    1    4    4    0    0 -0.27905126774E+02  0.17907871837E+02 -0.23118338599E+02  0.40420855432E+02  0.51100000000E-03 0.  1.
         11    1    4    4    0    0 -0.11057093274E+02  0.34077999968E+02 -0.29720480087E+03  0.29935641475E+03  0.51100000000E-03 0. -1.
    9000005    1    3    3    0    0  0.10176192978E+02  0.41371459602E+02 -0.20407012871E+02  0.47250383569E+02  0.10000000000E+01 0.  0.
    9000005    1    3    3    0    0  0.28786027070E+02 -0.93357331407E+02 -0.68851792860E+02  0.11952320303E+03  0.10000000000E+01 0.  0.
<mgrwt>
<rscale>  0 0.13341588E+03</rscale>
<asrwt>0</asrwt>
<pdfrwt beam="2">  1        1 0.70471751E-01 0.14087688E+03</pdfrwt>
<pdfrwt beam="1">  1       -1 0.74591474E-02 0.14087688E+03</pdfrwt>
<totfact> 0.47001602E+03</totfact>
</mgrwt>
</event>
<event>
 8    2  0.7478846E-004  0.1280934E+03  0.7818608E-02  0.1243696E+00
          1   -1    0    0  501    0  0.00000000000E+00  0.00000000000E+00  0.97553379947E+02  0.97553380077E+02  0.50400000000E-02 0. -1.
         -1   -1    0    0    0  501 -0.00000000000E+00 -0.00000000000E+00 -0.15866223504E+03  0.15866223512E+03  0.50400000000E-02 0.  1.
         25    2    1    2    0    0  0.24454161600E+02 -0.13613430852E+02 -0.87627474369E+02  0.15519822350E+03  0.12499833117E+03 0.  0.
         23    2    1    2    0    0 -0.24454161600E+02  0.13613430852E+02  0.26518619280E+02  0.10101739169E+03  0.93369934862E+02 0.  0.
        -11    1    4    4    0    0 -0.53905186216E+02 -0.91729996988E+01  0.32036534464E+02  0.63373910761E+02  0.51100000000E-03 0. -1.
         11    1    4    4    0    0  0.29451024615E+02  0.22786430551E+02 -0.55179151841E+01  0.37643480928E+02  0.51100000000E-03 0.  1.
    9000005    1    3    3    0    0 -0.39492446655E+02  0.13063373687E+02 -0.73525686582E+02  0.84482729964E+02  0.10000000000E+01 0.  0.
    9000005    1    3    3    0    0  0.63946608255E+02 -0.26676804539E+02 -0.14101787787E+02  0.70715493540E+02  0.10000000000E+01 0.  0.
<mgrwt>
<rscale>  0 0.11963762E+03</rscale>
<asrwt>0</asrwt>
<pdfrwt beam="1">  1        1 0.15008212E-01 0.12809338E+03</pdfrwt>
<pdfrwt beam="2">  1       -1 0.24409575E-01 0.12809338E+03</pdfrwt>
<totfact> 0.51270907E+03</totfact>
</mgrwt>
</event>
<event>
 8    2  0.7478846E-004  0.1322815E+03  0.7818608E-02  0.1238079E+00
         -1   -1    0    0    0  501 -0.00000000000E+00  0.00000000000E+00  0.37642288168E+03  0.37642288171E+03  0.50400000000E-02 0.  1.
          1   -1    0    0  501    0  0.00000000000E+00 -0.00000000000E+00 -0.37925700984E+02  0.37925701318E+02  0.50400000000E-02 0. -1.
         25    2    1    2    0    0  0.10960794702E+02  0.41873377581E+02  0.24295093461E+03  0.27662891779E+03  0.12499953105E+03 0.  0.
         23    2    1    2    0    0 -0.10960794702E+02 -0.41873377581E+02  0.95546246083E+02  0.13771966523E+03  0.89241819126E+02 0.  0.
        -11    1    4    4    0    0 -0.40160047902E+02 -0.12810913110E+02  0.85482209732E+02  0.95310844730E+02  0.51100000000E-03 0. -1.
         11    1    4    4    0    0  0.29199253200E+02 -0.29062464471E+02  0.10064036352E+02  0.42408820504E+02  0.51100000000E-03 0.  1.
    9000005    1    3    3    0    0  0.19545144278E+02  0.20395235551E+02 -0.40416145093E+01  0.28553685329E+02  0.10000000000E+01 0.  0.
    9000005    1    3    3    0    0 -0.85843495761E+01  0.21478142030E+02  0.24699254912E+03  0.24807523247E+03  0.10000000000E+01 0.  0.
<mgrwt>
<rscale>  0 0.12309365E+03</rscale>
<asrwt>0</asrwt>
<pdfrwt beam="2">  1        1 0.58347234E-02 0.13228152E+03</pdfrwt>
<pdfrwt beam="1">  1       -1 0.57911211E-01 0.13228152E+03</pdfrwt>
<totfact> 0.39995669E+03</totfact>
</mgrwt>
</event>
<event>
 8    2  0.7478846E-004  0.1484028E+03  0.7818608E-02  0.1211872E+00
          1   -1    0    0  501    0  0.00000000000E+00  0.00000000000E+00  0.80487941863E+03  0.80487941864E+03  0.50400000000E-02 0.  1.
         -1   -1    0    0    0  501 -0.00000000000E+00 -0.00000000000E+00 -0.28781023668E+02  0.28781024110E+02  0.50400000000E-02 0. -1.
         25    2    1    2    0    0 -0.35402580932E+01 -0.79911655670E+02  0.22605964920E+03  0.27041884723E+03  0.12499992721E+03 0.  0.
         23    2    1    2    0    0  0.35402580932E+01  0.79911655670E+02  0.55003874576E+03  0.56324159552E+03  0.91104703226E+02 0.  0.
        -11    1    4    4    0    0 -0.16398035762E+02  0.91638922419E+02  0.36172381155E+03  0.37351131645E+03  0.51100000000E-03 0. -1.
         11    1    4    4    0    0  0.19938293855E+02 -0.11727266750E+02  0.18831493421E+03  0.18973027907E+03  0.51100000000E-03 0.  1.
    9000005    1    3    3    0    0 -0.44537419164E+02 -0.42600794830E+02  0.19976211897E+03  0.20905576673E+03  0.10000000000E+01 0.  0.
    9000005    1    3    3    0    0  0.40997161071E+02 -0.37310860840E+02  0.26297530223E+02  0.61363080499E+02  0.10000000000E+01 0.  0.
<mgrwt>
<rscale>  0 0.14108816E+03</rscale>
<asrwt>0</asrwt>
<pdfrwt beam="1">  1        1 0.12382762E+00 0.14840279E+03</pdfrwt>
<pdfrwt beam="2">  1       -1 0.44278491E-02 0.14840279E+03</pdfrwt>
<totfact> 0.47089025E+03</totfact>
</mgrwt>
</event>
<event>
 8    2  0.7478846E-004  0.1354912E+03  0.7818608E-02  0.1231280E+00
         -1   -1    0    0    0  501 -0.00000000000E+00  0.00000000000E+00  0.65733880862E+02  0.65733881056E+02  0.50400000000E-02 0.  1.
          1   -1    0    0  501    0  0.00000000000E+00 -0.00000000000E+00 -0.22916858068E+03  0.22916858074E+03  0.50400000000E-02 0. -1.
         25    2    1    2    0    0  0.50513707989E+02  0.13503564445E+02 -0.65415622933E+02  0.15045618037E+03  0.12499551009E+03 0.  0.
         23    2    1    2    0    0 -0.50513707989E+02 -0.13503564445E+02 -0.98019076888E+02  0.14444628142E+03  0.92320137753E+02 0.  0.
        -11    1    4    4    0    0 -0.19668072689E+02  0.26226267012E+02 -0.86977762178E+02  0.92950423767E+02  0.51100000000E-03 0. -1.
         11    1    4    4    0    0 -0.30845635300E+02 -0.39729831457E+02 -0.11041314710E+02  0.51495857653E+02  0.51100000000E-03 0.  1.
    9000005    1    3    3    0    0  0.61350500555E+02 -0.97190437588E+01 -0.93606247119E+02  0.11234533025E+03  0.10000000000E+01 0.  0.
    9000005    1    3    3    0    0 -0.10836792566E+02  0.23222608204E+02  0.28190624186E+02  0.38110850121E+02  0.10000000000E+01 0.  0.
<mgrwt>
<rscale>  0 0.12745622E+03</rscale>
<asrwt>0</asrwt>
<pdfrwt beam="2">  1        1 0.35256704E-01 0.13549117E+03</pdfrwt>
<pdfrwt beam="1">  1       -1 0.10112905E-01 0.13549117E+03</pdfrwt>
<totfact> 0.70196689E+03</totfact>
</mgrwt>
</event>
<event>
 8    2  0.7478846E-004  0.1278118E+03  0.7818608E-02  0.1244783E+00
          1   -1    0    0  501    0  0.00000000000E+00  0.00000000000E+00  0.34263252112E+03  0.34263252116E+03  0.50400000000E-02 0. -1.
         -1   -1    0    0    0  501 -0.00000000000E+00 -0.00000000000E+00 -0.36942269302E+02  0.36942269646E+02  0.50400000000E-02 0.  1.
         25    2    1    2    0    0 -0.13223214586E+01 -0.26625782674E+02  0.15490312040E+03  0.20082540251E+03  0.12500073899E+03 0.  0.
         23    2    1    2    0    0  0.13223214586E+01  0.26625782674E+02  0.15078713142E+03  0.17874938829E+03  0.92216614426E+02 0.  0.
        -11    1    4    4    0    0 -0.23198928420E+02  0.31853077115E+02  0.14842414224E+03  0.15356606006E+03  0.51100000000E-03 0. -1.
         11    1    4    4    0    0  0.24521249879E+02 -0.52272944406E+01  0.23629891774E+01  0.25183328233E+02  0.51100000000E-03 0.  1.
    9000005    1    3    3    0    0  0.45785141058E+01  0.25262568584E+02 -0.10209775647E+02  0.27647778964E+02  0.10000000000E+01 0.  0.
    9000005    1    3    3    0    0 -0.59008355644E+01 -0.51888351258E+02  0.16511289604E+03  0.17317762354E+03  0.10000000000E+01 0.  0.
<mgrwt>
<rscale>  0 0.11898378E+03</rscale>
<asrwt>0</asrwt>
<pdfrwt beam="1">  1        1 0.52712695E-01 0.12781184E+03</pdfrwt>
<pdfrwt beam="2">  1       -1 0.56834262E-02 0.12781184E+03</pdfrwt>
<totfact> 0.10113059E+04</totfact>
</mgrwt>
</event>
<event>
 8    2  0.7478846E-004  0.1742216E+03  0.7818608E-02  0.1180076E+00
          1   -1    0    0  501    0  0.00000000000E+00  0.00000000000E+00  0.24366686791E+04  0.24366686791E+04  0.50400000000E-02 0. -1.
         -1   -1    0    0    0  501 -0.00000000000E+00 -0.00000000000E+00 -0.11409574285E+02  0.11409575398E+02  0.50400000000E-02 0.  1.
         25    2    1    2    0    0 -0.79648904380E+02 -0.91574334130E+02  0.15799358119E+04  0.15895126065E+04  0.12499339964E+03 0.  0.
         23    2    1    2    0    0  0.79648904380E+02  0.91574334130E+02  0.84532329290E+03  0.85856564796E+03  0.88508167389E+02 0.  0.
        -11    1    4    4    0    0 -0.11634092647E+02  0.78935445510E-01  0.20496036536E+03  0.20529030594E+03  0.51100000000E-03 0. -1.
         11    1    4    4    0    0  0.91282997027E+02  0.91495398685E+02  0.64036292754E+03  0.65327534202E+03  0.51100000000E-03 0.  1.
    9000005    1    3    3    0    0 -0.60159800643E+02 -0.11247958130E+03  0.90215124164E+03  0.91112497530E+03  0.10000000000E+01 0.  0.
    9000005    1    3    3    0    0 -0.19489103738E+02  0.20905247167E+02  0.67778457027E+03  0.67838763124E+03  0.10000000000E+01 0.  0.
<mgrwt>
<rscale>  0 0.16788128E+03</rscale>
<asrwt>0</asrwt>
<pdfrwt beam="1">  1        1 0.37487260E+00 0.17422157E+03</pdfrwt>
<pdfrwt beam="2">  1       -1 0.17553169E-02 0.17422157E+03</pdfrwt>
<totfact> 0.14609487E+03</totfact>
</mgrwt>
</event>
<event>
 8    2  0.7478846E-004  0.1337968E+03  0.7818608E-02  0.1235263E+00
         -1   -1    0    0    0  501 -0.00000000000E+00  0.00000000000E+00  0.52363114114E+02  0.52363114357E+02  0.50400000000E-02 0.  1.
          1   -1    0    0  501    0  0.00000000000E+00 -0.00000000000E+00 -0.28351832773E+03  0.28351832777E+03  0.50400000000E-02 0. -1.
         25    2    1    2    0    0 -0.38419995256E+02 -0.28301118993E+02 -0.17359405429E+03  0.21917228976E+03  0.12499819016E+03 0.  0.
         23    2    1    2    0    0  0.38419995256E+02  0.28301118993E+02 -0.57561159326E+02  0.11670915237E+03  0.89614116139E+02 0.  0.
        -11    1    4    4    0    0  0.63329710430E+02  0.72984217972E+00 -0.28092256510E+02  0.69284628662E+02  0.51100000000E-03 0. -1.
         11    1    4    4    0    0 -0.24909715174E+02  0.27571276813E+02 -0.29468902816E+02  0.47424523704E+02  0.51100000000E-03 0.  1.
    9000005    1    3    3    0    0  0.95331077330E+01 -0.56063209555E+02 -0.14716619252E+03  0.15777468691E+03  0.10000000000E+01 0.  0.
    9000005    1    3    3    0    0 -0.47953102989E+02  0.27762090563E+02 -0.26427861770E+02  0.61397602856E+02  0.10000000000E+01 0.  0.
<mgrwt>
<rscale>  0 0.12487625E+03</rscale>
<asrwt>0</asrwt>
<pdfrwt beam="2">  1        1 0.43618203E-01 0.13379685E+03</pdfrwt>
<pdfrwt beam="1">  1       -1 0.80558639E-02 0.13379685E+03</pdfrwt>
<totfact> 0.76134310E+03</totfact>
</mgrwt>
</event>
<event>
 8    2  0.7478846E-004  0.1822806E+03  0.7818608E-02  0.1171605E+00
          1   -1    0    0  501    0  0.00000000000E+00  0.00000000000E+00  0.33343029754E+03  0.33343029758E+03  0.50400000000E-02 0. -1.
         -1   -1    0    0    0  501 -0.00000000000E+00 -0.00000000000E+00 -0.10642805436E+03  0.10642805448E+03  0.50400000000E-02 0.  1.
         25    2    1    2    0    0 -0.10465826300E+01  0.13266394586E+03  0.26753276159E+02  0.18423343755E+03  0.12500161543E+03 0.  0.
         23    2    1    2    0    0  0.10465826300E+01 -0.13266394586E+03  0.20024896702E+03  0.25562491450E+03  0.87427857432E+02 0.  0.
        -11    1    4    4    0    0 -0.33976845027E+02 -0.29799260997E+02  0.32148982011E+02  0.55461509163E+02  0.51100000000E-03 0.  1.
         11    1    4    4    0    0  0.35023427657E+02 -0.10286468487E+03  0.16809998501E+03  0.20016340534E+03  0.51100000000E-03 0. -1.
    9000005    1    3    3    0    0  0.41224408050E+02  0.17644967030E+01  0.21584166586E+02  0.46577263927E+02  0.10000000000E+01 0.  0.
    9000005    1    3    3    0    0 -0.42270990680E+02  0.13089944916E+03  0.51691095726E+01  0.13765617363E+03  0.10000000000E+01 0.  0.
<mgrwt>
<rscale>  0 0.17612706E+03</rscale>
<asrwt>0</asrwt>
<pdfrwt beam="1">  1        1 0.51296969E-01 0.18228061E+03</pdfrwt>
<pdfrwt beam="2">  1       -1 0.16373547E-01 0.18228061E+03</pdfrwt>
<totfact> 0.21102290E+03</totfact>
</mgrwt>
</event>
<event>
 8    2  0.7478846E-004  0.1315916E+03  0.7818608E-02  0.1238182E+00
          1   -1    0    0  501    0  0.00000000000E+00  0.00000000000E+00  0.59615693984E+02  0.59615694197E+02  0.50400000000E-02 0. -1.
         -1   -1    0    0    0  501 -0.00000000000E+00 -0.00000000000E+00 -0.22638856858E+03  0.22638856863E+03  0.50400000000E-02 0.  1.
         25    2    1    2    0    0  0.87043053956E+01  0.40186168469E+02 -0.88442132485E+02  0.15855084820E+03  0.12500267036E+03 0.  0.
         23    2    1    2    0    0 -0.87043053956E+01 -0.40186168469E+02 -0.78330742108E+02  0.12745341464E+03  0.91749521385E+02 0.  0.
        -11    1    4    4    0    0 -0.43469069390E+02 -0.15454062590E+02 -0.10489905842E+02  0.47312008719E+02  0.51100000000E-03 0. -1.
         11    1    4    4    0    0  0.34764763994E+02 -0.24732105879E+02 -0.67840836266E+02  0.80141405916E+02  0.51100000000E-03 0.  1.
    9000005    1    3    3    0    0  0.43219924828E+02  0.15970526044E+02  0.13670108168E+02  0.48071732458E+02  0.10000000000E+01 0.  0.
    9000005    1    3    3    0    0 -0.34515619432E+02  0.24215642425E+02 -0.10211224065E+03  0.11047911574E+03  0.10000000000E+01 0.  0.
<mgrwt>
<rscale>  0 0.12302914E+03</rscale>
<asrwt>0</asrwt>
<pdfrwt beam="1">  1        1 0.91716453E-02 0.13159164E+03</pdfrwt>
<pdfrwt beam="2">  1       -1 0.34829010E-01 0.13159164E+03</pdfrwt>
<totfact> 0.54080841E+03</totfact>
</mgrwt>
</event>
<event>
 8    2  0.7478846E-004  0.1663268E+03  0.7818608E-02  0.1188802E+00
          1   -1    0    0  501    0  0.00000000000E+00  0.00000000000E+00  0.14028718463E+03  0.14028718472E+03  0.50400000000E-02 0. -1.
         -1   -1    0    0    0  501 -0.00000000000E+00 -0.00000000000E+00 -0.17409519100E+03  0.17409519107E+03  0.50400000000E-02 0.  1.
         25    2    1    2    0    0  0.93710146299E+02 -0.57067425908E+02  0.72183083066E+01  0.16648334347E+03  0.12500526812E+03 0.  0.
         23    2    1    2    0    0 -0.93710146299E+02  0.57067425908E+02 -0.41026314671E+02  0.14789903233E+03  0.90292207025E+02 0.  0.
        -11    1    4    4    0    0 -0.11569491275E+00  0.73753985093E+01  0.22956763212E+02  0.24112711708E+02  0.51100000000E-03 0. -1.
         11    1    4    4    0    0 -0.93594451386E+02  0.49692027399E+02 -0.63983077884E+02  0.12378632062E+03  0.51100000000E-03 0.  1.
    9000005    1    3    3    0    0  0.28223696125E+02 -0.54949371791E+01 -0.55263822790E+02  0.62304586243E+02  0.10000000000E+01 0.  0.
    9000005    1    3    3    0    0  0.65486450174E+02 -0.51572488729E+02  0.62482131096E+02  0.10417875722E+03  0.10000000000E+01 0.  0.
<mgrwt>
<rscale>  0 0.15990656E+03</rscale>
<asrwt>0</asrwt>
<pdfrwt beam="1">  1        1 0.21582644E-01 0.16632679E+03</pdfrwt>
<pdfrwt beam="2">  1       -1 0.26783876E-01 0.16632679E+03</pdfrwt>
<totfact> 0.28003023E+03</totfact>
</mgrwt>
</event>
<event>
 8    2  0.7478846E-004  0.1635636E+03  0.7818608E-02  0.1191932E+00
         -1   -1    0    0    0  501 -0.00000000000E+00  0.00000000000E+00  0.62487800423E+02  0.62487800626E+02  0.50400000000E-02 0.  1.
          1   -1    0    0  501    0  0.00000000000E+00 -0.00000000000E+00 -0.53912974487E+03  0.53912974490E+03  0.50400000000E-02 0. -1.
         25    2    1    2    0    0 -0.10358080066E+03 -0.20024017494E+02 -0.42069044670E+03  0.45136848349E+03  0.12499244938E+03 0.  0.
         23    2    1    2    0    0  0.10358080066E+03  0.20024017494E+02 -0.55951497755E+02  0.15024906204E+03  0.91182602502E+02 0.  0.
        -11    1    4    4    0    0  0.89828969795E+02  0.13168273510E+02  0.14763231706E+01  0.90801028475E+02  0.51100000000E-03 0.  1.
         11    1    4    4    0    0  0.13751830868E+02  0.68557439834E+01 -0.57427820925E+02  0.59448033561E+02  0.51100000000E-03 0. -1.
    9000005    1    3    3    0    0 -0.74348964987E+02 -0.71269121290E+02 -0.23639451890E+03  0.25785737300E+03  0.10000000000E+01 0.  0.
    9000005    1    3    3    0    0 -0.29231835677E+02  0.51245103797E+02 -0.18429592780E+03  0.19351111049E+03  0.10000000000E+01 0.  0.
<mgrwt>
<rscale>  0 0.15716789E+03</rscale>
<asrwt>0</asrwt>
<pdfrwt beam="2">  1        1 0.82943035E-01 0.16356361E+03</pdfrwt>
<pdfrwt beam="1">  1       -1 0.96135081E-02 0.16356361E+03</pdfrwt>
<totfact> 0.26001138E+03</totfact>
</mgrwt>
</event>
<event>
 8    2  0.7478846E-004  0.1284688E+03  0.7818608E-02  0.1243196E+00
          1   -1    0    0  501    0  0.00000000000E+00  0.00000000000E+00  0.74881332661E+03  0.74881332663E+03  0.50400000000E-02 0. -1.
         -1   -1    0    0    0  501 -0.00000000000E+00 -0.00000000000E+00 -0.17522652046E+02  0.17522652770E+02  0.50400000000E-02 0.  1.
         25    2    1    2    0    0 -0.25644134096E+02  0.14894685301E+02  0.47574634825E+03  0.49278679673E+03  0.12499906355E+03 0.  0.
         23    2    1    2    0    0  0.25644134096E+02 -0.14894685301E+02  0.25554432631E+03  0.27354918267E+03  0.92988060342E+02 0.  0.
        -11    1    4    4    0    0 -0.14641887457E+02 -0.28005242373E+01  0.34976258233E+00  0.14911409673E+02  0.51100000000E-03 0.  1.
         11    1    4    4    0    0  0.40286021552E+02 -0.12094161064E+02  0.25519456373E+03  0.25863777300E+03  0.51100000000E-03 0. -1.
    9000005    1    3    3    0    0 -0.53515640758E+02  0.56632869444E+02  0.30671480755E+03  0.31645881071E+03  0.10000000000E+01 0.  0.
    9000005    1    3    3    0    0  0.27871506663E+02 -0.41738184143E+02  0.16903154071E+03  0.17632798602E+03  0.10000000000E+01 0.  0.
<mgrwt>
<rscale>  0 0.11993987E+03</rscale>
<asrwt>0</asrwt>
<pdfrwt beam="1">  1        1 0.11520206E+00 0.12846883E+03</pdfrwt>
<pdfrwt beam="2">  1       -1 0.26957925E-02 0.12846883E+03</pdfrwt>
<totfact> 0.10751431E+04</totfact>
</mgrwt>
</event>
<event>
 8    2  0.7478846E-004  0.1585360E+03  0.7818608E-02  0.1198123E+00
          1   -1    0    0  501    0  0.00000000000E+00  0.00000000000E+00  0.45027137278E+03  0.45027137281E+03  0.50400000000E-02 0. -1.
         -1   -1    0    0    0  501 -0.00000000000E+00 -0.00000000000E+00 -0.56452409723E+02  0.56452409948E+02  0.50400000000E-02 0.  1.
         25    2    1    2    0    0 -0.81361909247E+02 -0.53748750011E+02  0.10992710548E+03  0.19291874872E+03  0.12499994675E+03 0.  0.
         23    2    1    2    0    0  0.81361909247E+02  0.53748750011E+02  0.28389185759E+03  0.31380503404E+03  0.91489475780E+02 0.  0.
        -11    1    4    4    0    0  0.31851830090E+02  0.60180727972E+02  0.23204126817E+03  0.24182516253E+03  0.51100000000E-03 0. -1.
         11    1    4    4    0    0  0.49510079157E+02 -0.64319779612E+01  0.51850589414E+02  0.71979871502E+02  0.51100000000E-03 0.  1.
    9000005    1    3    3    0    0 -0.11025920519E+02  0.38361087597E+02  0.13484709829E+02  0.42142393905E+02  0.10000000000E+01 0.  0.
    9000005    1    3    3    0    0 -0.70335988729E+02 -0.92109837608E+02  0.96442395646E+02  0.15077635482E+03  0.10000000000E+01 0.  0.
<mgrwt>
<rscale>  0 0.15192839E+03</rscale>
<asrwt>0</asrwt>
<pdfrwt beam="1">  1        1 0.69272522E-01 0.15853604E+03</pdfrwt>
<pdfrwt beam="2">  1       -1 0.86849857E-02 0.15853604E+03</pdfrwt>
<totfact> 0.38386101E+03</totfact>
</mgrwt>
</event>
<event>
 8    2  0.7478846E-004  0.2622355E+03  0.7818608E-02  0.1108021E+00
          1   -1    0    0  501    0  0.00000000000E+00  0.00000000000E+00  0.49506642599E+03  0.49506642602E+03  0.50400000000E-02 0. -1.
         -1   -1    0    0    0  501 -0.00000000000E+00 -0.00000000000E+00 -0.53698569827E+03  0.53698569830E+03  0.50400000000E-02 0.  1.
         25    2    1    2    0    0  0.20424347600E+03 -0.10689805149E+03  0.42734508221E+03  0.50138934453E+03  0.12499945850E+03 0.  0.
         23    2    1    2    0    0 -0.20424347600E+03  0.10689805149E+03 -0.46926435449E+03  0.53066277978E+03  0.90836999914E+02 0.  0.
        -11    1    4    4    0    0 -0.11266428575E+03  0.99245377670E+02 -0.34368352496E+03  0.37504833236E+03  0.51100000000E-03 0. -1.
         11    1    4    4    0    0 -0.91579190249E+02  0.76526738163E+01 -0.12558082952E+03  0.15561444743E+03  0.51100000000E-03 0.  1.
    9000005    1    3    3    0    0  0.32526862641E+02 -0.44124622059E+02  0.26667342585E+02  0.60968239483E+02  0.10000000000E+01 0.  0.
    9000005    1    3    3    0    0  0.17171661336E+03 -0.62773429428E+02  0.40067773962E+03  0.44042110505E+03  0.10000000000E+01 0.  0.
<mgrwt>
<rscale>  0 0.25854391E+03</rscale>
<asrwt>0</asrwt>
<pdfrwt beam="1">  1        1 0.76164065E-01 0.26223550E+03</pdfrwt>
<pdfrwt beam="2">  1       -1 0.82613185E-01 0.26223550E+03</pdfrwt>
<totfact> 0.70851364E+01</totfact>
</mgrwt>
</event>
<event>
 8    2  0.7478846E-004  0.1867382E+03  0.7818608E-02  0.1166741E+00
         -1   -1    0    0    0  501 -0.00000000000E+00  0.00000000000E+00  0.47552712206E+02  0.47552712473E+02  0.50400000000E-02 0.  1.
          1   -1    0    0  501    0  0.00000000000E+00 -0.00000000000E+00 -0.66448955658E+03  0.66448955660E+03  0.50400000000E-02 0. -1.
         25    2    1    2    0    0  0.13371835540E+03  0.36960271694E+02 -0.27661549423E+03  0.33374734191E+03  0.12499798531E+03 0.  0.
         23    2    1    2    0    0 -0.13371835540E+03 -0.36960271694E+02 -0.34032135015E+03  0.37829492716E+03  0.89675918140E+02 0.  0.
        -11    1    4    4    0    0 -0.75989804513E+02 -0.50644563090E+02 -0.12407805492E+03  0.15406065647E+03  0.51100000000E-03 0.  1.
         11    1    4    4    0    0 -0.57728550891E+02  0.13684291396E+02 -0.21624329523E+03  0.22423427069E+03  0.51100000000E-03 0. -1.
    9000005    1    3    3    0    0  0.52730757722E+02  0.73151782065E+02 -0.18720795031E+03  0.20779685438E+03  0.10000000000E+01 0.  0.
    9000005    1    3    3    0    0  0.80987597682E+02 -0.36191510370E+02 -0.89407543918E+02  0.12595048754E+03  0.10000000000E+01 0.  0.
<mgrwt>
<rscale>  0 0.18110156E+03</rscale>
<asrwt>0</asrwt>
<pdfrwt beam="2">  1        1 0.10222916E+00 0.18673820E+03</pdfrwt>
<pdfrwt beam="1">  1       -1 0.73158024E-02 0.18673820E+03</pdfrwt>
<totfact> 0.29677506E+03</totfact>
</mgrwt>
</event>
<event>
 8    2  0.7478846E-004  0.1395632E+03  0.7818608E-02  0.1225989E+00
         -1   -1    0    0    0  501 -0.00000000000E+00  0.00000000000E+00  0.15187404989E+03  0.15187404998E+03  0.50400000000E-02 0.  1.
          1   -1    0    0  501    0  0.00000000000E+00 -0.00000000000E+00 -0.10284293513E+03  0.10284293525E+03  0.50400000000E-02 0. -1.
         25    2    1    2    0    0  0.34568332039E+02 -0.51561087368E+02  0.43809056772E+02  0.14627751360E+03  0.12499744886E+03 0.  0.
         23    2    1    2    0    0 -0.34568332039E+02  0.51561087368E+02  0.52220579933E+01  0.10843947163E+03  0.88759978630E+02 0.  0.
        -11    1    4    4    0    0 -0.22066531284E+02  0.55342499164E+01  0.42298919487E+02  0.48028723854E+02  0.51100000000E-03 0.  1.
         11    1    4    4    0    0 -0.12501800755E+02  0.46026837452E+02 -0.37076861494E+02  0.60410747772E+02  0.51100000000E-03 0. -1.
    9000005    1    3    3    0    0  0.72659153915E+02 -0.66062321342E+02  0.36984895164E+02  0.10494029454E+03  0.10000000000E+01 0.  0.
    9000005    1    3    3    0    0 -0.38090821876E+02  0.14501233974E+02  0.68241616078E+01  0.41337219060E+02  0.10000000000E+01 0.  0.
<mgrwt>
<rscale>  0 0.13099325E+03</rscale>
<asrwt>0</asrwt>
<pdfrwt beam="2">  1        1 0.15821990E-01 0.13956317E+03</pdfrwt>
<pdfrwt beam="1">  1       -1 0.23365238E-01 0.13956317E+03</pdfrwt>
<totfact> 0.51723418E+03</totfact>
</mgrwt>
</event>
<event>
 8    2  0.7478846E-004  0.1606741E+03  0.7818608E-02  0.1195385E+00
          1   -1    0    0  501    0  0.00000000000E+00  0.00000000000E+00  0.26302114278E+03  0.26302114283E+03  0.50400000000E-02 0. -1.
         -1   -1    0    0    0  501 -0.00000000000E+00 -0.00000000000E+00 -0.89984980859E+02  0.89984981000E+02  0.50400000000E-02 0.  1.
         25    2    1    2    0    0  0.41877626587E+01  0.10086203191E+03  0.47218226240E+02  0.16746858816E+03  0.12500192116E+03 0.  0.
         23    2    1    2    0    0 -0.41877626587E+01 -0.10086203191E+03  0.12581793568E+03  0.18553753567E+03  0.91669718908E+02 0.  0.
        -11    1    4    4    0    0 -0.22619841385E+02 -0.89948244392E+02  0.47228506743E+02  0.10408110176E+03  0.51100000000E-03 0.  1.
         11    1    4    4    0    0  0.18432078726E+02 -0.10913787519E+02  0.78589428937E+02  0.81456433908E+02  0.51100000000E-03 0. -1.
    9000005    1    3    3    0    0  0.45728992848E+02 -0.52567001674E+01  0.67535293951E+01  0.46533685034E+02  0.10000000000E+01 0.  0.
    9000005    1    3    3    0    0 -0.41541230190E+02  0.10611873208E+03  0.40464696845E+02  0.12093490313E+03  0.10000000000E+01 0.  0.
<mgrwt>
<rscale>  0 0.15421659E+03</rscale>
<asrwt>0</asrwt>
<pdfrwt beam="1">  1        1 0.40464791E-01 0.16067410E+03</pdfrwt>
<pdfrwt beam="2">  1       -1 0.13843843E-01 0.16067410E+03</pdfrwt>
<totfact> 0.36783900E+03</totfact>
</mgrwt>
</event>
<event>
 8    2  0.7478846E-004  0.1675411E+03  0.7818608E-02  0.1187488E+00
         -1   -1    0    0    0  501 -0.00000000000E+00  0.00000000000E+00  0.19229415754E+02  0.19229416414E+02  0.50400000000E-02 0.  1.
          1   -1    0    0  501    0  0.00000000000E+00 -0.00000000000E+00 -0.16716716851E+04  0.16716716851E+04  0.50400000000E-02 0. -1.
         25    2    1    2    0    0  0.10983817685E+03 -0.19574135388E+02 -0.45375419360E+03  0.48369710969E+03  0.12498981494E+03 0.  0.
         23    2    1    2    0    0 -0.10983817685E+03  0.19574135388E+02 -0.11986880758E+04  0.12072039918E+04  0.89670525250E+02 0.  0.
        -11    1    4    4    0    0 -0.92898314857E+02 -0.15807487154E+02 -0.61268562755E+03  0.61989003199E+03  0.51100000000E-03 0.  1.
         11    1    4    4    0    0 -0.16939861991E+02  0.35381622542E+02 -0.58600244821E+03  0.58731395986E+03  0.51100000000E-03 0. -1.
    9000005    1    3    3    0    0  0.46111669689E+02 -0.87591389145E+01 -0.39029910624E+03  0.39311245329E+03  0.10000000000E+01 0.  0.
    9000005    1    3    3    0    0  0.63726507159E+02 -0.10814996473E+02 -0.63455087359E+02  0.90584656400E+02  0.10000000000E+01 0.  0.
<mgrwt>
<rscale>  0 0.16107550E+03</rscale>
<asrwt>0</asrwt>
<pdfrwt beam="2">  1        1 0.25718014E+00 0.16754112E+03</pdfrwt>
<pdfrwt beam="1">  1       -1 0.29583730E-02 0.16754112E+03</pdfrwt>
<totfact> 0.21249133E+03</totfact>
</mgrwt>
</event>
<event>
 8    2  0.7478846E-004  0.1362826E+03  0.7818608E-02  0.1230726E+00
          1   -1    0    0  501    0  0.00000000000E+00  0.00000000000E+00  0.16562487696E+04  0.16562487697E+04  0.50400000000E-02 0. -1.
         -1   -1    0    0    0  501 -0.00000000000E+00 -0.00000000000E+00 -0.88466475290E+01  0.88466489646E+01  0.50400000000E-02 0.  1.
         25    2    1    2    0    0 -0.18147775777E+02  0.51174285086E+02  0.97288680592E+03  0.98238570826E+03  0.12499917369E+03 0.  0.
         23    2    1    2    0    0  0.18147775777E+02 -0.51174285086E+02  0.67451531619E+03  0.68270971036E+03  0.90407342759E+02 0.  0.
        -11    1    4    4    0    0  0.19775916354E+02 -0.40140720010E+02  0.66857979441E+03  0.67007559705E+03  0.51100000000E-03 0. -1.
         11    1    4    4    0    0 -0.16281405778E+01 -0.11033565076E+02  0.59355217806E+01  0.12634113309E+02  0.51100000000E-03 0.  1.
    9000005    1    3    3    0    0 -0.44823434126E+02  0.49074732466E+02  0.92606818816E+03  0.92845073038E+03  0.10000000000E+01 0.  0.
    9000005    1    3    3    0    0  0.26675658349E+02  0.20995526204E+01  0.46818617764E+02  0.53934977880E+02  0.10000000000E+01 0.  0.
<mgrwt>
<rscale>  0 0.12782075E+03</rscale>
<asrwt>0</asrwt>
<pdfrwt beam="1">  1        1 0.25480752E+00 0.13628258E+03</pdfrwt>
<pdfrwt beam="2">  1       -1 0.13610227E-02 0.13628258E+03</pdfrwt>
<totfact> 0.66605850E+03</totfact>
</mgrwt>
</event>
<event>
 8    2  0.7478846E-004  0.1395205E+03  0.7818608E-02  0.1224502E+00
         -1   -1    0    0    0  501 -0.00000000000E+00  0.00000000000E+00  0.46858848013E+01  0.46858875117E+01  0.50400000000E-02 0.  1.
          1   -1    0    0  501    0  0.00000000000E+00 -0.00000000000E+00 -0.33942253244E+04  0.33942253244E+04  0.50400000000E-02 0. -1.
         25    2    1    2    0    0 -0.55496632782E+02  0.27585763366E+02 -0.17387195381E+04  0.17443083470E+04  0.12500050659E+03 0.  0.
         23    2    1    2    0    0  0.55496632782E+02 -0.27585763366E+02 -0.16508199016E+04  0.16546028650E+04  0.93077617153E+02 0.  0.
        -11    1    4    4    0    0  0.32271271074E+02 -0.18341487140E+01 -0.14772013503E+04  0.14775549494E+04  0.51100000000E-03 0. -1.
         11    1    4    4    0    0  0.23225361709E+02 -0.25751614652E+02 -0.17361855121E+03  0.17704791557E+03  0.51100000000E-03 0.  1.
    9000005    1    3    3    0    0 -0.24700305937E+02  0.49636095958E+02 -0.29949423457E+03  0.30458437859E+03  0.10000000000E+01 0.  0.
    9000005    1    3    3    0    0 -0.30796326845E+02 -0.22050332592E+02 -0.14392253035E+04  0.14397239684E+04  0.10000000000E+01 0.  0.
<mgrwt>
<rscale>  0 0.13201126E+03</rscale>
<asrwt>0</asrwt>
<pdfrwt beam="2">  1        1 0.52218655E+00 0.13952053E+03</pdfrwt>
<pdfrwt beam="1">  1       -1 0.72090828E-03 0.13952053E+03</pdfrwt>
<totfact> 0.11586553E+03</totfact>
</mgrwt>
</event>
<event>
 8    2  0.7478846E-004  0.1565588E+03  0.7818608E-02  0.1200730E+00
         -1   -1    0    0    0  501 -0.00000000000E+00  0.00000000000E+00  0.27363626517E+03  0.27363626521E+03  0.50400000000E-02 0.  1.
          1   -1    0    0  501    0  0.00000000000E+00 -0.00000000000E+00 -0.91593822438E+02  0.91593822577E+02  0.50400000000E-02 0. -1.
         25    2    1    2    0    0  0.87657287535E+02 -0.34676253911E+02  0.17359655122E+03  0.23376571211E+03  0.12499761164E+03 0.  0.
         23    2    1    2    0    0 -0.87657287535E+02  0.34676253911E+02  0.84458915053E+01  0.13146437568E+03  0.91243116713E+02 0.  0.
        -11    1    4    4    0    0 -0.15451159842E+02  0.17327393599E+01 -0.36910903252E+02  0.40051910133E+02  0.51100000000E-03 0. -1.
         11    1    4    4    0    0 -0.72206127693E+02  0.32943514551E+02  0.45356794757E+02  0.91412465552E+02  0.51100000000E-03 0.  1.
    9000005    1    3    3    0    0  0.32294898481E+02  0.46711783276E+02  0.49287937820E+02  0.75201409423E+02  0.10000000000E+01 0.  0.
    9000005    1    3    3    0    0  0.55362389055E+02 -0.81388037187E+02  0.12430861340E+03  0.15856430268E+03  0.10000000000E+01 0.  0.
<mgrwt>
<rscale>  0 0.14979093E+03</rscale>
<asrwt>0</asrwt>
<pdfrwt beam="2">  1        1 0.14091357E-01 0.15655876E+03</pdfrwt>
<pdfrwt beam="1">  1       -1 0.42097887E-01 0.15655876E+03</pdfrwt>
<totfact> 0.22276101E+03</totfact>
</mgrwt>
</event>
<event>
 8    2  0.7478846E-004  0.1377224E+03  0.7818608E-02  0.1227086E+00
         -1   -1    0    0    0  501 -0.00000000000E+00  0.00000000000E+00  0.31287593695E+02  0.31287594101E+02  0.50400000000E-02 0.  1.
          1   -1    0    0  501    0  0.00000000000E+00 -0.00000000000E+00 -0.51036844647E+03  0.51036844649E+03  0.50400000000E-02 0. -1.
         25    2    1    2    0    0  0.24440531001E+02 -0.52373154408E+02 -0.21276149725E+03  0.25344608290E+03  0.12500870116E+03 0.  0.
         23    2    1    2    0    0 -0.24440531001E+02  0.52373154408E+02 -0.26631935552E+03  0.28820995770E+03  0.93801352505E+02 0.  0.
        -11    1    4    4    0    0 -0.23685048915E+01  0.69980369877E+02 -0.11786858424E+03  0.13709801288E+03  0.51100000000E-03 0.  1.
         11    1    4    4    0    0 -0.22072026110E+02 -0.17607215469E+02 -0.14845077128E+03  0.15111194482E+03  0.51100000000E-03 0. -1.
    9000005    1    3    3    0    0 -0.25125376444E+02 -0.50893641774E+02 -0.19104803660E+03  0.19930328548E+03  0.10000000000E+01 0.  0.
    9000005    1    3    3    0    0  0.49565907445E+02 -0.14795126340E+01 -0.21713460649E+02  0.54142797414E+02  0.10000000000E+01 0.  0.
<mgrwt>
<rscale>  0 0.13024955E+03</rscale>
<asrwt>0</asrwt>
<pdfrwt beam="2">  1        1 0.78518217E-01 0.13772241E+03</pdfrwt>
<pdfrwt beam="1">  1       -1 0.48134763E-02 0.13772241E+03</pdfrwt>
<totfact> 0.78386423E+03</totfact>
</mgrwt>
</event>
<event>
 8    2  0.7478846E-004  0.1376250E+03  0.7818608E-02  0.1232386E+00
         -1   -1    0    0    0  501 -0.00000000000E+00  0.00000000000E+00  0.42137567463E+03  0.42137567466E+03  0.50400000000E-02 0.  1.
          1   -1    0    0  501    0  0.00000000000E+00 -0.00000000000E+00 -0.35456807389E+02  0.35456807747E+02  0.50400000000E-02 0. -1.
         25    2    1    2    0    0  0.57550884398E+02 -0.20906869050E+01  0.27929349927E+03  0.31136073626E+03  0.12499669628E+03 0.  0.
         23    2    1    2    0    0 -0.57550884398E+02  0.20906869050E+01  0.10662536797E+03  0.14547174615E+03  0.80477230111E+02 0.  0.
        -11    1    4    4    0    0  0.19975256337E+02 -0.32271910111E+01  0.14199661329E+02  0.24719547117E+02  0.51100000000E-03 0. -1.
         11    1    4    4    0    0 -0.77526140735E+02  0.53178779161E+01  0.92425706638E+02  0.12075219903E+03  0.51100000000E-03 0.  1.
    9000005    1    3    3    0    0 -0.71401386249E+01  0.52381028850E+02  0.99901565958E+02  0.11303130825E+03  0.10000000000E+01 0.  0.
    9000005    1    3    3    0    0  0.64691023023E+02 -0.54471715755E+02  0.17939193332E+03  0.19832942801E+03  0.10000000000E+01 0.  0.
<mgrwt>
<rscale>  0 0.12673246E+03</rscale>
<asrwt>0</asrwt>
<pdfrwt beam="2">  1        1 0.54548932E-02 0.13762503E+03</pdfrwt>
<pdfrwt beam="1">  1       -1 0.64827030E-01 0.13762503E+03</pdfrwt>
<totfact> 0.35424407E+03</totfact>
</mgrwt>
</event>
<event>
 8    2  0.7478846E-004  0.1365275E+03  0.7818608E-02  0.1230733E+00
         -1   -1    0    0    0  501 -0.00000000000E+00  0.00000000000E+00  0.29388751719E+02  0.29388752151E+02  0.50400000000E-02 0.  1.
          1   -1    0    0  501    0  0.00000000000E+00 -0.00000000000E+00 -0.49960050693E+03  0.49960050696E+03  0.50400000000E-02 0. -1.
         25    2    1    2    0    0  0.17925840390E+02 -0.51897103203E+02 -0.24262416679E+03  0.27839942670E+03  0.12500043762E+03 0.  0.
         23    2    1    2    0    0 -0.17925840390E+02  0.51897103203E+02 -0.22758758843E+03  0.25058983241E+03  0.89356077713E+02 0.  0.
        -11    1    4    4    0    0 -0.15443659778E+02  0.46690122162E+02 -0.41318796624E+02  0.64231745185E+02  0.51100000000E-03 0.  1.
         11    1    4    4    0    0 -0.24821806120E+01  0.52069810409E+01 -0.18626879181E+03  0.18635808722E+03  0.51100000000E-03 0. -1.
    9000005    1    3    3    0    0  0.28589360794E+02  0.18509089156E+02 -0.18113222613E+03  0.18430903742E+03  0.10000000000E+01 0.  0.
    9000005    1    3    3    0    0 -0.10663520404E+02 -0.70406192359E+02 -0.61491940658E+02  0.94090389285E+02  0.10000000000E+01 0.  0.
<mgrwt>
<rscale>  0 0.12781593E+03</rscale>
<asrwt>0</asrwt>
<pdfrwt beam="2">  1        1 0.76861610E-01 0.13652749E+03</pdfrwt>
<pdfrwt beam="1">  1       -1 0.45213468E-02 0.13652749E+03</pdfrwt>
<totfact> 0.88357209E+03</totfact>
</mgrwt>
</event>
<event>
 8    2  0.7478846E-004  0.1342340E+03  0.7818608E-02  0.1233809E+00
          1   -1    0    0  501    0  0.00000000000E+00  0.00000000000E+00  0.19721236235E+04  0.19721236235E+04  0.50400000000E-02 0. -1.
         -1   -1    0    0    0  501 -0.00000000000E+00 -0.00000000000E+00 -0.71774340918E+01  0.71774358613E+01  0.50400000000E-02 0.  1.
         25    2    1    2    0    0  0.43641777746E+02  0.22019003112E+02  0.10758870487E+04  0.10842286190E+04  0.12501726124E+03 0.  0.
         23    2    1    2    0    0 -0.43641777746E+02 -0.22019003112E+02  0.88905914071E+03  0.89507244029E+03  0.91318543699E+02 0.  0.
        -11    1    4    4    0    0 -0.62580149932E+02 -0.33360984850E+02  0.45890735107E+03  0.46435459225E+03  0.51100000000E-03 0.  1.
         11    1    4    4    0    0  0.18938372185E+02  0.11341981738E+02  0.43015178964E+03  0.43071784804E+03  0.51100000000E-03 0. -1.
    9000005    1    3    3    0    0 -0.23221387860E+02  0.27281103091E+02  0.10347897007E+03  0.10950976526E+03  0.10000000000E+01 0.  0.
    9000005    1    3    3    0    0  0.66863165607E+02 -0.52620999788E+01  0.97240807860E+03  0.97471885379E+03  0.10000000000E+01 0.  0.
<mgrwt>
<rscale>  0 0.12580974E+03</rscale>
<asrwt>0</asrwt>
<pdfrwt beam="1">  1        1 0.30340401E+00 0.13423396E+03</pdfrwt>
<pdfrwt beam="2">  1       -1 0.11042194E-02 0.13423396E+03</pdfrwt>
<totfact> 0.56511870E+03</totfact>
</mgrwt>
</event>
<event>
 8    2  0.7478846E-004  0.1266978E+03  0.7818608E-02  0.1247320E+00
          1   -1    0    0  501    0  0.00000000000E+00  0.00000000000E+00  0.15901343205E+04  0.15901343205E+04  0.50400000000E-02 0. -1.
         -1   -1    0    0    0  501 -0.00000000000E+00 -0.00000000000E+00 -0.93996174045E+01  0.93996187557E+01  0.50400000000E-02 0.  1.
         25    2    1    2    0    0  0.12053037294E+02  0.16785898360E+02  0.12301613742E+04  0.12366686422E+04  0.12500112739E+03 0.  0.
         23    2    1    2    0    0 -0.12053037294E+02 -0.16785898360E+02  0.35057332890E+03  0.36286529710E+03  0.91337411907E+02 0.  0.
        -11    1    4    4    0    0 -0.50477824688E+02 -0.74559950906E+01  0.15028156358E+03  0.15870775343E+03  0.51100000000E-03 0. -1.
         11    1    4    4    0    0  0.38424787394E+02 -0.93299032699E+01  0.20029176532E+03  0.20415754367E+03  0.51100000000E-03 0.  1.
    9000005    1    3    3    0    0 -0.33666243445E+02 -0.25451177857E+02  0.88033633776E+03  0.88134797099E+03  0.10000000000E+01 0.  0.
    9000005    1    3    3    0    0  0.45719280739E+02  0.42237076217E+02  0.34982503648E+03  0.35532067121E+03  0.10000000000E+01 0.  0.
<mgrwt>
<rscale>  0 0.11747595E+03</rscale>
<asrwt>0</asrwt>
<pdfrwt beam="1">  1        1 0.24463602E+00 0.12669777E+03</pdfrwt>
<pdfrwt beam="2">  1       -1 0.14460953E-02 0.12669777E+03</pdfrwt>
<totfact> 0.67143604E+03</totfact>
</mgrwt>
</event>
<event>
 8    2  0.7478846E-004  0.2051650E+03  0.7818608E-02  0.1149689E+00
          1   -1    0    0  501    0  0.00000000000E+00  0.00000000000E+00  0.11803487292E+04  0.11803487292E+04  0.50400000000E-02 0. -1.
         -1   -1    0    0    0  501 -0.00000000000E+00 -0.00000000000E+00 -0.32329876231E+02  0.32329876624E+02  0.50400000000E-02 0.  1.
         25    2    1    2    0    0  0.16255372623E+03 -0.67839097173E+01  0.59435880818E+03  0.62877266800E+03  0.12499175897E+03 0.  0.
         23    2    1    2    0    0 -0.16255372623E+03  0.67839097173E+01  0.55366004478E+03  0.58390593784E+03  0.89089638607E+02 0.  0.
        -11    1    4    4    0    0 -0.92213338253E+02  0.36580975680E+02  0.21569322267E+03  0.23741321328E+03  0.51100000000E-03 0.  1.
         11    1    4    4    0    0 -0.70340387981E+02 -0.29797065963E+02  0.33796682211E+03  0.34649272456E+03  0.51100000000E-03 0. -1.
    9000005    1    3    3    0    0  0.17505595796E+03 -0.12576802657E+01  0.43616500760E+03  0.46998625940E+03  0.10000000000E+01 0.  0.
    9000005    1    3    3    0    0 -0.12502231724E+02 -0.55262294516E+01  0.15819380059E+03  0.15878640859E+03  0.10000000000E+01 0.  0.
<mgrwt>
<rscale>  0 0.20005888E+03</rscale>
<asrwt>0</asrwt>
<pdfrwt beam="1">  1        1 0.18159210E+00 0.20516499E+03</pdfrwt>
<pdfrwt beam="2">  1       -1 0.49738275E-02 0.20516499E+03</pdfrwt>
<totfact> 0.20932134E+03</totfact>
</mgrwt>
</event>
<event>
 8    2  0.7478846E-004  0.2309433E+03  0.7818608E-02  0.1128305E+00
         -1   -1    0    0    0  501 -0.00000000000E+00  0.00000000000E+00  0.55768133890E+02  0.55768134118E+02  0.50400000000E-02 0.  1.
          1   -1    0    0  501    0  0.00000000000E+00 -0.00000000000E+00 -0.17131580495E+04  0.17131580495E+04  0.50400000000E-02 0. -1.
         25    2    1    2    0    0 -0.19391745879E+03  0.10195336020E+02 -0.23342273502E+03  0.32836103538E+03  0.12500748229E+03 0.  0.
         23    2    1    2    0    0  0.19391745879E+03 -0.10195336020E+02 -0.14239671806E+04  0.14405651483E+04  0.99184117983E+02 0.  0.
        -11    1    4    4    0    0  0.13567533613E+03 -0.52358722337E+02 -0.89623515833E+03  0.90795742833E+03  0.51100000000E-03 0.  1.
         11    1    4    4    0    0  0.58242122660E+02  0.42163386317E+02 -0.52773202230E+03  0.53260771996E+03  0.51100000000E-03 0. -1.
    9000005    1    3    3    0    0 -0.55163939754E+02 -0.23333514184E+02 -0.15346592702E+03  0.16474314520E+03  0.10000000000E+01 0.  0.
    9000005    1    3    3    0    0 -0.13875351904E+03  0.33528850204E+02 -0.79956808003E+02  0.16361789018E+03  0.10000000000E+01 0.  0.
<mgrwt>
<rscale>  0 0.22764996E+03</rscale>
<asrwt>0</asrwt>
<pdfrwt beam="2">  1        1 0.26356274E+00 0.23094328E+03</pdfrwt>
<pdfrwt beam="1">  1       -1 0.85797143E-02 0.23094328E+03</pdfrwt>
<totfact> 0.40397999E+02</totfact>
</mgrwt>
</event>
<event>
 8    2  0.7478846E-004  0.1310104E+03  0.7818608E-02  0.1239993E+00
         -1   -1    0    0    0  501 -0.00000000000E+00  0.00000000000E+00  0.18666819019E+02  0.18666819699E+02  0.50400000000E-02 0.  1.
          1   -1    0    0  501    0  0.00000000000E+00 -0.00000000000E+00 -0.73789596242E+03  0.73789596244E+03  0.50400000000E-02 0. -1.
         25    2    1    2    0    0  0.25915645973E+02  0.29446614553E+02 -0.32797433768E+03  0.35317260881E+03  0.12500000648E+03 0.  0.
         23    2    1    2    0    0 -0.25915645973E+02 -0.29446614553E+02 -0.39125480572E+03  0.40339017333E+03  0.90025469302E+02 0.  0.
        -11    1    4    4    0    0 -0.47348738344E+02 -0.37123558526E+02 -0.15868232926E+03  0.16970604950E+03  0.51100000000E-03 0.  1.
         11    1    4    4    0    0  0.21433092371E+02  0.76769439728E+01 -0.23257247647E+03  0.23368412383E+03  0.51100000000E-03 0. -1.
    9000005    1    3    3    0    0  0.46264033290E+02  0.24612221887E+02 -0.44016864810E+02  0.68444186241E+02  0.10000000000E+01 0.  0.
    9000005    1    3    3    0    0 -0.20348387317E+02  0.48343926658E+01 -0.28395747287E+03  0.28472842256E+03  0.10000000000E+01 0.  0.
<mgrwt>
<rscale>  0 0.12190109E+03</rscale>
<asrwt>0</asrwt>
<pdfrwt beam="2">  1        1 0.11352243E+00 0.13101040E+03</pdfrwt>
<pdfrwt beam="1">  1       -1 0.28718189E-02 0.13101040E+03</pdfrwt>
<totfact> 0.10033740E+04</totfact>
</mgrwt>
</event>
<event>
 8    2  0.7478846E-004  0.1442934E+03  0.7818608E-02  0.1217888E+00
         -1   -1    0    0    0  501 -0.00000000000E+00  0.00000000000E+00  0.17878136563E+03  0.17878136570E+03  0.50400000000E-02 0.  1.
          1   -1    0    0  501    0  0.00000000000E+00 -0.00000000000E+00 -0.10309777495E+03  0.10309777507E+03  0.50400000000E-02 0. -1.
         25    2    1    2    0    0 -0.13976625741E+02 -0.70711558736E+02  0.19026604156E+01  0.14430597116E+03  0.12500049036E+03 0.  0.
         23    2    1    2    0    0  0.13976625741E+02  0.70711558736E+02  0.73780930264E+02  0.13757316962E+03  0.91034502919E+02 0.  0.
        -11    1    4    4    0    0  0.60901940382E+01  0.83540308787E+02  0.26349683290E+02  0.87808766449E+02  0.51100000000E-03 0. -1.
         11    1    4    4    0    0  0.78864317032E+01 -0.12828750050E+02  0.47431246974E+02  0.49764403167E+02  0.51100000000E-03 0.  1.
    9000005    1    3    3    0    0 -0.64994334688E+02 -0.16502227959E+02  0.14984398910E+02  0.68717678074E+02  0.10000000000E+01 0.  0.
    9000005    1    3    3    0    0  0.51017708947E+02 -0.54209330778E+02 -0.13081738494E+02  0.75588293085E+02  0.10000000000E+01 0.  0.
<mgrwt>
<rscale>  0 0.13666498E+03</rscale>
<asrwt>0</asrwt>
<pdfrwt beam="2">  1        1 0.15861196E-01 0.14429343E+03</pdfrwt>
<pdfrwt beam="1">  1       -1 0.27504825E-01 0.14429343E+03</pdfrwt>
<totfact> 0.39488104E+03</totfact>
</mgrwt>
</event>
<event>
 8    2  0.7478846E-004  0.1496273E+03  0.7818608E-02  0.1210547E+00
          1   -1    0    0  501    0  0.00000000000E+00  0.00000000000E+00  0.11070359949E+03  0.11070359960E+03  0.50400000000E-02 0. -1.
         -1   -1    0    0    0  501 -0.00000000000E+00 -0.00000000000E+00 -0.16634108179E+03  0.16634108187E+03  0.50400000000E-02 0.  1.
         25    2    1    2    0    0 -0.76947778493E+02 -0.29036909591E+02 -0.34429954311E+02  0.15353746251E+03  0.12499691159E+03 0.  0.
         23    2    1    2    0    0  0.76947778493E+02  0.29036909591E+02 -0.21207527998E+02  0.12350721896E+03  0.89667001502E+02 0.  0.
        -11    1    4    4    0    0  0.17802476735E+02  0.53481143364E+02 -0.92983920438E+00  0.56373978701E+02  0.51100000000E-03 0. -1.
         11    1    4    4    0    0  0.59145301758E+02 -0.24444233773E+02 -0.20277688794E+02  0.67133240260E+02  0.51100000000E-03 0.  1.
    9000005    1    3    3    0    0 -0.89985361615E+02 -0.14734062291E+02  0.22056939121E+02  0.93818795878E+02  0.10000000000E+01 0.  0.
    9000005    1    3    3    0    0  0.13037583122E+02 -0.14302847300E+02 -0.56486893432E+02  0.59718666631E+02  0.10000000000E+01 0.  0.
<mgrwt>
<rscale>  0 0.14208772E+03</rscale>
<asrwt>0</asrwt>
<pdfrwt beam="1">  1        1 0.17031323E-01 0.14962731E+03</pdfrwt>
<pdfrwt beam="2">  1       -1 0.25590936E-01 0.14962731E+03</pdfrwt>
<totfact> 0.40680520E+03</totfact>
</mgrwt>
</event>
<event>
 8    2  0.7478846E-004  0.1713861E+03  0.7818608E-02  0.1182796E+00
          1   -1    0    0  501    0  0.00000000000E+00  0.00000000000E+00  0.19159539182E+03  0.19159539188E+03  0.50400000000E-02 0. -1.
         -1   -1    0    0    0  501 -0.00000000000E+00 -0.00000000000E+00 -0.14556357340E+03  0.14556357349E+03  0.50400000000E-02 0.  1.
         25    2    1    2    0    0 -0.62835340875E+02 -0.98993181279E+02 -0.23923821845E+02  0.17304778675E+03  0.12500102898E+03 0.  0.
         23    2    1    2    0    0  0.62835340875E+02  0.98993181279E+02  0.69955640264E+02  0.16411117862E+03  0.91053595978E+02 0.  0.
        -11    1    4    4    0    0 -0.14863618337E+01  0.17551542621E+02 -0.20086200050E+02  0.26715563864E+02  0.51100000000E-03 0.  1.
         11    1    4    4    0    0  0.64321702708E+02  0.81441638657E+02  0.90041840314E+02  0.13739561475E+03  0.51100000000E-03 0. -1.
    9000005    1    3    3    0    0 -0.50361812920E+01 -0.29228731364E+02  0.48633551912E+02  0.56972837657E+02  0.10000000000E+01 0.  0.
    9000005    1    3    3    0    0 -0.57799159583E+02 -0.69764449915E+02 -0.72557373757E+02  0.11607494909E+03  0.10000000000E+01 0.  0.
<mgrwt>
<rscale>  0 0.16534074E+03</rscale>
<asrwt>0</asrwt>
<pdfrwt beam="1">  1        1 0.29476214E-01 0.17138608E+03</pdfrwt>
<pdfrwt beam="2">  1       -1 0.22394396E-01 0.17138608E+03</pdfrwt>
<totfact> 0.25405354E+03</totfact>
</mgrwt>
</event>
<event>
 8    2  0.7478846E-004  0.1449374E+03  0.7818608E-02  0.1216292E+00
         -1   -1    0    0    0  501 -0.00000000000E+00  0.00000000000E+00  0.12953097014E+02  0.12953097995E+02  0.50400000000E-02 0.  1.
          1   -1    0    0  501    0  0.00000000000E+00 -0.00000000000E+00 -0.13656990406E+04  0.13656990406E+04  0.50400000000E-02 0. -1.
         25    2    1    2    0    0 -0.72268560308E+02  0.12481450121E+02 -0.64780588691E+03  0.66382175788E+03  0.12501331018E+03 0.  0.
         23    2    1    2    0    0  0.72268560308E+02 -0.12481450121E+02 -0.70494005666E+03  0.71483038071E+03  0.93077700251E+02 0.  0.
        -11    1    4    4    0    0  0.82974702734E+02 -0.15804718770E+02 -0.36265110432E+03  0.37235791101E+03  0.51100000000E-03 0.  1.
         11    1    4    4    0    0 -0.10706142426E+02  0.33232686488E+01 -0.34228895235E+03  0.34247246970E+03  0.51100000000E-03 0. -1.
    9000005    1    3    3    0    0 -0.55070911767E+02 -0.52729044115E+02 -0.30017623729E+03  0.30970942970E+03  0.10000000000E+01 0.  0.
    9000005    1    3    3    0    0 -0.17197648541E+02  0.65210494236E+02 -0.34762964962E+03  0.35411232818E+03  0.10000000000E+01 0.  0.
<mgrwt>
<rscale>  0 0.13782056E+03</rscale>
<asrwt>0</asrwt>
<pdfrwt beam="2">  1        1 0.21010743E+00 0.14493743E+03</pdfrwt>
<pdfrwt beam="1">  1       -1 0.19927853E-02 0.14493743E+03</pdfrwt>
<totfact> 0.59546547E+03</totfact>
</mgrwt>
</event>
<event>
 8    2  0.7478846E-004  0.1292491E+03  0.7818608E-02  0.1243035E+00
          1   -1    0    0  501    0  0.00000000000E+00  0.00000000000E+00  0.31991959060E+03  0.31991959064E+03  0.50400000000E-02 0. -1.
         -1   -1    0    0    0  501 -0.00000000000E+00 -0.00000000000E+00 -0.42548445761E+02  0.42548446060E+02  0.50400000000E-02 0.  1.
         25    2    1    2    0    0  0.26649817221E+02 -0.19261102758E+02  0.20407088578E+03  0.24155798645E+03  0.12499652619E+03 0.  0.
         23    2    1    2    0    0 -0.26649817221E+02  0.19261102758E+02  0.73300259066E+02  0.12091005025E+03  0.90360995100E+02 0.  0.
        -11    1    4    4    0    0  0.92923383444E+01 -0.30586327368E+02  0.39362125385E+02  0.50707473698E+02  0.51100000000E-03 0. -1.
         11    1    4    4    0    0 -0.35942155566E+02  0.49847430126E+02  0.33938133681E+02  0.70202576554E+02  0.51100000000E-03 0.  1.
    9000005    1    3    3    0    0  0.49776133626E+02 -0.50202403788E+01  0.17488664104E+02  0.53006788852E+02  0.10000000000E+01 0.  0.
    9000005    1    3    3    0    0 -0.23126316405E+02 -0.14240862379E+02  0.18658222167E+03  0.18855119760E+03  0.10000000000E+01 0.  0.
<mgrwt>
<rscale>  0 0.12003745E+03</rscale>
<asrwt>0</asrwt>
<pdfrwt beam="1">  1        1 0.49218399E-01 0.12924912E+03</pdfrwt>
<pdfrwt beam="2">  1       -1 0.65459147E-02 0.12924912E+03</pdfrwt>
<totfact> 0.89306365E+03</totfact>
</mgrwt>
</event>
<event>
 8    2  0.7478846E-004  0.1267297E+03  0.7818608E-02  0.1246356E+00
         -1   -1    0    0    0  501 -0.00000000000E+00  0.00000000000E+00  0.24086443436E+02  0.24086443963E+02  0.50400000000E-02 0.  1.
          1   -1    0    0  501    0  0.00000000000E+00 -0.00000000000E+00 -0.52852453232E+03  0.52852453235E+03  0.50400000000E-02 0. -1.
         25    2    1    2    0    0  0.52930151441E+01  0.20239396758E+02 -0.33484772266E+03  0.35802712874E+03  0.12499111309E+03 0.  0.
         23    2    1    2    0    0 -0.52930151441E+01 -0.20239396758E+02 -0.16959036622E+03  0.19458384757E+03  0.93082394838E+02 0.  0.
        -11    1    4    4    0    0 -0.86461756813E+01 -0.57071183359E+02 -0.91627801795E+02  0.10829372275E+03  0.51100000000E-03 0.  1.
         11    1    4    4    0    0  0.33531605372E+01  0.36831786601E+02 -0.77962564428E+02  0.86290124825E+02  0.51100000000E-03 0. -1.
    9000005    1    3    3    0    0  0.58933573282E+02 -0.97788573001E+01 -0.11305477465E+03  0.12787170985E+03  0.10000000000E+01 0.  0.
    9000005    1    3    3    0    0 -0.53640558138E+02  0.30018254058E+02 -0.22179294801E+03  0.23015541889E+03  0.10000000000E+01 0.  0.
<mgrwt>
<rscale>  0 0.11804590E+03</rscale>
<asrwt>0</asrwt>
<pdfrwt beam="2">  1        1 0.81311458E-01 0.12672974E+03</pdfrwt>
<pdfrwt beam="1">  1       -1 0.37056071E-02 0.12672974E+03</pdfrwt>
<totfact> 0.10934924E+04</totfact>
</mgrwt>
</event>
<event>
 8    2  0.7478846E-004  0.3069612E+03  0.7818608E-02  0.1083320E+00
         -1   -1    0    0    0  501 -0.00000000000E+00  0.00000000000E+00  0.57710886564E+02  0.57710886784E+02  0.50400000000E-02 0.  1.
          1   -1    0    0  501    0  0.00000000000E+00 -0.00000000000E+00 -0.18679726561E+04  0.18679726561E+04  0.50400000000E-02 0. -1.
         25    2    1    2    0    0  0.27091650524E+03  0.72140433521E+02 -0.13058652526E+04  0.13414578779E+04  0.12500074066E+03 0.  0.
         23    2    1    2    0    0 -0.27091650524E+03 -0.72140433521E+02 -0.50439651689E+03  0.58422566499E+03  0.91125114068E+02 0.  0.
        -11    1    4    4    0    0 -0.25108539976E+03 -0.77335491517E+02 -0.49747459075E+03  0.56258832610E+03  0.51100000000E-03 0. -1.
         11    1    4    4    0    0 -0.19831105484E+02  0.51950579961E+01 -0.69219261404E+01  0.21637338886E+02  0.51100000000E-03 0.  1.
    9000005    1    3    3    0    0  0.17032460668E+03  0.95312982204E+02 -0.99303807812E+03  0.10120378752E+04  0.10000000000E+01 0.  0.
    9000005    1    3    3    0    0  0.10059189857E+03 -0.23172548683E+02 -0.31282717453E+03  0.32942000272E+03  0.10000000000E+01 0.  0.
<mgrwt>
<rscale>  0 0.30387324E+03</rscale>
<asrwt>0</asrwt>
<pdfrwt beam="2">  1        1 0.28738036E+00 0.30696120E+03</pdfrwt>
<pdfrwt beam="1">  1       -1 0.88785994E-02 0.30696120E+03</pdfrwt>
<totfact> 0.29992908E+02</totfact>
</mgrwt>
</event>
<event>
 8    2  0.7478846E-004  0.3024333E+03  0.7818608E-02  0.1086116E+00
         -1   -1    0    0    0  501 -0.00000000000E+00  0.00000000000E+00  0.32047459439E+03  0.32047459443E+03  0.50400000000E-02 0.  1.
          1   -1    0    0  501    0  0.00000000000E+00 -0.00000000000E+00 -0.27270309000E+03  0.27270309005E+03  0.50400000000E-02 0. -1.
         25    2    1    2    0    0 -0.22863963817E+03 -0.15350820705E+03  0.53132973822E+02  0.30706518208E+03  0.12500023746E+03 0.  0.
         23    2    1    2    0    0  0.22863963817E+03  0.15350820705E+03 -0.53614694365E+01  0.28611250239E+03  0.77400031604E+02 0.  0.
        -11    1    4    4    0    0  0.94727755144E+02  0.21949301088E+02  0.10060625851E+02  0.97756511833E+02  0.51100000000E-03 0.  1.
         11    1    4    4    0    0  0.13391188303E+03  0.13155890597E+03 -0.15422095287E+02  0.18835599056E+03  0.51100000000E-03 0. -1.
    9000005    1    3    3    0    0 -0.14322971648E+03 -0.39015785841E+02  0.68315711747E+02  0.16341670569E+03  0.10000000000E+01 0.  0.
    9000005    1    3    3    0    0 -0.85409921689E+02 -0.11449242121E+03 -0.15182737925E+02  0.14364847639E+03  0.10000000000E+01 0.  0.
<mgrwt>
<rscale>  0 0.29825475E+03</rscale>
<asrwt>0</asrwt>
<pdfrwt beam="2">  1        1 0.41954322E-01 0.30243332E+03</pdfrwt>
<pdfrwt beam="1">  1       -1 0.49303783E-01 0.30243332E+03</pdfrwt>
<totfact> 0.41872383E+02</totfact>
</mgrwt>
</event>
<event>
 8    2  0.7478846E-004  0.1581976E+03  0.7818608E-02  0.1199638E+00
          1   -1    0    0  501    0  0.00000000000E+00  0.00000000000E+00  0.78057974693E+01  0.78057990964E+01  0.50400000000E-02 0. -1.
         -1   -1    0    0    0  501 -0.00000000000E+00 -0.00000000000E+00 -0.26648637575E+04  0.26648637575E+04  0.50400000000E-02 0.  1.
         25    2    1    2    0    0 -0.72927403921E+02  0.63899795090E+02 -0.14333426342E+04  0.14420463224E+04  0.12499959551E+03 0.  0.
         23    2    1    2    0    0  0.72927403921E+02 -0.63899795090E+02 -0.12237153259E+04  0.12306232342E+04  0.86906592541E+02 0.  0.
        -11    1    4    4    0    0  0.55247123758E+02 -0.60520395366E+02 -0.11860527606E+04  0.11888801933E+04  0.51100000000E-03 0.  1.
         11    1    4    4    0    0  0.17680280163E+02 -0.33793997238E+01 -0.37662565238E+02  0.41743040974E+02  0.51100000000E-03 0. -1.
    9000005    1    3    3    0    0 -0.74195483034E+02  0.90277461829E+02 -0.83699002223E+03  0.84510844696E+03  0.10000000000E+01 0.  0.
    9000005    1    3    3    0    0  0.12680791127E+01 -0.26377666739E+02 -0.59635261199E+03  0.59693787545E+03  0.10000000000E+01 0.  0.
<mgrwt>
<rscale>  0 0.15068156E+03</rscale>
<asrwt>0</asrwt>
<pdfrwt beam="1">  1        1 0.12008942E-02 0.15819763E+03</pdfrwt>
<pdfrwt beam="2">  1       -1 0.40997832E+00 0.15819763E+03</pdfrwt>
<totfact> 0.95459987E+01</totfact>
</mgrwt>
</event>
<event>
 8    2  0.7478846E-004  0.1428976E+03  0.7818608E-02  0.1219717E+00
          1   -1    0    0  501    0  0.00000000000E+00  0.00000000000E+00  0.99828179266E+03  0.99828179267E+03  0.50400000000E-02 0. -1.
         -1   -1    0    0    0  501 -0.00000000000E+00 -0.00000000000E+00 -0.19843494377E+02  0.19843495017E+02  0.50400000000E-02 0.  1.
         25    2    1    2    0    0 -0.32487600713E+02  0.61146102888E+02  0.73643640684E+03  0.75017217906E+03  0.12500170721E+03 0.  0.
         23    2    1    2    0    0  0.32487600713E+02 -0.61146102888E+02  0.24200189144E+03  0.26795310863E+03  0.91867637763E+02 0.  0.
        -11    1    4    4    0    0  0.41768240554E+02 -0.17173677669E+02  0.20447913989E+03  0.20940687613E+03  0.51100000000E-03 0. -1.
         11    1    4    4    0    0 -0.92806398410E+01 -0.43972425219E+02  0.37522751553E+02  0.58546232499E+02  0.51100000000E-03 0.  1.
    9000005    1    3    3    0    0 -0.29152868865E+02  0.10984690688E+02  0.64556455749E+03  0.64631660282E+03  0.10000000000E+01 0.  0.
    9000005    1    3    3    0    0 -0.33347318476E+01  0.50161412200E+02  0.90871849356E+02  0.10385557624E+03  0.10000000000E+01 0.  0.
<mgrwt>
<rscale>  0 0.13535673E+03</rscale>
<asrwt>0</asrwt>
<pdfrwt beam="1">  1        1 0.15358178E+00 0.14289757E+03</pdfrwt>
<pdfrwt beam="2">  1       -1 0.30528461E-02 0.14289757E+03</pdfrwt>
<totfact> 0.57533149E+03</totfact>
</mgrwt>
</event>
<event>
 8    2  0.7478846E-004  0.1275565E+03  0.7818608E-02  0.1247283E+00
         -1   -1    0    0    0  501 -0.00000000000E+00  0.00000000000E+00  0.30549533048E+03  0.30549533052E+03  0.50400000000E-02 0.  1.
          1   -1    0    0  501    0  0.00000000000E+00 -0.00000000000E+00 -0.41314299778E+02  0.41314300085E+02  0.50400000000E-02 0. -1.
         25    2    1    2    0    0 -0.14993246869E+02  0.20509312286E+02  0.11563763925E+03  0.17217063385E+03  0.12500093683E+03 0.  0.
         23    2    1    2    0    0  0.14993246869E+02 -0.20509312286E+02  0.14854339145E+03  0.17463899675E+03  0.88250839654E+02 0.  0.
        -11    1    4    4    0    0 -0.10967119189E+02 -0.29681591780E+01 -0.86965700774E+01  0.14307969932E+02  0.51100000000E-03 0. -1.
         11    1    4    4    0    0  0.25960366058E+02 -0.17541153108E+02  0.15723996153E+03  0.16033102682E+03  0.51100000000E-03 0.  1.
    9000005    1    3    3    0    0 -0.41140734033E+02  0.45022894160E+02  0.12139318322E+03  0.13585626937E+03  0.10000000000E+01 0.  0.
    9000005    1    3    3    0    0  0.26147487164E+02 -0.24513581874E+02 -0.57555439734E+01  0.36314364482E+02  0.10000000000E+01 0.  0.
<mgrwt>
<rscale>  0 0.11749756E+03</rscale>
<asrwt>0</asrwt>
<pdfrwt beam="2">  1        1 0.63560463E-02 0.12755651E+03</pdfrwt>
<pdfrwt beam="1">  1       -1 0.46999281E-01 0.12755651E+03</pdfrwt>
<totfact> 0.52164749E+03</totfact>
</mgrwt>
</event>
<event>
 8    2  0.7478846E-004  0.1501945E+03  0.7818608E-02  0.1209472E+00
          1   -1    0    0  501    0  0.00000000000E+00  0.00000000000E+00  0.53638871046E+02  0.53638871283E+02  0.50400000000E-02 0. -1.
         -1   -1    0    0    0  501 -0.00000000000E+00 -0.00000000000E+00 -0.35456030912E+03  0.35456030915E+03  0.50400000000E-02 0.  1.
         25    2    1    2    0    0 -0.75996262911E+02  0.34030146457E+02 -0.19253320169E+03  0.24418727350E+03  0.12499963177E+03 0.  0.
         23    2    1    2    0    0  0.75996262911E+02 -0.34030146457E+02 -0.10838823638E+03  0.16401190693E+03  0.90655463080E+02 0.  0.
        -11    1    4    4    0    0  0.34850716117E+02 -0.56219065672E+02 -0.94304987081E+02  0.11518934997E+03  0.51100000000E-03 0.  1.
         11    1    4    4    0    0  0.41145546794E+02  0.22188919214E+02 -0.14083249295E+02  0.48822556957E+02  0.51100000000E-03 0. -1.
    9000005    1    3    3    0    0 -0.71666172583E+02 -0.31056996734E+02 -0.67842158390E+02  0.10346079351E+03  0.10000000000E+01 0.  0.
    9000005    1    3    3    0    0 -0.43300903289E+01  0.65087143191E+02 -0.12469104330E+03  0.14072647999E+03  0.10000000000E+01 0.  0.
<mgrwt>
<rscale>  0 0.14290549E+03</rscale>
<asrwt>0</asrwt>
<pdfrwt beam="1">  1        1 0.82521342E-02 0.15019451E+03</pdfrwt>
<pdfrwt beam="2">  1       -1 0.54547738E-01 0.15019451E+03</pdfrwt>
<totfact> 0.28208242E+03</totfact>
</mgrwt>
</event>
<event>
 8    2  0.7478846E-004  0.1401899E+03  0.7818608E-02  0.1225338E+00
          1   -1    0    0  501    0  0.00000000000E+00  0.00000000000E+00  0.56186257305E+03  0.56186257308E+03  0.50400000000E-02 0.  1.
         -1   -1    0    0    0  501 -0.00000000000E+00 -0.00000000000E+00 -0.52557815700E+02  0.52557815941E+02  0.50400000000E-02 0. -1.
         25    2    1    2    0    0  0.63257875610E+02 -0.51815108053E+01  0.60430200024E+02  0.15265977476E+03  0.12499916349E+03 0.  0.
         23    2    1    2    0    0 -0.63257875610E+02  0.51815108053E+01  0.44887455733E+03  0.46176061426E+03  0.87784336766E+02 0.  0.
        -11    1    4    4    0    0  0.16546796092E+02  0.21579027222E+01  0.19282243118E+03  0.19354312948E+03  0.51100000000E-03 0.  1.
         11    1    4    4    0    0 -0.79804671702E+02  0.30236080831E+01  0.25605212615E+03  0.26821748478E+03  0.51100000000E-03 0. -1.
    9000005    1    3    3    0    0  0.88370135953E+02 -0.23764492866E+02  0.83176319137E+01  0.91892410188E+02  0.10000000000E+01 0.  0.
    9000005    1    3    3    0    0 -0.25112260343E+02  0.18582982060E+02  0.52112568110E+02  0.60767364571E+02  0.10000000000E+01 0.  0.
<mgrwt>
<rscale>  0 0.13143787E+03</rscale>
<asrwt>0</asrwt>
<pdfrwt beam="1">  1        1 0.86440397E-01 0.14018986E+03</pdfrwt>
<pdfrwt beam="2">  1       -1 0.80858177E-02 0.14018986E+03</pdfrwt>
<totfact> 0.31838453E+03</totfact>
</mgrwt>
</event>
<event>
 8    2  0.7478846E-004  0.1662390E+03  0.7818608E-02  0.1188587E+00
         -1   -1    0    0    0  501 -0.00000000000E+00  0.00000000000E+00  0.10999041810E+02  0.10999042965E+02  0.50400000000E-02 0.  1.
          1   -1    0    0  501    0  0.00000000000E+00 -0.00000000000E+00 -0.22135955753E+04  0.22135955753E+04  0.50400000000E-02 0. -1.
         25    2    1    2    0    0 -0.25555459040E+02  0.10656980614E+03 -0.13317209266E+04  0.13420566389E+04  0.12500076289E+03 0.  0.
         23    2    1    2    0    0  0.25555459040E+02 -0.10656980614E+03 -0.87087560694E+03  0.88253797937E+03  0.91862708494E+02 0.  0.
        -11    1    4    4    0    0 -0.22609290200E+01 -0.58268714793E+02 -0.70783852987E+03  0.71023639677E+03  0.51100000000E-03 0. -1.
         11    1    4    4    0    0  0.27816388060E+02 -0.48301091347E+02 -0.16303707706E+03  0.17230158260E+03  0.51100000000E-03 0.  1.
    9000005    1    3    3    0    0  0.26572902278E+02  0.10389232707E+03 -0.69816669828E+03  0.70635506181E+03  0.10000000000E+01 0.  0.
    9000005    1    3    3    0    0 -0.52128361318E+02  0.26774790735E+01 -0.63355422829E+03  0.63570157711E+03  0.10000000000E+01 0.  0.
<mgrwt>
<rscale>  0 0.16009713E+03</rscale>
<asrwt>0</asrwt>
<pdfrwt beam="2">  1        1 0.34055281E+00 0.16623897E+03</pdfrwt>
<pdfrwt beam="1">  1       -1 0.16921621E-02 0.16623897E+03</pdfrwt>
<totfact> 0.21506773E+03</totfact>
</mgrwt>
</event>
<event>
 8    2  0.7478846E-004  0.1666997E+03  0.7818608E-02  0.1188227E+00
         -1   -1    0    0    0  501 -0.00000000000E+00  0.00000000000E+00  0.31183090651E+02  0.31183091058E+02  0.50400000000E-02 0.  1.
          1   -1    0    0  501    0  0.00000000000E+00 -0.00000000000E+00 -0.77614194059E+03  0.77614194061E+03  0.50400000000E-02 0. -1.
         25    2    1    2    0    0  0.57455299652E+02 -0.94138244222E+02 -0.36143789802E+03  0.39802780248E+03  0.12500262772E+03 0.  0.
         23    2    1    2    0    0 -0.57455299652E+02  0.94138244222E+02 -0.38352095192E+03  0.40929722919E+03  0.90954828217E+02 0.  0.
        -11    1    4    4    0    0 -0.26953154159E+02  0.10308440474E+03 -0.24483459336E+03  0.26701469085E+03  0.51100000000E-03 0.  1.
         11    1    4    4    0    0 -0.30502145493E+02 -0.89461605140E+01 -0.13868635856E+03  0.14228253834E+03  0.51100000000E-03 0. -1.
    9000005    1    3    3    0    0 -0.25033061739E+02  0.73946885952E+01 -0.12606008395E+03  0.12873802999E+03  0.10000000000E+01 0.  0.
    9000005    1    3    3    0    0  0.82488361390E+02 -0.10153293282E+03 -0.23537781407E+03  0.26928977249E+03  0.10000000000E+01 0.  0.
<mgrwt>
<rscale>  0 0.16041695E+03</rscale>
<asrwt>0</asrwt>
<pdfrwt beam="2">  1        1 0.11940644E+00 0.16669966E+03</pdfrwt>
<pdfrwt beam="1">  1       -1 0.47973992E-02 0.16669966E+03</pdfrwt>
<totfact> 0.44377614E+03</totfact>
</mgrwt>
</event>
<event>
 8    2  0.7478846E-004  0.1575980E+03  0.7818608E-02  0.1203298E+00
         -1   -1    0    0    0  501 -0.00000000000E+00  0.00000000000E+00  0.61494329221E+01  0.61494349874E+01  0.50400000000E-02 0.  1.
          1   -1    0    0  501    0  0.00000000000E+00 -0.00000000000E+00 -0.32747823767E+04  0.32747823767E+04  0.50400000000E-02 0. -1.
         25    2    1    2    0    0 -0.42411785775E+02  0.86104785814E+02 -0.21283917607E+04  0.21342185007E+04  0.12499731131E+03 0.  0.
         23    2    1    2    0    0  0.42411785775E+02 -0.86104785814E+02 -0.11402411831E+04  0.11467133111E+04  0.74757396925E+02 0.  0.
        -11    1    4    4    0    0 -0.12124163705E+02 -0.59671164341E+02 -0.54148734173E+03  0.54490016007E+03  0.51100000000E-03 0.  1.
         11    1    4    4    0    0  0.54535949479E+02 -0.26433621473E+02 -0.59875384139E+03  0.60181315099E+03  0.51100000000E-03 0. -1.
    9000005    1    3    3    0    0 -0.24477504819E+02  0.67102721478E+01 -0.74437862558E+02  0.78652217875E+02  0.10000000000E+01 0.  0.
    9000005    1    3    3    0    0 -0.17934280956E+02  0.79394513666E+02 -0.20539538981E+04  0.20555662828E+04  0.10000000000E+01 0.  0.
<mgrwt>
<rscale>  0 0.14772400E+03</rscale>
<asrwt>0</asrwt>
<pdfrwt beam="2">  1        1 0.50381128E+00 0.15759797E+03</pdfrwt>
<pdfrwt beam="1">  1       -1 0.94606938E-03 0.15759797E+03</pdfrwt>
<totfact> 0.95643736E+02</totfact>
</mgrwt>
</event>
<event>
 8    2  0.7478846E-004  0.1333934E+03  0.7818608E-02  0.1232392E+00
         -1   -1    0    0    0  501 -0.00000000000E+00  0.00000000000E+00  0.52127602529E+03  0.52127602531E+03  0.50400000000E-02 0.  1.
          1   -1    0    0  501    0  0.00000000000E+00 -0.00000000000E+00 -0.28581161691E+02  0.28581162135E+02  0.50400000000E-02 0. -1.
         25    2    1    2    0    0  0.25441283193E+02  0.38990172425E+02  0.30655392362E+03  0.33431885445E+03  0.12500518358E+03 0.  0.
         23    2    1    2    0    0 -0.25441283193E+02 -0.38990172425E+02  0.18614093998E+03  0.21553833299E+03  0.98187733538E+02 0.  0.
        -11    1    4    4    0    0 -0.19820440697E+02 -0.85602039896E+01 -0.47908675303E+01  0.22115139017E+02  0.51100000000E-03 0. -1.
         11    1    4    4    0    0 -0.56208424953E+01 -0.30429968435E+02  0.19093180751E+03  0.19342319398E+03  0.51100000000E-03 0.  1.
    9000005    1    3    3    0    0  0.12623472292E+02  0.80511604462E+02  0.13818090373E+03  0.16042578552E+03  0.10000000000E+01 0.  0.
    9000005    1    3    3    0    0  0.12817810901E+02 -0.41521432037E+02  0.16837301989E+03  0.17389306893E+03  0.10000000000E+01 0.  0.
<mgrwt>
<rscale>  0 0.12672847E+03</rscale>
<asrwt>0</asrwt>
<pdfrwt beam="2">  1        1 0.43971017E-02 0.13339336E+03</pdfrwt>
<pdfrwt beam="1">  1       -1 0.80196315E-01 0.13339336E+03</pdfrwt>
<totfact> 0.31098871E+03</totfact>
</mgrwt>
</event>
<event>
 8    2  0.7478846E-004  0.1639232E+03  0.7818608E-02  0.1191413E+00
          1   -1    0    0  501    0  0.00000000000E+00  0.00000000000E+00  0.38382344216E+03  0.38382344220E+03  0.50400000000E-02 0. -1.
         -1   -1    0    0    0  501 -0.00000000000E+00 -0.00000000000E+00 -0.10129821604E+03  0.10129821617E+03  0.50400000000E-02 0.  1.
         25    2    1    2    0    0  0.30838756512E+02 -0.10146465342E+03 -0.63619818700E+01  0.16404665718E+03  0.12499890448E+03 0.  0.
         23    2    1    2    0    0 -0.30838756512E+02  0.10146465342E+03  0.28888720799E+03  0.32107500119E+03  0.91581835812E+02 0.  0.
        -11    1    4    4    0    0 -0.26536810854E+02  0.10556858254E+03  0.16888460562E+03  0.20092520490E+03  0.51100000000E-03 0.  1.
         11    1    4    4    0    0 -0.43019456580E+01 -0.41039291243E+01  0.12000260237E+03  0.12014979628E+03  0.51100000000E-03 0. -1.
    9000005    1    3    3    0    0  0.64761964177E+02 -0.11018396128E+03  0.27525833324E+01  0.12784050236E+03  0.10000000000E+01 0.  0.
    9000005    1    3    3    0    0 -0.33923207666E+02  0.87193078629E+01 -0.91145652024E+01  0.36206154819E+02  0.10000000000E+01 0.  0.
<mgrwt>
<rscale>  0 0.15761759E+03</rscale>
<asrwt>0</asrwt>
<pdfrwt beam="1">  1        1 0.59049761E-01 0.16392325E+03</pdfrwt>
<pdfrwt beam="2">  1       -1 0.15584341E-01 0.16392325E+03</pdfrwt>
<totfact> 0.19057015E+03</totfact>
</mgrwt>
</event>
<event>
 8    2  0.7478846E-004  0.1514253E+03  0.7818608E-02  0.1208479E+00
          1   -1    0    0  501    0  0.00000000000E+00  0.00000000000E+00  0.18343658940E+04  0.18343658940E+04  0.50400000000E-02 0. -1.
         -1   -1    0    0    0  501 -0.00000000000E+00 -0.00000000000E+00 -0.19172021652E+02  0.19172022314E+02  0.50400000000E-02 0.  1.
         25    2    1    2    0    0 -0.34526926865E+02  0.78181583664E+02  0.15891013926E+04  0.15962997353E+04  0.12500056030E+03 0.  0.
         23    2    1    2    0    0  0.34526926865E+02 -0.78181583664E+02  0.22609247976E+03  0.25723818108E+03  0.88029561526E+02 0.  0.
        -11    1    4    4    0    0 -0.21743169776E+02  0.98804723324E+00  0.20699244157E+02  0.30036650582E+02  0.51100000000E-03 0.  1.
         11    1    4    4    0    0  0.56270096642E+02 -0.79169630897E+02  0.20539323560E+03  0.22720153050E+03  0.51100000000E-03 0. -1.
    9000005    1    3    3    0    0  0.41185541634E+02  0.58472409921E+02  0.64213957023E+03  0.64611105796E+03  0.10000000000E+01 0.  0.
    9000005    1    3    3    0    0 -0.75712468499E+02  0.19709173743E+02  0.94696182239E+03  0.95018867731E+03  0.10000000000E+01 0.  0.
<mgrwt>
<rscale>  0 0.14366602E+03</rscale>
<asrwt>0</asrwt>
<pdfrwt beam="1">  1        1 0.28221016E+00 0.15142526E+03</pdfrwt>
<pdfrwt beam="2">  1       -1 0.29495416E-02 0.15142526E+03</pdfrwt>
<totfact> 0.16790687E+03</totfact>
</mgrwt>
</event>
<event>
 8    2  0.7478846E-004  0.1601545E+03  0.7818608E-02  0.1196412E+00
          1   -1    0    0  501    0  0.00000000000E+00  0.00000000000E+00  0.59457551818E+03  0.59457551820E+03  0.50400000000E-02 0. -1.
         -1   -1    0    0    0  501 -0.00000000000E+00 -0.00000000000E+00 -0.39224250972E+02  0.39224251296E+02  0.50400000000E-02 0.  1.
         25    2    1    2    0    0  0.10017346266E+01 -0.10011781346E+03  0.38269291735E+03  0.41485337448E+03  0.12499949315E+03 0.  0.
         23    2    1    2    0    0 -0.10017346266E+01  0.10011781346E+03  0.17265834986E+03  0.21894639501E+03  0.90011321888E+02 0.  0.
        -11    1    4    4    0    0 -0.20922157172E+02  0.66245788912E+02  0.39081499798E+02  0.79709502796E+02  0.51100000000E-03 0.  1.
         11    1    4    4    0    0  0.19920422546E+02  0.33872024553E+02  0.13357685006E+03  0.13923689222E+03  0.51100000000E-03 0. -1.
    9000005    1    3    3    0    0 -0.47645077833E+02 -0.28541905176E+02  0.25235866777E+03  0.25840005997E+03  0.10000000000E+01 0.  0.
    9000005    1    3    3    0    0  0.48646812460E+02 -0.71575908288E+02  0.13033424957E+03  0.15645331451E+03  0.10000000000E+01 0.  0.
<mgrwt>
<rscale>  0 0.15335357E+03</rscale>
<asrwt>0</asrwt>
<pdfrwt beam="1">  1        1 0.91473153E-01 0.16015447E+03</pdfrwt>
<pdfrwt beam="2">  1       -1 0.60345004E-02 0.16015447E+03</pdfrwt>
<totfact> 0.46038174E+03</totfact>
</mgrwt>
</event>
<event>
 8    2  0.7478846E-004  0.1295678E+03  0.7818608E-02  0.1240748E+00
          1   -1    0    0  501    0  0.00000000000E+00  0.00000000000E+00  0.99420138072E+02  0.99420138199E+02  0.50400000000E-02 0. -1.
         -1   -1    0    0    0  501 -0.00000000000E+00 -0.00000000000E+00 -0.13263770503E+03  0.13263770512E+03  0.50400000000E-02 0.  1.
         25    2    1    2    0    0  0.34031876041E+02 -0.14173989581E+01 -0.14919622067E+02  0.13042395632E+03  0.12501054217E+03 0.  0.
         23    2    1    2    0    0 -0.34031876041E+02  0.14173989581E+01 -0.18297944889E+02  0.10163388700E+03  0.93991779395E+02 0.  0.
        -11    1    4    4    0    0 -0.25956549917E+02 -0.22215322351E+02 -0.50444950452E+02  0.60925824222E+02  0.51100000000E-03 0.  1.
         11    1    4    4    0    0 -0.80753261234E+01  0.23632721309E+02  0.32147005564E+02  0.40708062782E+02  0.51100000000E-03 0. -1.
    9000005    1    3    3    0    0  0.78433698293E+02 -0.12552365435E+02 -0.25498524841E+02  0.83430100533E+02  0.10000000000E+01 0.  0.
    9000005    1    3    3    0    0 -0.44401822252E+02  0.11134966476E+02  0.10578902773E+02  0.46993855786E+02  0.10000000000E+01 0.  0.
<mgrwt>
<rscale>  0 0.12143494E+03</rscale>
<asrwt>0</asrwt>
<pdfrwt beam="1">  1        1 0.15295406E-01 0.12956779E+03</pdfrwt>
<pdfrwt beam="2">  1       -1 0.20405801E-01 0.12956779E+03</pdfrwt>
<totfact> 0.66943558E+03</totfact>
</mgrwt>
</event>
<event>
 8    2  0.7478846E-004  0.1670348E+03  0.7818608E-02  0.1193189E+00
         -1   -1    0    0    0  501 -0.00000000000E+00  0.00000000000E+00  0.29116369028E+02  0.29116369464E+02  0.50400000000E-02 0. -1.
          1   -1    0    0  501    0  0.00000000000E+00 -0.00000000000E+00 -0.76226473035E+03  0.76226473037E+03  0.50400000000E-02 0.  1.
         25    2    1    2    0    0  0.10717171611E+03  0.28099808638E+02 -0.35434507425E+03  0.39174103831E+03  0.12500093389E+03 0.  0.
         23    2    1    2    0    0 -0.10717171611E+03 -0.28099808638E+02 -0.37880328708E+03  0.39964006152E+03  0.62808219960E+02 0.  0.
        -11    1    4    4    0    0 -0.11496055567E+03 -0.21131452749E+02 -0.34966086749E+03  0.36868033567E+03  0.51100000000E-03 0.  1.
         11    1    4    4    0    0  0.77888395544E+01 -0.69683558893E+01 -0.29142419589E+02  0.30959725857E+02  0.51100000000E-03 0. -1.
    9000005    1    3    3    0    0  0.17636454922E+02 -0.39830501043E+02 -0.17290466028E+03  0.17831022097E+03  0.10000000000E+01 0.  0.
    9000005    1    3    3    0    0  0.89535261189E+02  0.67930309681E+02 -0.18144041396E+03  0.21343081734E+03  0.10000000000E+01 0.  0.
<mgrwt>
<rscale>  0 0.15608541E+03</rscale>
<asrwt>0</asrwt>
<pdfrwt beam="2">  1        1 0.11727148E+00 0.16703476E+03</pdfrwt>
<pdfrwt beam="1">  1       -1 0.44794420E-02 0.16703476E+03</pdfrwt>
<totfact> 0.50474455E+03</totfact>
</mgrwt>
</event>
<event>
 8    2  0.7478846E-004  0.1817483E+03  0.7818608E-02  0.1171862E+00
          1   -1    0    0  501    0  0.00000000000E+00  0.00000000000E+00  0.12201364602E+03  0.12201364612E+03  0.50400000000E-02 0. -1.
         -1   -1    0    0    0  501 -0.00000000000E+00 -0.00000000000E+00 -0.23839532972E+03  0.23839532977E+03  0.50400000000E-02 0.  1.
         25    2    1    2    0    0 -0.12415963782E+03 -0.44641934950E+02 -0.61072758756E+02  0.19173501440E+03  0.12499566339E+03 0.  0.
         23    2    1    2    0    0  0.12415963782E+03  0.44641934950E+02 -0.55308924948E+02  0.16867396149E+03  0.89349370932E+02 0.  0.
        -11    1    4    4    0    0 -0.47080161775E+01  0.19879784987E+02 -0.27961151596E+02  0.34629427750E+02  0.51100000000E-03 0.  1.
         11    1    4    4    0    0  0.12886765400E+03  0.24762149963E+02 -0.27347773352E+02  0.13404453374E+03  0.51100000000E-03 0. -1.
    9000005    1    3    3    0    0 -0.13526976060E+03 -0.92047579720E+00 -0.35445644140E+02  0.13984330194E+03  0.10000000000E+01 0.  0.
    9000005    1    3    3    0    0  0.11110122782E+02 -0.43721459153E+02 -0.25627114616E+02  0.51891712462E+02  0.10000000000E+01 0.  0.
<mgrwt>
<rscale>  0 0.17586907E+03</rscale>
<asrwt>0</asrwt>
<pdfrwt beam="1">  1        1 0.18771330E-01 0.18174827E+03</pdfrwt>
<pdfrwt beam="2">  1       -1 0.36676205E-01 0.18174827E+03</pdfrwt>
<totfact> 0.19681332E+03</totfact>
</mgrwt>
</event>
<event>
 8    2  0.7478846E-004  0.1433620E+03  0.7818608E-02  0.1219489E+00
         -1   -1    0    0    0  501 -0.00000000000E+00  0.00000000000E+00  0.92028922821E+02  0.92028922959E+02  0.50400000000E-02 0.  1.
          1   -1    0    0  501    0  0.00000000000E+00 -0.00000000000E+00 -0.35508295615E+03  0.35508295618E+03  0.50400000000E-02 0. -1.
         25    2    1    2    0    0 -0.69393663385E+02  0.10634873812E+02  0.17191219953E+02  0.14438909569E+03  0.12499636735E+03 0.  0.
         23    2    1    2    0    0  0.69393663385E+02 -0.10634873812E+02 -0.28024525328E+03  0.30272278345E+03  0.90416262796E+02 0.  0.
        -11    1    4    4    0    0  0.44636394818E+02 -0.47510402013E+02 -0.12153101940E+03  0.13791096664E+03  0.51100000000E-03 0.  1.
         11    1    4    4    0    0  0.24757268567E+02  0.36875528200E+02 -0.15871423388E+03  0.16481181682E+03  0.51100000000E-03 0. -1.
    9000005    1    3    3    0    0 -0.85446319604E+02 -0.36974093788E+02  0.10866467539E+02  0.93740264893E+02  0.10000000000E+01 0.  0.
    9000005    1    3    3    0    0  0.16052656220E+02  0.47608967600E+02  0.63247524143E+01  0.50648830794E+02  0.10000000000E+01 0.  0.
<mgrwt>
<rscale>  0 0.13551887E+03</rscale>
<asrwt>0</asrwt>
<pdfrwt beam="2">  1        1 0.54628146E-01 0.14336203E+03</pdfrwt>
<pdfrwt beam="1">  1       -1 0.14158296E-01 0.14336203E+03</pdfrwt>
<totfact> 0.24330451E+03</totfact>
</mgrwt>
</event>
<event>
 8    2  0.7478846E-004  0.1307708E+03  0.7818608E-02  0.1240236E+00
         -1   -1    0    0    0  501 -0.00000000000E+00  0.00000000000E+00  0.13847413308E+02  0.13847414226E+02  0.50400000000E-02 0.  1.
          1   -1    0    0  501    0  0.00000000000E+00 -0.00000000000E+00 -0.96834674132E+03  0.96834674134E+03  0.50400000000E-02 0. -1.
         25    2    1    2    0    0  0.27348981943E+02  0.26995758116E+02 -0.47129990635E+03  0.48910592017E+03  0.12499704656E+03 0.  0.
         23    2    1    2    0    0 -0.27348981943E+02 -0.26995758116E+02 -0.48319942166E+03  0.49308823539E+03  0.90430022757E+02 0.  0.
        -11    1    4    4    0    0 -0.44668034957E+02 -0.45359415336E+02 -0.23044795255E+03  0.23907941932E+03  0.51100000000E-03 0.  1.
         11    1    4    4    0    0  0.17319053014E+02  0.18363657220E+02 -0.25275146912E+03  0.25400881608E+03  0.51100000000E-03 0. -1.
    9000005    1    3    3    0    0  0.29926009339E+01  0.48010783389E+02 -0.61695074982E+02  0.78238566315E+02  0.10000000000E+01 0.  0.
    9000005    1    3    3    0    0  0.24356381009E+02 -0.21015025274E+02 -0.40960483137E+03  0.41086735386E+03  0.10000000000E+01 0.  0.
<mgrwt>
<rscale>  0 0.12175122E+03</rscale>
<asrwt>0</asrwt>
<pdfrwt beam="2">  1        1 0.14897637E+00 0.13077079E+03</pdfrwt>
<pdfrwt beam="1">  1       -1 0.21303721E-02 0.13077079E+03</pdfrwt>
<totfact> 0.10155369E+04</totfact>
</mgrwt>
</event>
<event>
 8    2  0.7478846E-004  0.1459692E+03  0.7818608E-02  0.1217083E+00
          1   -1    0    0  501    0  0.00000000000E+00  0.00000000000E+00  0.80116791428E+03  0.80116791430E+03  0.50400000000E-02 0. -1.
         -1   -1    0    0    0  501 -0.00000000000E+00 -0.00000000000E+00 -0.21110037745E+02  0.21110038347E+02  0.50400000000E-02 0.  1.
         25    2    1    2    0    0 -0.20243134718E+02 -0.72613892872E+02  0.44547496351E+03  0.46878027029E+03  0.12499774702E+03 0.  0.
         23    2    1    2    0    0  0.20243134718E+02  0.72613892872E+02  0.33458291302E+03  0.35349768235E+03  0.85628989243E+02 0.  0.
        -11    1    4    4    0    0 -0.68685553538E+01  0.23111783435E+02  0.13786411824E+02  0.27774029910E+02  0.51100000000E-03 0.  1.
         11    1    4    4    0    0  0.27111690072E+02  0.49502109436E+02  0.32079650120E+03  0.32572365244E+03  0.51100000000E-03 0. -1.
    9000005    1    3    3    0    0  0.21821079575E+02  0.18126622309E+02  0.22369911153E+03  0.22549285233E+03  0.10000000000E+01 0.  0.
    9000005    1    3    3    0    0 -0.42064214294E+02 -0.90740515181E+02  0.22177585198E+03  0.24328741797E+03  0.10000000000E+01 0.  0.
<mgrwt>
<rscale>  0 0.13724638E+03</rscale>
<asrwt>0</asrwt>
<pdfrwt beam="1">  1        1 0.12325657E+00 0.14596917E+03</pdfrwt>
<pdfrwt beam="2">  1       -1 0.32476990E-02 0.14596917E+03</pdfrwt>
<totfact> 0.74708997E+03</totfact>
</mgrwt>
</event>
<event>
 8    2  0.7478846E-004  0.1401030E+03  0.7818608E-02  0.1221794E+00
         -1   -1    0    0    0  501 -0.00000000000E+00  0.00000000000E+00  0.39870222425E+02  0.39870222743E+02  0.50400000000E-02 0.  1.
          1   -1    0    0  501    0  0.00000000000E+00 -0.00000000000E+00 -0.46384752507E+03  0.46384752509E+03  0.50400000000E-02 0. -1.
         25    2    1    2    0    0 -0.17883972343E+02 -0.60782747252E+02 -0.31134368139E+03  0.34141430857E+03  0.12495784619E+03 0.  0.
         23    2    1    2    0    0  0.17883972343E+02  0.60782747252E+02 -0.11263362125E+03  0.16230343926E+03  0.98192132737E+02 0.  0.
        -11    1    4    4    0    0  0.35344752030E+02 -0.12080684792E+01 -0.34403398920E+01  0.35532335476E+02  0.51100000000E-03 0.  1.
         11    1    4    4    0    0 -0.17460779687E+02  0.61990815731E+02 -0.10919328136E+03  0.12677110379E+03  0.51100000000E-03 0. -1.
    9000005    1    3    3    0    0 -0.55174181513E+02 -0.35823888325E+02 -0.70524220447E+02  0.96447949434E+02  0.10000000000E+01 0.  0.
    9000005    1    3    3    0    0  0.37290209170E+02 -0.24958858927E+02 -0.24081946095E+03  0.24496635914E+03  0.10000000000E+01 0.  0.
<mgrwt>
<rscale>  0 0.13389095E+03</rscale>
<asrwt>0</asrwt>
<pdfrwt beam="2">  1        1 0.71361154E-01 0.14010297E+03</pdfrwt>
<pdfrwt beam="1">  1       -1 0.61338807E-02 0.14010297E+03</pdfrwt>
<totfact> 0.61983650E+03</totfact>
</mgrwt>
</event>
<event>
 8    2  0.7478846E-004  0.1303563E+03  0.7818608E-02  0.1240163E+00
         -1   -1    0    0    0  501 -0.00000000000E+00  0.00000000000E+00  0.23475432490E+02  0.23475433031E+02  0.50400000000E-02 0.  1.
          1   -1    0    0  501    0  0.00000000000E+00 -0.00000000000E+00 -0.56471582150E+03  0.56471582152E+03  0.50400000000E-02 0. -1.
         25    2    1    2    0    0  0.72981517070E-01 -0.36989254179E+02 -0.28634483251E+03  0.31462059256E+03  0.12499817561E+03 0.  0.
         23    2    1    2    0    0 -0.72981517070E-01  0.36989254179E+02 -0.25489555650E+03  0.27357066200E+03  0.92200608082E+02 0.  0.
        -11    1    4    4    0    0  0.33313538544E+02  0.36222372375E+02 -0.69309489654E+02  0.85003867366E+02  0.51100000000E-03 0.  1.
         11    1    4    4    0    0 -0.33386520062E+02  0.76688180373E+00 -0.18558606684E+03  0.18856679463E+03  0.51100000000E-03 0. -1.
    9000005    1    3    3    0    0  0.81972570321E+01  0.19840880629E+02  0.10791054353E+01  0.21517900351E+02  0.10000000000E+01 0.  0.
    9000005    1    3    3    0    0 -0.81242755151E+01 -0.56830134808E+02 -0.28742393794E+03  0.29310269221E+03  0.10000000000E+01 0.  0.
<mgrwt>
<rscale>  0 0.12179626E+03</rscale>
<asrwt>0</asrwt>
<pdfrwt beam="2">  1        1 0.86879347E-01 0.13035626E+03</pdfrwt>
<pdfrwt beam="1">  1       -1 0.36116055E-02 0.13035626E+03</pdfrwt>
<totfact> 0.10419975E+04</totfact>
</mgrwt>
</event>
<event>
 8    2  0.7478846E-004  0.1328174E+03  0.7818608E-02  0.1236429E+00
         -1   -1    0    0    0  501 -0.00000000000E+00  0.00000000000E+00  0.77628967160E+01  0.77628983521E+01  0.50400000000E-02 0.  1.
          1   -1    0    0  501    0  0.00000000000E+00 -0.00000000000E+00 -0.21989686487E+04  0.21989686487E+04  0.50400000000E-02 0. -1.
         25    2    1    2    0    0 -0.40908937882E+02 -0.18493577622E+02 -0.16999945553E+04  0.17051750511E+04  0.12499965407E+03 0.  0.
         23    2    1    2    0    0  0.40908937882E+02  0.18493577622E+02 -0.49121119671E+03  0.50155649590E+03  0.90856618882E+02 0.  0.
        -11    1    4    4    0    0  0.22463129356E+02 -0.29093772885E+02 -0.91603650675E+02  0.98702931154E+02  0.51100000000E-03 0.  1.
         11    1    4    4    0    0  0.18445808526E+02  0.47587350507E+02 -0.39960754603E+03  0.40285356475E+03  0.51100000000E-03 0. -1.
    9000005    1    3    3    0    0 -0.10104199034E+02 -0.61887932584E+02 -0.48815327041E+03  0.49216544621E+03  0.10000000000E+01 0.  0.
    9000005    1    3    3    0    0 -0.30804738848E+02  0.43394354962E+02 -0.12118412848E+04  0.12130096049E+04  0.10000000000E+01 0.  0.
<mgrwt>
<rscale>  0 0.12413382E+03</rscale>
<asrwt>0</asrwt>
<pdfrwt beam="2">  1        1 0.33830237E+00 0.13281742E+03</pdfrwt>
<pdfrwt beam="1">  1       -1 0.11942937E-02 0.13281742E+03</pdfrwt>
<totfact> 0.36220640E+03</totfact>
</mgrwt>
</event>
<event>
 8    2  0.7478846E-004  0.1599331E+03  0.7818608E-02  0.1196748E+00
         -1   -1    0    0    0  501 -0.00000000000E+00  0.00000000000E+00  0.41143761048E+02  0.41143761357E+02  0.50400000000E-02 0.  1.
          1   -1    0    0  501    0  0.00000000000E+00 -0.00000000000E+00 -0.52819310298E+03  0.52819310301E+03  0.50400000000E-02 0. -1.
         25    2    1    2    0    0 -0.99571398947E+02 -0.64389392939E+01 -0.28421929186E+03  0.32612759181E+03  0.12499070704E+03 0.  0.
         23    2    1    2    0    0  0.99571398947E+02  0.64389392939E+01 -0.20283005007E+03  0.24320927255E+03  0.89748524307E+02 0.  0.
        -11    1    4    4    0    0  0.38983043329E+00  0.26157478940E+02 -0.79662141665E+02  0.83847614678E+02  0.51100000000E-03 0. -1.
         11    1    4    4    0    0  0.99181568514E+02 -0.19718539646E+02 -0.12316790841E+03  0.15936165787E+03  0.51100000000E-03 0.  1.
    9000005    1    3    3    0    0 -0.85697060079E+02  0.21498985422E+02 -0.78926580808E+02  0.11847614797E+03  0.10000000000E+01 0.  0.
    9000005    1    3    3    0    0 -0.13874338868E+02 -0.27937924715E+02 -0.20529271105E+03  0.20765144384E+03  0.10000000000E+01 0.  0.
<mgrwt>
<rscale>  0 0.15307180E+03</rscale>
<asrwt>0</asrwt>
<pdfrwt beam="2">  1        1 0.81260473E-01 0.15993311E+03</pdfrwt>
<pdfrwt beam="1">  1       -1 0.63298098E-02 0.15993311E+03</pdfrwt>
<totfact> 0.50257857E+03</totfact>
</mgrwt>
</event>
<event>
 8    2  0.7478846E-004  0.1279798E+03  0.7818608E-02  0.1261041E+00
          1   -1    0    0  501    0  0.00000000000E+00  0.00000000000E+00  0.18633652075E+03  0.18633652082E+03  0.50400000000E-02 0. -1.
         -1   -1    0    0    0  501 -0.00000000000E+00 -0.00000000000E+00 -0.65826231997E+02  0.65826232190E+02  0.50400000000E-02 0.  1.
         25    2    1    2    0    0 -0.25073155961E+02 -0.11182361964E+02  0.12986546862E+03  0.18232900109E+03  0.12500046532E+03 0.  0.
         23    2    1    2    0    0  0.25073155961E+02  0.11182361964E+02 -0.93551798729E+01  0.69833751914E+02  0.63525783324E+02 0.  0.
        -11    1    4    4    0    0  0.26760871337E+02  0.34447561380E+02  0.24513741749E+01  0.43689677904E+02  0.51100000000E-03 0.  1.
         11    1    4    4    0    0 -0.16877153758E+01 -0.23265199416E+02 -0.11806554048E+02  0.26144074009E+02  0.51100000000E-03 0. -1.
    9000005    1    3    3    0    0  0.27610049977E+02  0.35161321687E+02  0.13977196227E+02  0.46850778188E+02  0.10000000000E+01 0.  0.
    9000005    1    3    3    0    0 -0.52683205938E+02 -0.46343683651E+02  0.11588827240E+03  0.13547822290E+03  0.10000000000E+01 0.  0.
<mgrwt>
<rscale>  0 0.10974615E+03</rscale>
<asrwt>0</asrwt>
<pdfrwt beam="1">  1        1 0.28667157E-01 0.12797978E+03</pdfrwt>
<pdfrwt beam="2">  1       -1 0.10127113E-01 0.12797978E+03</pdfrwt>
<totfact> 0.90164561E+03</totfact>
</mgrwt>
</event>
<event>
 8    2  0.7478846E-004  0.1351730E+03  0.7818608E-02  0.1232880E+00
          1   -1    0    0  501    0  0.00000000000E+00  0.00000000000E+00  0.88598258383E+02  0.88598258527E+02  0.50400000000E-02 0. -1.
         -1   -1    0    0    0  501 -0.00000000000E+00 -0.00000000000E+00 -0.30234332377E+03  0.30234332381E+03  0.50400000000E-02 0.  1.
         25    2    1    2    0    0  0.10951816040E+01 -0.51427743963E+02 -0.24764700658E+03  0.28213610674E+03  0.12500292230E+03 0.  0.
         23    2    1    2    0    0 -0.10951816040E+01  0.51427743963E+02  0.33901941193E+02  0.10880547560E+03  0.89684322114E+02 0.  0.
        -11    1    4    4    0    0  0.20448581394E+02  0.33776963553E+02  0.59213665300E+02  0.71170822016E+02  0.51100000000E-03 0. -1.
         11    1    4    4    0    0 -0.21543762998E+02  0.17650780410E+02 -0.25311724107E+02  0.37634653589E+02  0.51100000000E-03 0.  1.
    9000005    1    3    3    0    0  0.57141619363E+02 -0.54532914502E+02 -0.14145376560E+03  0.16201595980E+03  0.10000000000E+01 0.  0.
    9000005    1    3    3    0    0 -0.56046437759E+02  0.31051705385E+01 -0.10619324098E+03  0.12012014693E+03  0.10000000000E+01 0.  0.
<mgrwt>
<rscale>  0 0.12641136E+03</rscale>
<asrwt>0</asrwt>
<pdfrwt beam="1">  1        1 0.13630501E-01 0.13517301E+03</pdfrwt>
<pdfrwt beam="2">  1       -1 0.46514357E-01 0.13517301E+03</pdfrwt>
<totfact> 0.19348392E+03</totfact>
</mgrwt>
</event>
<event>
 8    2  0.7478846E-004  0.1278294E+03  0.7818608E-02  0.1245330E+00
          1   -1    0    0  501    0  0.00000000000E+00  0.00000000000E+00  0.99629935986E+02  0.99629936113E+02  0.50400000000E-02 0. -1.
         -1   -1    0    0    0  501 -0.00000000000E+00 -0.00000000000E+00 -0.13391463724E+03  0.13391463733E+03  0.50400000000E-02 0.  1.
         25    2    1    2    0    0  0.14173854134E+02  0.22673298394E+02 -0.50172311319E+02  0.13732300893E+03  0.12500148542E+03 0.  0.
         23    2    1    2    0    0 -0.14173854134E+02 -0.22673298394E+02  0.15887610067E+02  0.96221564520E+02  0.91056008720E+02 0.  0.
        -11    1    4    4    0    0  0.18122976937E+02  0.16499908142E+02 -0.21950955451E+02  0.32901879995E+02  0.51100000000E-03 0.  1.
         11    1    4    4    0    0 -0.32296831071E+02 -0.39173206536E+02  0.37838565518E+02  0.63319684525E+02  0.51100000000E-03 0. -1.
    9000005    1    3    3    0    0  0.19928544840E+02  0.18492107662E+02 -0.91457321626E+02  0.95417747952E+02  0.10000000000E+01 0.  0.
    9000005    1    3    3    0    0 -0.57546907061E+01  0.41811907318E+01  0.41285010308E+02  0.41905260973E+02  0.10000000000E+01 0.  0.
<mgrwt>
<rscale>  0 0.11865622E+03</rscale>
<asrwt>0</asrwt>
<pdfrwt beam="1">  1        1 0.15327682E-01 0.12782937E+03</pdfrwt>
<pdfrwt beam="2">  1       -1 0.20602252E-01 0.12782937E+03</pdfrwt>
<totfact> 0.65675940E+03</totfact>
</mgrwt>
</event>
<event>
 8    2  0.7478846E-004  0.3028172E+03  0.7818608E-02  0.1085362E+00
         -1   -1    0    0    0  501 -0.00000000000E+00  0.00000000000E+00  0.56560262547E+03  0.56560262550E+03  0.50400000000E-02 0.  1.
          1   -1    0    0  501    0  0.00000000000E+00 -0.00000000000E+00 -0.20171961930E+03  0.20171961936E+03  0.50400000000E-02 0. -1.
         25    2    1    2    0    0 -0.17626848421E+02  0.27525008363E+03  0.36795012163E+03  0.47653493452E+03  0.12499974998E+03 0.  0.
         23    2    1    2    0    0  0.17626848421E+02 -0.27525008363E+03 -0.40671154549E+01  0.29078731034E+03  0.92018498695E+02 0.  0.
        -11    1    4    4    0    0  0.11096018186E+02 -0.55029608564E+02 -0.38116256662E+02  0.67854465295E+02  0.51100000000E-03 0. -1.
         11    1    4    4    0    0  0.65308302348E+01 -0.22022047506E+03  0.34049141207E+02  0.22293284504E+03  0.51100000000E-03 0.  1.
    9000005    1    3    3    0    0 -0.38578692718E+02  0.15779364648E+03  0.29476628029E+03  0.33656397668E+03  0.10000000000E+01 0.  0.
    9000005    1    3    3    0    0  0.20951844297E+02  0.11745643715E+03  0.73183841335E+02  0.13997095785E+03  0.10000000000E+01 0.  0.
<mgrwt>
<rscale>  0 0.29975652E+03</rscale>
<asrwt>0</asrwt>
<pdfrwt beam="2">  1        1 0.31033788E-01 0.30281719E+03</pdfrwt>
<pdfrwt beam="1">  1       -1 0.87015788E-01 0.30281719E+03</pdfrwt>
<totfact> 0.19891377E+02</totfact>
</mgrwt>
</event>
<event>
 8    2  0.7478846E-004  0.1381817E+03  0.7818608E-02  0.1227156E+00
          1   -1    0    0  501    0  0.00000000000E+00  0.00000000000E+00  0.62251189782E+02  0.62251189986E+02  0.50400000000E-02 0. -1.
         -1   -1    0    0    0  501 -0.00000000000E+00 -0.00000000000E+00 -0.24626285496E+03  0.24626285502E+03  0.50400000000E-02 0.  1.
         25    2    1    2    0    0 -0.68745291127E+01 -0.58498627698E+02 -0.11282699523E+03  0.17839315662E+03  0.12499935552E+03 0.  0.
         23    2    1    2    0    0  0.68745291127E+01  0.58498627698E+02 -0.71184669950E+02  0.13012088838E+03  0.91623358184E+02 0.  0.
        -11    1    4    4    0    0 -0.31905024636E+02  0.61456362737E+02 -0.52932071032E+02  0.87158586851E+02  0.51100000000E-03 0. -1.
         11    1    4    4    0    0  0.38779553749E+02 -0.29577350388E+01 -0.18252598918E+02  0.42962301533E+02  0.51100000000E-03 0.  1.
    9000005    1    3    3    0    0 -0.49114261974E+02 -0.39081516167E+02 -0.11588298106E+03  0.13179317484E+03  0.10000000000E+01 0.  0.
    9000005    1    3    3    0    0  0.42239732861E+02 -0.19417111531E+02  0.30559858253E+01  0.46599981778E+02  0.10000000000E+01 0.  0.
<mgrwt>
<rscale>  0 0.13020201E+03</rscale>
<asrwt>0</asrwt>
<pdfrwt beam="1">  1        1 0.95771062E-02 0.13818172E+03</pdfrwt>
<pdfrwt beam="2">  1       -1 0.37886593E-01 0.13818172E+03</pdfrwt>
<totfact> 0.44297457E+03</totfact>
</mgrwt>
</event>
<event>
 8    2  0.7478846E-004  0.1301998E+03  0.7818608E-02  0.1241708E+00
         -1   -1    0    0    0  501 -0.00000000000E+00  0.00000000000E+00  0.27657825061E+03  0.27657825065E+03  0.50400000000E-02 0.  1.
          1   -1    0    0  501    0  0.00000000000E+00 -0.00000000000E+00 -0.67880676715E+02  0.67880676902E+02  0.50400000000E-02 0. -1.
         25    2    1    2    0    0 -0.42325648695E+01 -0.36180045600E+02  0.19012653616E+02  0.13158065208E+03  0.12500030680E+03 0.  0.
         23    2    1    2    0    0  0.42325648695E+01  0.36180045600E+02  0.18968492027E+03  0.21287827547E+03  0.89497937872E+02 0.  0.
        -11    1    4    4    0    0  0.32439929552E+02  0.47813447754E+02  0.77808167741E+02  0.96915353701E+02  0.51100000000E-03 0. -1.
         11    1    4    4    0    0 -0.28207364682E+02 -0.11633402154E+02  0.11187675253E+03  0.11596292177E+03  0.51100000000E-03 0.  1.
    9000005    1    3    3    0    0 -0.88378566161E+01  0.43463212692E+02 -0.12038915349E+02  0.45968402733E+02  0.10000000000E+01 0.  0.
    9000005    1    3    3    0    0  0.46052917465E+01 -0.79643258292E+02  0.31051568964E+02  0.85612249349E+02  0.10000000000E+01 0.  0.
<mgrwt>
<rscale>  0 0.12084604E+03</rscale>
<asrwt>0</asrwt>
<pdfrwt beam="2">  1        1 0.10443181E-01 0.13019980E+03</pdfrwt>
<pdfrwt beam="1">  1       -1 0.42550500E-01 0.13019980E+03</pdfrwt>
<totfact> 0.32109263E+03</totfact>
</mgrwt>
</event>
<event>
 8    2  0.7478846E-004  0.1567584E+03  0.7818608E-02  0.1200484E+00
          1   -1    0    0  501    0  0.00000000000E+00  0.00000000000E+00  0.12695778755E+04  0.12695778755E+04  0.50400000000E-02 0. -1.
         -1   -1    0    0    0  501 -0.00000000000E+00 -0.00000000000E+00 -0.18539231892E+02  0.18539232577E+02  0.50400000000E-02 0.  1.
         25    2    1    2    0    0  0.75174198455E+02  0.57423299376E+02  0.45352476702E+03  0.47985198176E+03  0.12499845871E+03 0.  0.
         23    2    1    2    0    0 -0.75174198455E+02 -0.57423299376E+02  0.79751387661E+03  0.80826512635E+03  0.91189558903E+02 0.  0.
        -11    1    4    4    0    0 -0.68058170624E+02  0.42306880825E+01  0.47025525338E+03  0.47517345953E+03  0.51100000000E-03 0. -1.
         11    1    4    4    0    0 -0.71160278305E+01 -0.61653987458E+02  0.32725862323E+03  0.33309166682E+03  0.51100000000E-03 0.  1.
    9000005    1    3    3    0    0  0.14898702179E+01 -0.35779245921E+02  0.74979419775E+02  0.83098059795E+02  0.10000000000E+01 0.  0.
    9000005    1    3    3    0    0  0.73684328237E+02  0.93202545297E+02  0.37854534724E+03  0.39675392197E+03  0.10000000000E+01 0.  0.
<mgrwt>
<rscale>  0 0.14999138E+03</rscale>
<asrwt>0</asrwt>
<pdfrwt beam="1">  1        1 0.19531968E+00 0.15675845E+03</pdfrwt>
<pdfrwt beam="2">  1       -1 0.28521895E-02 0.15675845E+03</pdfrwt>
<totfact> 0.41124208E+03</totfact>
</mgrwt>
</event>
<event>
 8    2  0.7478846E-004  0.1500670E+03  0.7818608E-02  0.1210494E+00
         -1   -1    0    0    0  501 -0.00000000000E+00  0.00000000000E+00  0.40272688540E+02  0.40272688855E+02  0.50400000000E-02 0.  1.
          1   -1    0    0  501    0  0.00000000000E+00 -0.00000000000E+00 -0.46593345380E+03  0.46593345383E+03  0.50400000000E-02 0. -1.
         25    2    1    2    0    0  0.82200415978E+02  0.11756404515E+02 -0.19725625722E+03  0.24785102864E+03  0.12499991981E+03 0.  0.
         23    2    1    2    0    0 -0.82200415978E+02 -0.11756404515E+02 -0.22840450804E+03  0.25835511404E+03  0.87656284571E+02 0.  0.
        -11    1    4    4    0    0  0.88678489570E+01  0.21597970436E+02 -0.53226913988E+02  0.58122417749E+02  0.51100000000E-03 0. -1.
         11    1    4    4    0    0 -0.91068264935E+02 -0.33354374951E+02 -0.17517759405E+03  0.20023269629E+03  0.51100000000E-03 0.  1.
    9000005    1    3    3    0    0 -0.29865062698E+02 -0.16124201173E+02 -0.54764105555E+02  0.64436162911E+02  0.10000000000E+01 0.  0.
    9000005    1    3    3    0    0  0.11206547868E+03  0.27880605688E+02 -0.14249215167E+03  0.18341486573E+03  0.10000000000E+01 0.  0.
<mgrwt>
<rscale>  0 0.14212776E+03</rscale>
<asrwt>0</asrwt>
<pdfrwt beam="2">  1        1 0.71682066E-01 0.15006699E+03</pdfrwt>
<pdfrwt beam="1">  1       -1 0.61957986E-02 0.15006699E+03</pdfrwt>
<totfact> 0.60945104E+03</totfact>
</mgrwt>
</event>
<event>
 8    2  0.7478846E-004  0.1516553E+03  0.7818608E-02  0.1207356E+00
          1   -1    0    0  501    0  0.00000000000E+00  0.00000000000E+00  0.75869860115E+01  0.75869876855E+01  0.50400000000E-02 0. -1.
         -1   -1    0    0    0  501 -0.00000000000E+00 -0.00000000000E+00 -0.25395587253E+04  0.25395587253E+04  0.50400000000E-02 0.  1.
         25    2    1    2    0    0 -0.11796149421E+02 -0.85052897300E+02 -0.14857404117E+04  0.14934603811E+04  0.12500477830E+03 0.  0.
         23    2    1    2    0    0  0.11796149421E+02  0.85052897300E+02 -0.10462313276E+04  0.10536853318E+04  0.90992545013E+02 0.  0.
        -11    1    4    4    0    0 -0.10482512973E+02  0.81796409548E+02 -0.48190140484E+03  0.48890643244E+03  0.51100000000E-03 0.  1.
         11    1    4    4    0    0  0.22278662394E+02  0.32564877516E+01 -0.56432992271E+03  0.56477889937E+03  0.51100000000E-03 0. -1.
    9000005    1    3    3    0    0  0.52945195624E+02 -0.59979755808E+02 -0.66721470274E+03  0.67199495861E+03  0.10000000000E+01 0.  0.
    9000005    1    3    3    0    0 -0.64741345045E+02 -0.25073141492E+02 -0.81852570895E+03  0.82146542252E+03  0.10000000000E+01 0.  0.
<mgrwt>
<rscale>  0 0.14453307E+03</rscale>
<asrwt>0</asrwt>
<pdfrwt beam="1">  1        1 0.11672308E-02 0.15165533E+03</pdfrwt>
<pdfrwt beam="2">  1       -1 0.39070066E+00 0.15165533E+03</pdfrwt>
<totfact> 0.13339072E+02</totfact>
</mgrwt>
</event>
<event>
 8    2  0.7478846E-004  0.1325150E+03  0.7818608E-02  0.1236750E+00
          1   -1    0    0  501    0  0.00000000000E+00  0.00000000000E+00  0.31544163295E+03  0.31544163299E+03  0.50400000000E-02 0. -1.
         -1   -1    0    0    0  501 -0.00000000000E+00 -0.00000000000E+00 -0.47695123490E+02  0.47695123756E+02  0.50400000000E-02 0.  1.
         25    2    1    2    0    0  0.43137583517E+02  0.86961136615E+01  0.95746270242E+02  0.16348565942E+03  0.12499495616E+03 0.  0.
         23    2    1    2    0    0 -0.43137583517E+02 -0.86961136615E+01  0.17200023922E+03  0.19965109733E+03  0.91323627112E+02 0.  0.
        -11    1    4    4    0    0 -0.61410639054E+02 -0.30600897692E+01  0.16957154999E+03  0.18037500188E+03  0.51100000000E-03 0. -1.
         11    1    4    4    0    0  0.18273055537E+02 -0.56360238923E+01  0.24286892291E+01  0.19276095445E+02  0.51100000000E-03 0.  1.
    9000005    1    3    3    0    0  0.36554108583E+02  0.60568366079E+02  0.24019156110E+02  0.74717131128E+02  0.10000000000E+01 0.  0.
    9000005    1    3    3    0    0  0.65834749339E+01 -0.51872252417E+02  0.71727114132E+02  0.88768528290E+02  0.10000000000E+01 0.  0.
<mgrwt>
<rscale>  0 0.12393079E+03</rscale>
<asrwt>0</asrwt>
<pdfrwt beam="1">  1        1 0.48529482E-01 0.13251495E+03</pdfrwt>
<pdfrwt beam="2">  1       -1 0.73377114E-02 0.13251495E+03</pdfrwt>
<totfact> 0.76736618E+03</totfact>
</mgrwt>
</event>
<event>
 8    2  0.7478846E-004  0.1377590E+03  0.7818608E-02  0.1227674E+00
         -1   -1    0    0    0  501 -0.00000000000E+00  0.00000000000E+00  0.73774246568E+03  0.73774246570E+03  0.50400000000E-02 0.  1.
          1   -1    0    0  501    0  0.00000000000E+00 -0.00000000000E+00 -0.20717952442E+02  0.20717953055E+02  0.50400000000E-02 0. -1.
         25    2    1    2    0    0 -0.53635344572E+02 -0.21874295145E+02  0.42969416759E+03  0.45123677274E+03  0.12498924927E+03 0.  0.
         23    2    1    2    0    0  0.53635344572E+02  0.21874295145E+02  0.28733034565E+03  0.30722364602E+03  0.92045674345E+02 0.  0.
        -11    1    4    4    0    0  0.23305084460E+02 -0.13092591032E+02  0.23830273954E+03  0.23979728642E+03  0.51100000000E-03 0.  1.
         11    1    4    4    0    0  0.30330260113E+02  0.34966886177E+02  0.49027606106E+02  0.67426359595E+02  0.51100000000E-03 0. -1.
    9000005    1    3    3    0    0  0.30412234150E+02 -0.18305854847E+02  0.44345022181E+02  0.56810996294E+02  0.10000000000E+01 0.  0.
    9000005    1    3    3    0    0 -0.84047578723E+02 -0.35684402974E+01  0.38534914541E+03  0.39442577644E+03  0.10000000000E+01 0.  0.
<mgrwt>
<rscale>  0 0.12985309E+03</rscale>
<asrwt>0</asrwt>
<pdfrwt beam="2">  1        1 0.31873774E-02 0.13775902E+03</pdfrwt>
<pdfrwt beam="1">  1       -1 0.11349884E+00 0.13775902E+03</pdfrwt>
<totfact> 0.22868514E+03</totfact>
</mgrwt>
</event>
<event>
 8    2  0.7478846E-004  0.1256096E+03  0.7818608E-02  0.1248302E+00
         -1   -1    0    0    0  501 -0.00000000000E+00  0.00000000000E+00  0.16198522094E+02  0.16198522879E+02  0.50400000000E-02 0.  1.
          1   -1    0    0  501    0  0.00000000000E+00 -0.00000000000E+00 -0.81883997424E+03  0.81883997426E+03  0.50400000000E-02 0. -1.
         25    2    1    2    0    0  0.10140020166E+02  0.71199258379E+01 -0.33003485414E+03  0.35312995953E+03  0.12499700004E+03 0.  0.
         23    2    1    2    0    0 -0.10140020166E+02 -0.71199258379E+01 -0.47260659801E+03  0.48190853761E+03  0.93409468380E+02 0.  0.
        -11    1    4    4    0    0  0.39836333521E+02  0.69630393561E+01 -0.25541981962E+03  0.25860143395E+03  0.51100000000E-03 0. -1.
         11    1    4    4    0    0 -0.49976353687E+02 -0.14082965194E+02 -0.21718677839E+03  0.22330710366E+03  0.51100000000E-03 0.  1.
    9000005    1    3    3    0    0  0.53613781805E+02 -0.14600713809E+01 -0.28476789629E+03  0.28977633472E+03  0.10000000000E+01 0.  0.
    9000005    1    3    3    0    0 -0.43473761638E+02  0.85799972188E+01 -0.45266957845E+02  0.63353624804E+02  0.10000000000E+01 0.  0.
<mgrwt>
<rscale>  0 0.11689921E+03</rscale>
<asrwt>0</asrwt>
<pdfrwt beam="2">  1        1 0.12597535E+00 0.12560957E+03</pdfrwt>
<pdfrwt beam="1">  1       -1 0.24920810E-02 0.12560957E+03</pdfrwt>
<totfact> 0.10529534E+04</totfact>
</mgrwt>
</event>
<event>
 8    2  0.7478846E-004  0.1322136E+03  0.7818608E-02  0.1228666E+00
         -1   -1    0    0    0  501 -0.00000000000E+00  0.00000000000E+00  0.99252486618E+02  0.99252486746E+02  0.50400000000E-02 0.  1.
          1   -1    0    0  501    0  0.00000000000E+00 -0.00000000000E+00 -0.17420344369E+03  0.17420344376E+03  0.50400000000E-02 0. -1.
         25    2    1    2    0    0 -0.64515553660E+01  0.42607059741E+02 -0.13143481337E+01  0.13222010749E+03  0.12499378068E+03 0.  0.
         23    2    1    2    0    0  0.64515553660E+01 -0.42607059741E+02 -0.73636608938E+02  0.14123582302E+03  0.11255320262E+03 0.  0.
        -11    1    4    4    0    0 -0.49623074671E+02 -0.40571000554E+02 -0.34186712323E+02  0.72644249087E+02  0.51100000000E-03 0.  1.
         11    1    4    4    0    0  0.56074630037E+02 -0.20360591876E+01 -0.39449896614E+02  0.68591573928E+02  0.51100000000E-03 0. -1.
    9000005    1    3    3    0    0  0.47634455558E+02  0.20000517740E+02  0.35771548036E+02  0.62846365965E+02  0.10000000000E+01 0.  0.
    9000005    1    3    3    0    0 -0.54086010924E+02  0.22606542002E+02 -0.37085896169E+02  0.69373741528E+02  0.10000000000E+01 0.  0.
<mgrwt>
<rscale>  0 0.12918805E+03</rscale>
<asrwt>0</asrwt>
<pdfrwt beam="2">  1        1 0.26800530E-01 0.13221357E+03</pdfrwt>
<pdfrwt beam="1">  1       -1 0.15269613E-01 0.13221357E+03</pdfrwt>
<totfact> 0.52106984E+03</totfact>
</mgrwt>
</event>
<event>
 8    2  0.7478846E-004  0.1801359E+03  0.7818608E-02  0.1174271E+00
         -1   -1    0    0    0  501 -0.00000000000E+00  0.00000000000E+00  0.17799640994E+04  0.17799640994E+04  0.50400000000E-02 0.  1.
          1   -1    0    0  501    0  0.00000000000E+00 -0.00000000000E+00 -0.25823939384E+02  0.25823939876E+02  0.50400000000E-02 0. -1.
         25    2    1    2    0    0  0.12778053795E+03 -0.22271317752E+02  0.14797735715E+04  0.14906974098E+04  0.12500026815E+03 0.  0.
         23    2    1    2    0    0 -0.12778053795E+03  0.22271317752E+02  0.27436658851E+03  0.31509062953E+03  0.84741975753E+02 0.  0.
        -11    1    4    4    0    0 -0.22553180819E+02 -0.67723275722E+01  0.44895657982E+01  0.23972204469E+02  0.51100000000E-03 0. -1.
         11    1    4    4    0    0 -0.10522735713E+03  0.29043645324E+02  0.26987702271E+03  0.29111842506E+03  0.51100000000E-03 0.  1.
    9000005    1    3    3    0    0  0.10865647737E+03 -0.29242900099E+02  0.58683553131E+03  0.59752683462E+03  0.10000000000E+01 0.  0.
    9000005    1    3    3    0    0  0.19124060579E+02  0.69715823470E+01  0.89293804022E+03  0.89317057516E+03  0.10000000000E+01 0.  0.
<mgrwt>
<rscale>  0 0.17347548E+03</rscale>
<asrwt>0</asrwt>
<pdfrwt beam="2">  1        1 0.39729132E-02 0.18013591E+03</pdfrwt>
<pdfrwt beam="1">  1       -1 0.27384067E+00 0.18013591E+03</pdfrwt>
<totfact> 0.13048379E+02</totfact>
</mgrwt>
</event>
<event>
 8    2  0.7478846E-004  0.1660744E+03  0.7818608E-02  0.1189095E+00
         -1   -1    0    0    0  501 -0.00000000000E+00  0.00000000000E+00  0.17529994857E+03  0.17529994864E+03  0.50400000000E-02 0.  1.
          1   -1    0    0  501    0  0.00000000000E+00 -0.00000000000E+00 -0.15563344086E+03  0.15563344094E+03  0.50400000000E-02 0. -1.
         25    2    1    2    0    0  0.63624877333E+02 -0.88932702928E+02 -0.49293800979E+02  0.17323561514E+03  0.12499419536E+03 0.  0.
         23    2    1    2    0    0 -0.63624877333E+02  0.88932702928E+02  0.68960308686E+02  0.15769777444E+03  0.90310094801E+02 0.  0.
        -11    1    4    4    0    0 -0.63597625174E+02  0.18353580296E+02  0.12611091978E+02  0.67383614318E+02  0.51100000000E-03 0. -1.
         11    1    4    4    0    0 -0.27252158519E-01  0.70579122633E+02  0.56349216708E+02  0.90314160120E+02  0.51100000000E-03 0.  1.
    9000005    1    3    3    0    0  0.31046474825E+02 -0.53712930388E+02  0.38614520258E+02  0.73082444299E+02  0.10000000000E+01 0.  0.
    9000005    1    3    3    0    0  0.32578402508E+02 -0.35219772540E+02 -0.87908321237E+02  0.10015317085E+03  0.10000000000E+01 0.  0.
<mgrwt>
<rscale>  0 0.15964737E+03</rscale>
<asrwt>0</asrwt>
<pdfrwt beam="2">  1        1 0.23943606E-01 0.16607438E+03</pdfrwt>
<pdfrwt beam="1">  1       -1 0.26969223E-01 0.16607438E+03</pdfrwt>
<totfact> 0.24264906E+03</totfact>
</mgrwt>
</event>
<event>
 8    2  0.7478846E-004  0.1577207E+03  0.7818608E-02  0.1199805E+00
         -1   -1    0    0    0  501 -0.00000000000E+00  0.00000000000E+00  0.13720034451E+03  0.13720034460E+03  0.50400000000E-02 0.  1.
          1   -1    0    0  501    0  0.00000000000E+00 -0.00000000000E+00 -0.28259272263E+03  0.28259272268E+03  0.50400000000E-02 0. -1.
         25    2    1    2    0    0 -0.95598223592E+02 -0.10580813738E+02 -0.21878304334E+03  0.26970696133E+03  0.12499940386E+03 0.  0.
         23    2    1    2    0    0  0.95598223592E+02  0.10580813738E+02  0.73390665214E+02  0.15008610594E+03  0.88818215942E+02 0.  0.
        -11    1    4    4    0    0  0.27801636757E+02  0.46436405651E+02  0.27462835136E+02  0.60691664091E+02  0.51100000000E-03 0.  1.
         11    1    4    4    0    0  0.67796586835E+02 -0.35855591914E+02  0.45927830079E+02  0.89394441852E+02  0.51100000000E-03 0. -1.
    9000005    1    3    3    0    0 -0.61938027385E+02  0.54985413576E+02 -0.99213289619E+02  0.12924392357E+03  0.10000000000E+01 0.  0.
    9000005    1    3    3    0    0 -0.33660196206E+02 -0.65566227314E+02 -0.11956975372E+03  0.14046303777E+03  0.10000000000E+01 0.  0.
<mgrwt>
<rscale>  0 0.15054516E+03</rscale>
<asrwt>0</asrwt>
<pdfrwt beam="2">  1        1 0.43475803E-01 0.15772072E+03</pdfrwt>
<pdfrwt beam="1">  1       -1 0.21107745E-01 0.15772072E+03</pdfrwt>
<totfact> 0.17190236E+03</totfact>
</mgrwt>
</event>
<event>
 8    2  0.7478846E-004  0.1428909E+03  0.7818608E-02  0.1218027E+00
         -1   -1    0    0    0  501 -0.00000000000E+00  0.00000000000E+00  0.13375746415E+02  0.13375747365E+02  0.50400000000E-02 0.  1.
          1   -1    0    0  501    0  0.00000000000E+00 -0.00000000000E+00 -0.17958645876E+04  0.17958645876E+04  0.50400000000E-02 0. -1.
         25    2    1    2    0    0  0.28452185750E+02 -0.63113737209E+02 -0.14303155773E+04  0.14374353755E+04  0.12499974874E+03 0.  0.
         23    2    1    2    0    0 -0.28452185750E+02  0.63113737209E+02 -0.35217326387E+03  0.37180495953E+03  0.97056939178E+02 0.  0.
        -11    1    4    4    0    0  0.13693589450E+02 -0.21037504848E+02 -0.74772554904E+02  0.78873480774E+02  0.51100000000E-03 0. -1.
         11    1    4    4    0    0 -0.42145775200E+02  0.84151242057E+02 -0.27740070897E+03  0.29293147875E+03  0.51100000000E-03 0.  1.
    9000005    1    3    3    0    0 -0.36219990958E+02 -0.30549269146E+02 -0.99577776495E+03  0.99690496175E+03  0.10000000000E+01 0.  0.
    9000005    1    3    3    0    0  0.64672176707E+02 -0.32564468063E+02 -0.43453781237E+03  0.44053041370E+03  0.10000000000E+01 0.  0.
<mgrwt>
<rscale>  0 0.13656482E+03</rscale>
<asrwt>0</asrwt>
<pdfrwt beam="2">  1        1 0.27628667E+00 0.14289090E+03</pdfrwt>
<pdfrwt beam="1">  1       -1 0.20578086E-02 0.14289090E+03</pdfrwt>
<totfact> 0.29962976E+03</totfact>
</mgrwt>
</event>
<event>
 8    2  0.7478846E-004  0.1300003E+03  0.7818608E-02  0.1241296E+00
          1   -1    0    0  501    0  0.00000000000E+00  0.00000000000E+00  0.20918283997E+03  0.20918284003E+03  0.50400000000E-02 0. -1.
         -1   -1    0    0    0  501 -0.00000000000E+00 -0.00000000000E+00 -0.65566098245E+02  0.65566098439E+02  0.50400000000E-02 0.  1.
         25    2    1    2    0    0  0.35058282843E+02 -0.67426937902E+01  0.11282892638E+03  0.17213499520E+03  0.12500217130E+03 0.  0.
         23    2    1    2    0    0 -0.35058282843E+02  0.67426937902E+01  0.30787815343E+02  0.10261394326E+03  0.91143758224E+02 0.  0.
        -11    1    4    4    0    0  0.20922500927E+02  0.29951121267E+02  0.17783346959E+02  0.40633337785E+02  0.51100000000E-03 0.  1.
         11    1    4    4    0    0 -0.55980783770E+02 -0.23208427477E+02  0.13004468384E+02  0.61980605480E+02  0.51100000000E-03 0. -1.
    9000005    1    3    3    0    0  0.14033876245E+01  0.49859583681E+02  0.11360026561E+02  0.51166373578E+02  0.10000000000E+01 0.  0.
    9000005    1    3    3    0    0  0.33654895219E+02 -0.56602277471E+02  0.10146889982E+03  0.12096862162E+03  0.10000000000E+01 0.  0.
<mgrwt>
<rscale>  0 0.12109853E+03</rscale>
<asrwt>0</asrwt>
<pdfrwt beam="1">  1        1 0.32181975E-01 0.13000035E+03</pdfrwt>
<pdfrwt beam="2">  1       -1 0.10087092E-01 0.13000035E+03</pdfrwt>
<totfact> 0.78673537E+03</totfact>
</mgrwt>
</event>
<event>
 8    2  0.7478846E-004  0.1529384E+03  0.7818608E-02  0.1205703E+00
         -1   -1    0    0    0  501 -0.00000000000E+00  0.00000000000E+00  0.43709333480E+03  0.43709333483E+03  0.50400000000E-02 0.  1.
          1   -1    0    0  501    0  0.00000000000E+00 -0.00000000000E+00 -0.49158145471E+02  0.49158145729E+02  0.50400000000E-02 0. -1.
         25    2    1    2    0    0 -0.98293050106E+01 -0.87562777495E+02  0.13720719644E+03  0.20546523032E+03  0.12500516341E+03 0.  0.
         23    2    1    2    0    0  0.98293050106E+01  0.87562777495E+02  0.25072799289E+03  0.28078625023E+03  0.90623047070E+02 0.  0.
        -11    1    4    4    0    0 -0.40033055814E+02  0.29795430543E+02  0.91825476783E+02  0.10450995850E+03  0.51100000000E-03 0. -1.
         11    1    4    4    0    0  0.49862360824E+02  0.57767346952E+02  0.15890251611E+03  0.17627629173E+03  0.51100000000E-03 0.  1.
    9000005    1    3    3    0    0 -0.45091960482E+01 -0.22401950019E+02 -0.22994825441E+02  0.32433658609E+02  0.10000000000E+01 0.  0.
    9000005    1    3    3    0    0 -0.53201089624E+01 -0.65160827476E+02  0.16020202188E+03  0.17303157172E+03  0.10000000000E+01 0.  0.
<mgrwt>
<rscale>  0 0.14582171E+03</rscale>
<asrwt>0</asrwt>
<pdfrwt beam="2">  1        1 0.75627912E-02 0.15293837E+03</pdfrwt>
<pdfrwt beam="1">  1       -1 0.67245132E-01 0.15293837E+03</pdfrwt>
<totfact> 0.21291234E+03</totfact>
</mgrwt>
</event>
<event>
 8    2  0.7478846E-004  0.1296910E+03  0.7818608E-02  0.1241871E+00
         -1   -1    0    0    0  501 -0.00000000000E+00  0.00000000000E+00  0.90433209911E+02  0.90433210051E+02  0.50400000000E-02 0.  1.
          1   -1    0    0  501    0  0.00000000000E+00 -0.00000000000E+00 -0.15828626275E+03  0.15828626283E+03  0.50400000000E-02 0. -1.
         25    2    1    2    0    0 -0.32830912714E+02 -0.10840173548E+02  0.49716612683E+00  0.12969198486E+03  0.12499754226E+03 0.  0.
         23    2    1    2    0    0  0.32830912714E+02  0.10840173548E+02 -0.68350218962E+02  0.11902748801E+03  0.91106598435E+02 0.  0.
        -11    1    4    4    0    0 -0.42427326566E+01 -0.12577869089E+02 -0.73669281141E+02  0.74855638100E+02  0.51100000000E-03 0. -1.
         11    1    4    4    0    0  0.37073645370E+02  0.23418042637E+02  0.53190621797E+01  0.44171849913E+02  0.51100000000E-03 0.  1.
    9000005    1    3    3    0    0 -0.54451956413E+02  0.39175774207E+02  0.22729233795E+02  0.70833430743E+02  0.10000000000E+01 0.  0.
    9000005    1    3    3    0    0  0.21621043699E+02 -0.50015947755E+02 -0.22232067668E+02  0.58858554121E+02  0.10000000000E+01 0.  0.
<mgrwt>
<rscale>  0 0.12074631E+03</rscale>
<asrwt>0</asrwt>
<pdfrwt beam="2">  1        1 0.24351733E-01 0.12969103E+03</pdfrwt>
<pdfrwt beam="1">  1       -1 0.13912802E-01 0.12969103E+03</pdfrwt>
<totfact> 0.67854954E+03</totfact>
</mgrwt>
</event>
