<event>
 5    1  0.3234540E-002  0.1250022E+03  0.7818608E-02  0.1235066E+00
          4   -1    0    0  501    0  0.00000000000E+00  0.00000000000E+00  0.75497977799E+02  0.75508658787E+02  0.12700000000E+01 0.  1.
         -4   -1    0    0    0  501 -0.00000000000E+00 -0.00000000000E+00 -0.51719462266E+02  0.51735052693E+02  0.12700000000E+01 0.  1.
         25    2    1    2    0    0  0.00000000000E+00  0.00000000000E+00  0.23778515533E+02  0.12724371148E+03  0.12500217722E+03 0.  0.
    9000005    1    3    3    0    0  0.40895036604E+02  0.17185320805E+02 -0.32918793796E+02  0.55248404999E+02  0.10000000000E+01 0.  0.
    9000005    1    3    3    0    0 -0.40895036604E+02 -0.17185320805E+02  0.56697309329E+02  0.71995306480E+02  0.10000000000E+01 0.  0.
<mgrwt>
<rscale>  0 0.12500218E+03</rscale>
<asrwt>0</asrwt>
<pdfrwt beam="1">  1        4 0.11617094E-01 0.12500218E+03</pdfrwt>
<pdfrwt beam="2">  1       -4 0.79588612E-02 0.12500218E+03</pdfrwt>
<totfact> 0.10403344E+04</totfact>
</mgrwt>
</event>
<event>
 5    1  0.3234540E-002  0.1249935E+03  0.7818608E-02  0.1235079E+00
         -4   -1    0    0    0  501 -0.00000000000E+00  0.00000000000E+00  0.22799983512E+03  0.22800337215E+03  0.12700000000E+01 0. -1.
          4   -1    0    0  501    0  0.00000000000E+00 -0.00000000000E+00 -0.17103687637E+02  0.17150773475E+02  0.12700000000E+01 0. -1.
         25    2    1    2    0    0  0.00000000000E+00  0.00000000000E+00  0.21089614748E+03  0.24515414563E+03  0.12499348022E+03 0.  0.
    9000005    1    3    3    0    0  0.47163838017E+02 -0.19857019473E+02  0.17578632409E+03  0.18308621077E+03  0.10000000000E+01 0.  0.
    9000005    1    3    3    0    0 -0.47163838017E+02  0.19857019473E+02  0.35109823395E+02  0.62067934859E+02  0.10000000000E+01 0.  0.
<mgrwt>
<rscale>  0 0.12499348E+03</rscale>
<asrwt>0</asrwt>
<pdfrwt beam="2">  1        4 0.26352308E-02 0.12499348E+03</pdfrwt>
<pdfrwt beam="1">  1       -4 0.35080790E-01 0.12499348E+03</pdfrwt>
<totfact> 0.83047754E+03</totfact>
</mgrwt>
</event>
<event>
 5    1  0.3234540E-002  0.1249901E+03  0.7818608E-02  0.1235085E+00
         -4   -1    0    0    0  501 -0.00000000000E+00  0.00000000000E+00  0.33632932857E+03  0.33633172636E+03  0.12700000000E+01 0. -1.
          4   -1    0    0  501    0  0.00000000000E+00 -0.00000000000E+00 -0.11575348930E+02  0.11644810125E+02  0.12700000000E+01 0. -1.
         25    2    1    2    0    0  0.00000000000E+00  0.00000000000E+00  0.32475397964E+03  0.34797653648E+03  0.12499009021E+03 0.  0.
    9000005    1    3    3    0    0  0.48370555162E+02  0.39381011494E+02  0.15193928286E+03  0.16424713194E+03  0.10000000000E+01 0.  0.
    9000005    1    3    3    0    0 -0.48370555162E+02 -0.39381011494E+02  0.17281469678E+03  0.18372940455E+03  0.10000000000E+01 0.  0.
<mgrwt>
<rscale>  0 0.12499009E+03</rscale>
<asrwt>0</asrwt>
<pdfrwt beam="2">  1        4 0.17863506E-02 0.12499009E+03</pdfrwt>
<pdfrwt beam="1">  1       -4 0.51748500E-01 0.12499009E+03</pdfrwt>
<totfact> 0.69963079E+03</totfact>
</mgrwt>
</event>
<event>
 5    1  0.3234540E-002  0.1249991E+03  0.7818608E-02  0.1235071E+00
         -4   -1    0    0    0  501 -0.00000000000E+00  0.00000000000E+00  0.45434831873E+03  0.45435009369E+03  0.12700000000E+01 0. -1.
          4   -1    0    0  501    0  0.00000000000E+00 -0.00000000000E+00 -0.85486499533E+01  0.86424716386E+01  0.12700000000E+01 0. -1.
         25    2    1    2    0    0  0.00000000000E+00  0.00000000000E+00  0.44579966878E+03  0.46299256533E+03  0.12499908346E+03 0.  0.
    9000005    1    3    3    0    0 -0.29374703864E+02  0.55119638865E+02  0.21535891597E+03  0.22423539084E+03  0.10000000000E+01 0.  0.
    9000005    1    3    3    0    0  0.29374703864E+02 -0.55119638865E+02  0.23044075281E+03  0.23875717449E+03  0.10000000000E+01 0.  0.
<mgrwt>
<rscale>  0 0.12499908E+03</rscale>
<asrwt>0</asrwt>
<pdfrwt beam="2">  1        4 0.13225302E-02 0.12499908E+03</pdfrwt>
<pdfrwt beam="1">  1       -4 0.69907113E-01 0.12499908E+03</pdfrwt>
<totfact> 0.58855722E+03</totfact>
</mgrwt>
</event>
<event>
 5    1  0.3234540E-002  0.1250052E+03  0.7818608E-02  0.1235061E+00
         -4   -1    0    0    0  501 -0.00000000000E+00  0.00000000000E+00  0.41416270402E+02  0.41435737643E+02  0.12700000000E+01 0. -1.
          4   -1    0    0  501    0  0.00000000000E+00 -0.00000000000E+00 -0.94278684933E+02  0.94287238440E+02  0.12700000000E+01 0. -1.
         25    2    1    2    0    0  0.00000000000E+00  0.00000000000E+00 -0.52862414531E+02  0.13572297608E+03  0.12500516536E+03 0.  0.
    9000005    1    3    3    0    0  0.40650047736E+02 -0.16116105716E+02  0.22044545192E+02  0.48980784162E+02  0.10000000000E+01 0.  0.
    9000005    1    3    3    0    0 -0.40650047736E+02  0.16116105716E+02 -0.74906959723E+02  0.86742191921E+02  0.10000000000E+01 0.  0.
<mgrwt>
<rscale>  0 0.12500517E+03</rscale>
<asrwt>0</asrwt>
<pdfrwt beam="2">  1        4 0.14506568E-01 0.12500517E+03</pdfrwt>
<pdfrwt beam="1">  1       -4 0.63738894E-02 0.12500517E+03</pdfrwt>
<totfact> 0.10221664E+04</totfact>
</mgrwt>
</event>
<event>
 5    1  0.3234540E-002  0.1249987E+03  0.7818608E-02  0.1235071E+00
         -4   -1    0    0    0  501 -0.00000000000E+00  0.00000000000E+00  0.42815131320E+02  0.42833962810E+02  0.12700000000E+01 0. -1.
          4   -1    0    0  501    0  0.00000000000E+00 -0.00000000000E+00 -0.91190084928E+02  0.91198928114E+02  0.12700000000E+01 0. -1.
         25    2    1    2    0    0  0.00000000000E+00  0.00000000000E+00 -0.48374953608E+02  0.13403289092E+03  0.12499871884E+03 0.  0.
    9000005    1    3    3    0    0  0.50933410002E+02  0.71293418441E+01  0.13876444423E+02  0.53278471068E+02  0.10000000000E+01 0.  0.
    9000005    1    3    3    0    0 -0.50933410002E+02 -0.71293418441E+01 -0.62251398030E+02  0.80754419856E+02  0.10000000000E+01 0.  0.
<mgrwt>
<rscale>  0 0.12499872E+03</rscale>
<asrwt>0</asrwt>
<pdfrwt beam="2">  1        4 0.14031373E-01 0.12499872E+03</pdfrwt>
<pdfrwt beam="1">  1       -4 0.65890721E-02 0.12499872E+03</pdfrwt>
<totfact> 0.10258792E+04</totfact>
</mgrwt>
</event>
<event>
 5    1  0.3234540E-002  0.1250014E+03  0.7818608E-02  0.1235067E+00
          4   -1    0    0  501    0  0.00000000000E+00  0.00000000000E+00  0.10932546881E+04  0.10932554258E+04  0.12700000000E+01 0. -1.
         -4   -1    0    0    0  501 -0.00000000000E+00 -0.00000000000E+00 -0.34595172752E+01  0.36852625113E+01  0.12700000000E+01 0. -1.
         25    2    1    2    0    0  0.00000000000E+00  0.00000000000E+00  0.10897951709E+04  0.10969406883E+04  0.12500143692E+03 0.  0.
    9000005    1    3    3    0    0 -0.10407433660E+02 -0.41552076624E+02  0.94419869814E+03  0.94517039274E+03  0.10000000000E+01 0.  0.
    9000005    1    3    3    0    0  0.10407433660E+02  0.41552076624E+02  0.14559647273E+03  0.15177029557E+03  0.10000000000E+01 0.  0.
<mgrwt>
<rscale>  0 0.12500144E+03</rscale>
<asrwt>0</asrwt>
<pdfrwt beam="1">  1        4 0.16821061E+00 0.12500144E+03</pdfrwt>
<pdfrwt beam="2">  1       -4 0.54965467E-03 0.12500144E+03</pdfrwt>
<totfact> 0.27572202E+03</totfact>
</mgrwt>
</event>
<event>
 5    1  0.3234540E-002  0.1250004E+03  0.7818608E-02  0.1235069E+00
          4   -1    0    0  501    0  0.00000000000E+00  0.00000000000E+00  0.20864401043E+03  0.20864787559E+03  0.12700000000E+01 0.  1.
         -4   -1    0    0    0  501 -0.00000000000E+00 -0.00000000000E+00 -0.18696608148E+02  0.18739692000E+02  0.12700000000E+01 0.  1.
         25    2    1    2    0    0  0.00000000000E+00  0.00000000000E+00  0.18994740228E+03  0.22738756759E+03  0.12500036104E+03 0.  0.
    9000005    1    3    3    0    0  0.17077199814E+02  0.46881399293E+02  0.26526963378E+02  0.56517042910E+02  0.10000000000E+01 0.  0.
    9000005    1    3    3    0    0 -0.17077199814E+02 -0.46881399293E+02  0.16342043890E+03  0.17087052468E+03  0.10000000000E+01 0.  0.
<mgrwt>
<rscale>  0 0.12500036E+03</rscale>
<asrwt>0</asrwt>
<pdfrwt beam="1">  1        4 0.32102689E-01 0.12500036E+03</pdfrwt>
<pdfrwt beam="2">  1       -4 0.28800128E-02 0.12500036E+03</pdfrwt>
<totfact> 0.85711669E+03</totfact>
</mgrwt>
</event>
<event>
 5    1  0.3234540E-002  0.1250052E+03  0.7818608E-02  0.1235061E+00
          4   -1    0    0  501    0  0.00000000000E+00  0.00000000000E+00  0.94163855945E+01  0.95016428929E+01  0.12700000000E+01 0.  1.
         -4   -1    0    0    0  501 -0.00000000000E+00 -0.00000000000E+00 -0.41291422838E+03  0.41291618144E+03  0.12700000000E+01 0.  1.
         25    2    1    2    0    0  0.00000000000E+00  0.00000000000E+00 -0.40349784278E+03  0.42241782433E+03  0.12500523663E+03 0.  0.
    9000005    1    3    3    0    0  0.49224381351E+02 -0.52393161999E+01 -0.72847255389E+02  0.88080717364E+02  0.10000000000E+01 0.  0.
    9000005    1    3    3    0    0 -0.49224381351E+02  0.52393161999E+01 -0.33065058739E+03  0.33433710697E+03  0.10000000000E+01 0.  0.
<mgrwt>
<rscale>  0 0.12500524E+03</rscale>
<asrwt>0</asrwt>
<pdfrwt beam="1">  1        4 0.14553835E-02 0.12500524E+03</pdfrwt>
<pdfrwt beam="2">  1       -4 0.63531960E-01 0.12500524E+03</pdfrwt>
<totfact> 0.62422131E+03</totfact>
</mgrwt>
</event>
<event>
 5    1  0.3234540E-002  0.1249929E+03  0.7818608E-02  0.1235080E+00
          4   -1    0    0  501    0  0.00000000000E+00  0.00000000000E+00  0.17703668310E+03  0.17704123831E+03  0.12700000000E+01 0.  1.
         -4   -1    0    0    0  501 -0.00000000000E+00 -0.00000000000E+00 -0.22039013925E+02  0.22075575526E+02  0.12700000000E+01 0.  1.
         25    2    1    2    0    0  0.00000000000E+00  0.00000000000E+00  0.15499766918E+03  0.19911681384E+03  0.12499291221E+03 0.  0.
    9000005    1    3    3    0    0 -0.27451026567E+02  0.55695233152E+02  0.66314805145E+02  0.90852469625E+02  0.10000000000E+01 0.  0.
    9000005    1    3    3    0    0  0.27451026567E+02 -0.55695233152E+02  0.88682864031E+02  0.10826434421E+03  0.10000000000E+01 0.  0.
<mgrwt>
<rscale>  0 0.12499291E+03</rscale>
<asrwt>0</asrwt>
<pdfrwt beam="1">  1        4 0.27239575E-01 0.12499291E+03</pdfrwt>
<pdfrwt beam="2">  1       -4 0.33937804E-02 0.12499291E+03</pdfrwt>
<totfact> 0.90298999E+03</totfact>
</mgrwt>
</event>
<event>
 5    1  0.3234540E-002  0.1250032E+03  0.7818608E-02  0.1235064E+00
         -4   -1    0    0    0  501 -0.00000000000E+00  0.00000000000E+00  0.26739624709E+02  0.26769767081E+02  0.12700000000E+01 0.  1.
          4   -1    0    0  501    0  0.00000000000E+00 -0.00000000000E+00 -0.14597686573E+03  0.14598239013E+03  0.12700000000E+01 0.  1.
         25    2    1    2    0    0  0.00000000000E+00  0.00000000000E+00 -0.11923724102E+03  0.17275215721E+03  0.12500315266E+03 0.  0.
    9000005    1    3    3    0    0  0.10540631163E+02 -0.51683876924E+02 -0.10593295213E+03  0.11834322282E+03  0.10000000000E+01 0.  0.
    9000005    1    3    3    0    0 -0.10540631163E+02  0.51683876924E+02 -0.13304288889E+02  0.54408934395E+02  0.10000000000E+01 0.  0.
<mgrwt>
<rscale>  0 0.12500315E+03</rscale>
<asrwt>0</asrwt>
<pdfrwt beam="2">  1        4 0.22460723E-01 0.12500315E+03</pdfrwt>
<pdfrwt beam="1">  1       -4 0.41165321E-02 0.12500315E+03</pdfrwt>
<totfact> 0.94931432E+03</totfact>
</mgrwt>
</event>
<event>
 5    1  0.3234540E-002  0.1250249E+03  0.7818608E-02  0.1235030E+00
          4   -1    0    0  501    0  0.00000000000E+00  0.00000000000E+00  0.10079439495E+03  0.10080239557E+03  0.12700000000E+01 0. -1.
         -4   -1    0    0    0  501 -0.00000000000E+00 -0.00000000000E+00 -0.38750141694E+02  0.38770947645E+02  0.12700000000E+01 0. -1.
         25    2    1    2    0    0  0.00000000000E+00  0.00000000000E+00  0.62044253253E+02  0.13957334322E+03  0.12502491262E+03 0.  0.
    9000005    1    3    3    0    0 -0.22897948788E+02 -0.13101964265E+02  0.94279995288E+02  0.97906562792E+02  0.10000000000E+01 0.  0.
    9000005    1    3    3    0    0  0.22897948788E+02  0.13101964265E+02 -0.32235742035E+02  0.41666780423E+02  0.10000000000E+01 0.  0.
<mgrwt>
<rscale>  0 0.12502491E+03</rscale>
<asrwt>0</asrwt>
<pdfrwt beam="1">  1        4 0.15509046E-01 0.12502491E+03</pdfrwt>
<pdfrwt beam="2">  1       -4 0.59637762E-02 0.12502491E+03</pdfrwt>
<totfact> 0.10136745E+04</totfact>
</mgrwt>
</event>
<event>
 5    1  0.3234540E-002  0.1250003E+03  0.7818608E-02  0.1235069E+00
          4   -1    0    0  501    0  0.00000000000E+00  0.00000000000E+00  0.19738672229E+02  0.19779486378E+02  0.12700000000E+01 0.  1.
         -4   -1    0    0    0  501 -0.00000000000E+00 -0.00000000000E+00 -0.19765187274E+03  0.19765595285E+03  0.12700000000E+01 0.  1.
         25    2    1    2    0    0  0.00000000000E+00  0.00000000000E+00 -0.17791320051E+03  0.21743543923E+03  0.12500025327E+03 0.  0.
    9000005    1    3    3    0    0 -0.30142660981E+01  0.24266945602E+02  0.11079310216E+02  0.26864876025E+02  0.10000000000E+01 0.  0.
    9000005    1    3    3    0    0  0.30142660981E+01 -0.24266945602E+02 -0.18899251073E+03  0.19057056321E+03  0.10000000000E+01 0.  0.
<mgrwt>
<rscale>  0 0.12500025E+03</rscale>
<asrwt>0</asrwt>
<pdfrwt beam="1">  1        4 0.30401723E-02 0.12500025E+03</pdfrwt>
<pdfrwt beam="2">  1       -4 0.30411432E-01 0.12500025E+03</pdfrwt>
<totfact> 0.87275298E+03</totfact>
</mgrwt>
</event>
<event>
 5    1  0.3234540E-002  0.1249991E+03  0.7818608E-02  0.1235071E+00
         -4   -1    0    0    0  501 -0.00000000000E+00  0.00000000000E+00  0.19741245401E+02  0.19782054241E+02  0.12700000000E+01 0.  1.
          4   -1    0    0  501    0  0.00000000000E+00 -0.00000000000E+00 -0.19762247147E+03  0.19762655218E+03  0.12700000000E+01 0.  1.
         25    2    1    2    0    0  0.00000000000E+00  0.00000000000E+00 -0.17788122606E+03  0.21740860642E+03  0.12499908624E+03 0.  0.
    9000005    1    3    3    0    0  0.36390834212E+02  0.25894764862E+02 -0.16496057389E+03  0.17090296252E+03  0.10000000000E+01 0.  0.
    9000005    1    3    3    0    0 -0.36390834212E+02 -0.25894764862E+02 -0.12920652175E+02  0.46505643900E+02  0.10000000000E+01 0.  0.
<mgrwt>
<rscale>  0 0.12499909E+03</rscale>
<asrwt>0</asrwt>
<pdfrwt beam="2">  1        4 0.30406909E-01 0.12499909E+03</pdfrwt>
<pdfrwt beam="1">  1       -4 0.30405678E-02 0.12499909E+03</pdfrwt>
<totfact> 0.87281854E+03</totfact>
</mgrwt>
</event>
<event>
 5    1  0.3234540E-002  0.1250110E+03  0.7818608E-02  0.1235052E+00
          4   -1    0    0  501    0  0.00000000000E+00  0.00000000000E+00  0.25578661718E+03  0.25578976998E+03  0.12700000000E+01 0.  1.
         -4   -1    0    0    0  501 -0.00000000000E+00 -0.00000000000E+00 -0.15244562394E+02  0.15297371754E+02  0.12700000000E+01 0.  1.
         25    2    1    2    0    0  0.00000000000E+00  0.00000000000E+00  0.24054205479E+03  0.27108714174E+03  0.12501103269E+03 0.  0.
    9000005    1    3    3    0    0  0.41108481336E+02 -0.70787555802E+01  0.22119216514E+03  0.22509329163E+03  0.10000000000E+01 0.  0.
    9000005    1    3    3    0    0 -0.41108481336E+02  0.70787555802E+01  0.19349889648E+02  0.45993850107E+02  0.10000000000E+01 0.  0.
<mgrwt>
<rscale>  0 0.12501103E+03</rscale>
<asrwt>0</asrwt>
<pdfrwt beam="1">  1        4 0.39356089E-01 0.12501103E+03</pdfrwt>
<pdfrwt beam="2">  1       -4 0.23496222E-02 0.12501103E+03</pdfrwt>
<totfact> 0.79355409E+03</totfact>
</mgrwt>
</event>
<event>
 5    1  0.3234540E-002  0.1250024E+03  0.7818608E-02  0.1235066E+00
         -4   -1    0    0    0  501 -0.00000000000E+00  0.00000000000E+00  0.30314916141E+02  0.30341506895E+02  0.12700000000E+01 0.  1.
          4   -1    0    0  501    0  0.00000000000E+00 -0.00000000000E+00 -0.12877435506E+03  0.12878061741E+03  0.12700000000E+01 0.  1.
         25    2    1    2    0    0  0.00000000000E+00  0.00000000000E+00 -0.98459438917E+02  0.15912212430E+03  0.12500235730E+03 0.  0.
    9000005    1    3    3    0    0 -0.20531038373E+02  0.58497785552E+02 -0.59243489864E+02  0.85757247755E+02  0.10000000000E+01 0.  0.
    9000005    1    3    3    0    0  0.20531038373E+02 -0.58497785552E+02 -0.39215949052E+02  0.73364876550E+02  0.10000000000E+01 0.  0.
<mgrwt>
<rscale>  0 0.12500236E+03</rscale>
<asrwt>0</asrwt>
<pdfrwt beam="2">  1        4 0.19813966E-01 0.12500236E+03</pdfrwt>
<pdfrwt beam="1">  1       -4 0.46663605E-02 0.12500236E+03</pdfrwt>
<totfact> 0.97507133E+03</totfact>
</mgrwt>
</event>
<event>
 5    1  0.3234540E-002  0.1249981E+03  0.7818608E-02  0.1235072E+00
          4   -1    0    0  501    0  0.00000000000E+00  0.00000000000E+00  0.12166333180E+03  0.12166996015E+03  0.12700000000E+01 0. -1.
         -4   -1    0    0    0  501 -0.00000000000E+00 -0.00000000000E+00 -0.32085991210E+02  0.32111115396E+02  0.12700000000E+01 0. -1.
         25    2    1    2    0    0  0.00000000000E+00  0.00000000000E+00  0.89577340587E+02  0.15378107555E+03  0.12499807699E+03 0.  0.
    9000005    1    3    3    0    0 -0.57818237255E+02  0.18442773337E+02  0.26456224125E+02  0.66211904085E+02  0.10000000000E+01 0.  0.
    9000005    1    3    3    0    0  0.57818237255E+02 -0.18442773337E+02  0.63121116462E+02  0.87569171465E+02  0.10000000000E+01 0.  0.
<mgrwt>
<rscale>  0 0.12499808E+03</rscale>
<asrwt>0</asrwt>
<pdfrwt beam="1">  1        4 0.18719878E-01 0.12499808E+03</pdfrwt>
<pdfrwt beam="2">  1       -4 0.49387489E-02 0.12499808E+03</pdfrwt>
<totfact> 0.98559530E+03</totfact>
</mgrwt>
</event>
<event>
 5    1  0.3234540E-002  0.1250020E+03  0.7818608E-02  0.1235066E+00
         -4   -1    0    0    0  501 -0.00000000000E+00  0.00000000000E+00  0.71323958865E+02  0.71335264829E+02  0.12700000000E+01 0.  1.
          4   -1    0    0  501    0  0.00000000000E+00 -0.00000000000E+00 -0.54746429724E+02  0.54761158384E+02  0.12700000000E+01 0.  1.
         25    2    1    2    0    0  0.00000000000E+00  0.00000000000E+00  0.16577529141E+02  0.12609642321E+03  0.12500197388E+03 0.  0.
    9000005    1    3    3    0    0 -0.26974408839E+02  0.51157559365E+02 -0.15596782982E+02  0.59908048305E+02  0.10000000000E+01 0.  0.
    9000005    1    3    3    0    0  0.26974408839E+02 -0.51157559365E+02  0.32174312123E+02  0.66188374908E+02  0.10000000000E+01 0.  0.
<mgrwt>
<rscale>  0 0.12500197E+03</rscale>
<asrwt>0</asrwt>
<pdfrwt beam="2">  1        4 0.84245303E-02 0.12500197E+03</pdfrwt>
<pdfrwt beam="1">  1       -4 0.10974919E-01 0.12500197E+03</pdfrwt>
<totfact> 0.10428380E+04</totfact>
</mgrwt>
</event>
<event>
 5    1  0.3234540E-002  0.1250008E+03  0.7818608E-02  0.1235068E+00
         -4   -1    0    0    0  501 -0.00000000000E+00  0.00000000000E+00  0.45548542977E+02  0.45566244823E+02  0.12700000000E+01 0. -1.
          4   -1    0    0  501    0  0.00000000000E+00 -0.00000000000E+00 -0.85722115266E+02  0.85731522474E+02  0.12700000000E+01 0. -1.
         25    2    1    2    0    0  0.00000000000E+00  0.00000000000E+00 -0.40173572289E+02  0.13129776730E+03  0.12500075114E+03 0.  0.
    9000005    1    3    3    0    0  0.36462446667E+02  0.49040541472E+02 -0.33814688747E+02  0.69849251247E+02  0.10000000000E+01 0.  0.
    9000005    1    3    3    0    0 -0.36462446667E+02 -0.49040541472E+02 -0.63588835421E+01  0.61448516049E+02  0.10000000000E+01 0.  0.
<mgrwt>
<rscale>  0 0.12500075E+03</rscale>
<asrwt>0</asrwt>
<pdfrwt beam="2">  1        4 0.13190103E-01 0.12500075E+03</pdfrwt>
<pdfrwt beam="1">  1       -4 0.70095535E-02 0.12500075E+03</pdfrwt>
<totfact> 0.10316535E+04</totfact>
</mgrwt>
</event>
<event>
 5    1  0.3234540E-002  0.1249959E+03  0.7818608E-02  0.1235076E+00
         -4   -1    0    0    0  501 -0.00000000000E+00  0.00000000000E+00  0.12956845397E+02  0.13018937846E+02  0.12700000000E+01 0.  1.
          4   -1    0    0  501    0  0.00000000000E+00 -0.00000000000E+00 -0.30067775773E+03  0.30068043983E+03  0.12700000000E+01 0.  1.
         25    2    1    2    0    0  0.00000000000E+00  0.00000000000E+00 -0.28772091233E+03  0.31369937767E+03  0.12499590456E+03 0.  0.
    9000005    1    3    3    0    0 -0.27072652166E+02 -0.50390697941E+02 -0.20699483324E+03  0.21475570289E+03  0.10000000000E+01 0.  0.
    9000005    1    3    3    0    0  0.27072652166E+02  0.50390697941E+02 -0.80726079094E+02  0.98943674786E+02  0.10000000000E+01 0.  0.
<mgrwt>
<rscale>  0 0.12499590E+03</rscale>
<asrwt>0</asrwt>
<pdfrwt beam="2">  1        4 0.46263094E-01 0.12499590E+03</pdfrwt>
<pdfrwt beam="1">  1       -4 0.19983437E-02 0.12499590E+03</pdfrwt>
<totfact> 0.73918536E+03</totfact>
</mgrwt>
</event>
<event>
 5    1  0.3234540E-002  0.1250064E+03  0.7818608E-02  0.1235059E+00
         -4   -1    0    0    0  501 -0.00000000000E+00  0.00000000000E+00  0.12339962207E+02  0.12405142775E+02  0.12700000000E+01 0. -1.
          4   -1    0    0  501    0  0.00000000000E+00 -0.00000000000E+00 -0.31568485990E+03  0.31568741449E+03  0.12700000000E+01 0. -1.
         25    2    1    2    0    0  0.00000000000E+00  0.00000000000E+00 -0.30334489769E+03  0.32809255727E+03  0.12500639655E+03 0.  0.
    9000005    1    3    3    0    0  0.32391910942E+02  0.48455430730E+02 -0.92488590826E+02  0.10932659372E+03  0.10000000000E+01 0.  0.
    9000005    1    3    3    0    0 -0.32391910942E+02 -0.48455430730E+02 -0.21085630686E+03  0.21876596354E+03  0.10000000000E+01 0.  0.
<mgrwt>
<rscale>  0 0.12500640E+03</rscale>
<asrwt>0</asrwt>
<pdfrwt beam="2">  1        4 0.48572106E-01 0.12500640E+03</pdfrwt>
<pdfrwt beam="1">  1       -4 0.19036664E-02 0.12500640E+03</pdfrwt>
<totfact> 0.72193620E+03</totfact>
</mgrwt>
</event>
<event>
 5    1  0.3234540E-002  0.1250012E+03  0.7818608E-02  0.1235067E+00
          4   -1    0    0  501    0  0.00000000000E+00  0.00000000000E+00  0.38685554019E+01  0.40716852651E+01  0.12700000000E+01 0. -1.
         -4   -1    0    0    0  501 -0.00000000000E+00 -0.00000000000E+00 -0.98372821536E+03  0.98372903515E+03  0.12700000000E+01 0. -1.
         25    2    1    2    0    0  0.00000000000E+00  0.00000000000E+00 -0.97985965996E+03  0.98780072042E+03  0.12500124014E+03 0.  0.
    9000005    1    3    3    0    0 -0.14683716992E+02 -0.48437956284E+02 -0.77957792542E+03  0.78121993635E+03  0.10000000000E+01 0.  0.
    9000005    1    3    3    0    0  0.14683716992E+02  0.48437956284E+02 -0.20028173454E+03  0.20658078407E+03  0.10000000000E+01 0.  0.
<mgrwt>
<rscale>  0 0.12500124E+03</rscale>
<asrwt>0</asrwt>
<pdfrwt beam="1">  1        4 0.61085159E-03 0.12500124E+03</pdfrwt>
<pdfrwt beam="2">  1       -4 0.15135830E+00 0.12500124E+03</pdfrwt>
<totfact> 0.31009937E+03</totfact>
</mgrwt>
</event>
<event>
 5    1  0.3234540E-002  0.1250041E+03  0.7818608E-02  0.1235063E+00
         -4   -1    0    0    0  501 -0.00000000000E+00  0.00000000000E+00  0.19195254645E+03  0.19195674771E+03  0.12700000000E+01 0. -1.
          4   -1    0    0  501    0  0.00000000000E+00 -0.00000000000E+00 -0.20327178503E+02  0.20366813347E+02  0.12700000000E+01 0. -1.
         25    2    1    2    0    0  0.00000000000E+00  0.00000000000E+00  0.17162536795E+03  0.21232356105E+03  0.12500411055E+03 0.  0.
    9000005    1    3    3    0    0 -0.41087973087E+02  0.45413883732E+02  0.64675365236E+02  0.89076064330E+02  0.10000000000E+01 0.  0.
    9000005    1    3    3    0    0  0.41087973087E+02 -0.45413883732E+02  0.10695000271E+03  0.12324749672E+03  0.10000000000E+01 0.  0.
<mgrwt>
<rscale>  0 0.12500411E+03</rscale>
<asrwt>0</asrwt>
<pdfrwt beam="2">  1        4 0.31306303E-02 0.12500411E+03</pdfrwt>
<pdfrwt beam="1">  1       -4 0.29534532E-01 0.12500411E+03</pdfrwt>
<totfact> 0.88089720E+03</totfact>
</mgrwt>
</event>
<event>
 5    1  0.3234540E-002  0.1250003E+03  0.7818608E-02  0.1235069E+00
         -4   -1    0    0    0  501 -0.00000000000E+00  0.00000000000E+00  0.28235416981E+02  0.28263964196E+02  0.12700000000E+01 0.  1.
          4   -1    0    0  501    0  0.00000000000E+00 -0.00000000000E+00 -0.13824501770E+03  0.13825085106E+03  0.12700000000E+01 0.  1.
         25    2    1    2    0    0  0.00000000000E+00  0.00000000000E+00 -0.11000960072E+03  0.16651481526E+03  0.12500028580E+03 0.  0.
    9000005    1    3    3    0    0 -0.82239463755E+01 -0.61162271265E+02 -0.41897762753E+02  0.74598118234E+02  0.10000000000E+01 0.  0.
    9000005    1    3    3    0    0  0.82239463755E+01  0.61162271265E+02 -0.68111837967E+02  0.91916697023E+02  0.10000000000E+01 0.  0.
<mgrwt>
<rscale>  0 0.12500029E+03</rscale>
<asrwt>0</asrwt>
<pdfrwt beam="2">  1        4 0.21271109E-01 0.12500029E+03</pdfrwt>
<pdfrwt beam="1">  1       -4 0.43465550E-02 0.12500029E+03</pdfrwt>
<totfact> 0.96100660E+03</totfact>
</mgrwt>
</event>
<event>
 5    1  0.3234540E-002  0.1249993E+03  0.7818608E-02  0.1235070E+00
          4   -1    0    0  501    0  0.00000000000E+00  0.00000000000E+00  0.24842678596E+02  0.24875119695E+02  0.12700000000E+01 0.  1.
         -4   -1    0    0    0  501 -0.00000000000E+00 -0.00000000000E+00 -0.15710016891E+03  0.15710530218E+03  0.12700000000E+01 0.  1.
         25    2    1    2    0    0  0.00000000000E+00  0.00000000000E+00 -0.13225749032E+03  0.18198042187E+03  0.12499932080E+03 0.  0.
    9000005    1    3    3    0    0  0.42773166084E+02 -0.32865818406E+02 -0.20194346240E+02  0.57606574073E+02  0.10000000000E+01 0.  0.
    9000005    1    3    3    0    0 -0.42773166084E+02  0.32865818406E+02 -0.11206314408E+03  0.12437384780E+03  0.10000000000E+01 0.  0.
<mgrwt>
<rscale>  0 0.12499932E+03</rscale>
<asrwt>0</asrwt>
<pdfrwt beam="1">  1        4 0.38248410E-02 0.12499932E+03</pdfrwt>
<pdfrwt beam="2">  1       -4 0.24172147E-01 0.12499932E+03</pdfrwt>
<totfact> 0.93263151E+03</totfact>
</mgrwt>
</event>
<event>
 5    1  0.3234540E-002  0.1249999E+03  0.7818608E-02  0.1235069E+00
         -4   -1    0    0    0  501 -0.00000000000E+00  0.00000000000E+00  0.35380963108E+03  0.35381191041E+03  0.12700000000E+01 0. -1.
          4   -1    0    0  501    0  0.00000000000E+00 -0.00000000000E+00 -0.11001678621E+02  0.11074738483E+02  0.12700000000E+01 0. -1.
         25    2    1    2    0    0  0.00000000000E+00  0.00000000000E+00  0.34280795246E+03  0.36488664889E+03  0.12499989707E+03 0.  0.
    9000005    1    3    3    0    0  0.49413738144E+02  0.38220540672E+02  0.17621501457E+03  0.18696325469E+03  0.10000000000E+01 0.  0.
    9000005    1    3    3    0    0 -0.49413738144E+02 -0.38220540672E+02  0.16659293789E+03  0.17792339419E+03  0.10000000000E+01 0.  0.
<mgrwt>
<rscale>  0 0.12499990E+03</rscale>
<asrwt>0</asrwt>
<pdfrwt beam="2">  1        4 0.16983613E-02 0.12499990E+03</pdfrwt>
<pdfrwt beam="1">  1       -4 0.54438045E-01 0.12499990E+03</pdfrwt>
<totfact> 0.68117458E+03</totfact>
</mgrwt>
</event>
<event>
 5    1  0.3234540E-002  0.1250067E+03  0.7818608E-02  0.1235059E+00
          4   -1    0    0  501    0  0.00000000000E+00  0.00000000000E+00  0.28018001398E+03  0.28018289229E+03  0.12700000000E+01 0.  1.
         -4   -1    0    0    0  501 -0.00000000000E+00 -0.00000000000E+00 -0.13911541507E+02  0.13969391079E+02  0.12700000000E+01 0.  1.
         25    2    1    2    0    0  0.00000000000E+00  0.00000000000E+00  0.26626847247E+03  0.29415228337E+03  0.12500666534E+03 0.  0.
    9000005    1    3    3    0    0  0.28957433005E+02  0.54861471128E+02  0.11531390324E+03  0.13094506566E+03  0.10000000000E+01 0.  0.
    9000005    1    3    3    0    0 -0.28957433005E+02 -0.54861471128E+02  0.15095456923E+03  0.16320721771E+03  0.10000000000E+01 0.  0.
<mgrwt>
<rscale>  0 0.12500667E+03</rscale>
<asrwt>0</asrwt>
<pdfrwt beam="1">  1        4 0.43109287E-01 0.12500667E+03</pdfrwt>
<pdfrwt beam="2">  1       -4 0.21449086E-02 0.12500667E+03</pdfrwt>
<totfact> 0.76326971E+03</totfact>
</mgrwt>
</event>
<event>
 5    1  0.3234540E-002  0.1250019E+03  0.7818608E-02  0.1235066E+00
          4   -1    0    0  501    0  0.00000000000E+00  0.00000000000E+00  0.65716796861E+02  0.65729067312E+02  0.12700000000E+01 0.  1.
         -4   -1    0    0    0  501 -0.00000000000E+00 -0.00000000000E+00 -0.59417827665E+02  0.59431398641E+02  0.12700000000E+01 0.  1.
         25    2    1    2    0    0  0.00000000000E+00  0.00000000000E+00  0.62989691956E+01  0.12516046595E+03  0.12500186088E+03 0.  0.
    9000005    1    3    3    0    0 -0.56975137879E+02  0.11492527156E+02  0.26137748670E+02  0.63737166727E+02  0.10000000000E+01 0.  0.
    9000005    1    3    3    0    0  0.56975137879E+02 -0.11492527156E+02 -0.19838779475E+02  0.61423299226E+02  0.10000000000E+01 0.  0.
<mgrwt>
<rscale>  0 0.12500186E+03</rscale>
<asrwt>0</asrwt>
<pdfrwt beam="1">  1        4 0.10112264E-01 0.12500186E+03</pdfrwt>
<pdfrwt beam="2">  1       -4 0.91431921E-02 0.12500186E+03</pdfrwt>
<totfact> 0.10448939E+04</totfact>
</mgrwt>
</event>
<event>
 5    1  0.3234540E-002  0.1250016E+03  0.7818608E-02  0.1235067E+00
         -4   -1    0    0    0  501 -0.00000000000E+00  0.00000000000E+00  0.21036371159E+04  0.21036374993E+04  0.12700000000E+01 0.  1.
          4   -1    0    0  501    0  0.00000000000E+00 -0.00000000000E+00 -0.16393795758E+01  0.20737563486E+01  0.12700000000E+01 0.  1.
         25    2    1    2    0    0  0.00000000000E+00  0.00000000000E+00  0.21019977363E+04  0.21057112556E+04  0.12500163392E+03 0.  0.
    9000005    1    3    3    0    0  0.27469148669E+02 -0.15099893676E+02  0.14028484362E+03  0.14374768960E+03  0.10000000000E+01 0.  0.
    9000005    1    3    3    0    0 -0.27469148669E+02  0.15099893676E+02  0.19617128927E+04  0.19619635660E+04  0.10000000000E+01 0.  0.
<mgrwt>
<rscale>  0 0.12500163E+03</rscale>
<asrwt>0</asrwt>
<pdfrwt beam="2">  1        4 0.28565417E-03 0.12500163E+03</pdfrwt>
<pdfrwt beam="1">  1       -4 0.32367123E+00 0.12500163E+03</pdfrwt>
<totfact> 0.85434479E+02</totfact>
</mgrwt>
</event>
<event>
 5    1  0.3234540E-002  0.1249985E+03  0.7818608E-02  0.1235072E+00
         -4   -1    0    0    0  501 -0.00000000000E+00  0.00000000000E+00  0.11110766353E+04  0.11110773611E+04  0.12700000000E+01 0.  1.
          4   -1    0    0  501    0  0.00000000000E+00 -0.00000000000E+00 -0.34002027885E+01  0.36296389631E+01  0.12700000000E+01 0.  1.
         25    2    1    2    0    0  0.00000000000E+00  0.00000000000E+00  0.11076764325E+04  0.11147070001E+04  0.12499846763E+03 0.  0.
    9000005    1    3    3    0    0  0.60131775453E+02  0.16995021037E+02  0.56010016364E+03  0.56357595271E+03  0.10000000000E+01 0.  0.
    9000005    1    3    3    0    0 -0.60131775453E+02 -0.16995021037E+02  0.54757626883E+03  0.55113104735E+03  0.10000000000E+01 0.  0.
<mgrwt>
<rscale>  0 0.12499847E+03</rscale>
<asrwt>0</asrwt>
<pdfrwt beam="2">  1        4 0.54081196E-03 0.12499847E+03</pdfrwt>
<pdfrwt beam="1">  1       -4 0.17095287E+00 0.12499847E+03</pdfrwt>
<totfact> 0.27057753E+03</totfact>
</mgrwt>
</event>
<event>
 5    1  0.3234540E-002  0.1250004E+03  0.7818608E-02  0.1235069E+00
         -4   -1    0    0    0  501 -0.00000000000E+00  0.00000000000E+00  0.28327613030E+02  0.28356067428E+02  0.12700000000E+01 0.  1.
          4   -1    0    0  501    0  0.00000000000E+00 -0.00000000000E+00 -0.13779585820E+03  0.13780171057E+03  0.12700000000E+01 0.  1.
         25    2    1    2    0    0  0.00000000000E+00  0.00000000000E+00 -0.10946824517E+03  0.16615777800E+03  0.12500044196E+03 0.  0.
    9000005    1    3    3    0    0  0.49464618148E+02  0.33244839639E+02 -0.29748684066E+02  0.66617955649E+02  0.10000000000E+01 0.  0.
    9000005    1    3    3    0    0 -0.49464618148E+02 -0.33244839639E+02 -0.79719561100E+02  0.99539822348E+02  0.10000000000E+01 0.  0.
<mgrwt>
<rscale>  0 0.12500044E+03</rscale>
<asrwt>0</asrwt>
<pdfrwt beam="2">  1        4 0.21202001E-01 0.12500044E+03</pdfrwt>
<pdfrwt beam="1">  1       -4 0.43607334E-02 0.12500044E+03</pdfrwt>
<totfact> 0.96167621E+03</totfact>
</mgrwt>
</event>
<event>
 5    1  0.3234540E-002  0.1249994E+03  0.7818608E-02  0.1235070E+00
         -4   -1    0    0    0  501 -0.00000000000E+00  0.00000000000E+00  0.19482210047E+02  0.19523560339E+02  0.12700000000E+01 0.  1.
          4   -1    0    0  501    0  0.00000000000E+00 -0.00000000000E+00 -0.20024560342E+03  0.20024963068E+03  0.12700000000E+01 0.  1.
         25    2    1    2    0    0  0.00000000000E+00  0.00000000000E+00 -0.18076339337E+03  0.21977319102E+03  0.12499940443E+03 0.  0.
    9000005    1    3    3    0    0 -0.53114591962E+02 -0.32705986850E+02 -0.83716466856E+02  0.10440444568E+03  0.10000000000E+01 0.  0.
    9000005    1    3    3    0    0  0.53114591962E+02  0.32705986850E+02 -0.97046926517E+02  0.11536874534E+03  0.10000000000E+01 0.  0.
<mgrwt>
<rscale>  0 0.12499940E+03</rscale>
<asrwt>0</asrwt>
<pdfrwt beam="2">  1        4 0.30810505E-01 0.12499940E+03</pdfrwt>
<pdfrwt beam="1">  1       -4 0.30007538E-02 0.12499940E+03</pdfrwt>
<totfact> 0.86905409E+03</totfact>
</mgrwt>
</event>
<event>
 5    1  0.3234540E-002  0.1249981E+03  0.7818608E-02  0.1235072E+00
         -4   -1    0    0    0  501 -0.00000000000E+00  0.00000000000E+00  0.72948486557E+03  0.72948597108E+03  0.12700000000E+01 0.  1.
          4   -1    0    0  501    0  0.00000000000E+00 -0.00000000000E+00 -0.52782143216E+01  0.54288531408E+01  0.12700000000E+01 0.  1.
         25    2    1    2    0    0  0.00000000000E+00  0.00000000000E+00  0.72420665125E+03  0.73491482422E+03  0.12499810055E+03 0.  0.
    9000005    1    3    3    0    0  0.25115349058E+02 -0.42365386416E+02  0.13595431939E+03  0.14460353967E+03  0.10000000000E+01 0.  0.
    9000005    1    3    3    0    0 -0.25115349058E+02  0.42365386416E+02  0.58825233186E+03  0.59031128455E+03  0.10000000000E+01 0.  0.
<mgrwt>
<rscale>  0 0.12499810E+03</rscale>
<asrwt>0</asrwt>
<pdfrwt beam="2">  1        4 0.82370592E-03 0.12499810E+03</pdfrwt>
<pdfrwt beam="1">  1       -4 0.11224007E+00 0.12499810E+03</pdfrwt>
<totfact> 0.41307992E+03</totfact>
</mgrwt>
</event>
<event>
 5    1  0.3234540E-002  0.1249970E+03  0.7818608E-02  0.1235074E+00
         -4   -1    0    0    0  501 -0.00000000000E+00  0.00000000000E+00  0.19090610856E+03  0.19091033284E+03  0.12700000000E+01 0.  1.
          4   -1    0    0  501    0  0.00000000000E+00 -0.00000000000E+00 -0.20436500868E+02  0.20475924100E+02  0.12700000000E+01 0.  1.
         25    2    1    2    0    0  0.00000000000E+00  0.00000000000E+00  0.17046960769E+03  0.21138625694E+03  0.12499704987E+03 0.  0.
    9000005    1    3    3    0    0 -0.29000304720E+02  0.18099700280E+02  0.17369963411E+03  0.17703440263E+03  0.10000000000E+01 0.  0.
    9000005    1    3    3    0    0  0.29000304720E+02 -0.18099700280E+02 -0.32300264181E+01  0.34351854313E+02  0.10000000000E+01 0.  0.
<mgrwt>
<rscale>  0 0.12499705E+03</rscale>
<asrwt>0</asrwt>
<pdfrwt beam="2">  1        4 0.31474346E-02 0.12499705E+03</pdfrwt>
<pdfrwt beam="1">  1       -4 0.29373528E-01 0.12499705E+03</pdfrwt>
<totfact> 0.88255806E+03</totfact>
</mgrwt>
</event>
<event>
 5    1  0.3234540E-002  0.1250033E+03  0.7818608E-02  0.1235064E+00
         -4   -1    0    0    0  501 -0.00000000000E+00  0.00000000000E+00  0.44869203275E+02  0.44887173029E+02  0.12700000000E+01 0. -1.
          4   -1    0    0  501    0  0.00000000000E+00 -0.00000000000E+00 -0.87023221773E+02  0.87032488346E+02  0.12700000000E+01 0. -1.
         25    2    1    2    0    0  0.00000000000E+00  0.00000000000E+00 -0.42154018498E+02  0.13191966138E+03  0.12500334308E+03 0.  0.
    9000005    1    3    3    0    0  0.32981790102E+02  0.48397365308E+01  0.34708262359E+02  0.48134031662E+02  0.10000000000E+01 0.  0.
    9000005    1    3    3    0    0 -0.32981790102E+02 -0.48397365308E+01 -0.76862280857E+02  0.83785629714E+02  0.10000000000E+01 0.  0.
<mgrwt>
<rscale>  0 0.12500334E+03</rscale>
<asrwt>0</asrwt>
<pdfrwt beam="2">  1        4 0.13390283E-01 0.12500334E+03</pdfrwt>
<pdfrwt beam="1">  1       -4 0.69050495E-02 0.12500334E+03</pdfrwt>
<totfact> 0.10302636E+04</totfact>
</mgrwt>
</event>
<event>
 5    1  0.3234540E-002  0.1250067E+03  0.7818608E-02  0.1235059E+00
          4   -1    0    0  501    0  0.00000000000E+00  0.00000000000E+00  0.27430560086E+03  0.27430854082E+03  0.12700000000E+01 0.  1.
         -4   -1    0    0    0  501 -0.00000000000E+00 -0.00000000000E+00 -0.14210694552E+02  0.14267331203E+02  0.12700000000E+01 0.  1.
         25    2    1    2    0    0  0.00000000000E+00  0.00000000000E+00  0.26009490631E+03  0.28857587202E+03  0.12500669431E+03 0.  0.
    9000005    1    3    3    0    0 -0.15570709435E+02 -0.55570927435E+01  0.26917720179E+03  0.26968628856E+03  0.10000000000E+01 0.  0.
    9000005    1    3    3    0    0  0.15570709435E+02  0.55570927435E+01 -0.90822954820E+01  0.18889583460E+02  0.10000000000E+01 0.  0.
<mgrwt>
<rscale>  0 0.12500669E+03</rscale>
<asrwt>0</asrwt>
<pdfrwt beam="1">  1        4 0.42205444E-01 0.12500669E+03</pdfrwt>
<pdfrwt beam="2">  1       -4 0.21908435E-02 0.12500669E+03</pdfrwt>
<totfact> 0.77043117E+03</totfact>
</mgrwt>
</event>
<event>
 5    1  0.3234540E-002  0.1250030E+03  0.7818608E-02  0.1235065E+00
         -4   -1    0    0    0  501 -0.00000000000E+00  0.00000000000E+00  0.17443337731E+02  0.17489509176E+02  0.12700000000E+01 0. -1.
          4   -1    0    0  501    0  0.00000000000E+00 -0.00000000000E+00 -0.22360622711E+03  0.22360983364E+03  0.12700000000E+01 0. -1.
         25    2    1    2    0    0  0.00000000000E+00  0.00000000000E+00 -0.20616288938E+03  0.24109934282E+03  0.12500302457E+03 0.  0.
    9000005    1    3    3    0    0  0.34755437239E+02  0.51663206613E+02 -0.11336217899E+03  0.12934067790E+03  0.10000000000E+01 0.  0.
    9000005    1    3    3    0    0 -0.34755437239E+02 -0.51663206613E+02 -0.92800710389E+02  0.11175866492E+03  0.10000000000E+01 0.  0.
<mgrwt>
<rscale>  0 0.12500302E+03</rscale>
<asrwt>0</asrwt>
<pdfrwt beam="2">  1        4 0.34404785E-01 0.12500302E+03</pdfrwt>
<pdfrwt beam="1">  1       -4 0.26874197E-02 0.12500302E+03</pdfrwt>
<totfact> 0.83628274E+03</totfact>
</mgrwt>
</event>
<event>
 5    1  0.3234540E-002  0.1249981E+03  0.7818608E-02  0.1235072E+00
         -4   -1    0    0    0  501 -0.00000000000E+00  0.00000000000E+00  0.20544678139E+02  0.20583894186E+02  0.12700000000E+01 0. -1.
          4   -1    0    0  501    0  0.00000000000E+00 -0.00000000000E+00 -0.18990590746E+03  0.18991015399E+03  0.12700000000E+01 0. -1.
         25    2    1    2    0    0  0.00000000000E+00  0.00000000000E+00 -0.16936122932E+03  0.21049404817E+03  0.12499807327E+03 0.  0.
    9000005    1    3    3    0    0  0.35877450556E+02 -0.59028169361E+01  0.90616397033E+00  0.36384829797E+02  0.10000000000E+01 0.  0.
    9000005    1    3    3    0    0 -0.35877450556E+02  0.59028169361E+01 -0.17026739329E+03  0.17410921838E+03  0.10000000000E+01 0.  0.
<mgrwt>
<rscale>  0 0.12499807E+03</rscale>
<asrwt>0</asrwt>
<pdfrwt beam="2">  1        4 0.29219636E-01 0.12499807E+03</pdfrwt>
<pdfrwt beam="1">  1       -4 0.31640631E-02 0.12499807E+03</pdfrwt>
<totfact> 0.88399068E+03</totfact>
</mgrwt>
</event>
<event>
 5    1  0.3234540E-002  0.1250000E+03  0.7818608E-02  0.1235069E+00
         -4   -1    0    0    0  501 -0.00000000000E+00  0.00000000000E+00  0.10288940931E+02  0.10367024910E+02  0.12700000000E+01 0.  1.
          4   -1    0    0  501    0  0.00000000000E+00 -0.00000000000E+00 -0.37814084425E+03  0.37814297691E+03  0.12700000000E+01 0.  1.
         25    2    1    2    0    0  0.00000000000E+00  0.00000000000E+00 -0.36785190332E+03  0.38851000183E+03  0.12499999497E+03 0.  0.
    9000005    1    3    3    0    0 -0.28855835195E+01 -0.21186223990E+01  0.99852361567E+01  0.10654580903E+02  0.10000000000E+01 0.  0.
    9000005    1    3    3    0    0  0.28855835195E+01  0.21186223990E+01 -0.37783713948E+03  0.37785542092E+03  0.10000000000E+01 0.  0.
<mgrwt>
<rscale>  0 0.12499999E+03</rscale>
<asrwt>0</asrwt>
<pdfrwt beam="2">  1        4 0.58181674E-01 0.12499999E+03</pdfrwt>
<pdfrwt beam="1">  1       -4 0.15890848E-02 0.12499999E+03</pdfrwt>
<totfact> 0.65685859E+03</totfact>
</mgrwt>
</event>
<event>
 5    1  0.3234540E-002  0.1250232E+03  0.7818608E-02  0.1235033E+00
         -4   -1    0    0    0  501 -0.00000000000E+00  0.00000000000E+00  0.24489512002E+03  0.24489841304E+03  0.12700000000E+01 0. -1.
          4   -1    0    0  501    0  0.00000000000E+00 -0.00000000000E+00 -0.15927952808E+02  0.15978503705E+02  0.12700000000E+01 0. -1.
         25    2    1    2    0    0  0.00000000000E+00  0.00000000000E+00  0.22896716721E+03  0.26087691674E+03  0.12502320596E+03 0.  0.
    9000005    1    3    3    0    0  0.28488705979E+02 -0.19724197624E+02  0.22302936353E+03  0.22570721596E+03  0.10000000000E+01 0.  0.
    9000005    1    3    3    0    0 -0.28488705979E+02  0.19724197624E+02  0.59378036753E+01  0.35169700777E+02  0.10000000000E+01 0.  0.
<mgrwt>
<rscale>  0 0.12502321E+03</rscale>
<asrwt>0</asrwt>
<pdfrwt beam="2">  1        4 0.24545962E-02 0.12502321E+03</pdfrwt>
<pdfrwt beam="1">  1       -4 0.37680314E-01 0.12502321E+03</pdfrwt>
<totfact> 0.80741442E+03</totfact>
</mgrwt>
</event>
<event>
 5    1  0.3234540E-002  0.1250007E+03  0.7818608E-02  0.1235068E+00
          4   -1    0    0  501    0  0.00000000000E+00  0.00000000000E+00  0.46865293916E+01  0.48555594670E+01  0.12700000000E+01 0. -1.
         -4   -1    0    0    0  501 -0.00000000000E+00 -0.00000000000E+00 -0.81858024364E+03  0.81858122882E+03  0.12700000000E+01 0. -1.
         25    2    1    2    0    0  0.00000000000E+00  0.00000000000E+00 -0.81389371425E+03  0.82343678829E+03  0.12500066485E+03 0.  0.
    9000005    1    3    3    0    0 -0.22708393522E+02  0.27164060155E+02 -0.74616802278E+03  0.74700821650E+03  0.10000000000E+01 0.  0.
    9000005    1    3    3    0    0  0.22708393522E+02 -0.27164060155E+02 -0.67725691467E+02  0.76428571786E+02  0.10000000000E+01 0.  0.
<mgrwt>
<rscale>  0 0.12500066E+03</rscale>
<asrwt>0</asrwt>
<pdfrwt beam="1">  1        4 0.73408327E-03 0.12500066E+03</pdfrwt>
<pdfrwt beam="2">  1       -4 0.12594839E+00 0.12500066E+03</pdfrwt>
<totfact> 0.37239107E+03</totfact>
</mgrwt>
</event>
<event>
 5    1  0.3234540E-002  0.1250103E+03  0.7818608E-02  0.1235053E+00
         -4   -1    0    0    0  501 -0.00000000000E+00  0.00000000000E+00  0.12368597894E+02  0.12433628346E+02  0.12700000000E+01 0. -1.
          4   -1    0    0  501    0  0.00000000000E+00 -0.00000000000E+00 -0.31497762127E+03  0.31498018160E+03  0.12700000000E+01 0. -1.
         25    2    1    2    0    0  0.00000000000E+00  0.00000000000E+00 -0.30260902337E+03  0.32741380994E+03  0.12501032723E+03 0.  0.
    9000005    1    3    3    0    0 -0.38071070458E+02  0.48488457352E+02 -0.12442099689E+03  0.13886007838E+03  0.10000000000E+01 0.  0.
    9000005    1    3    3    0    0  0.38071070458E+02 -0.48488457352E+02 -0.17818802649E+03  0.18855373156E+03  0.10000000000E+01 0.  0.
<mgrwt>
<rscale>  0 0.12501033E+03</rscale>
<asrwt>0</asrwt>
<pdfrwt beam="2">  1        4 0.48463289E-01 0.12501033E+03</pdfrwt>
<pdfrwt beam="1">  1       -4 0.19080607E-02 0.12501033E+03</pdfrwt>
<totfact> 0.72266407E+03</totfact>
</mgrwt>
</event>
<event>
 5    1  0.3234540E-002  0.1250006E+03  0.7818608E-02  0.1235068E+00
         -4   -1    0    0    0  501 -0.00000000000E+00  0.00000000000E+00  0.79840446067E+03  0.79840547075E+03  0.12700000000E+01 0.  1.
          4   -1    0    0  501    0  0.00000000000E+00 -0.00000000000E+00 -0.48091694220E+01  0.49740336277E+01  0.12700000000E+01 0.  1.
         25    2    1    2    0    0  0.00000000000E+00  0.00000000000E+00  0.79359529125E+03  0.80337950438E+03  0.12500056703E+03 0.  0.
    9000005    1    3    3    0    0 -0.47937948378E+02  0.38209717449E+02  0.31880649650E+03  0.32464844310E+03  0.10000000000E+01 0.  0.
    9000005    1    3    3    0    0  0.47937948378E+02 -0.38209717449E+02  0.47478879475E+03  0.47873106127E+03  0.10000000000E+01 0.  0.
<mgrwt>
<rscale>  0 0.12500057E+03</rscale>
<asrwt>0</asrwt>
<pdfrwt beam="2">  1        4 0.75263242E-03 0.12500057E+03</pdfrwt>
<pdfrwt beam="1">  1       -4 0.12284411E+00 0.12500057E+03</pdfrwt>
<totfact> 0.38113856E+03</totfact>
</mgrwt>
</event>
<event>
 5    1  0.3234540E-002  0.1250019E+03  0.7818608E-02  0.1235066E+00
         -4   -1    0    0    0  501 -0.00000000000E+00  0.00000000000E+00  0.16532867008E+03  0.16533354787E+03  0.12700000000E+01 0.  1.
          4   -1    0    0  501    0  0.00000000000E+00 -0.00000000000E+00 -0.23605591394E+02  0.23639730224E+02  0.12700000000E+01 0.  1.
         25    2    1    2    0    0  0.00000000000E+00  0.00000000000E+00  0.14172307869E+03  0.18897327810E+03  0.12500187519E+03 0.  0.
    9000005    1    3    3    0    0  0.31734926849E+02 -0.15003801402E+02  0.14902348027E+03  0.15310524913E+03  0.10000000000E+01 0.  0.
    9000005    1    3    3    0    0 -0.31734926849E+02  0.15003801402E+02 -0.73004015815E+01  0.35868028966E+02  0.10000000000E+01 0.  0.
<mgrwt>
<rscale>  0 0.12500188E+03</rscale>
<asrwt>0</asrwt>
<pdfrwt beam="2">  1        4 0.36346307E-02 0.12500188E+03</pdfrwt>
<pdfrwt beam="1">  1       -4 0.25438181E-01 0.12500188E+03</pdfrwt>
<totfact> 0.92022402E+03</totfact>
</mgrwt>
</event>
<event>
 5    1  0.3234540E-002  0.1249980E+03  0.7818608E-02  0.1235072E+00
         -4   -1    0    0    0  501 -0.00000000000E+00  0.00000000000E+00  0.56268056572E+01  0.57683482822E+01  0.12700000000E+01 0. -1.
          4   -1    0    0  501    0  0.00000000000E+00 -0.00000000000E+00 -0.68543404086E+03  0.68543521741E+03  0.12700000000E+01 0. -1.
         25    2    1    2    0    0  0.00000000000E+00  0.00000000000E+00 -0.67980723520E+03  0.69120356569E+03  0.12499796876E+03 0.  0.
    9000005    1    3    3    0    0  0.34599615059E+01 -0.11899554171E+02 -0.67859840927E+03  0.67871228941E+03  0.10000000000E+01 0.  0.
    9000005    1    3    3    0    0 -0.34599615059E+01  0.11899554171E+02 -0.12088259250E+01  0.12491276284E+02  0.10000000000E+01 0.  0.
<mgrwt>
<rscale>  0 0.12499797E+03</rscale>
<asrwt>0</asrwt>
<pdfrwt beam="2">  1        4 0.10546230E+00 0.12499797E+03</pdfrwt>
<pdfrwt beam="1">  1       -4 0.87664135E-03 0.12499797E+03</pdfrwt>
<totfact> 0.43557084E+03</totfact>
</mgrwt>
</event>
<event>
 5    1  0.3234540E-002  0.1249981E+03  0.7818608E-02  0.1235072E+00
          4   -1    0    0  501    0  0.00000000000E+00  0.00000000000E+00  0.16011566015E+02  0.16061853762E+02  0.12700000000E+01 0.  1.
         -4   -1    0    0    0  501 -0.00000000000E+00 -0.00000000000E+00 -0.24352235550E+03  0.24352566708E+03  0.12700000000E+01 0.  1.
         25    2    1    2    0    0  0.00000000000E+00  0.00000000000E+00 -0.22751078949E+03  0.25958752085E+03  0.12499808657E+03 0.  0.
    9000005    1    3    3    0    0  0.62329374139E+01 -0.55570706292E+02 -0.55823226673E+02  0.79020159091E+02  0.10000000000E+01 0.  0.
    9000005    1    3    3    0    0 -0.62329374139E+01  0.55570706292E+02 -0.17168756281E+03  0.18056736175E+03  0.10000000000E+01 0.  0.
<mgrwt>
<rscale>  0 0.12499809E+03</rscale>
<asrwt>0</asrwt>
<pdfrwt beam="1">  1        4 0.24674411E-02 0.12499809E+03</pdfrwt>
<pdfrwt beam="2">  1       -4 0.37469098E-01 0.12499809E+03</pdfrwt>
<totfact> 0.80967431E+03</totfact>
</mgrwt>
</event>
<event>
 5    1  0.3234540E-002  0.1250016E+03  0.7818608E-02  0.1235067E+00
         -4   -1    0    0    0  501 -0.00000000000E+00  0.00000000000E+00  0.59565085027E+03  0.59565220416E+03  0.12700000000E+01 0. -1.
          4   -1    0    0  501    0  0.00000000000E+00 -0.00000000000E+00 -0.64952581323E+01  0.66182534105E+01  0.12700000000E+01 0. -1.
         25    2    1    2    0    0  0.00000000000E+00  0.00000000000E+00  0.58915559214E+03  0.60227045757E+03  0.12500156928E+03 0.  0.
    9000005    1    3    3    0    0 -0.45539984237E+02 -0.41167390033E+02  0.23824431741E+03  0.24602845150E+03  0.10000000000E+01 0.  0.
    9000005    1    3    3    0    0  0.45539984237E+02  0.41167390033E+02  0.35091127472E+03  0.35624200608E+03  0.10000000000E+01 0.  0.
<mgrwt>
<rscale>  0 0.12500157E+03</rscale>
<asrwt>0</asrwt>
<pdfrwt beam="2">  1        4 0.10088356E-02 0.12500157E+03</pdfrwt>
<pdfrwt beam="1">  1       -4 0.91648174E-01 0.12500157E+03</pdfrwt>
<totfact> 0.48722922E+03</totfact>
</mgrwt>
</event>
<event>
 5    1  0.3234540E-002  0.1249890E+03  0.7818608E-02  0.1235086E+00
          4   -1    0    0  501    0  0.00000000000E+00  0.00000000000E+00  0.98964016996E+01  0.99775581481E+01  0.12700000000E+01 0. -1.
         -4   -1    0    0    0  501 -0.00000000000E+00 -0.00000000000E+00 -0.39295105016E+03  0.39295310244E+03  0.12700000000E+01 0. -1.
         25    2    1    2    0    0  0.00000000000E+00  0.00000000000E+00 -0.38305464846E+03  0.40293066059E+03  0.12498901368E+03 0.  0.
    9000005    1    3    3    0    0  0.58806132736E+02 -0.13837333466E+02 -0.14005553827E+03  0.15253257634E+03  0.10000000000E+01 0.  0.
    9000005    1    3    3    0    0 -0.58806132736E+02  0.13837333466E+02 -0.24299911018E+03  0.25039808425E+03  0.10000000000E+01 0.  0.
<mgrwt>
<rscale>  0 0.12498901E+03</rscale>
<asrwt>0</asrwt>
<pdfrwt beam="1">  1        4 0.15289243E-02 0.12498901E+03</pdfrwt>
<pdfrwt beam="2">  1       -4 0.60460396E-01 0.12498901E+03</pdfrwt>
<totfact> 0.64284345E+03</totfact>
</mgrwt>
</event>
<event>
 5    1  0.3234540E-002  0.1250013E+03  0.7818608E-02  0.1235067E+00
          4   -1    0    0  501    0  0.00000000000E+00  0.00000000000E+00  0.52173319857E+03  0.52173474428E+03  0.12700000000E+01 0. -1.
         -4   -1    0    0    0  501 -0.00000000000E+00 -0.00000000000E+00 -0.74317969794E+01  0.75395295836E+01  0.12700000000E+01 0. -1.
         25    2    1    2    0    0  0.00000000000E+00  0.00000000000E+00  0.51430140159E+03  0.52927427387E+03  0.12500130118E+03 0.  0.
    9000005    1    3    3    0    0  0.25518512004E+01  0.20086343181E+02  0.68211642942E+01  0.21389282579E+02  0.10000000000E+01 0.  0.
    9000005    1    3    3    0    0 -0.25518512004E+01 -0.20086343181E+02  0.50748023730E+03  0.50788499129E+03  0.10000000000E+01 0.  0.
<mgrwt>
<rscale>  0 0.12500130E+03</rscale>
<asrwt>0</asrwt>
<pdfrwt beam="1">  1        4 0.80275051E-01 0.12500130E+03</pdfrwt>
<pdfrwt beam="2">  1       -4 0.11517594E-02 0.12500130E+03</pdfrwt>
<totfact> 0.53660956E+03</totfact>
</mgrwt>
</event>
<event>
 5    1  0.3234540E-002  0.1250017E+03  0.7818608E-02  0.1235067E+00
          4   -1    0    0  501    0  0.00000000000E+00  0.00000000000E+00  0.84395791437E+02  0.84405346467E+02  0.12700000000E+01 0. -1.
         -4   -1    0    0    0  501 -0.00000000000E+00 -0.00000000000E+00 -0.46265254223E+02  0.46282681948E+02  0.12700000000E+01 0. -1.
         25    2    1    2    0    0  0.00000000000E+00  0.00000000000E+00  0.38130537214E+02  0.13068802841E+03  0.12500169160E+03 0.  0.
    9000005    1    3    3    0    0 -0.41504711499E+02  0.46233604510E+02  0.26091744695E+02  0.67394112531E+02  0.10000000000E+01 0.  0.
    9000005    1    3    3    0    0  0.41504711499E+02 -0.46233604510E+02  0.12038792519E+02  0.63293915884E+02  0.10000000000E+01 0.  0.
<mgrwt>
<rscale>  0 0.12500169E+03</rscale>
<asrwt>0</asrwt>
<pdfrwt beam="1">  1        4 0.12986044E-01 0.12500169E+03</pdfrwt>
<pdfrwt beam="2">  1       -4 0.71198070E-02 0.12500169E+03</pdfrwt>
<totfact> 0.10329388E+04</totfact>
</mgrwt>
</event>
<event>
 5    1  0.3234540E-002  0.1249997E+03  0.7818608E-02  0.1235070E+00
          4   -1    0    0  501    0  0.00000000000E+00  0.00000000000E+00  0.78158564084E+02  0.78168881530E+02  0.12700000000E+01 0.  1.
         -4   -1    0    0    0  501 -0.00000000000E+00 -0.00000000000E+00 -0.49956599492E+02  0.49972739897E+02  0.12700000000E+01 0.  1.
         25    2    1    2    0    0  0.00000000000E+00  0.00000000000E+00  0.28201964591E+02  0.12814162143E+03  0.12499969734E+03 0.  0.
    9000005    1    3    3    0    0 -0.27306345874E+02 -0.32038898456E+02 -0.33245445979E+02  0.53650603143E+02  0.10000000000E+01 0.  0.
    9000005    1    3    3    0    0  0.27306345874E+02  0.32038898456E+02  0.61447410571E+02  0.74491018285E+02  0.10000000000E+01 0.  0.
<mgrwt>
<rscale>  0 0.12499970E+03</rscale>
<asrwt>0</asrwt>
<pdfrwt beam="1">  1        4 0.12026430E-01 0.12499970E+03</pdfrwt>
<pdfrwt beam="2">  1       -4 0.76876659E-02 0.12499970E+03</pdfrwt>
<totfact> 0.10384501E+04</totfact>
</mgrwt>
</event>
<event>
 5    1  0.3234540E-002  0.1250000E+03  0.7818608E-02  0.1235069E+00
          4   -1    0    0  501    0  0.00000000000E+00  0.00000000000E+00  0.63394100340E+03  0.63394227552E+03  0.12700000000E+01 0.  1.
         -4   -1    0    0    0  501 -0.00000000000E+00 -0.00000000000E+00 -0.60951196359E+01  0.62260246848E+01  0.12700000000E+01 0.  1.
         25    2    1    2    0    0  0.00000000000E+00  0.00000000000E+00  0.62784588376E+03  0.64016830021E+03  0.12499999531E+03 0.  0.
    9000005    1    3    3    0    0  0.32177750795E+02 -0.52885066009E+02  0.27016258486E+03  0.27716612368E+03  0.10000000000E+01 0.  0.
    9000005    1    3    3    0    0 -0.32177750795E+02  0.52885066009E+02  0.35768329890E+03  0.36300217653E+03  0.10000000000E+01 0.  0.
<mgrwt>
<rscale>  0 0.12500000E+03</rscale>
<asrwt>0</asrwt>
<pdfrwt beam="1">  1        4 0.97539526E-01 0.12500000E+03</pdfrwt>
<pdfrwt beam="2">  1       -4 0.94787845E-03 0.12500000E+03</pdfrwt>
<totfact> 0.46426380E+03</totfact>
</mgrwt>
</event>
<event>
 5    1  0.3234540E-002  0.1250097E+03  0.7818608E-02  0.1235054E+00
         -4   -1    0    0    0  501 -0.00000000000E+00  0.00000000000E+00  0.23039580744E+02  0.23074557003E+02  0.12700000000E+01 0.  1.
          4   -1    0    0  501    0  0.00000000000E+00 -0.00000000000E+00 -0.16940555657E+03  0.16941031697E+03  0.12700000000E+01 0.  1.
         25    2    1    2    0    0  0.00000000000E+00  0.00000000000E+00 -0.14636597583E+03  0.19248487398E+03  0.12500971094E+03 0.  0.
    9000005    1    3    3    0    0  0.15041699292E+02 -0.96095785977E+01 -0.16540493729E+03  0.16636823614E+03  0.10000000000E+01 0.  0.
    9000005    1    3    3    0    0 -0.15041699292E+02  0.96095785977E+01  0.19038961458E+02  0.26116637835E+02  0.10000000000E+01 0.  0.
<mgrwt>
<rscale>  0 0.12500971E+03</rscale>
<asrwt>0</asrwt>
<pdfrwt beam="2">  1        4 0.26065449E-01 0.12500971E+03</pdfrwt>
<pdfrwt beam="1">  1       -4 0.35476077E-02 0.12500971E+03</pdfrwt>
<totfact> 0.91396866E+03</totfact>
</mgrwt>
</event>
<event>
 5    1  0.3234540E-002  0.1249992E+03  0.7818608E-02  0.1235071E+00
         -4   -1    0    0    0  501 -0.00000000000E+00  0.00000000000E+00  0.42671962338E+03  0.42672151325E+03  0.12700000000E+01 0.  1.
          4   -1    0    0  501    0  0.00000000000E+00 -0.00000000000E+00 -0.91080514615E+01  0.91961677576E+01  0.12700000000E+01 0.  1.
         25    2    1    2    0    0  0.00000000000E+00  0.00000000000E+00  0.41761157191E+03  0.43591768101E+03  0.12499919849E+03 0.  0.
    9000005    1    3    3    0    0 -0.61670973658E+02  0.62999255738E+01  0.23630997927E+03  0.24430801124E+03  0.10000000000E+01 0.  0.
    9000005    1    3    3    0    0  0.61670973658E+02 -0.62999255738E+01  0.18130159265E+03  0.19160966977E+03  0.10000000000E+01 0.  0.
<mgrwt>
<rscale>  0 0.12499920E+03</rscale>
<asrwt>0</asrwt>
<pdfrwt beam="2">  1        4 0.14081625E-02 0.12499920E+03</pdfrwt>
<pdfrwt beam="1">  1       -4 0.65656083E-01 0.12499920E+03</pdfrwt>
<totfact> 0.61204316E+03</totfact>
</mgrwt>
</event>
<event>
 5    1  0.3234540E-002  0.1250006E+03  0.7818608E-02  0.1235068E+00
         -4   -1    0    0    0  501 -0.00000000000E+00  0.00000000000E+00  0.17670529046E+02  0.17716108397E+02  0.12700000000E+01 0.  1.
          4   -1    0    0  501    0  0.00000000000E+00 -0.00000000000E+00 -0.22073024241E+03  0.22073389594E+03  0.12700000000E+01 0.  1.
         25    2    1    2    0    0  0.00000000000E+00  0.00000000000E+00 -0.20305971337E+03  0.23845000433E+03  0.12500062950E+03 0.  0.
    9000005    1    3    3    0    0 -0.19599637716E+02 -0.58448719881E+02 -0.12106666450E+03  0.13586219455E+03  0.10000000000E+01 0.  0.
    9000005    1    3    3    0    0  0.19599637716E+02  0.58448719881E+02 -0.81993048870E+02  0.10258780979E+03  0.10000000000E+01 0.  0.
<mgrwt>
<rscale>  0 0.12500063E+03</rscale>
<asrwt>0</asrwt>
<pdfrwt beam="2">  1        4 0.33962284E-01 0.12500063E+03</pdfrwt>
<pdfrwt beam="1">  1       -4 0.27223302E-02 0.12500063E+03</pdfrwt>
<totfact> 0.84027576E+03</totfact>
</mgrwt>
</event>
<event>
 5    1  0.3234540E-002  0.1249993E+03  0.7818608E-02  0.1235070E+00
          4   -1    0    0  501    0  0.00000000000E+00  0.00000000000E+00  0.17679181932E+03  0.17679638084E+03  0.12700000000E+01 0. -1.
         -4   -1    0    0    0  501 -0.00000000000E+00 -0.00000000000E+00 -0.22071837476E+02  0.22108344795E+02  0.12700000000E+01 0. -1.
         25    2    1    2    0    0  0.00000000000E+00  0.00000000000E+00  0.15471998184E+03  0.19890472563E+03  0.12499926839E+03 0.  0.
    9000005    1    3    3    0    0  0.16922179453E+02  0.23071061768E+02  0.16576476354E+03  0.16821887790E+03  0.10000000000E+01 0.  0.
    9000005    1    3    3    0    0 -0.16922179453E+02 -0.23071061768E+02 -0.11044781701E+02  0.30685847737E+02  0.10000000000E+01 0.  0.
<mgrwt>
<rscale>  0 0.12499927E+03</rscale>
<asrwt>0</asrwt>
<pdfrwt beam="1">  1        4 0.27201901E-01 0.12499927E+03</pdfrwt>
<pdfrwt beam="2">  1       -4 0.33988264E-02 0.12499927E+03</pdfrwt>
<totfact> 0.90322041E+03</totfact>
</mgrwt>
</event>
<event>
 5    1  0.3234540E-002  0.1249990E+03  0.7818608E-02  0.1235071E+00
         -4   -1    0    0    0  501 -0.00000000000E+00  0.00000000000E+00  0.76204862975E+02  0.76215444898E+02  0.12700000000E+01 0. -1.
          4   -1    0    0  501    0  0.00000000000E+00 -0.00000000000E+00 -0.51237017755E+02  0.51252754935E+02  0.12700000000E+01 0. -1.
         25    2    1    2    0    0  0.00000000000E+00  0.00000000000E+00  0.24967845220E+02  0.12746819983E+03  0.12499899469E+03 0.  0.
    9000005    1    3    3    0    0  0.25237754420E+02 -0.52254471229E+02 -0.11162784045E+02  0.59102299103E+02  0.10000000000E+01 0.  0.
    9000005    1    3    3    0    0 -0.25237754420E+02  0.52254471229E+02  0.36130629265E+02  0.68365900730E+02  0.10000000000E+01 0.  0.
<mgrwt>
<rscale>  0 0.12499899E+03</rscale>
<asrwt>0</asrwt>
<pdfrwt beam="2">  1        4 0.78846426E-02 0.12499899E+03</pdfrwt>
<pdfrwt beam="1">  1       -4 0.11725850E-01 0.12499899E+03</pdfrwt>
<totfact> 0.10399225E+04</totfact>
</mgrwt>
</event>
<event>
 5    1  0.3234540E-002  0.1250011E+03  0.7818608E-02  0.1235068E+00
          4   -1    0    0  501    0  0.00000000000E+00  0.00000000000E+00  0.90184485583E+03  0.90184575005E+03  0.12700000000E+01 0. -1.
         -4   -1    0    0    0  501 -0.00000000000E+00 -0.00000000000E+00 -0.42374690639E+01  0.44236912265E+01  0.12700000000E+01 0. -1.
         25    2    1    2    0    0  0.00000000000E+00  0.00000000000E+00  0.89760738677E+03  0.90626944128E+03  0.12500111767E+03 0.  0.
    9000005    1    3    3    0    0  0.44235081179E+02  0.43972085963E+02  0.47691414147E+03  0.48097649120E+03  0.10000000000E+01 0.  0.
    9000005    1    3    3    0    0 -0.44235081179E+02 -0.43972085963E+02  0.42069324529E+03  0.42529295008E+03  0.10000000000E+01 0.  0.
<mgrwt>
<rscale>  0 0.12500112E+03</rscale>
<asrwt>0</asrwt>
<pdfrwt beam="1">  1        4 0.13875967E+00 0.12500112E+03</pdfrwt>
<pdfrwt beam="2">  1       -4 0.66631229E-03 0.12500112E+03</pdfrwt>
<totfact> 0.33920181E+03</totfact>
</mgrwt>
</event>
<event>
 5    1  0.3234540E-002  0.1250003E+03  0.7818608E-02  0.1235069E+00
         -4   -1    0    0    0  501 -0.00000000000E+00  0.00000000000E+00  0.12946627434E+03  0.12947250323E+03  0.12700000000E+01 0.  1.
          4   -1    0    0  501    0  0.00000000000E+00 -0.00000000000E+00 -0.30151768090E+02  0.30178502596E+02  0.12700000000E+01 0.  1.
         25    2    1    2    0    0  0.00000000000E+00  0.00000000000E+00  0.99314506251E+02  0.15965100582E+03  0.12500029003E+03 0.  0.
    9000005    1    3    3    0    0 -0.19648065621E+01 -0.78799075705E+01  0.12879569498E+03  0.12905535422E+03  0.10000000000E+01 0.  0.
    9000005    1    3    3    0    0  0.19648065621E+01  0.78799075705E+01 -0.29481188728E+02  0.30595651602E+02  0.10000000000E+01 0.  0.
<mgrwt>
<rscale>  0 0.12500029E+03</rscale>
<asrwt>0</asrwt>
<pdfrwt beam="2">  1        4 0.46412692E-02 0.12500029E+03</pdfrwt>
<pdfrwt beam="1">  1       -4 0.19920424E-01 0.12500029E+03</pdfrwt>
<totfact> 0.97409475E+03</totfact>
</mgrwt>
</event>
<event>
 5    1  0.3234540E-002  0.1250004E+03  0.7818608E-02  0.1235069E+00
         -4   -1    0    0    0  501 -0.00000000000E+00  0.00000000000E+00  0.49996918899E+02  0.50013046292E+02  0.12700000000E+01 0. -1.
          4   -1    0    0  501    0  0.00000000000E+00 -0.00000000000E+00 -0.78096472055E+02  0.78106797703E+02  0.12700000000E+01 0. -1.
         25    2    1    2    0    0  0.00000000000E+00  0.00000000000E+00 -0.28099553156E+02  0.12811984399E+03  0.12500043815E+03 0.  0.
    9000005    1    3    3    0    0  0.62356229496E+02 -0.38753214261E+01 -0.15484681328E+02  0.64374628767E+02  0.10000000000E+01 0.  0.
    9000005    1    3    3    0    0 -0.62356229496E+02  0.38753214261E+01 -0.12614871828E+02  0.63745215227E+02  0.10000000000E+01 0.  0.
<mgrwt>
<rscale>  0 0.12500044E+03</rscale>
<asrwt>0</asrwt>
<pdfrwt beam="2">  1        4 0.12016877E-01 0.12500044E+03</pdfrwt>
<pdfrwt beam="1">  1       -4 0.76938685E-02 0.12500044E+03</pdfrwt>
<totfact> 0.10384798E+04</totfact>
</mgrwt>
</event>
<event>
 5    1  0.3234540E-002  0.1250004E+03  0.7818608E-02  0.1235069E+00
         -4   -1    0    0    0  501 -0.00000000000E+00  0.00000000000E+00  0.11377714823E+03  0.11378423599E+03  0.12700000000E+01 0. -1.
          4   -1    0    0  501    0  0.00000000000E+00 -0.00000000000E+00 -0.34312767133E+02  0.34336262003E+02  0.12700000000E+01 0. -1.
         25    2    1    2    0    0  0.00000000000E+00  0.00000000000E+00  0.79464381095E+02  0.14812049799E+03  0.12500037625E+03 0.  0.
    9000005    1    3    3    0    0  0.41578954983E+02 -0.37247016640E+01  0.94837189733E+02  0.10362323801E+03  0.10000000000E+01 0.  0.
    9000005    1    3    3    0    0 -0.41578954983E+02  0.37247016640E+01 -0.15372808638E+02  0.44497259976E+02  0.10000000000E+01 0.  0.
<mgrwt>
<rscale>  0 0.12500038E+03</rscale>
<asrwt>0</asrwt>
<pdfrwt beam="2">  1        4 0.52812398E-02 0.12500038E+03</pdfrwt>
<pdfrwt beam="1">  1       -4 0.17506529E-01 0.12500038E+03</pdfrwt>
<totfact> 0.99678832E+03</totfact>
</mgrwt>
</event>
<event>
 5    1  0.3234540E-002  0.1250015E+03  0.7818608E-02  0.1235067E+00
         -4   -1    0    0    0  501 -0.00000000000E+00  0.00000000000E+00  0.22274596579E+03  0.22274958626E+03  0.12700000000E+01 0. -1.
          4   -1    0    0  501    0  0.00000000000E+00 -0.00000000000E+00 -0.17510465447E+02  0.17556460354E+02  0.12700000000E+01 0. -1.
         25    2    1    2    0    0  0.00000000000E+00  0.00000000000E+00  0.20523550035E+03  0.24030604661E+03  0.12500154173E+03 0.  0.
    9000005    1    3    3    0    0  0.50593582789E+02  0.13099093834E+02  0.16848848822E+03  0.17641050859E+03  0.10000000000E+01 0.  0.
    9000005    1    3    3    0    0 -0.50593582789E+02 -0.13099093834E+02  0.36747012129E+02  0.63895538022E+02  0.10000000000E+01 0.  0.
<mgrwt>
<rscale>  0 0.12500154E+03</rscale>
<asrwt>0</asrwt>
<pdfrwt beam="2">  1        4 0.26977343E-02 0.12500154E+03</pdfrwt>
<pdfrwt beam="1">  1       -4 0.34272427E-01 0.12500154E+03</pdfrwt>
<totfact> 0.83748929E+03</totfact>
</mgrwt>
</event>
<event>
 5    1  0.3234540E-002  0.1249979E+03  0.7818608E-02  0.1235073E+00
          4   -1    0    0  501    0  0.00000000000E+00  0.00000000000E+00  0.61358957300E+03  0.61359088732E+03  0.12700000000E+01 0.  1.
         -4   -1    0    0    0  501 -0.00000000000E+00 -0.00000000000E+00 -0.63013361573E+01  0.64280430433E+01  0.12700000000E+01 0.  1.
         25    2    1    2    0    0  0.00000000000E+00  0.00000000000E+00  0.60728823685E+03  0.62001893036E+03  0.12499788556E+03 0.  0.
    9000005    1    3    3    0    0 -0.35873572271E+01  0.48905050683E+02  0.49578808702E+03  0.49820818976E+03  0.10000000000E+01 0.  0.
    9000005    1    3    3    0    0  0.35873572271E+01 -0.48905050683E+02  0.11150014983E+03  0.12181074060E+03  0.10000000000E+01 0.  0.
<mgrwt>
<rscale>  0 0.12499789E+03</rscale>
<asrwt>0</asrwt>
<pdfrwt beam="1">  1        4 0.94408276E-01 0.12499789E+03</pdfrwt>
<pdfrwt beam="2">  1       -4 0.97928378E-03 0.12499789E+03</pdfrwt>
<totfact> 0.47630052E+03</totfact>
</mgrwt>
</event>
<event>
 5    1  0.3234540E-002  0.1249935E+03  0.7818608E-02  0.1235079E+00
          4   -1    0    0  501    0  0.00000000000E+00  0.00000000000E+00  0.13450184744E+02  0.13510009979E+02  0.12700000000E+01 0.  1.
         -4   -1    0    0    0  501 -0.00000000000E+00 -0.00000000000E+00 -0.28968758811E+03  0.28969037196E+03  0.12700000000E+01 0.  1.
         25    2    1    2    0    0  0.00000000000E+00  0.00000000000E+00 -0.27623740337E+03  0.30320038194E+03  0.12499347418E+03 0.  0.
    9000005    1    3    3    0    0  0.42563918668E+02  0.45732938682E+02 -0.14123771676E+03  0.15444183853E+03  0.10000000000E+01 0.  0.
    9000005    1    3    3    0    0 -0.42563918668E+02 -0.45732938682E+02 -0.13499968661E+03  0.14875854341E+03  0.10000000000E+01 0.  0.
<mgrwt>
<rscale>  0 0.12499347E+03</rscale>
<asrwt>0</asrwt>
<pdfrwt beam="1">  1        4 0.20740755E-02 0.12499347E+03</pdfrwt>
<pdfrwt beam="2">  1       -4 0.44572133E-01 0.12499347E+03</pdfrwt>
<totfact> 0.75210029E+03</totfact>
</mgrwt>
</event>
<event>
 5    1  0.3234540E-002  0.1249993E+03  0.7818608E-02  0.1235070E+00
         -4   -1    0    0    0  501 -0.00000000000E+00  0.00000000000E+00  0.22701034897E+03  0.22701390142E+03  0.12700000000E+01 0. -1.
          4   -1    0    0  501    0  0.00000000000E+00 -0.00000000000E+00 -0.17180056322E+02  0.17226933425E+02  0.12700000000E+01 0. -1.
         25    2    1    2    0    0  0.00000000000E+00  0.00000000000E+00  0.20983029264E+03  0.24424083484E+03  0.12499933478E+03 0.  0.
    9000005    1    3    3    0    0  0.11251059378E+02 -0.56383861719E+02  0.15275597888E+03  0.16322106262E+03  0.10000000000E+01 0.  0.
    9000005    1    3    3    0    0 -0.11251059378E+02  0.56383861719E+02  0.57074313763E+02  0.81019772222E+02  0.10000000000E+01 0.  0.
<mgrwt>
<rscale>  0 0.12499933E+03</rscale>
<asrwt>0</asrwt>
<pdfrwt beam="2">  1        4 0.26469650E-02 0.12499933E+03</pdfrwt>
<pdfrwt beam="1">  1       -4 0.34928545E-01 0.12499933E+03</pdfrwt>
<totfact> 0.83171032E+03</totfact>
</mgrwt>
</event>
<event>
 5    1  0.3234540E-002  0.1249996E+03  0.7818608E-02  0.1235070E+00
          4   -1    0    0  501    0  0.00000000000E+00  0.00000000000E+00  0.11489083763E+02  0.11559063358E+02  0.12700000000E+01 0.  1.
         -4   -1    0    0    0  501 -0.00000000000E+00 -0.00000000000E+00 -0.33889078850E+03  0.33889316816E+03  0.12700000000E+01 0.  1.
         25    2    1    2    0    0  0.00000000000E+00  0.00000000000E+00 -0.32740170473E+03  0.35045223152E+03  0.12499956126E+03 0.  0.
    9000005    1    3    3    0    0  0.21185042042E+02  0.54793316681E+02 -0.10395601199E+03  0.11941091235E+03  0.10000000000E+01 0.  0.
    9000005    1    3    3    0    0 -0.21185042042E+02 -0.54793316681E+02 -0.22344569274E+03  0.23104131917E+03  0.10000000000E+01 0.  0.
<mgrwt>
<rscale>  0 0.12499956E+03</rscale>
<asrwt>0</asrwt>
<pdfrwt beam="1">  1        4 0.17731177E-02 0.12499956E+03</pdfrwt>
<pdfrwt beam="2">  1       -4 0.52142603E-01 0.12499956E+03</pdfrwt>
<totfact> 0.69675513E+03</totfact>
</mgrwt>
</event>
<event>
 5    1  0.3234540E-002  0.1249986E+03  0.7818608E-02  0.1235072E+00
         -4   -1    0    0    0  501 -0.00000000000E+00  0.00000000000E+00  0.62804859679E+02  0.62817698933E+02  0.12700000000E+01 0.  1.
          4   -1    0    0  501    0  0.00000000000E+00 -0.00000000000E+00 -0.62169508750E+02  0.62182479190E+02  0.12700000000E+01 0.  1.
         25    2    1    2    0    0  0.00000000000E+00  0.00000000000E+00  0.63535092839E+00  0.12500017812E+03  0.12499856343E+03 0.  0.
    9000005    1    3    3    0    0 -0.52696782855E+02 -0.27854380309E+02  0.19088714123E+02  0.62595498501E+02  0.10000000000E+01 0.  0.
    9000005    1    3    3    0    0  0.52696782855E+02  0.27854380309E+02 -0.18453363195E+02  0.62404679623E+02  0.10000000000E+01 0.  0.
<mgrwt>
<rscale>  0 0.12499856E+03</rscale>
<asrwt>0</asrwt>
<pdfrwt beam="2">  1        4 0.95665252E-02 0.12499856E+03</pdfrwt>
<pdfrwt beam="1">  1       -4 0.96642714E-02 0.12499856E+03</pdfrwt>
<totfact> 0.10453198E+04</totfact>
</mgrwt>
</event>
<event>
 5    1  0.3234540E-002  0.1250020E+03  0.7818608E-02  0.1235066E+00
          4   -1    0    0  501    0  0.00000000000E+00  0.00000000000E+00  0.26985933862E+02  0.27015801420E+02  0.12700000000E+01 0.  1.
         -4   -1    0    0    0  501 -0.00000000000E+00 -0.00000000000E+00 -0.14464326633E+03  0.14464884167E+03  0.12700000000E+01 0.  1.
         25    2    1    2    0    0  0.00000000000E+00  0.00000000000E+00 -0.11765733247E+03  0.17166464309E+03  0.12500200719E+03 0.  0.
    9000005    1    3    3    0    0 -0.25835054010E+02  0.56744191846E+02 -0.64658643815E+02  0.89828133366E+02  0.10000000000E+01 0.  0.
    9000005    1    3    3    0    0  0.25835054010E+02 -0.56744191846E+02 -0.52998688655E+02  0.81836509720E+02  0.10000000000E+01 0.  0.
<mgrwt>
<rscale>  0 0.12500201E+03</rscale>
<asrwt>0</asrwt>
<pdfrwt beam="1">  1        4 0.41544086E-02 0.12500201E+03</pdfrwt>
<pdfrwt beam="2">  1       -4 0.22255536E-01 0.12500201E+03</pdfrwt>
<totfact> 0.95134992E+03</totfact>
</mgrwt>
</event>
<event>
 5    1  0.3234540E-002  0.1250054E+03  0.7818608E-02  0.1235061E+00
         -4   -1    0    0    0  501 -0.00000000000E+00  0.00000000000E+00  0.21802188257E+02  0.21839146339E+02  0.12700000000E+01 0.  1.
          4   -1    0    0  501    0  0.00000000000E+00 -0.00000000000E+00 -0.17899217963E+03  0.17899668508E+03  0.12700000000E+01 0.  1.
         25    2    1    2    0    0  0.00000000000E+00  0.00000000000E+00 -0.15718999138E+03  0.20083583142E+03  0.12500535106E+03 0.  0.
    9000005    1    3    3    0    0  0.25630893959E+02 -0.22928186886E+02 -0.16243120395E+03  0.16603475689E+03  0.10000000000E+01 0.  0.
    9000005    1    3    3    0    0 -0.25630893959E+02  0.22928186886E+02  0.52412125750E+01  0.34801074528E+02  0.10000000000E+01 0.  0.
<mgrwt>
<rscale>  0 0.12500535E+03</rscale>
<asrwt>0</asrwt>
<pdfrwt beam="2">  1        4 0.27540447E-01 0.12500535E+03</pdfrwt>
<pdfrwt beam="1">  1       -4 0.33573724E-02 0.12500535E+03</pdfrwt>
<totfact> 0.89983954E+03</totfact>
</mgrwt>
</event>
<event>
 5    1  0.3234540E-002  0.1250007E+03  0.7818608E-02  0.1235068E+00
          4   -1    0    0  501    0  0.00000000000E+00  0.00000000000E+00  0.20415557159E+03  0.20415952173E+03  0.12700000000E+01 0. -1.
         -4   -1    0    0    0  501 -0.00000000000E+00 -0.00000000000E+00 -0.19108683574E+02  0.19150840397E+02  0.12700000000E+01 0. -1.
         25    2    1    2    0    0  0.00000000000E+00  0.00000000000E+00  0.18504688802E+03  0.22331036213E+03  0.12500066827E+03 0.  0.
    9000005    1    3    3    0    0  0.20877863562E+02 -0.12566620285E+02  0.19532697800E+03  0.19684367774E+03  0.10000000000E+01 0.  0.
    9000005    1    3    3    0    0 -0.20877863562E+02  0.12566620285E+02 -0.10280089981E+02  0.26466684384E+02  0.10000000000E+01 0.  0.
<mgrwt>
<rscale>  0 0.12500067E+03</rscale>
<asrwt>0</asrwt>
<pdfrwt beam="1">  1        4 0.31412097E-01 0.12500067E+03</pdfrwt>
<pdfrwt beam="2">  1       -4 0.29433441E-02 0.12500067E+03</pdfrwt>
<totfact> 0.86345933E+03</totfact>
</mgrwt>
</event>
<event>
 5    1  0.3234540E-002  0.1249997E+03  0.7818608E-02  0.1235070E+00
         -4   -1    0    0    0  501 -0.00000000000E+00  0.00000000000E+00  0.50713115087E+02  0.50729014792E+02  0.12700000000E+01 0.  1.
          4   -1    0    0  501    0  0.00000000000E+00 -0.00000000000E+00 -0.76992816263E+02  0.77003289904E+02  0.12700000000E+01 0.  1.
         25    2    1    2    0    0  0.00000000000E+00  0.00000000000E+00 -0.26279701176E+02  0.12773230470E+03  0.12499967588E+03 0.  0.
    9000005    1    3    3    0    0  0.83676659675E+01 -0.35044012609E+02 -0.65316132627E+02  0.74600923820E+02  0.10000000000E+01 0.  0.
    9000005    1    3    3    0    0 -0.83676659675E+01  0.35044012609E+02  0.39036431451E+02  0.53131380877E+02  0.10000000000E+01 0.  0.
<mgrwt>
<rscale>  0 0.12499968E+03</rscale>
<asrwt>0</asrwt>
<pdfrwt beam="2">  1        4 0.11847077E-01 0.12499968E+03</pdfrwt>
<pdfrwt beam="1">  1       -4 0.78040464E-02 0.12499968E+03</pdfrwt>
<totfact> 0.10393349E+04</totfact>
</mgrwt>
</event>
<event>
 5    1  0.3234540E-002  0.1250008E+03  0.7818608E-02  0.1235068E+00
         -4   -1    0    0    0  501 -0.00000000000E+00  0.00000000000E+00  0.29053502865E+02  0.29081247029E+02  0.12700000000E+01 0.  1.
          4   -1    0    0  501    0  0.00000000000E+00 -0.00000000000E+00 -0.13435697909E+03  0.13436298125E+03  0.12700000000E+01 0.  1.
         25    2    1    2    0    0  0.00000000000E+00  0.00000000000E+00 -0.10530347623E+03  0.16344422828E+03  0.12500077461E+03 0.  0.
    9000005    1    3    3    0    0  0.57999688677E+02  0.22866529901E+02 -0.58269064230E+02  0.85341232254E+02  0.10000000000E+01 0.  0.
    9000005    1    3    3    0    0 -0.57999688677E+02 -0.22866529901E+02 -0.47034411995E+02  0.78102996025E+02  0.10000000000E+01 0.  0.
<mgrwt>
<rscale>  0 0.12500077E+03</rscale>
<asrwt>0</asrwt>
<pdfrwt beam="2">  1        4 0.20672900E-01 0.12500077E+03</pdfrwt>
<pdfrwt beam="1">  1       -4 0.44723656E-02 0.12500077E+03</pdfrwt>
<totfact> 0.96681162E+03</totfact>
</mgrwt>
</event>
<event>
 5    1  0.3234540E-002  0.1250008E+03  0.7818608E-02  0.1235068E+00
         -4   -1    0    0    0  501 -0.00000000000E+00  0.00000000000E+00  0.45032957378E+02  0.45050861814E+02  0.12700000000E+01 0.  1.
          4   -1    0    0  501    0  0.00000000000E+00 -0.00000000000E+00 -0.86703291995E+02  0.86712592758E+02  0.12700000000E+01 0.  1.
         25    2    1    2    0    0  0.00000000000E+00  0.00000000000E+00 -0.41670334617E+02  0.13176345457E+03  0.12500076469E+03 0.  0.
    9000005    1    3    3    0    0 -0.56257903614E+01 -0.14986748635E+02  0.42840272093E+02  0.45744300900E+02  0.10000000000E+01 0.  0.
    9000005    1    3    3    0    0  0.56257903614E+01  0.14986748635E+02 -0.84510606710E+02  0.86019153672E+02  0.10000000000E+01 0.  0.
<mgrwt>
<rscale>  0 0.12500076E+03</rscale>
<asrwt>0</asrwt>
<pdfrwt beam="2">  1        4 0.13341061E-01 0.12500076E+03</pdfrwt>
<pdfrwt beam="1">  1       -4 0.69302400E-02 0.12500076E+03</pdfrwt>
<totfact> 0.10306572E+04</totfact>
</mgrwt>
</event>
<event>
 5    1  0.3234540E-002  0.1249979E+03  0.7818608E-02  0.1235073E+00
          4   -1    0    0  501    0  0.00000000000E+00  0.00000000000E+00  0.43477253012E+02  0.43495797837E+02  0.12700000000E+01 0.  1.
         -4   -1    0    0    0  501 -0.00000000000E+00 -0.00000000000E+00 -0.89800649933E+02  0.89809629931E+02  0.12700000000E+01 0.  1.
         25    2    1    2    0    0  0.00000000000E+00  0.00000000000E+00 -0.46323396921E+02  0.13330542777E+03  0.12499791986E+03 0.  0.
    9000005    1    3    3    0    0  0.33704943059E+02 -0.36699043265E+02  0.17057845787E+02  0.52676494435E+02  0.10000000000E+01 0.  0.
    9000005    1    3    3    0    0 -0.33704943059E+02  0.36699043265E+02 -0.63381242708E+02  0.80628933333E+02  0.10000000000E+01 0.  0.
<mgrwt>
<rscale>  0 0.12499792E+03</rscale>
<asrwt>0</asrwt>
<pdfrwt beam="1">  1        4 0.66909255E-02 0.12499792E+03</pdfrwt>
<pdfrwt beam="2">  1       -4 0.13817602E-01 0.12499792E+03</pdfrwt>
<totfact> 0.10274395E+04</totfact>
</mgrwt>
</event>
<event>
 5    1  0.3234540E-002  0.1250028E+03  0.7818608E-02  0.1235065E+00
         -4   -1    0    0    0  501 -0.00000000000E+00  0.00000000000E+00  0.10176306608E+03  0.10177099055E+03  0.12700000000E+01 0.  1.
          4   -1    0    0  501    0  0.00000000000E+00 -0.00000000000E+00 -0.38367529725E+02  0.38388543046E+02  0.12700000000E+01 0.  1.
         25    2    1    2    0    0  0.00000000000E+00  0.00000000000E+00  0.63395536354E+02  0.14015953360E+03  0.12500280328E+03 0.  0.
    9000005    1    3    3    0    0  0.27191567839E+02  0.10636969677E+02  0.93650304310E+02  0.98101508566E+02  0.10000000000E+01 0.  0.
    9000005    1    3    3    0    0 -0.27191567839E+02 -0.10636969677E+02 -0.30254767957E+02  0.42058025032E+02  0.10000000000E+01 0.  0.
<mgrwt>
<rscale>  0 0.12500280E+03</rscale>
<asrwt>0</asrwt>
<pdfrwt beam="2">  1        4 0.59049229E-02 0.12500280E+03</pdfrwt>
<pdfrwt beam="1">  1       -4 0.15658082E-01 0.12500280E+03</pdfrwt>
<totfact> 0.10129641E+04</totfact>
</mgrwt>
</event>
<event>
 5    1  0.3234540E-002  0.1249964E+03  0.7818608E-02  0.1235075E+00
         -4   -1    0    0    0  501 -0.00000000000E+00  0.00000000000E+00  0.48286097905E+02  0.48302796512E+02  0.12700000000E+01 0. -1.
          4   -1    0    0  501    0  0.00000000000E+00 -0.00000000000E+00 -0.80857682692E+02  0.80867655774E+02  0.12700000000E+01 0. -1.
         25    2    1    2    0    0  0.00000000000E+00  0.00000000000E+00 -0.32571584787E+02  0.12917045229E+03  0.12499639038E+03 0.  0.
    9000005    1    3    3    0    0 -0.58493507407E+02 -0.45777856184E+01 -0.38511629933E+02  0.70189687063E+02  0.10000000000E+01 0.  0.
    9000005    1    3    3    0    0  0.58493507407E+02  0.45777856184E+01  0.59400451462E+01  0.58980765223E+02  0.10000000000E+01 0.  0.
<mgrwt>
<rscale>  0 0.12499639E+03</rscale>
<asrwt>0</asrwt>
<pdfrwt beam="2">  1        4 0.12441695E-01 0.12499639E+03</pdfrwt>
<pdfrwt beam="1">  1       -4 0.74306821E-02 0.12499639E+03</pdfrwt>
<totfact> 0.10363130E+04</totfact>
</mgrwt>
</event>
<event>
 4    1  0.3234540E-002  0.1248690E+03  0.7818608E-02  0.1235274E+00
          4   -1    0    0  501    0  0.00000000000E+00  0.00000000000E+00  0.26484635568E+02  0.26515067813E+02  0.12700000000E+01 0. -1.
         -4   -1    0    0    0  501 -0.00000000000E+00 -0.00000000000E+00 -0.14706450482E+03  0.14706998837E+03  0.12700000000E+01 0. -1.
    9000005    1    1    2    0    0 -0.30909164791E+02  0.32960227762E+02 -0.12016780872E+03  0.12838635182E+03  0.10000000000E+01 0.  0.
    9000005    1    1    2    0    0  0.30909164791E+02 -0.32960227762E+02 -0.41206054075E+00  0.45198704363E+02  0.10000000000E+01 0.  0.
<mgrwt>
<rscale>  0 0.12486900E+03</rscale>
<asrwt>0</asrwt>
<pdfrwt beam="1">  1        4 0.40773222E-02 0.12486900E+03</pdfrwt>
<pdfrwt beam="2">  1       -4 0.22628071E-01 0.12486900E+03</pdfrwt>
<totfact> 0.95063757E+03</totfact>
</mgrwt>
</event>
<event>
 5    1  0.3234540E-002  0.1249996E+03  0.7818608E-02  0.1235070E+00
          4   -1    0    0  501    0  0.00000000000E+00  0.00000000000E+00  0.15842674132E+03  0.15843183160E+03  0.12700000000E+01 0.  1.
         -4   -1    0    0    0  501 -0.00000000000E+00 -0.00000000000E+00 -0.24634511687E+02  0.24667226558E+02  0.12700000000E+01 0.  1.
         25    2    1    2    0    0  0.00000000000E+00  0.00000000000E+00  0.13379222963E+03  0.18309905816E+03  0.12499961756E+03 0.  0.
    9000005    1    3    3    0    0 -0.92675324321E+01  0.13833935925E+02  0.15512458326E+03  0.15601891318E+03  0.10000000000E+01 0.  0.
    9000005    1    3    3    0    0  0.92675324321E+01 -0.13833935925E+02 -0.21332353627E+02  0.27080144974E+02  0.10000000000E+01 0.  0.
<mgrwt>
<rscale>  0 0.12499962E+03</rscale>
<asrwt>0</asrwt>
<pdfrwt beam="1">  1        4 0.24376253E-01 0.12499962E+03</pdfrwt>
<pdfrwt beam="2">  1       -4 0.37928329E-02 0.12499962E+03</pdfrwt>
<totfact> 0.93062916E+03</totfact>
</mgrwt>
</event>
<event>
 5    1  0.3234540E-002  0.1250019E+03  0.7818608E-02  0.1235066E+00
          4   -1    0    0  501    0  0.00000000000E+00  0.00000000000E+00  0.98981069989E+03  0.98981151464E+03  0.12700000000E+01 0.  1.
         -4   -1    0    0    0  501 -0.00000000000E+00 -0.00000000000E+00 -0.38435750451E+01  0.40479586370E+01  0.12700000000E+01 0.  1.
         25    2    1    2    0    0  0.00000000000E+00  0.00000000000E+00  0.98596712484E+03  0.99385947327E+03  0.12500192539E+03 0.  0.
    9000005    1    3    3    0    0  0.48042350924E+02  0.12626065858E+02  0.19149530361E+03  0.19783562957E+03  0.10000000000E+01 0.  0.
    9000005    1    3    3    0    0 -0.48042350924E+02 -0.12626065858E+02  0.79447182123E+03  0.79602384371E+03  0.10000000000E+01 0.  0.
<mgrwt>
<rscale>  0 0.12500193E+03</rscale>
<asrwt>0</asrwt>
<pdfrwt beam="1">  1        4 0.15229463E+00 0.12500193E+03</pdfrwt>
<pdfrwt beam="2">  1       -4 0.60710262E-03 0.12500193E+03</pdfrwt>
<totfact> 0.30806745E+03</totfact>
</mgrwt>
</event>
<event>
 5    1  0.3234540E-002  0.1250042E+03  0.7818608E-02  0.1235063E+00
          4   -1    0    0  501    0  0.00000000000E+00  0.00000000000E+00  0.41984216140E+02  0.42003420157E+02  0.12700000000E+01 0. -1.
         -4   -1    0    0    0  501 -0.00000000000E+00 -0.00000000000E+00 -0.93002317455E+02  0.93010988340E+02  0.12700000000E+01 0. -1.
         25    2    1    2    0    0  0.00000000000E+00  0.00000000000E+00 -0.51018101316E+02  0.13501440850E+03  0.12500417529E+03 0.  0.
    9000005    1    3    3    0    0  0.61775041825E+02  0.13078513936E+01 -0.35620616383E+02  0.71328077075E+02  0.10000000000E+01 0.  0.
    9000005    1    3    3    0    0 -0.61775041825E+02 -0.13078513936E+01 -0.15397484933E+02  0.63686331422E+02  0.10000000000E+01 0.  0.
<mgrwt>
<rscale>  0 0.12500418E+03</rscale>
<asrwt>0</asrwt>
<pdfrwt beam="1">  1        4 0.64612544E-02 0.12500418E+03</pdfrwt>
<pdfrwt beam="2">  1       -4 0.14310193E-01 0.12500418E+03</pdfrwt>
<totfact> 0.10236803E+04</totfact>
</mgrwt>
</event>
<event>
 5    1  0.3234540E-002  0.1250002E+03  0.7818608E-02  0.1235069E+00
          4   -1    0    0  501    0  0.00000000000E+00  0.00000000000E+00  0.14641030128E+02  0.14696008411E+02  0.12700000000E+01 0. -1.
         -4   -1    0    0    0  501 -0.00000000000E+00 -0.00000000000E+00 -0.26624574083E+03  0.26624876979E+03  0.12700000000E+01 0. -1.
         25    2    1    2    0    0  0.00000000000E+00  0.00000000000E+00 -0.25160471071E+03  0.28094477820E+03  0.12500015178E+03 0.  0.
    9000005    1    3    3    0    0  0.16838282313E+02 -0.52177663052E+02 -0.58404794582E+02  0.80113396527E+02  0.10000000000E+01 0.  0.
    9000005    1    3    3    0    0 -0.16838282313E+02  0.52177663052E+02 -0.19319991613E+03  0.20083138167E+03  0.10000000000E+01 0.  0.
<mgrwt>
<rscale>  0 0.12500015E+03</rscale>
<asrwt>0</asrwt>
<pdfrwt beam="1">  1        4 0.22569285E-02 0.12500015E+03</pdfrwt>
<pdfrwt beam="2">  1       -4 0.40965342E-01 0.12500015E+03</pdfrwt>
<totfact> 0.78052739E+03</totfact>
</mgrwt>
</event>
<event>
 5    1  0.3234540E-002  0.1249998E+03  0.7818608E-02  0.1235070E+00
          4   -1    0    0  501    0  0.00000000000E+00  0.00000000000E+00  0.74370129830E+02  0.74380972775E+02  0.12700000000E+01 0. -1.
         -4   -1    0    0    0  501 -0.00000000000E+00 -0.00000000000E+00 -0.52501950555E+02  0.52517308691E+02  0.12700000000E+01 0. -1.
         25    2    1    2    0    0  0.00000000000E+00  0.00000000000E+00  0.21868179275E+02  0.12689828147E+03  0.12499982630E+03 0.  0.
    9000005    1    3    3    0    0 -0.32904869293E+02  0.52863027112E+02  0.55613500551E+01  0.62523265055E+02  0.10000000000E+01 0.  0.
    9000005    1    3    3    0    0  0.32904869293E+02 -0.52863027112E+02  0.16306829220E+02  0.64375016411E+02  0.10000000000E+01 0.  0.
<mgrwt>
<rscale>  0 0.12499983E+03</rscale>
<asrwt>0</asrwt>
<pdfrwt beam="1">  1        4 0.11443574E-01 0.12499983E+03</pdfrwt>
<pdfrwt beam="2">  1       -4 0.80792387E-02 0.12499983E+03</pdfrwt>
<totfact> 0.10411397E+04</totfact>
</mgrwt>
</event>
<event>
 5    1  0.3234540E-002  0.1249916E+03  0.7818608E-02  0.1235082E+00
          4   -1    0    0  501    0  0.00000000000E+00  0.00000000000E+00  0.68451643375E+01  0.69619806670E+01  0.12700000000E+01 0. -1.
         -4   -1    0    0    0  501 -0.00000000000E+00 -0.00000000000E+00 -0.56563689300E+03  0.56563831874E+03  0.12700000000E+01 0. -1.
         25    2    1    2    0    0  0.00000000000E+00  0.00000000000E+00 -0.55879172866E+03  0.57260029940E+03  0.12499162714E+03 0.  0.
    9000005    1    3    3    0    0 -0.44519589839E+02  0.42239064161E+02 -0.33332746658E+03  0.33893116174E+03  0.10000000000E+01 0.  0.
    9000005    1    3    3    0    0  0.44519589839E+02 -0.42239064161E+02 -0.22546426208E+03  0.23366913767E+03  0.10000000000E+01 0.  0.
<mgrwt>
<rscale>  0 0.12499163E+03</rscale>
<asrwt>0</asrwt>
<pdfrwt beam="1">  1        4 0.10621982E-02 0.12499163E+03</pdfrwt>
<pdfrwt beam="2">  1       -4 0.87030120E-01 0.12499163E+03</pdfrwt>
<totfact> 0.50653450E+03</totfact>
</mgrwt>
</event>
<event>
 5    1  0.3234540E-002  0.1249997E+03  0.7818608E-02  0.1235070E+00
          4   -1    0    0  501    0  0.00000000000E+00  0.00000000000E+00  0.29737808676E+03  0.29738079861E+03  0.12700000000E+01 0. -1.
         -4   -1    0    0    0  501 -0.00000000000E+00 -0.00000000000E+00 -0.13102095375E+02  0.13163502696E+02  0.12700000000E+01 0. -1.
         25    2    1    2    0    0  0.00000000000E+00  0.00000000000E+00  0.28427599138E+03  0.31054430131E+03  0.12499969520E+03 0.  0.
    9000005    1    3    3    0    0  0.35664665026E+02  0.21916346377E+02  0.26864302296E+02  0.49749224193E+02  0.10000000000E+01 0.  0.
    9000005    1    3    3    0    0 -0.35664665026E+02 -0.21916346377E+02  0.25741168909E+03  0.26079507712E+03  0.10000000000E+01 0.  0.
<mgrwt>
<rscale>  0 0.12499970E+03</rscale>
<asrwt>0</asrwt>
<pdfrwt beam="1">  1        4 0.45755404E-01 0.12499970E+03</pdfrwt>
<pdfrwt beam="2">  1       -4 0.20206394E-02 0.12499970E+03</pdfrwt>
<totfact> 0.74295438E+03</totfact>
</mgrwt>
</event>
<event>
 5    1  0.3234540E-002  0.1249996E+03  0.7818608E-02  0.1235070E+00
          4   -1    0    0  501    0  0.00000000000E+00  0.00000000000E+00  0.15408020763E+03  0.15408544150E+03  0.12700000000E+01 0.  1.
         -4   -1    0    0    0  501 -0.00000000000E+00 -0.00000000000E+00 -0.25330299729E+02  0.25362117111E+02  0.12700000000E+01 0.  1.
         25    2    1    2    0    0  0.00000000000E+00  0.00000000000E+00  0.12874990790E+03  0.17944755861E+03  0.12499955003E+03 0.  0.
    9000005    1    3    3    0    0 -0.11611821445E+02  0.51423498607E+02  0.16202311101E+02  0.55160905461E+02  0.10000000000E+01 0.  0.
    9000005    1    3    3    0    0  0.11611821445E+02 -0.51423498607E+02  0.11254759680E+03  0.12428665315E+03  0.10000000000E+01 0.  0.
<mgrwt>
<rscale>  0 0.12499955E+03</rscale>
<asrwt>0</asrwt>
<pdfrwt beam="1">  1        4 0.23707497E-01 0.12499955E+03</pdfrwt>
<pdfrwt beam="2">  1       -4 0.38998193E-02 0.12499955E+03</pdfrwt>
<totfact> 0.93717484E+03</totfact>
</mgrwt>
</event>
<event>
 5    1  0.3234540E-002  0.1249984E+03  0.7818608E-02  0.1235072E+00
         -4   -1    0    0    0  501 -0.00000000000E+00  0.00000000000E+00  0.91434846816E+02  0.91443666332E+02  0.12700000000E+01 0.  1.
          4   -1    0    0  501    0  0.00000000000E+00 -0.00000000000E+00 -0.42700289644E+02  0.42719171758E+02  0.12700000000E+01 0.  1.
         25    2    1    2    0    0  0.00000000000E+00  0.00000000000E+00  0.48734557172E+02  0.13416283809E+03  0.12499844024E+03 0.  0.
    9000005    1    3    3    0    0 -0.27664123746E+02  0.52033305089E+02  0.20489114507E+01  0.58974287781E+02  0.10000000000E+01 0.  0.
    9000005    1    3    3    0    0  0.27664123746E+02 -0.52033305089E+02  0.46685645721E+02  0.75188550309E+02  0.10000000000E+01 0.  0.
<mgrwt>
<rscale>  0 0.12499844E+03</rscale>
<asrwt>0</asrwt>
<pdfrwt beam="2">  1        4 0.65714062E-02 0.12499844E+03</pdfrwt>
<pdfrwt beam="1">  1       -4 0.14069030E-01 0.12499844E+03</pdfrwt>
<totfact> 0.10256107E+04</totfact>
</mgrwt>
</event>
<event>
 5    1  0.3234540E-002  0.1249963E+03  0.7818608E-02  0.1235075E+00
          4   -1    0    0  501    0  0.00000000000E+00  0.00000000000E+00  0.11589974590E+03  0.11590670386E+03  0.12700000000E+01 0. -1.
         -4   -1    0    0    0  501 -0.00000000000E+00 -0.00000000000E+00 -0.33681762180E+02  0.33705696901E+02  0.12700000000E+01 0. -1.
         25    2    1    2    0    0  0.00000000000E+00  0.00000000000E+00  0.82217983720E+02  0.14961240076E+03  0.12499629440E+03 0.  0.
    9000005    1    3    3    0    0  0.59596725822E+02 -0.17618635172E+02  0.33275480023E+02  0.70501373071E+02  0.10000000000E+01 0.  0.
    9000005    1    3    3    0    0 -0.59596725822E+02  0.17618635172E+02  0.48942503697E+02  0.79111027690E+02  0.10000000000E+01 0.  0.
<mgrwt>
<rscale>  0 0.12499629E+03</rscale>
<asrwt>0</asrwt>
<pdfrwt beam="1">  1        4 0.17833107E-01 0.12499629E+03</pdfrwt>
<pdfrwt beam="2">  1       -4 0.51841859E-02 0.12499629E+03</pdfrwt>
<totfact> 0.99389305E+03</totfact>
</mgrwt>
</event>
<event>
 5    1  0.3234540E-002  0.1250008E+03  0.7818608E-02  0.1235068E+00
         -4   -1    0    0    0  501 -0.00000000000E+00  0.00000000000E+00  0.11461168037E+03  0.11461871652E+03  0.12700000000E+01 0. -1.
          4   -1    0    0  501    0  0.00000000000E+00 -0.00000000000E+00 -0.34063014375E+02  0.34086681391E+02  0.12700000000E+01 0. -1.
         25    2    1    2    0    0  0.00000000000E+00  0.00000000000E+00  0.80548665994E+02  0.14870539791E+03  0.12500083110E+03 0.  0.
    9000005    1    3    3    0    0 -0.30207306081E+02  0.25440273036E+02 -0.17341523607E+02  0.43144145301E+02  0.10000000000E+01 0.  0.
    9000005    1    3    3    0    0  0.30207306081E+02 -0.25440273036E+02  0.97890189600E+02  0.10556125261E+03  0.10000000000E+01 0.  0.
<mgrwt>
<rscale>  0 0.12500083E+03</rscale>
<asrwt>0</asrwt>
<pdfrwt beam="2">  1        4 0.52428255E-02 0.12500083E+03</pdfrwt>
<pdfrwt beam="1">  1       -4 0.17634928E-01 0.12500083E+03</pdfrwt>
<totfact> 0.99560523E+03</totfact>
</mgrwt>
</event>
<event>
 5    1  0.3234540E-002  0.1249941E+03  0.7818608E-02  0.1235079E+00
         -4   -1    0    0    0  501 -0.00000000000E+00  0.00000000000E+00  0.57773375004E+02  0.57787332170E+02  0.12700000000E+01 0. -1.
          4   -1    0    0  501    0  0.00000000000E+00 -0.00000000000E+00 -0.67578851282E+02  0.67590783696E+02  0.12700000000E+01 0. -1.
         25    2    1    2    0    0  0.00000000000E+00  0.00000000000E+00 -0.98054762781E+01  0.12537811587E+03  0.12499409815E+03 0.  0.
    9000005    1    3    3    0    0 -0.56795448989E+01  0.72834921636E+01 -0.66895321284E+02  0.67537326702E+02  0.10000000000E+01 0.  0.
    9000005    1    3    3    0    0  0.56795448989E+01 -0.72834921636E+01  0.57089845006E+02  0.57840789164E+02  0.10000000000E+01 0.  0.
<mgrwt>
<rscale>  0 0.12499410E+03</rscale>
<asrwt>0</asrwt>
<pdfrwt beam="2">  1        4 0.10398738E-01 0.12499410E+03</pdfrwt>
<pdfrwt beam="1">  1       -4 0.88902031E-02 0.12499410E+03</pdfrwt>
<totfact> 0.10446042E+04</totfact>
</mgrwt>
</event>
<event>
 5    1  0.3234540E-002  0.1249956E+03  0.7818608E-02  0.1235076E+00
          4   -1    0    0  501    0  0.00000000000E+00  0.00000000000E+00  0.90772184115E+02  0.90781068010E+02  0.12700000000E+01 0. -1.
         -4   -1    0    0    0  501 -0.00000000000E+00 -0.00000000000E+00 -0.43010152382E+02  0.43028898521E+02  0.12700000000E+01 0. -1.
         25    2    1    2    0    0  0.00000000000E+00  0.00000000000E+00  0.47762031733E+02  0.13380996653E+03  0.12499558179E+03 0.  0.
    9000005    1    3    3    0    0  0.40110270886E+02  0.16350456303E+01 -0.27386233338E+02  0.48605688774E+02  0.10000000000E+01 0.  0.
    9000005    1    3    3    0    0 -0.40110270886E+02 -0.16350456303E+01  0.75148265071E+02  0.85204277757E+02  0.10000000000E+01 0.  0.
<mgrwt>
<rscale>  0 0.12499558E+03</rscale>
<asrwt>0</asrwt>
<pdfrwt beam="1">  1        4 0.13967077E-01 0.12499558E+03</pdfrwt>
<pdfrwt beam="2">  1       -4 0.66190720E-02 0.12499558E+03</pdfrwt>
<totfact> 0.10264238E+04</totfact>
</mgrwt>
</event>
<event>
 5    1  0.3234540E-002  0.1250001E+03  0.7818608E-02  0.1235069E+00
         -4   -1    0    0    0  501 -0.00000000000E+00  0.00000000000E+00  0.47760304306E+03  0.47760473159E+03  0.12700000000E+01 0. -1.
          4   -1    0    0  501    0  0.00000000000E+00 -0.00000000000E+00 -0.81278610419E+01  0.82264831560E+01  0.12700000000E+01 0. -1.
         25    2    1    2    0    0  0.00000000000E+00  0.00000000000E+00  0.46947518202E+03  0.48583121475E+03  0.12500009077E+03 0.  0.
    9000005    1    3    3    0    0  0.71808896119E+01  0.32507883654E+02  0.29188419959E+02  0.44286471241E+02  0.10000000000E+01 0.  0.
    9000005    1    3    3    0    0 -0.71808896119E+01 -0.32507883654E+02  0.44028676206E+03  0.44154474351E+03  0.10000000000E+01 0.  0.
<mgrwt>
<rscale>  0 0.12500009E+03</rscale>
<asrwt>0</asrwt>
<pdfrwt beam="2">  1        4 0.12581560E-02 0.12500009E+03</pdfrwt>
<pdfrwt beam="1">  1       -4 0.73485132E-01 0.12500009E+03</pdfrwt>
<totfact> 0.56980567E+03</totfact>
</mgrwt>
</event>
<event>
 5    1  0.3234540E-002  0.1250069E+03  0.7818608E-02  0.1235058E+00
         -4   -1    0    0    0  501 -0.00000000000E+00  0.00000000000E+00  0.94328980902E+02  0.94337529849E+02  0.12700000000E+01 0.  1.
          4   -1    0    0  501    0  0.00000000000E+00 -0.00000000000E+00 -0.41395345651E+02  0.41414822727E+02  0.12700000000E+01 0.  1.
         25    2    1    2    0    0  0.00000000000E+00  0.00000000000E+00  0.52933635252E+02  0.13575235258E+03  0.12500692576E+03 0.  0.
    9000005    1    3    3    0    0 -0.13664946566E+02 -0.12010557431E+02  0.91394964220E+02  0.93193474767E+02  0.10000000000E+01 0.  0.
    9000005    1    3    3    0    0  0.13664946566E+02  0.12010557431E+02 -0.38461328968E+02  0.42558877810E+02  0.10000000000E+01 0.  0.
<mgrwt>
<rscale>  0 0.12500693E+03</rscale>
<asrwt>0</asrwt>
<pdfrwt beam="2">  1        4 0.63706706E-02 0.12500693E+03</pdfrwt>
<pdfrwt beam="1">  1       -4 0.14514307E-01 0.12500693E+03</pdfrwt>
<totfact> 0.10220641E+04</totfact>
</mgrwt>
</event>
<event>
 5    1  0.3234540E-002  0.1249998E+03  0.7818608E-02  0.1235070E+00
         -4   -1    0    0    0  501 -0.00000000000E+00  0.00000000000E+00  0.22672772854E+02  0.22708314091E+02  0.12700000000E+01 0. -1.
          4   -1    0    0  501    0  0.00000000000E+00 -0.00000000000E+00 -0.17211486620E+03  0.17211955167E+03  0.12700000000E+01 0. -1.
         25    2    1    2    0    0  0.00000000000E+00  0.00000000000E+00 -0.14944209334E+03  0.19482786576E+03  0.12499983205E+03 0.  0.
    9000005    1    3    3    0    0  0.80716371410E+01 -0.35430989471E+02  0.45198718480E+01  0.36632438938E+02  0.10000000000E+01 0.  0.
    9000005    1    3    3    0    0 -0.80716371410E+01  0.35430989471E+02 -0.15396196519E+03  0.15819542682E+03  0.10000000000E+01 0.  0.
<mgrwt>
<rscale>  0 0.12499983E+03</rscale>
<asrwt>0</asrwt>
<pdfrwt beam="2">  1        4 0.26482304E-01 0.12499983E+03</pdfrwt>
<pdfrwt beam="1">  1       -4 0.34912134E-02 0.12499983E+03</pdfrwt>
<totfact> 0.91014344E+03</totfact>
</mgrwt>
</event>
<event>
 5    1  0.3234540E-002  0.1249993E+03  0.7818608E-02  0.1235070E+00
         -4   -1    0    0    0  501 -0.00000000000E+00  0.00000000000E+00  0.18909677826E+03  0.18910104296E+03  0.12700000000E+01 0. -1.
          4   -1    0    0  501    0  0.00000000000E+00 -0.00000000000E+00 -0.20633156019E+02  0.20672204219E+02  0.12700000000E+01 0. -1.
         25    2    1    2    0    0  0.00000000000E+00  0.00000000000E+00  0.16846362224E+03  0.20977324717E+03  0.12499929285E+03 0.  0.
    9000005    1    3    3    0    0  0.15277693598E+02  0.60326898722E+02  0.74670047077E+02  0.97207811217E+02  0.10000000000E+01 0.  0.
    9000005    1    3    3    0    0 -0.15277693598E+02 -0.60326898722E+02  0.93793575160E+02  0.11256543596E+03  0.10000000000E+01 0.  0.
<mgrwt>
<rscale>  0 0.12499929E+03</rscale>
<asrwt>0</asrwt>
<pdfrwt beam="2">  1        4 0.31776635E-02 0.12499929E+03</pdfrwt>
<pdfrwt beam="1">  1       -4 0.29095143E-01 0.12499929E+03</pdfrwt>
<totfact> 0.88514325E+03</totfact>
</mgrwt>
</event>
<event>
 5    1  0.3234540E-002  0.1250024E+03  0.7818608E-02  0.1235066E+00
         -4   -1    0    0    0  501 -0.00000000000E+00  0.00000000000E+00  0.23584930868E+03  0.23585272800E+03  0.12700000000E+01 0. -1.
          4   -1    0    0  501    0  0.00000000000E+00 -0.00000000000E+00 -0.16535232329E+02  0.16583932229E+02  0.12700000000E+01 0. -1.
         25    2    1    2    0    0  0.00000000000E+00  0.00000000000E+00  0.21931407635E+03  0.25243666023E+03  0.12500241334E+03 0.  0.
    9000005    1    3    3    0    0 -0.59386799840E+02  0.19263843235E+02  0.11519240034E+03  0.13102738931E+03  0.10000000000E+01 0.  0.
    9000005    1    3    3    0    0  0.59386799840E+02 -0.19263843235E+02  0.10412167601E+03  0.12140927092E+03  0.10000000000E+01 0.  0.
<mgrwt>
<rscale>  0 0.12500241E+03</rscale>
<asrwt>0</asrwt>
<pdfrwt beam="2">  1        4 0.25478910E-02 0.12500241E+03</pdfrwt>
<pdfrwt beam="1">  1       -4 0.36288519E-01 0.12500241E+03</pdfrwt>
<totfact> 0.81974917E+03</totfact>
</mgrwt>
</event>
<event>
 5    1  0.3234540E-002  0.1249987E+03  0.7818608E-02  0.1235071E+00
          4   -1    0    0  501    0  0.00000000000E+00  0.00000000000E+00  0.70318626031E+03  0.70318740716E+03  0.12700000000E+01 0.  1.
         -4   -1    0    0    0  501 -0.00000000000E+00 -0.00000000000E+00 -0.54812040118E+01  0.56264107048E+01  0.12700000000E+01 0.  1.
         25    2    1    2    0    0  0.00000000000E+00  0.00000000000E+00  0.69770505629E+03  0.70881381786E+03  0.12499873124E+03 0.  0.
    9000005    1    3    3    0    0 -0.57483776237E+02 -0.22069326829E+02  0.40932614896E+03  0.41393276741E+03  0.10000000000E+01 0.  0.
    9000005    1    3    3    0    0  0.57483776237E+02  0.22069326829E+02  0.28837890734E+03  0.29488105045E+03  0.10000000000E+01 0.  0.
<mgrwt>
<rscale>  0 0.12499873E+03</rscale>
<asrwt>0</asrwt>
<pdfrwt beam="1">  1        4 0.10819373E+00 0.12499873E+03</pdfrwt>
<pdfrwt beam="2">  1       -4 0.85452035E-03 0.12499873E+03</pdfrwt>
<totfact> 0.42626686E+03</totfact>
</mgrwt>
</event>
<event>
 5    1  0.3234540E-002  0.1249990E+03  0.7818608E-02  0.1235071E+00
          4   -1    0    0  501    0  0.00000000000E+00  0.00000000000E+00  0.14105446937E+02  0.14162504485E+02  0.12700000000E+01 0. -1.
         -4   -1    0    0    0  501 -0.00000000000E+00 -0.00000000000E+00 -0.27631016660E+03  0.27631308522E+03  0.12700000000E+01 0. -1.
         25    2    1    2    0    0  0.00000000000E+00  0.00000000000E+00 -0.26220471966E+03  0.29047558971E+03  0.12499901281E+03 0.  0.
    9000005    1    3    3    0    0 -0.45227515918E+02 -0.38274017584E+02 -0.17727337830E+03  0.18691516597E+03  0.10000000000E+01 0.  0.
    9000005    1    3    3    0    0  0.45227515918E+02  0.38274017584E+02 -0.84931341362E+02  0.10356042373E+03  0.10000000000E+01 0.  0.
<mgrwt>
<rscale>  0 0.12499901E+03</rscale>
<asrwt>0</asrwt>
<pdfrwt beam="1">  1        4 0.21746825E-02 0.12499901E+03</pdfrwt>
<pdfrwt beam="2">  1       -4 0.42513866E-01 0.12499901E+03</pdfrwt>
<totfact> 0.76810995E+03</totfact>
</mgrwt>
</event>
<event>
 5    1  0.3234540E-002  0.1249962E+03  0.7818608E-02  0.1235075E+00
         -4   -1    0    0    0  501 -0.00000000000E+00  0.00000000000E+00  0.10326134439E+03  0.10326915389E+03  0.12700000000E+01 0.  1.
          4   -1    0    0  501    0  0.00000000000E+00 -0.00000000000E+00 -0.37806562750E+02  0.37827887689E+02  0.12700000000E+01 0.  1.
         25    2    1    2    0    0  0.00000000000E+00  0.00000000000E+00  0.65454781638E+02  0.14109704158E+03  0.12499618675E+03 0.  0.
    9000005    1    3    3    0    0 -0.19124000917E+02 -0.10785638586E+02  0.98769615120E+02  0.10118544501E+03  0.10000000000E+01 0.  0.
    9000005    1    3    3    0    0  0.19124000917E+02  0.10785638586E+02 -0.33314833481E+02  0.39911596569E+02  0.10000000000E+01 0.  0.
<mgrwt>
<rscale>  0 0.12499619E+03</rscale>
<asrwt>0</asrwt>
<pdfrwt beam="2">  1        4 0.58186354E-02 0.12499619E+03</pdfrwt>
<pdfrwt beam="1">  1       -4 0.15888602E-01 0.12499619E+03</pdfrwt>
<totfact> 0.10111768E+04</totfact>
</mgrwt>
</event>
<event>
 5    1  0.3234540E-002  0.1250003E+03  0.7818608E-02  0.1235069E+00
         -4   -1    0    0    0  501 -0.00000000000E+00  0.00000000000E+00  0.14686551178E+02  0.14741359690E+02  0.12700000000E+01 0. -1.
          4   -1    0    0  501    0  0.00000000000E+00 -0.00000000000E+00 -0.26542416996E+03  0.26542720829E+03  0.12700000000E+01 0. -1.
         25    2    1    2    0    0  0.00000000000E+00  0.00000000000E+00 -0.25073761878E+03  0.28016856798E+03  0.12500029204E+03 0.  0.
    9000005    1    3    3    0    0  0.31201644594E+02  0.52654721955E+02 -0.97088253723E+02  0.11477452409E+03  0.10000000000E+01 0.  0.
    9000005    1    3    3    0    0 -0.31201644594E+02 -0.52654721955E+02 -0.15364936506E+03  0.16539404389E+03  0.10000000000E+01 0.  0.
<mgrwt>
<rscale>  0 0.12500029E+03</rscale>
<asrwt>0</asrwt>
<pdfrwt beam="2">  1        4 0.40838934E-01 0.12500029E+03</pdfrwt>
<pdfrwt beam="1">  1       -4 0.22639194E-02 0.12500029E+03</pdfrwt>
<totfact> 0.78155254E+03</totfact>
</mgrwt>
</event>
<event>
 4    1  0.3234540E-002  0.1250659E+03  0.7818608E-02  0.1234966E+00
         -4   -1    0    0    0  501 -0.00000000000E+00  0.00000000000E+00  0.59005904443E+02  0.59019570137E+02  0.12700000000E+01 0. -1.
          4   -1    0    0  501    0  0.00000000000E+00 -0.00000000000E+00 -0.66243427796E+02  0.66255600716E+02  0.12700000000E+01 0. -1.
    9000005    1    1    2    0    0  0.24481952707E+01 -0.58580363188E+02  0.18136669821E+02  0.61380708725E+02  0.10000000000E+01 0.  0.
    9000005    1    1    2    0    0 -0.24481952707E+01  0.58580363188E+02 -0.25374193175E+02  0.63894462128E+02  0.10000000000E+01 0.  0.
<mgrwt>
<rscale>  0 0.12506593E+03</rscale>
<asrwt>0</asrwt>
<pdfrwt beam="2">  1        4 0.10193284E-01 0.12506593E+03</pdfrwt>
<pdfrwt beam="1">  1       -4 0.90798190E-02 0.12506593E+03</pdfrwt>
<totfact> 0.10431339E+04</totfact>
</mgrwt>
</event>
<event>
 5    1  0.3234540E-002  0.1250006E+03  0.7818608E-02  0.1235068E+00
         -4   -1    0    0    0  501 -0.00000000000E+00  0.00000000000E+00  0.35009224149E+02  0.35032251933E+02  0.12700000000E+01 0. -1.
          4   -1    0    0  501    0  0.00000000000E+00 -0.00000000000E+00 -0.11151548171E+03  0.11152271320E+03  0.12700000000E+01 0. -1.
         25    2    1    2    0    0  0.00000000000E+00  0.00000000000E+00 -0.76506257558E+02  0.14655496514E+03  0.12500060144E+03 0.  0.
    9000005    1    3    3    0    0 -0.33799199270E+02  0.52556046925E+02 -0.39277684909E+02  0.73812332787E+02  0.10000000000E+01 0.  0.
    9000005    1    3    3    0    0  0.33799199270E+02 -0.52556046925E+02 -0.37228572649E+02  0.72742632349E+02  0.10000000000E+01 0.  0.
<mgrwt>
<rscale>  0 0.12500060E+03</rscale>
<asrwt>0</asrwt>
<pdfrwt beam="2">  1        4 0.17158555E-01 0.12500060E+03</pdfrwt>
<pdfrwt beam="1">  1       -4 0.53883622E-02 0.12500060E+03</pdfrwt>
<totfact> 0.99993548E+03</totfact>
</mgrwt>
</event>
<event>
 5    1  0.3234540E-002  0.1250030E+03  0.7818608E-02  0.1235065E+00
         -4   -1    0    0    0  501 -0.00000000000E+00  0.00000000000E+00  0.35152119132E+02  0.35175053369E+02  0.12700000000E+01 0.  1.
          4   -1    0    0  501    0  0.00000000000E+00 -0.00000000000E+00 -0.11106671022E+03  0.11107397094E+03  0.12700000000E+01 0.  1.
         25    2    1    2    0    0  0.00000000000E+00  0.00000000000E+00 -0.75914591090E+02  0.14624902430E+03  0.12500300784E+03 0.  0.
    9000005    1    3    3    0    0 -0.20068709991E+02 -0.46526760103E+02  0.48375753261E+01  0.50910653712E+02  0.10000000000E+01 0.  0.
    9000005    1    3    3    0    0  0.20068709991E+02  0.46526760103E+02 -0.80752166416E+02  0.95338370593E+02  0.10000000000E+01 0.  0.
<mgrwt>
<rscale>  0 0.12500301E+03</rscale>
<asrwt>0</asrwt>
<pdfrwt beam="2">  1        4 0.17089509E-01 0.12500301E+03</pdfrwt>
<pdfrwt beam="1">  1       -4 0.54103411E-02 0.12500301E+03</pdfrwt>
<totfact> 0.10004995E+04</totfact>
</mgrwt>
</event>
<event>
 5    1  0.3234540E-002  0.1250009E+03  0.7818608E-02  0.1235068E+00
          4   -1    0    0  501    0  0.00000000000E+00  0.00000000000E+00  0.81516607002E+01  0.82499983134E+01  0.12700000000E+01 0. -1.
         -4   -1    0    0    0  501 -0.00000000000E+00 -0.00000000000E+00 -0.47623119786E+03  0.47623289126E+03  0.12700000000E+01 0. -1.
         25    2    1    2    0    0  0.00000000000E+00  0.00000000000E+00 -0.46807953716E+03  0.48448288957E+03  0.12500086871E+03 0.  0.
    9000005    1    3    3    0    0 -0.51236921951E+02  0.10194137316E+02 -0.10111713820E+03  0.11381923495E+03  0.10000000000E+01 0.  0.
    9000005    1    3    3    0    0  0.51236921951E+02 -0.10194137316E+02 -0.36696239897E+03  0.37066365463E+03  0.10000000000E+01 0.  0.
<mgrwt>
<rscale>  0 0.12500087E+03</rscale>
<asrwt>0</asrwt>
<pdfrwt beam="1">  1        4 0.12617967E-02 0.12500087E+03</pdfrwt>
<pdfrwt beam="2">  1       -4 0.73274011E-01 0.12500087E+03</pdfrwt>
<totfact> 0.57087646E+03</totfact>
</mgrwt>
</event>
<event>
 5    1  0.3234540E-002  0.1250013E+03  0.7818608E-02  0.1235067E+00
          4   -1    0    0  501    0  0.00000000000E+00  0.00000000000E+00  0.17051906544E+02  0.17099134972E+02  0.12700000000E+01 0. -1.
         -4   -1    0    0    0  501 -0.00000000000E+00 -0.00000000000E+00 -0.22871885253E+03  0.22872237845E+03  0.12700000000E+01 0. -1.
         25    2    1    2    0    0  0.00000000000E+00  0.00000000000E+00 -0.21166694599E+03  0.24582151342E+03  0.12500128174E+03 0.  0.
    9000005    1    3    3    0    0  0.37798367467E+02 -0.44060818910E+02 -0.15133090758E+03  0.16208675435E+03  0.10000000000E+01 0.  0.
    9000005    1    3    3    0    0 -0.37798367467E+02  0.44060818910E+02 -0.60336038406E+02  0.83734759071E+02  0.10000000000E+01 0.  0.
<mgrwt>
<rscale>  0 0.12500128E+03</rscale>
<asrwt>0</asrwt>
<pdfrwt beam="1">  1        4 0.26272746E-02 0.12500128E+03</pdfrwt>
<pdfrwt beam="2">  1       -4 0.35191418E-01 0.12500128E+03</pdfrwt>
<totfact> 0.82935557E+03</totfact>
</mgrwt>
</event>
<event>
 5    1  0.3234540E-002  0.1250019E+03  0.7818608E-02  0.1235066E+00
         -4   -1    0    0    0  501 -0.00000000000E+00  0.00000000000E+00  0.31119186887E+03  0.31119446034E+03  0.12700000000E+01 0.  1.
          4   -1    0    0  501    0  0.00000000000E+00 -0.00000000000E+00 -0.12518159860E+02  0.12582417347E+02  0.12700000000E+01 0.  1.
         25    2    1    2    0    0  0.00000000000E+00  0.00000000000E+00  0.29867370901E+03  0.32377687769E+03  0.12500192829E+03 0.  0.
    9000005    1    3    3    0    0  0.57890390816E+02  0.41019113515E+01  0.20937348600E+03  0.21727029172E+03  0.10000000000E+01 0.  0.
    9000005    1    3    3    0    0 -0.57890390816E+02 -0.41019113515E+01  0.89300223010E+02  0.10650658597E+03  0.10000000000E+01 0.  0.
<mgrwt>
<rscale>  0 0.12500193E+03</rscale>
<asrwt>0</asrwt>
<pdfrwt beam="2">  1        4 0.19310130E-02 0.12500193E+03</pdfrwt>
<pdfrwt beam="1">  1       -4 0.47880813E-01 0.12500193E+03</pdfrwt>
<totfact> 0.72706049E+03</totfact>
</mgrwt>
</event>
<event>
 5    1  0.3234540E-002  0.1250001E+03  0.7818608E-02  0.1235069E+00
         -4   -1    0    0    0  501 -0.00000000000E+00  0.00000000000E+00  0.16231111572E+02  0.16280721202E+02  0.12700000000E+01 0. -1.
          4   -1    0    0  501    0  0.00000000000E+00 -0.00000000000E+00 -0.24024617349E+03  0.24024953023E+03  0.12700000000E+01 0. -1.
         25    2    1    2    0    0  0.00000000000E+00  0.00000000000E+00 -0.22401506192E+03  0.25653025143E+03  0.12500008774E+03 0.  0.
    9000005    1    3    3    0    0 -0.43513950301E+02  0.42807595531E+02 -0.13948774317E+03  0.15226222316E+03  0.10000000000E+01 0.  0.
    9000005    1    3    3    0    0  0.43513950301E+02 -0.42807595531E+02 -0.84527318743E+02  0.10426802827E+03  0.10000000000E+01 0.  0.
<mgrwt>
<rscale>  0 0.12500009E+03</rscale>
<asrwt>0</asrwt>
<pdfrwt beam="2">  1        4 0.36965022E-01 0.12500009E+03</pdfrwt>
<pdfrwt beam="1">  1       -4 0.25011686E-02 0.12500009E+03</pdfrwt>
<totfact> 0.81395312E+03</totfact>
</mgrwt>
</event>
<event>
 5    1  0.3234540E-002  0.1250008E+03  0.7818608E-02  0.1235068E+00
         -4   -1    0    0    0  501 -0.00000000000E+00  0.00000000000E+00  0.77800036382E+02  0.77810401368E+02  0.12700000000E+01 0.  1.
          4   -1    0    0  501    0  0.00000000000E+00 -0.00000000000E+00 -0.50187765366E+02  0.50203831451E+02  0.12700000000E+01 0.  1.
         25    2    1    2    0    0  0.00000000000E+00  0.00000000000E+00  0.27612271016E+02  0.12801423282E+03  0.12500082517E+03 0.  0.
    9000005    1    3    3    0    0 -0.52336735254E+02  0.16297505965E+02 -0.16926617603E+02  0.57378157353E+02  0.10000000000E+01 0.  0.
    9000005    1    3    3    0    0  0.52336735254E+02 -0.16297505965E+02  0.44538888619E+02  0.70636075466E+02  0.10000000000E+01 0.  0.
<mgrwt>
<rscale>  0 0.12500083E+03</rscale>
<asrwt>0</asrwt>
<pdfrwt beam="2">  1        4 0.77232279E-02 0.12500083E+03</pdfrwt>
<pdfrwt beam="1">  1       -4 0.11971269E-01 0.12500083E+03</pdfrwt>
<totfact> 0.10386987E+04</totfact>
</mgrwt>
</event>
<event>
 5    1  0.3234540E-002  0.1249982E+03  0.7818608E-02  0.1235072E+00
         -4   -1    0    0    0  501 -0.00000000000E+00  0.00000000000E+00  0.20695244736E+01  0.24281333462E+01  0.12700000000E+01 0.  1.
          4   -1    0    0  501    0  0.00000000000E+00 -0.00000000000E+00 -0.17366060004E+04  0.17366064648E+04  0.12700000000E+01 0.  1.
         25    2    1    2    0    0  0.00000000000E+00  0.00000000000E+00 -0.17345364759E+04  0.17390345981E+04  0.12499818867E+03 0.  0.
    9000005    1    3    3    0    0 -0.48529795508E+02  0.35373904936E+02 -0.62682672228E+03  0.62969770046E+03  0.10000000000E+01 0.  0.
    9000005    1    3    3    0    0  0.48529795508E+02 -0.35373904936E+02 -0.11077097536E+04  0.11093368977E+04  0.10000000000E+01 0.  0.
<mgrwt>
<rscale>  0 0.12499819E+03</rscale>
<asrwt>0</asrwt>
<pdfrwt beam="2">  1        4 0.26719670E+00 0.12499819E+03</pdfrwt>
<pdfrwt beam="1">  1       -4 0.34601079E-03 0.12499819E+03</pdfrwt>
<totfact> 0.13667191E+03</totfact>
</mgrwt>
</event>
<event>
 5    1  0.3234540E-002  0.1249968E+03  0.7818608E-02  0.1235074E+00
         -4   -1    0    0    0  501 -0.00000000000E+00  0.00000000000E+00  0.62436529251E+02  0.62449444232E+02  0.12700000000E+01 0. -1.
          4   -1    0    0  501    0  0.00000000000E+00 -0.00000000000E+00 -0.62534487484E+02  0.62547382238E+02  0.12700000000E+01 0. -1.
         25    2    1    2    0    0  0.00000000000E+00  0.00000000000E+00 -0.97958232973E-01  0.12499682647E+03  0.12499678809E+03 0.  0.
    9000005    1    3    3    0    0 -0.38381271681E+02 -0.25174712376E+02 -0.42453721814E+02  0.62531645228E+02  0.10000000000E+01 0.  0.
    9000005    1    3    3    0    0  0.38381271681E+02  0.25174712376E+02  0.42355763581E+02  0.62465181242E+02  0.10000000000E+01 0.  0.
<mgrwt>
<rscale>  0 0.12499679E+03</rscale>
<asrwt>0</asrwt>
<pdfrwt beam="2">  1        4 0.96226757E-02 0.12499679E+03</pdfrwt>
<pdfrwt beam="1">  1       -4 0.96076053E-02 0.12499679E+03</pdfrwt>
<totfact> 0.10453690E+04</totfact>
</mgrwt>
</event>
<event>
 5    1  0.3234540E-002  0.1249987E+03  0.7818608E-02  0.1235071E+00
          4   -1    0    0  501    0  0.00000000000E+00  0.00000000000E+00  0.63086541287E+02  0.63099323225E+02  0.12700000000E+01 0. -1.
         -4   -1    0    0    0  501 -0.00000000000E+00 -0.00000000000E+00 -0.61892054121E+02  0.61905082694E+02  0.12700000000E+01 0. -1.
         25    2    1    2    0    0  0.00000000000E+00  0.00000000000E+00  0.11944871653E+01  0.12500440592E+03  0.12499869879E+03 0.  0.
    9000005    1    3    3    0    0 -0.19771231622E+02  0.36605586479E+02  0.47228742209E+02  0.62947793067E+02  0.10000000000E+01 0.  0.
    9000005    1    3    3    0    0  0.19771231622E+02 -0.36605586479E+02 -0.46034255044E+02  0.62056612853E+02  0.10000000000E+01 0.  0.
<mgrwt>
<rscale>  0 0.12499870E+03</rscale>
<asrwt>0</asrwt>
<pdfrwt beam="1">  1        4 0.97076071E-02 0.12499870E+03</pdfrwt>
<pdfrwt beam="2">  1       -4 0.95238400E-02 0.12499870E+03</pdfrwt>
<totfact> 0.10453074E+04</totfact>
</mgrwt>
</event>
<event>
 5    1  0.3234540E-002  0.1250010E+03  0.7818608E-02  0.1235068E+00
         -4   -1    0    0    0  501 -0.00000000000E+00  0.00000000000E+00  0.19811779282E+03  0.19812186334E+03  0.12700000000E+01 0.  1.
          4   -1    0    0  501    0  0.00000000000E+00 -0.00000000000E+00 -0.19692387449E+02  0.19733297328E+02  0.12700000000E+01 0.  1.
         25    2    1    2    0    0  0.00000000000E+00  0.00000000000E+00  0.17842540537E+03  0.21785516066E+03  0.12500098298E+03 0.  0.
    9000005    1    3    3    0    0  0.61892673490E+02 -0.74143364610E+01  0.81489789507E+02  0.10260244252E+03  0.10000000000E+01 0.  0.
    9000005    1    3    3    0    0 -0.61892673490E+02  0.74143364610E+01  0.96935615865E+02  0.11525271815E+03  0.10000000000E+01 0.  0.
<mgrwt>
<rscale>  0 0.12500098E+03</rscale>
<asrwt>0</asrwt>
<pdfrwt beam="2">  1        4 0.30330580E-02 0.12500098E+03</pdfrwt>
<pdfrwt beam="1">  1       -4 0.30483121E-01 0.12500098E+03</pdfrwt>
<totfact> 0.87206968E+03</totfact>
</mgrwt>
</event>
<event>
 5    1  0.3234540E-002  0.1250003E+03  0.7818608E-02  0.1235069E+00
          4   -1    0    0  501    0  0.00000000000E+00  0.00000000000E+00  0.15429460850E+02  0.15481639517E+02  0.12700000000E+01 0.  1.
         -4   -1    0    0    0  501 -0.00000000000E+00 -0.00000000000E+00 -0.25268838593E+03  0.25269157739E+03  0.12700000000E+01 0.  1.
         25    2    1    2    0    0  0.00000000000E+00  0.00000000000E+00 -0.23725892508E+03  0.26817321690E+03  0.12500030694E+03 0.  0.
    9000005    1    3    3    0    0  0.16477852764E+02 -0.41673452587E+02 -0.25186557336E+02  0.51415551661E+02  0.10000000000E+01 0.  0.
    9000005    1    3    3    0    0 -0.16477852764E+02  0.41673452587E+02 -0.21207236774E+03  0.21675766524E+03  0.10000000000E+01 0.  0.
<mgrwt>
<rscale>  0 0.12500031E+03</rscale>
<asrwt>0</asrwt>
<pdfrwt beam="1">  1        4 0.23780226E-02 0.12500031E+03</pdfrwt>
<pdfrwt beam="2">  1       -4 0.38879393E-01 0.12500031E+03</pdfrwt>
<totfact> 0.79772031E+03</totfact>
</mgrwt>
</event>
<event>
 5    1  0.3234540E-002  0.1249995E+03  0.7818608E-02  0.1235070E+00
         -4   -1    0    0    0  501 -0.00000000000E+00  0.00000000000E+00  0.14644501876E+03  0.14645052550E+03  0.12700000000E+01 0. -1.
          4   -1    0    0  501    0  0.00000000000E+00 -0.00000000000E+00 -0.26652490567E+02  0.26682731372E+02  0.12700000000E+01 0. -1.
         25    2    1    2    0    0  0.00000000000E+00  0.00000000000E+00  0.11979252819E+03  0.17313325687E+03  0.12499949930E+03 0.  0.
    9000005    1    3    3    0    0  0.10000813266E+02 -0.57987291860E+02  0.89038000222E+02  0.10673006965E+03  0.10000000000E+01 0.  0.
    9000005    1    3    3    0    0 -0.10000813266E+02  0.57987291860E+02  0.30754527971E+02  0.66403187227E+02  0.10000000000E+01 0.  0.
<mgrwt>
<rscale>  0 0.12499950E+03</rscale>
<asrwt>0</asrwt>
<pdfrwt beam="2">  1        4 0.41031330E-02 0.12499950E+03</pdfrwt>
<pdfrwt beam="1">  1       -4 0.22532753E-01 0.12499950E+03</pdfrwt>
<totfact> 0.94868912E+03</totfact>
</mgrwt>
</event>
<event>
 5    1  0.3234540E-002  0.1250011E+03  0.7818608E-02  0.1235067E+00
         -4   -1    0    0    0  501 -0.00000000000E+00  0.00000000000E+00  0.27731816329E+03  0.27732107131E+03  0.12700000000E+01 0. -1.
          4   -1    0    0  501    0  0.00000000000E+00 -0.00000000000E+00 -0.14054451165E+02  0.14111714905E+02  0.12700000000E+01 0. -1.
         25    2    1    2    0    0  0.00000000000E+00  0.00000000000E+00  0.26326371213E+03  0.29143278621E+03  0.12500114702E+03 0.  0.
    9000005    1    3    3    0    0  0.57366954802E+02 -0.22481951016E+02  0.15596343994E+03  0.16769615446E+03  0.10000000000E+01 0.  0.
    9000005    1    3    3    0    0 -0.57366954802E+02  0.22481951016E+02  0.10730027219E+03  0.12373663175E+03  0.10000000000E+01 0.  0.
<mgrwt>
<rscale>  0 0.12500115E+03</rscale>
<asrwt>0</asrwt>
<pdfrwt beam="2">  1        4 0.21668519E-02 0.12500115E+03</pdfrwt>
<pdfrwt beam="1">  1       -4 0.42668960E-01 0.12500115E+03</pdfrwt>
<totfact> 0.76684262E+03</totfact>
</mgrwt>
</event>
<event>
 4    1  0.3234540E-002  0.1251028E+03  0.7818608E-02  0.1234909E+00
         -4   -1    0    0    0  501 -0.00000000000E+00  0.00000000000E+00  0.53955980929E+02  0.53970925303E+02  0.12700000000E+01 0.  1.
          4   -1    0    0  501    0  0.00000000000E+00 -0.00000000000E+00 -0.72485574307E+02  0.72496699115E+02  0.12700000000E+01 0.  1.
    9000005    1    1    2    0    0 -0.47748697307E+02 -0.22582999757E+02 -0.43122698716E+02  0.68194553427E+02  0.10000000000E+01 0.  0.
    9000005    1    1    2    0    0  0.47748697307E+02  0.22582999757E+02  0.24593105339E+02  0.58273070991E+02  0.10000000000E+01 0.  0.
<mgrwt>
<rscale>  0 0.12510281E+03</rscale>
<asrwt>0</asrwt>
<pdfrwt beam="2">  1        4 0.11153632E-01 0.12510281E+03</pdfrwt>
<pdfrwt beam="1">  1       -4 0.83029254E-02 0.12510281E+03</pdfrwt>
<totfact> 0.10396589E+04</totfact>
</mgrwt>
</event>
<event>
 5    1  0.3234540E-002  0.1249971E+03  0.7818608E-02  0.1235074E+00
          4   -1    0    0  501    0  0.00000000000E+00  0.00000000000E+00  0.16668057160E+02  0.16716370105E+02  0.12700000000E+01 0. -1.
         -4   -1    0    0    0  501 -0.00000000000E+00 -0.00000000000E+00 -0.23395523423E+03  0.23395868124E+03  0.12700000000E+01 0. -1.
         25    2    1    2    0    0  0.00000000000E+00  0.00000000000E+00 -0.21728717707E+03  0.25067505134E+03  0.12499705614E+03 0.  0.
    9000005    1    3    3    0    0  0.36099355842E+02  0.44960847728E+02 -0.15695884252E+03  0.16721758151E+03  0.10000000000E+01 0.  0.
    9000005    1    3    3    0    0 -0.36099355842E+02 -0.44960847728E+02 -0.60328334553E+02  0.83457469831E+02  0.10000000000E+01 0.  0.
<mgrwt>
<rscale>  0 0.12499706E+03</rscale>
<asrwt>0</asrwt>
<pdfrwt beam="1">  1        4 0.25682982E-02 0.12499706E+03</pdfrwt>
<pdfrwt beam="2">  1       -4 0.35997092E-01 0.12499706E+03</pdfrwt>
<totfact> 0.82238153E+03</totfact>
</mgrwt>
</event>
<event>
 5    1  0.3234540E-002  0.1250295E+03  0.7818608E-02  0.1235023E+00
         -4   -1    0    0    0  501 -0.00000000000E+00  0.00000000000E+00  0.47931457831E+03  0.47931626082E+03  0.12700000000E+01 0. -1.
          4   -1    0    0  501    0  0.00000000000E+00 -0.00000000000E+00 -0.81023396244E+01  0.82012686451E+01  0.12700000000E+01 0. -1.
         25    2    1    2    0    0  0.00000000000E+00  0.00000000000E+00  0.47121223869E+03  0.48751752946E+03  0.12502946710E+03 0.  0.
    9000005    1    3    3    0    0 -0.25361758867E+02 -0.66013022680E+01  0.14334483843E+02  0.29887680263E+02  0.10000000000E+01 0.  0.
    9000005    1    3    3    0    0  0.25361758867E+02  0.66013022680E+01  0.45687775485E+03  0.45762984920E+03  0.10000000000E+01 0.  0.
<mgrwt>
<rscale>  0 0.12502947E+03</rscale>
<asrwt>0</asrwt>
<pdfrwt beam="2">  1        4 0.12542530E-02 0.12502947E+03</pdfrwt>
<pdfrwt beam="1">  1       -4 0.73748451E-01 0.12502947E+03</pdfrwt>
<totfact> 0.56809191E+03</totfact>
</mgrwt>
</event>
<event>
 5    1  0.3234540E-002  0.1249984E+03  0.7818608E-02  0.1235072E+00
          4   -1    0    0  501    0  0.00000000000E+00  0.00000000000E+00  0.56059014622E+03  0.56059158479E+03  0.12700000000E+01 0. -1.
         -4   -1    0    0    0  501 -0.00000000000E+00 -0.00000000000E+00 -0.69085919561E+01  0.70243535515E+01  0.12700000000E+01 0. -1.
         25    2    1    2    0    0  0.00000000000E+00  0.00000000000E+00  0.55368155427E+03  0.56761593834E+03  0.12499835970E+03 0.  0.
    9000005    1    3    3    0    0 -0.21355163267E+02  0.51806942069E+01  0.54248910017E+03  0.54293490070E+03  0.10000000000E+01 0.  0.
    9000005    1    3    3    0    0  0.21355163267E+02 -0.51806942069E+01  0.11192454091E+02  0.24681037644E+02  0.10000000000E+01 0.  0.
<mgrwt>
<rscale>  0 0.12499836E+03</rscale>
<asrwt>0</asrwt>
<pdfrwt beam="1">  1        4 0.86253640E-01 0.12499836E+03</pdfrwt>
<pdfrwt beam="2">  1       -4 0.10718759E-02 0.12499836E+03</pdfrwt>
<totfact> 0.50979582E+03</totfact>
</mgrwt>
</event>
<event>
 5    1  0.3234540E-002  0.1250017E+03  0.7818608E-02  0.1235067E+00
         -4   -1    0    0    0  501 -0.00000000000E+00  0.00000000000E+00  0.88395566252E+02  0.88404688976E+02  0.12700000000E+01 0.  1.
          4   -1    0    0  501    0  0.00000000000E+00 -0.00000000000E+00 -0.44171251046E+02  0.44189504625E+02  0.12700000000E+01 0.  1.
         25    2    1    2    0    0  0.00000000000E+00  0.00000000000E+00  0.44224315206E+02  0.13259419360E+03  0.12500172047E+03 0.  0.
    9000005    1    3    3    0    0 -0.22726931923E+02  0.57535780123E+02  0.31509017669E+02  0.69431243856E+02  0.10000000000E+01 0.  0.
    9000005    1    3    3    0    0  0.22726931923E+02 -0.57535780123E+02  0.12715297537E+02  0.63162949745E+02  0.10000000000E+01 0.  0.
<mgrwt>
<rscale>  0 0.12500172E+03</rscale>
<asrwt>0</asrwt>
<pdfrwt beam="2">  1        4 0.67976829E-02 0.12500172E+03</pdfrwt>
<pdfrwt beam="1">  1       -4 0.13601424E-01 0.12500172E+03</pdfrwt>
<totfact> 0.10288633E+04</totfact>
</mgrwt>
</event>
<event>
 5    1  0.3234540E-002  0.1250003E+03  0.7818608E-02  0.1235069E+00
          4   -1    0    0  501    0  0.00000000000E+00  0.00000000000E+00  0.30393885414E+03  0.30394150746E+03  0.12700000000E+01 0.  1.
         -4   -1    0    0    0  501 -0.00000000000E+00 -0.00000000000E+00 -0.12818053568E+02  0.12880815085E+02  0.12700000000E+01 0.  1.
         25    2    1    2    0    0  0.00000000000E+00  0.00000000000E+00  0.29112080057E+03  0.31682232254E+03  0.12500025414E+03 0.  0.
    9000005    1    3    3    0    0 -0.15627811224E+02 -0.34521380688E+02  0.19611948796E+02  0.42680004028E+02  0.10000000000E+01 0.  0.
    9000005    1    3    3    0    0  0.15627811224E+02  0.34521380688E+02  0.27150885178E+03  0.27414231852E+03  0.10000000000E+01 0.  0.
<mgrwt>
<rscale>  0 0.12500025E+03</rscale>
<asrwt>0</asrwt>
<pdfrwt beam="1">  1        4 0.46764861E-01 0.12500025E+03</pdfrwt>
<pdfrwt beam="2">  1       -4 0.19770399E-02 0.12500025E+03</pdfrwt>
<totfact> 0.73535248E+03</totfact>
</mgrwt>
</event>
<event>
 5    1  0.3234540E-002  0.1250021E+03  0.7818608E-02  0.1235066E+00
          4   -1    0    0  501    0  0.00000000000E+00  0.00000000000E+00  0.47145528216E+03  0.47145699271E+03  0.12700000000E+01 0. -1.
         -4   -1    0    0    0  501 -0.00000000000E+00 -0.00000000000E+00 -0.82353901967E+01  0.83327397471E+01  0.12700000000E+01 0. -1.
         25    2    1    2    0    0  0.00000000000E+00  0.00000000000E+00  0.46321989196E+03  0.47978973246E+03  0.12500207623E+03 0.  0.
    9000005    1    3    3    0    0  0.40797049968E+02  0.20471798232E+02  0.39544028026E+03  0.39806721676E+03  0.10000000000E+01 0.  0.
    9000005    1    3    3    0    0 -0.40797049968E+02 -0.20471798232E+02  0.67779611702E+02  0.81722515694E+02  0.10000000000E+01 0.  0.
<mgrwt>
<rscale>  0 0.12500208E+03</rscale>
<asrwt>0</asrwt>
<pdfrwt beam="1">  1        4 0.72539203E-01 0.12500208E+03</pdfrwt>
<pdfrwt beam="2">  1       -4 0.12746031E-02 0.12500208E+03</pdfrwt>
<totfact> 0.57464626E+03</totfact>
</mgrwt>
</event>
<event>
 5    1  0.3234540E-002  0.1250004E+03  0.7818608E-02  0.1235069E+00
         -4   -1    0    0    0  501 -0.00000000000E+00  0.00000000000E+00  0.26419036207E+03  0.26419341459E+03  0.12700000000E+01 0.  1.
          4   -1    0    0  501    0  0.00000000000E+00 -0.00000000000E+00 -0.14755427765E+02  0.14809981381E+02  0.12700000000E+01 0.  1.
         25    2    1    2    0    0  0.00000000000E+00  0.00000000000E+00  0.24943493431E+03  0.27900339597E+03  0.12500043404E+03 0.  0.
    9000005    1    3    3    0    0  0.41461342439E+02  0.30559840479E+02  0.45730139069E+02  0.68885356835E+02  0.10000000000E+01 0.  0.
    9000005    1    3    3    0    0 -0.41461342439E+02 -0.30559840479E+02  0.20370479524E+03  0.21011803914E+03  0.10000000000E+01 0.  0.
<mgrwt>
<rscale>  0 0.12500043E+03</rscale>
<asrwt>0</asrwt>
<pdfrwt beam="2">  1        4 0.22744971E-02 0.12500043E+03</pdfrwt>
<pdfrwt beam="1">  1       -4 0.40649101E-01 0.12500043E+03</pdfrwt>
<totfact> 0.78309678E+03</totfact>
</mgrwt>
</event>
<event>
 5    1  0.3234540E-002  0.1249956E+03  0.7818608E-02  0.1235076E+00
          4   -1    0    0  501    0  0.00000000000E+00  0.00000000000E+00  0.70354893575E+01  0.71491964932E+01  0.12700000000E+01 0. -1.
         -4   -1    0    0    0  501 -0.00000000000E+00 -0.00000000000E+00 -0.55061725032E+03  0.55061871495E+03  0.12700000000E+01 0. -1.
         25    2    1    2    0    0  0.00000000000E+00  0.00000000000E+00 -0.54358176097E+03  0.55776791144E+03  0.12499564865E+03 0.  0.
    9000005    1    3    3    0    0  0.65113391209E+01 -0.59098730660E+02 -0.35761569147E+03  0.36252591672E+03  0.10000000000E+01 0.  0.
    9000005    1    3    3    0    0 -0.65113391209E+01  0.59098730660E+02 -0.18596606949E+03  0.19524199473E+03  0.10000000000E+01 0.  0.
<mgrwt>
<rscale>  0 0.12499565E+03</rscale>
<asrwt>0</asrwt>
<pdfrwt beam="1">  1        4 0.10912428E-02 0.12499565E+03</pdfrwt>
<pdfrwt beam="2">  1       -4 0.84719172E-01 0.12499565E+03</pdfrwt>
<totfact> 0.51651704E+03</totfact>
</mgrwt>
</event>
<event>
 5    1  0.3234540E-002  0.1249996E+03  0.7818608E-02  0.1235070E+00
         -4   -1    0    0    0  501 -0.00000000000E+00  0.00000000000E+00  0.93260821238E+02  0.93269468091E+02  0.12700000000E+01 0.  1.
          4   -1    0    0  501    0  0.00000000000E+00 -0.00000000000E+00 -0.41864719853E+02  0.41883978660E+02  0.12700000000E+01 0.  1.
         25    2    1    2    0    0  0.00000000000E+00  0.00000000000E+00  0.51396101385E+02  0.13515344675E+03  0.12499957972E+03 0.  0.
    9000005    1    3    3    0    0 -0.28041626873E+00 -0.46946872064E+02  0.70293252059E+02  0.84535369609E+02  0.10000000000E+01 0.  0.
    9000005    1    3    3    0    0  0.28041626873E+00  0.46946872064E+02 -0.18897150674E+02  0.50618077142E+02  0.10000000000E+01 0.  0.
<mgrwt>
<rscale>  0 0.12499958E+03</rscale>
<asrwt>0</asrwt>
<pdfrwt beam="2">  1        4 0.64428727E-02 0.12499958E+03</pdfrwt>
<pdfrwt beam="1">  1       -4 0.14349965E-01 0.12499958E+03</pdfrwt>
<totfact> 0.10234935E+04</totfact>
</mgrwt>
</event>
<event>
 5    1  0.3234540E-002  0.1249983E+03  0.7818608E-02  0.1235072E+00
         -4   -1    0    0    0  501 -0.00000000000E+00  0.00000000000E+00  0.42096141671E+03  0.42096333244E+03  0.12700000000E+01 0. -1.
          4   -1    0    0  501    0  0.00000000000E+00 -0.00000000000E+00 -0.92337014243E+01  0.93206299140E+01  0.12700000000E+01 0. -1.
         25    2    1    2    0    0  0.00000000000E+00  0.00000000000E+00  0.41172771528E+03  0.43028396235E+03  0.12499830688E+03 0.  0.
    9000005    1    3    3    0    0 -0.58084970941E+02 -0.10065351354E+02  0.27724271942E+03  0.28344258787E+03  0.10000000000E+01 0.  0.
    9000005    1    3    3    0    0  0.58084970941E+02  0.10065351354E+02  0.13448499587E+03  0.14684137448E+03  0.10000000000E+01 0.  0.
<mgrwt>
<rscale>  0 0.12499831E+03</rscale>
<asrwt>0</asrwt>
<pdfrwt beam="2">  1        4 0.14274038E-02 0.12499831E+03</pdfrwt>
<pdfrwt beam="1">  1       -4 0.64770123E-01 0.12499831E+03</pdfrwt>
<totfact> 0.61712566E+03</totfact>
</mgrwt>
</event>
<event>
 5    1  0.3234540E-002  0.1249825E+03  0.7818608E-02  0.1235097E+00
         -4   -1    0    0    0  501 -0.00000000000E+00  0.00000000000E+00  0.39933195153E+03  0.39933397103E+03  0.12700000000E+01 0.  1.
          4   -1    0    0  501    0  0.00000000000E+00 -0.00000000000E+00 -0.97359339453E+01  0.98184168677E+01  0.12700000000E+01 0.  1.
         25    2    1    2    0    0  0.00000000000E+00  0.00000000000E+00  0.38959601759E+03  0.40915238790E+03  0.12498247717E+03 0.  0.
    9000005    1    3    3    0    0  0.65481922346E+01 -0.39584817268E+02  0.35160405284E+03  0.35388733596E+03  0.10000000000E+01 0.  0.
    9000005    1    3    3    0    0 -0.65481922346E+01  0.39584817268E+02  0.37991964746E+02  0.55265051931E+02  0.10000000000E+01 0.  0.
<mgrwt>
<rscale>  0 0.12498248E+03</rscale>
<asrwt>0</asrwt>
<pdfrwt beam="2">  1        4 0.15043365E-02 0.12498248E+03</pdfrwt>
<pdfrwt beam="1">  1       -4 0.61442171E-01 0.12498248E+03</pdfrwt>
<totfact> 0.63696902E+03</totfact>
</mgrwt>
</event>
<event>
 5    1  0.3234540E-002  0.1250012E+03  0.7818608E-02  0.1235067E+00
          4   -1    0    0  501    0  0.00000000000E+00  0.00000000000E+00  0.13974689593E+01  0.18883377591E+01  0.12700000000E+01 0.  1.
         -4   -1    0    0    0  501 -0.00000000000E+00 -0.00000000000E+00 -0.23772035054E+04  0.23772038446E+04  0.12700000000E+01 0.  1.
         25    2    1    2    0    0  0.00000000000E+00  0.00000000000E+00 -0.23758060364E+04  0.23790921824E+04  0.12500115831E+03 0.  0.
    9000005    1    3    3    0    0 -0.32664092782E+02  0.52090324274E+02 -0.14006744146E+04  0.14020235949E+04  0.10000000000E+01 0.  0.
    9000005    1    3    3    0    0  0.32664092782E+02 -0.52090324274E+02 -0.97513162182E+03  0.97706858751E+03  0.10000000000E+01 0.  0.
<mgrwt>
<rscale>  0 0.12500116E+03</rscale>
<asrwt>0</asrwt>
<pdfrwt beam="1">  1        4 0.25278236E-03 0.12500116E+03</pdfrwt>
<pdfrwt beam="2">  1       -4 0.36575865E+00 0.12500116E+03</pdfrwt>
<totfact> 0.56900624E+02</totfact>
</mgrwt>
</event>
<event>
 5    1  0.3234540E-002  0.1250011E+03  0.7818608E-02  0.1235068E+00
         -4   -1    0    0    0  501 -0.00000000000E+00  0.00000000000E+00  0.48368295413E+02  0.48384965652E+02  0.12700000000E+01 0. -1.
          4   -1    0    0  501    0  0.00000000000E+00 -0.00000000000E+00 -0.80726380458E+02  0.80736369759E+02  0.12700000000E+01 0. -1.
         25    2    1    2    0    0  0.00000000000E+00  0.00000000000E+00 -0.32358085045E+02  0.12912133541E+03  0.12500109436E+03 0.  0.
    9000005    1    3    3    0    0  0.15455441364E+01 -0.61817896685E+02 -0.25503050063E+02  0.66897284098E+02  0.10000000000E+01 0.  0.
    9000005    1    3    3    0    0 -0.15455441364E+01  0.61817896685E+02 -0.68550349813E+01  0.62224051313E+02  0.10000000000E+01 0.  0.
<mgrwt>
<rscale>  0 0.12500109E+03</rscale>
<asrwt>0</asrwt>
<pdfrwt beam="2">  1        4 0.12421494E-01 0.12500109E+03</pdfrwt>
<pdfrwt beam="1">  1       -4 0.74433270E-02 0.12500109E+03</pdfrwt>
<totfact> 0.10363084E+04</totfact>
</mgrwt>
</event>
<event>
 5    1  0.3234540E-002  0.1250016E+03  0.7818608E-02  0.1235067E+00
         -4   -1    0    0    0  501 -0.00000000000E+00  0.00000000000E+00  0.21909540027E+02  0.21946317327E+02  0.12700000000E+01 0.  1.
          4   -1    0    0  501    0  0.00000000000E+00 -0.00000000000E+00 -0.17810594302E+03  0.17811047089E+03  0.12700000000E+01 0.  1.
         25    2    1    2    0    0  0.00000000000E+00  0.00000000000E+00 -0.15619640300E+03  0.20005678822E+03  0.12500160880E+03 0.  0.
    9000005    1    3    3    0    0  0.53845685020E+02  0.29493449693E+02 -0.59425235573E+02  0.85449283163E+02  0.10000000000E+01 0.  0.
    9000005    1    3    3    0    0 -0.53845685020E+02 -0.29493449693E+02 -0.96771167423E+02  0.11460750505E+03  0.10000000000E+01 0.  0.
<mgrwt>
<rscale>  0 0.12500161E+03</rscale>
<asrwt>0</asrwt>
<pdfrwt beam="2">  1        4 0.27404091E-01 0.12500161E+03</pdfrwt>
<pdfrwt beam="1">  1       -4 0.33738759E-02 0.12500161E+03</pdfrwt>
<totfact> 0.90122685E+03</totfact>
</mgrwt>
</event>
<event>
 5    1  0.3234540E-002  0.1249808E+03  0.7818608E-02  0.1235099E+00
          4   -1    0    0  501    0  0.00000000000E+00  0.00000000000E+00  0.37012712830E+03  0.37012930714E+03  0.12700000000E+01 0. -1.
         -4   -1    0    0    0  501 -0.00000000000E+00 -0.00000000000E+00 -0.10510129816E+02  0.10586582487E+02  0.12700000000E+01 0. -1.
         25    2    1    2    0    0  0.00000000000E+00  0.00000000000E+00  0.35961699849E+03  0.38071588963E+03  0.12498081059E+03 0.  0.
    9000005    1    3    3    0    0 -0.48246475274E+02 -0.59340397926E+01  0.60223895960E+02  0.77400599799E+02  0.10000000000E+01 0.  0.
    9000005    1    3    3    0    0  0.48246475274E+02  0.59340397926E+01  0.29939310253E+03  0.30331528983E+03  0.10000000000E+01 0.  0.
<mgrwt>
<rscale>  0 0.12498081E+03</rscale>
<asrwt>0</asrwt>
<pdfrwt beam="1">  1        4 0.56948681E-01 0.12498081E+03</pdfrwt>
<pdfrwt beam="2">  1       -4 0.16229917E-02 0.12498081E+03</pdfrwt>
<totfact> 0.66500751E+03</totfact>
</mgrwt>
</event>
<event>
 5    1  0.3234540E-002  0.1250000E+03  0.7818608E-02  0.1235069E+00
          4   -1    0    0  501    0  0.00000000000E+00  0.00000000000E+00  0.99952451588E+01  0.10075605480E+02  0.12700000000E+01 0. -1.
         -4   -1    0    0    0  501 -0.00000000000E+00 -0.00000000000E+00 -0.38916446112E+03  0.38916653337E+03  0.12700000000E+01 0. -1.
         25    2    1    2    0    0  0.00000000000E+00  0.00000000000E+00 -0.37916921596E+03  0.39924213885E+03  0.12499996442E+03 0.  0.
    9000005    1    3    3    0    0 -0.39577333654E+02 -0.14054163404E+02 -0.33738365168E+03  0.33998913698E+03  0.10000000000E+01 0.  0.
    9000005    1    3    3    0    0  0.39577333654E+02  0.14054163404E+02 -0.41785564286E+02  0.59253001872E+02  0.10000000000E+01 0.  0.
<mgrwt>
<rscale>  0 0.12499996E+03</rscale>
<asrwt>0</asrwt>
<pdfrwt beam="1">  1        4 0.15440713E-02 0.12499996E+03</pdfrwt>
<pdfrwt beam="2">  1       -4 0.59877785E-01 0.12499996E+03</pdfrwt>
<totfact> 0.64626621E+03</totfact>
</mgrwt>
</event>
<event>
 5    1  0.3234540E-002  0.1250109E+03  0.7818608E-02  0.1235052E+00
          4   -1    0    0  501    0  0.00000000000E+00  0.00000000000E+00  0.34705722139E+02  0.34728951167E+02  0.12700000000E+01 0. -1.
         -4   -1    0    0    0  501 -0.00000000000E+00 -0.00000000000E+00 -0.11250870683E+03  0.11251587449E+03  0.12700000000E+01 0. -1.
         25    2    1    2    0    0  0.00000000000E+00  0.00000000000E+00 -0.77802984688E+02  0.14724482566E+03  0.12501093655E+03 0.  0.
    9000005    1    3    3    0    0  0.50120861655E+02  0.14943006066E+02 -0.79199636332E+02  0.94915628842E+02  0.10000000000E+01 0.  0.
    9000005    1    3    3    0    0 -0.50120861655E+02 -0.14943006066E+02  0.13966516439E+01  0.52329196814E+02  0.10000000000E+01 0.  0.
<mgrwt>
<rscale>  0 0.12501094E+03</rscale>
<asrwt>0</asrwt>
<pdfrwt beam="1">  1        4 0.53416801E-02 0.12501094E+03</pdfrwt>
<pdfrwt beam="2">  1       -4 0.17311370E-01 0.12501094E+03</pdfrwt>
<totfact> 0.99831182E+03</totfact>
</mgrwt>
</event>
<event>
 4    1  0.3234540E-002  0.1248952E+03  0.7818608E-02  0.1235233E+00
         -4   -1    0    0    0  501 -0.00000000000E+00  0.00000000000E+00  0.97247721805E+02  0.97256014190E+02  0.12700000000E+01 0. -1.
          4   -1    0    0  501    0  0.00000000000E+00 -0.00000000000E+00 -0.40080673661E+02  0.40100789283E+02  0.12700000000E+01 0. -1.
    9000005    1    1    2    0    0 -0.57401753914E+02 -0.22903137671E+02  0.18796755177E+02  0.64605209332E+02  0.10000000000E+01 0.  0.
    9000005    1    1    2    0    0  0.57401753914E+02  0.22903137671E+02  0.38370292967E+02  0.72751594141E+02  0.10000000000E+01 0.  0.
<mgrwt>
<rscale>  0 0.12489524E+03</rscale>
<asrwt>0</asrwt>
<pdfrwt beam="2">  1        4 0.61684429E-02 0.12489524E+03</pdfrwt>
<pdfrwt beam="1">  1       -4 0.14963373E-01 0.12489524E+03</pdfrwt>
<totfact> 0.10212734E+04</totfact>
</mgrwt>
</event>
<event>
 5    1  0.3234540E-002  0.1249986E+03  0.7818608E-02  0.1235072E+00
         -4   -1    0    0    0  501 -0.00000000000E+00  0.00000000000E+00  0.36542996216E+02  0.36565058080E+02  0.12700000000E+01 0. -1.
          4   -1    0    0  501    0  0.00000000000E+00 -0.00000000000E+00 -0.10683409889E+03  0.10684164725E+03  0.12700000000E+01 0. -1.
         25    2    1    2    0    0  0.00000000000E+00  0.00000000000E+00 -0.70291102676E+02  0.14340670533E+03  0.12499857606E+03 0.  0.
    9000005    1    3    3    0    0 -0.57892743722E+02 -0.23524889473E+02 -0.35619698470E+02  0.71935756891E+02  0.10000000000E+01 0.  0.
    9000005    1    3    3    0    0  0.57892743722E+02  0.23524889473E+02 -0.34671404206E+02  0.71470948434E+02  0.10000000000E+01 0.  0.
<mgrwt>
<rscale>  0 0.12499858E+03</rscale>
<asrwt>0</asrwt>
<pdfrwt beam="2">  1        4 0.16438293E-01 0.12499858E+03</pdfrwt>
<pdfrwt beam="1">  1       -4 0.56242772E-02 0.12499858E+03</pdfrwt>
<totfact> 0.10063784E+04</totfact>
</mgrwt>
</event>
<event>
 5    1  0.3234540E-002  0.1249985E+03  0.7818608E-02  0.1235072E+00
         -4   -1    0    0    0  501 -0.00000000000E+00  0.00000000000E+00  0.17177298030E+03  0.17177767510E+03  0.12700000000E+01 0. -1.
          4   -1    0    0  501    0  0.00000000000E+00 -0.00000000000E+00 -0.22717481665E+02  0.22752953065E+02  0.12700000000E+01 0. -1.
         25    2    1    2    0    0  0.00000000000E+00  0.00000000000E+00  0.14905549864E+03  0.19453062816E+03  0.12499849447E+03 0.  0.
    9000005    1    3    3    0    0 -0.27192443853E+02  0.56263051111E+02  0.73838793857E+02  0.96737414692E+02  0.10000000000E+01 0.  0.
    9000005    1    3    3    0    0  0.27192443853E+02 -0.56263051111E+02  0.75216704781E+02  0.97793213472E+02  0.10000000000E+01 0.  0.
<mgrwt>
<rscale>  0 0.12499849E+03</rscale>
<asrwt>0</asrwt>
<pdfrwt beam="2">  1        4 0.34980870E-02 0.12499849E+03</pdfrwt>
<pdfrwt beam="1">  1       -4 0.26429701E-01 0.12499849E+03</pdfrwt>
<totfact> 0.91067992E+03</totfact>
</mgrwt>
</event>
<event>
 5    1  0.3234540E-002  0.1249697E+03  0.7818608E-02  0.1235117E+00
         -4   -1    0    0    0  501 -0.00000000000E+00  0.00000000000E+00  0.56614950364E+02  0.56629193043E+02  0.12700000000E+01 0. -1.
          4   -1    0    0  501    0  0.00000000000E+00 -0.00000000000E+00 -0.68934598697E+02  0.68946296474E+02  0.12700000000E+01 0. -1.
         25    2    1    2    0    0  0.00000000000E+00  0.00000000000E+00 -0.12319648333E+02  0.12557548952E+03  0.12496971566E+03 0.  0.
    9000005    1    3    3    0    0  0.33651439434E+02 -0.26237511983E+02 -0.52015789508E+02  0.67286467950E+02  0.10000000000E+01 0.  0.
    9000005    1    3    3    0    0 -0.33651439434E+02  0.26237511983E+02  0.39696141175E+02  0.58289021567E+02  0.10000000000E+01 0.  0.
<mgrwt>
<rscale>  0 0.12496972E+03</rscale>
<asrwt>0</asrwt>
<pdfrwt beam="2">  1        4 0.10607318E-01 0.12496972E+03</pdfrwt>
<pdfrwt beam="1">  1       -4 0.87119878E-02 0.12496972E+03</pdfrwt>
<totfact> 0.10447423E+04</totfact>
</mgrwt>
</event>
<event>
 5    1  0.3234540E-002  0.1250139E+03  0.7818608E-02  0.1235048E+00
          4   -1    0    0  501    0  0.00000000000E+00  0.00000000000E+00  0.11114169505E+02  0.11186494705E+02  0.12700000000E+01 0.  1.
         -4   -1    0    0    0  501 -0.00000000000E+00 -0.00000000000E+00 -0.35033043068E+03  0.35033273264E+03  0.12700000000E+01 0.  1.
         25    2    1    2    0    0  0.00000000000E+00  0.00000000000E+00 -0.33921626118E+03  0.36151922735E+03  0.12501391881E+03 0.  0.
    9000005    1    3    3    0    0 -0.58534961432E+02  0.42932525937E+01 -0.23172170565E+03  0.23904125710E+03  0.10000000000E+01 0.  0.
    9000005    1    3    3    0    0  0.58534961432E+02 -0.42932525937E+01 -0.10749455552E+03  0.12247797024E+03  0.10000000000E+01 0.  0.
<mgrwt>
<rscale>  0 0.12501392E+03</rscale>
<asrwt>0</asrwt>
<pdfrwt beam="1">  1        4 0.17156130E-02 0.12501392E+03</pdfrwt>
<pdfrwt beam="2">  1       -4 0.53902722E-01 0.12501392E+03</pdfrwt>
<totfact> 0.68454545E+03</totfact>
</mgrwt>
</event>
<event>
 5    1  0.3234540E-002  0.1250010E+03  0.7818608E-02  0.1235068E+00
          4   -1    0    0  501    0  0.00000000000E+00  0.00000000000E+00  0.17578668743E+03  0.17579127503E+03  0.12700000000E+01 0.  1.
         -4   -1    0    0    0  501 -0.00000000000E+00 -0.00000000000E+00 -0.22198865429E+02  0.22235164185E+02  0.12700000000E+01 0.  1.
         25    2    1    2    0    0  0.00000000000E+00  0.00000000000E+00  0.15358782200E+03  0.19802643921E+03  0.12500100624E+03 0.  0.
    9000005    1    3    3    0    0 -0.75599039866E+01  0.61998739625E+02  0.80085473101E+02  0.10156613050E+03  0.10000000000E+01 0.  0.
    9000005    1    3    3    0    0  0.75599039866E+01 -0.61998739625E+02  0.73502348895E+02  0.96460308711E+02  0.10000000000E+01 0.  0.
<mgrwt>
<rscale>  0 0.12500101E+03</rscale>
<asrwt>0</asrwt>
<pdfrwt beam="1">  1        4 0.27047252E-01 0.12500101E+03</pdfrwt>
<pdfrwt beam="2">  1       -4 0.34183550E-02 0.12500101E+03</pdfrwt>
<totfact> 0.90467153E+03</totfact>
</mgrwt>
</event>
<event>
 5    1  0.3234540E-002  0.1249967E+03  0.7818608E-02  0.1235074E+00
          4   -1    0    0  501    0  0.00000000000E+00  0.00000000000E+00  0.48301256284E+03  0.48301423247E+03  0.12700000000E+01 0. -1.
         -4   -1    0    0    0  501 -0.00000000000E+00 -0.00000000000E+00 -0.80352792317E+01  0.81350238065E+01  0.12700000000E+01 0. -1.
         25    2    1    2    0    0  0.00000000000E+00  0.00000000000E+00  0.47497728361E+03  0.49114925627E+03  0.12499668792E+03 0.  0.
    9000005    1    3    3    0    0  0.39682154953E+02  0.37874755376E+02  0.11988031174E+03  0.13183876388E+03  0.10000000000E+01 0.  0.
    9000005    1    3    3    0    0 -0.39682154953E+02 -0.37874755376E+02  0.35509697187E+03  0.35931049240E+03  0.10000000000E+01 0.  0.
<mgrwt>
<rscale>  0 0.12499669E+03</rscale>
<asrwt>0</asrwt>
<pdfrwt beam="1">  1        4 0.74317443E-01 0.12499669E+03</pdfrwt>
<pdfrwt beam="2">  1       -4 0.12439976E-02 0.12499669E+03</pdfrwt>
<totfact> 0.56561784E+03</totfact>
</mgrwt>
</event>
<event>
 5    1  0.3234540E-002  0.1250021E+03  0.7818608E-02  0.1235066E+00
          4   -1    0    0  501    0  0.00000000000E+00  0.00000000000E+00  0.37225782644E+02  0.37247440092E+02  0.12700000000E+01 0. -1.
         -4   -1    0    0    0  501 -0.00000000000E+00 -0.00000000000E+00 -0.10488154854E+03  0.10488923740E+03  0.12700000000E+01 0. -1.
         25    2    1    2    0    0  0.00000000000E+00  0.00000000000E+00 -0.67655765892E+02  0.14213667750E+03  0.12500212971E+03 0.  0.
    9000005    1    3    3    0    0 -0.16705142244E+02  0.44111040590E+02 -0.80441504061E+02  0.93255998493E+02  0.10000000000E+01 0.  0.
    9000005    1    3    3    0    0  0.16705142244E+02 -0.44111040590E+02  0.12785738169E+02  0.48880679004E+02  0.10000000000E+01 0.  0.
<mgrwt>
<rscale>  0 0.12500213E+03</rscale>
<asrwt>0</asrwt>
<pdfrwt beam="1">  1        4 0.57293010E-02 0.12500213E+03</pdfrwt>
<pdfrwt beam="2">  1       -4 0.16137880E-01 0.12500213E+03</pdfrwt>
<totfact> 0.10089009E+04</totfact>
</mgrwt>
</event>
<event>
 5    1  0.3234540E-002  0.1249962E+03  0.7818608E-02  0.1235075E+00
         -4   -1    0    0    0  501 -0.00000000000E+00  0.00000000000E+00  0.51251591725E+03  0.51251749076E+03  0.12700000000E+01 0. -1.
          4   -1    0    0  501    0  0.00000000000E+00 -0.00000000000E+00 -0.75667507603E+01  0.76725886810E+01  0.12700000000E+01 0. -1.
         25    2    1    2    0    0  0.00000000000E+00  0.00000000000E+00  0.50494916649E+03  0.52019007944E+03  0.12499623198E+03 0.  0.
    9000005    1    3    3    0    0  0.10299405554E+02  0.35241971529E+02  0.46291319537E+03  0.46436806604E+03  0.10000000000E+01 0.  0.
    9000005    1    3    3    0    0 -0.10299405554E+02 -0.35241971529E+02  0.42035971124E+02  0.55822013403E+02  0.10000000000E+01 0.  0.
<mgrwt>
<rscale>  0 0.12499623E+03</rscale>
<asrwt>0</asrwt>
<pdfrwt beam="2">  1        4 0.11723778E-02 0.12499623E+03</pdfrwt>
<pdfrwt beam="1">  1       -4 0.78856874E-01 0.12499623E+03</pdfrwt>
<totfact> 0.54335694E+03</totfact>
</mgrwt>
</event>
<event>
 5    1  0.3234540E-002  0.1250004E+03  0.7818608E-02  0.1235069E+00
          4   -1    0    0  501    0  0.00000000000E+00  0.00000000000E+00  0.94938109966E+03  0.94938194911E+03  0.12700000000E+01 0.  1.
         -4   -1    0    0    0  501 -0.00000000000E+00 -0.00000000000E+00 -0.40156762434E+01  0.42117164781E+01  0.12700000000E+01 0.  1.
         25    2    1    2    0    0  0.00000000000E+00  0.00000000000E+00  0.94536542342E+03  0.95359366559E+03  0.12500038101E+03 0.  0.
    9000005    1    3    3    0    0 -0.57029996496E+02 -0.10178244737E+02  0.65147125320E+03  0.65404266750E+03  0.10000000000E+01 0.  0.
    9000005    1    3    3    0    0  0.57029996496E+02  0.10178244737E+02  0.29389417022E+03  0.29955099809E+03  0.10000000000E+01 0.  0.
<mgrwt>
<rscale>  0 0.12500038E+03</rscale>
<asrwt>0</asrwt>
<pdfrwt beam="1">  1        4 0.14607383E+00 0.12500038E+03</pdfrwt>
<pdfrwt beam="2">  1       -4 0.63294146E-03 0.12500038E+03</pdfrwt>
<totfact> 0.32188441E+03</totfact>
</mgrwt>
</event>
<event>
 5    1  0.3234540E-002  0.1249992E+03  0.7818608E-02  0.1235070E+00
          4   -1    0    0  501    0  0.00000000000E+00  0.00000000000E+00  0.42268885803E+03  0.42269076593E+03  0.12700000000E+01 0. -1.
         -4   -1    0    0    0  501 -0.00000000000E+00 -0.00000000000E+00 -0.91957451444E+01  0.92830290725E+01  0.12700000000E+01 0. -1.
         25    2    1    2    0    0  0.00000000000E+00  0.00000000000E+00  0.41349311289E+03  0.43197379500E+03  0.12499922066E+03 0.  0.
    9000005    1    3    3    0    0 -0.12628086127E+02  0.16620898371E+02  0.31913594372E+01  0.21140189142E+02  0.10000000000E+01 0.  0.
    9000005    1    3    3    0    0  0.12628086127E+02 -0.16620898371E+02  0.41030175345E+03  0.41083360586E+03  0.10000000000E+01 0.  0.
<mgrwt>
<rscale>  0 0.12499922E+03</rscale>
<asrwt>0</asrwt>
<pdfrwt beam="1">  1        4 0.65035927E-01 0.12499922E+03</pdfrwt>
<pdfrwt beam="2">  1       -4 0.14215907E-02 0.12499922E+03</pdfrwt>
<totfact> 0.61558535E+03</totfact>
</mgrwt>
</event>
<event>
 5    1  0.3234540E-002  0.1249959E+03  0.7818608E-02  0.1235076E+00
         -4   -1    0    0    0  501 -0.00000000000E+00  0.00000000000E+00  0.57240296494E+03  0.57240437382E+03  0.12700000000E+01 0. -1.
          4   -1    0    0  501    0  0.00000000000E+00 -0.00000000000E+00 -0.67633299720E+01  0.68815356070E+01  0.12700000000E+01 0. -1.
         25    2    1    2    0    0  0.00000000000E+00  0.00000000000E+00  0.56563963496E+03  0.57928590943E+03  0.12499587280E+03 0.  0.
    9000005    1    3    3    0    0  0.16053870422E+02  0.60364992220E+02  0.29128070279E+03  0.29790452641E+03  0.10000000000E+01 0.  0.
    9000005    1    3    3    0    0 -0.16053870422E+02 -0.60364992220E+02  0.27435893218E+03  0.28138138301E+03  0.10000000000E+01 0.  0.
<mgrwt>
<rscale>  0 0.12499587E+03</rscale>
<asrwt>0</asrwt>
<pdfrwt beam="2">  1        4 0.10497133E-02 0.12499587E+03</pdfrwt>
<pdfrwt beam="1">  1       -4 0.88071206E-01 0.12499587E+03</pdfrwt>
<totfact> 0.50206345E+03</totfact>
</mgrwt>
</event>
<event>
 5    1  0.3234540E-002  0.1250176E+03  0.7818608E-02  0.1235042E+00
          4   -1    0    0  501    0  0.00000000000E+00  0.00000000000E+00  0.17185548135E+03  0.17186017389E+03  0.12700000000E+01 0.  1.
         -4   -1    0    0    0  501 -0.00000000000E+00 -0.00000000000E+00 -0.22713498857E+02  0.22748976467E+02  0.12700000000E+01 0.  1.
         25    2    1    2    0    0  0.00000000000E+00  0.00000000000E+00  0.14914198249E+03  0.19460915036E+03  0.12501756061E+03 0.  0.
    9000005    1    3    3    0    0  0.32705057016E+02  0.42632923000E+02  0.12426609232E+03  0.13538924839E+03  0.10000000000E+01 0.  0.
    9000005    1    3    3    0    0 -0.32705057016E+02 -0.42632923000E+02  0.24875890174E+02  0.59219901975E+02  0.10000000000E+01 0.  0.
<mgrwt>
<rscale>  0 0.12501756E+03</rscale>
<asrwt>0</asrwt>
<pdfrwt beam="1">  1        4 0.26442394E-01 0.12501756E+03</pdfrwt>
<pdfrwt beam="2">  1       -4 0.34974745E-02 0.12501756E+03</pdfrwt>
<totfact> 0.91015675E+03</totfact>
</mgrwt>
</event>
<event>
 5    1  0.3234540E-002  0.1250027E+03  0.7818608E-02  0.1235065E+00
          4   -1    0    0  501    0  0.00000000000E+00  0.00000000000E+00  0.12778530332E+02  0.12841485017E+02  0.12700000000E+01 0.  1.
         -4   -1    0    0    0  501 -0.00000000000E+00 -0.00000000000E+00 -0.30488618582E+03  0.30488883089E+03  0.12700000000E+01 0.  1.
         25    2    1    2    0    0  0.00000000000E+00  0.00000000000E+00 -0.29210765549E+03  0.31773031591E+03  0.12500268499E+03 0.  0.
    9000005    1    3    3    0    0  0.41520141279E+02 -0.40075983109E+02 -0.85082101509E+02  0.10281036208E+03  0.10000000000E+01 0.  0.
    9000005    1    3    3    0    0 -0.41520141279E+02  0.40075983109E+02 -0.20702555398E+03  0.21491995383E+03  0.10000000000E+01 0.  0.
<mgrwt>
<rscale>  0 0.12500268E+03</rscale>
<asrwt>0</asrwt>
<pdfrwt beam="1">  1        4 0.19709741E-02 0.12500268E+03</pdfrwt>
<pdfrwt beam="2">  1       -4 0.46910608E-01 0.12500268E+03</pdfrwt>
<totfact> 0.73422521E+03</totfact>
</mgrwt>
</event>
<event>
 5    1  0.3234540E-002  0.1249963E+03  0.7818608E-02  0.1235075E+00
         -4   -1    0    0    0  501 -0.00000000000E+00  0.00000000000E+00  0.15937409715E+04  0.15937414775E+04  0.12700000000E+01 0.  1.
          4   -1    0    0  501    0  0.00000000000E+00 -0.00000000000E+00 -0.22857859486E+01  0.26149029433E+01  0.12700000000E+01 0.  1.
         25    2    1    2    0    0  0.00000000000E+00  0.00000000000E+00  0.15914551856E+04  0.15963563805E+04  0.12499634314E+03 0.  0.
    9000005    1    3    3    0    0  0.34280637394E+02 -0.36482681385E+01  0.13008461395E+03  0.13457889413E+03  0.10000000000E+01 0.  0.
    9000005    1    3    3    0    0 -0.34280637394E+02  0.36482681385E+01  0.14613705716E+04  0.14617774864E+04  0.10000000000E+01 0.  0.
<mgrwt>
<rscale>  0 0.12499634E+03</rscale>
<asrwt>0</asrwt>
<pdfrwt beam="2">  1        4 0.37701388E-03 0.12499634E+03</pdfrwt>
<pdfrwt beam="1">  1       -4 0.24521700E+00 0.12499634E+03</pdfrwt>
<totfact> 0.16113231E+03</totfact>
</mgrwt>
</event>
<event>
 5    1  0.3234540E-002  0.1249999E+03  0.7818608E-02  0.1235069E+00
          4   -1    0    0  501    0  0.00000000000E+00  0.00000000000E+00  0.26172479676E+01  0.29091041445E+01  0.12700000000E+01 0. -1.
         -4   -1    0    0    0  501 -0.00000000000E+00 -0.00000000000E+00 -0.14133867389E+04  0.14133873094E+04  0.12700000000E+01 0. -1.
         25    2    1    2    0    0  0.00000000000E+00  0.00000000000E+00 -0.14107694909E+04  0.14162964136E+04  0.12499989879E+03 0.  0.
    9000005    1    3    3    0    0 -0.37945530083E+02  0.43256845563E+02 -0.42918694119E+03  0.43302823053E+03  0.10000000000E+01 0.  0.
    9000005    1    3    3    0    0  0.37945530083E+02 -0.43256845563E+02 -0.98158254969E+03  0.98326818305E+03  0.10000000000E+01 0.  0.
<mgrwt>
<rscale>  0 0.12499990E+03</rscale>
<asrwt>0</asrwt>
<pdfrwt beam="1">  1        4 0.42514903E-03 0.12499990E+03</pdfrwt>
<pdfrwt beam="2">  1       -4 0.21746603E+00 0.12499990E+03</pdfrwt>
<totfact> 0.19634014E+03</totfact>
</mgrwt>
</event>
<event>
 5    1  0.3234540E-002  0.1250017E+03  0.7818608E-02  0.1235067E+00
         -4   -1    0    0    0  501 -0.00000000000E+00  0.00000000000E+00  0.95096169250E+03  0.95096254054E+03  0.12700000000E+01 0.  1.
          4   -1    0    0  501    0  0.00000000000E+00 -0.00000000000E+00 -0.40087623222E+01  0.42051248919E+01  0.12700000000E+01 0.  1.
         25    2    1    2    0    0  0.00000000000E+00  0.00000000000E+00  0.94695293018E+03  0.95516766543E+03  0.12500166841E+03 0.  0.
    9000005    1    3    3    0    0  0.37426783305E+02 -0.32230392352E+02  0.18092655251E+03  0.18754993923E+03  0.10000000000E+01 0.  0.
    9000005    1    3    3    0    0 -0.37426783305E+02  0.32230392352E+02  0.76602637767E+03  0.76761772620E+03  0.10000000000E+01 0.  0.
<mgrwt>
<rscale>  0 0.12500167E+03</rscale>
<asrwt>0</asrwt>
<pdfrwt beam="2">  1        4 0.63190179E-03 0.12500167E+03</pdfrwt>
<pdfrwt beam="1">  1       -4 0.14631718E+00 0.12500167E+03</pdfrwt>
<totfact> 0.32131985E+03</totfact>
</mgrwt>
</event>
<event>
 5    1  0.3234540E-002  0.1250060E+03  0.7818608E-02  0.1235060E+00
          4   -1    0    0  501    0  0.00000000000E+00  0.00000000000E+00  0.34762246119E+02  0.34785437402E+02  0.12700000000E+01 0.  1.
         -4   -1    0    0    0  501 -0.00000000000E+00 -0.00000000000E+00 -0.11231697995E+03  0.11232415985E+03  0.12700000000E+01 0.  1.
         25    2    1    2    0    0  0.00000000000E+00  0.00000000000E+00 -0.77554733832E+02  0.14710959725E+03  0.12500598731E+03 0.  0.
    9000005    1    3    3    0    0 -0.41285109512E+01 -0.54564431437E+02 -0.74302969840E+02  0.92283547330E+02  0.10000000000E+01 0.  0.
    9000005    1    3    3    0    0  0.41285109512E+01  0.54564431437E+02 -0.32517639915E+01  0.54826049919E+02  0.10000000000E+01 0.  0.
<mgrwt>
<rscale>  0 0.12500599E+03</rscale>
<asrwt>0</asrwt>
<pdfrwt beam="1">  1        4 0.53503742E-02 0.12500599E+03</pdfrwt>
<pdfrwt beam="2">  1       -4 0.17281871E-01 0.12500599E+03</pdfrwt>
<totfact> 0.99869547E+03</totfact>
</mgrwt>
</event>
<event>
 5    1  0.3234540E-002  0.1250034E+03  0.7818608E-02  0.1235064E+00
          4   -1    0    0  501    0  0.00000000000E+00  0.00000000000E+00  0.28143619260E+02  0.28172259495E+02  0.12700000000E+01 0.  1.
         -4   -1    0    0    0  501 -0.00000000000E+00 -0.00000000000E+00 -0.13870247160E+03  0.13870828572E+03  0.12700000000E+01 0.  1.
         25    2    1    2    0    0  0.00000000000E+00  0.00000000000E+00 -0.11055885234E+03  0.16688054522E+03  0.12500342612E+03 0.  0.
    9000005    1    3    3    0    0  0.20819173098E+02  0.40984404844E+02  0.12389555903E+01  0.45996678357E+02  0.10000000000E+01 0.  0.
    9000005    1    3    3    0    0 -0.20819173098E+02 -0.40984404844E+02 -0.11179780793E+03  0.12088386686E+03  0.10000000000E+01 0.  0.
<mgrwt>
<rscale>  0 0.12500343E+03</rscale>
<asrwt>0</asrwt>
<pdfrwt beam="1">  1        4 0.43324380E-02 0.12500343E+03</pdfrwt>
<pdfrwt beam="2">  1       -4 0.21341492E-01 0.12500343E+03</pdfrwt>
<totfact> 0.96025038E+03</totfact>
</mgrwt>
</event>
<event>
 5    1  0.3234540E-002  0.1249998E+03  0.7818608E-02  0.1235070E+00
          4   -1    0    0  501    0  0.00000000000E+00  0.00000000000E+00  0.15873741063E+02  0.15924464052E+02  0.12700000000E+01 0.  1.
         -4   -1    0    0    0  501 -0.00000000000E+00 -0.00000000000E+00 -0.24563675621E+03  0.24564003929E+03  0.12700000000E+01 0.  1.
         25    2    1    2    0    0  0.00000000000E+00  0.00000000000E+00 -0.22976301515E+03  0.26156450334E+03  0.12499978511E+03 0.  0.
    9000005    1    3    3    0    0  0.19278297721E+02  0.56706855853E+02 -0.77571448115E+02  0.98008417120E+02  0.10000000000E+01 0.  0.
    9000005    1    3    3    0    0 -0.19278297721E+02 -0.56706855853E+02 -0.15219156703E+03  0.16355608622E+03  0.10000000000E+01 0.  0.
<mgrwt>
<rscale>  0 0.12499979E+03</rscale>
<asrwt>0</asrwt>
<pdfrwt beam="1">  1        4 0.24462685E-02 0.12499979E+03</pdfrwt>
<pdfrwt beam="2">  1       -4 0.37794422E-01 0.12499979E+03</pdfrwt>
<totfact> 0.80687392E+03</totfact>
</mgrwt>
</event>
<event>
 5    1  0.3234540E-002  0.1249953E+03  0.7818608E-02  0.1235077E+00
         -4   -1    0    0    0  501 -0.00000000000E+00  0.00000000000E+00  0.37899032220E+02  0.37920305158E+02  0.12700000000E+01 0. -1.
          4   -1    0    0  501    0  0.00000000000E+00 -0.00000000000E+00 -0.10300800732E+03  0.10301583603E+03  0.12700000000E+01 0. -1.
         25    2    1    2    0    0  0.00000000000E+00  0.00000000000E+00 -0.65108975102E+02  0.14093614119E+03  0.12499526892E+03 0.  0.
    9000005    1    3    3    0    0 -0.38912838578E+02 -0.35750769873E+02  0.50555482610E+01  0.53093173958E+02  0.10000000000E+01 0.  0.
    9000005    1    3    3    0    0  0.38912838578E+02  0.35750769873E+02 -0.70164523363E+02  0.87842967228E+02  0.10000000000E+01 0.  0.
<mgrwt>
<rscale>  0 0.12499527E+03</rscale>
<asrwt>0</asrwt>
<pdfrwt beam="2">  1        4 0.15849624E-01 0.12499527E+03</pdfrwt>
<pdfrwt beam="1">  1       -4 0.58328590E-02 0.12499527E+03</pdfrwt>
<totfact> 0.10115299E+04</totfact>
</mgrwt>
</event>
<event>
 5    1  0.3234540E-002  0.1250011E+03  0.7818608E-02  0.1235068E+00
         -4   -1    0    0    0  501 -0.00000000000E+00  0.00000000000E+00  0.99235471736E+01  0.10004483420E+02  0.12700000000E+01 0. -1.
          4   -1    0    0  501    0  0.00000000000E+00 -0.00000000000E+00 -0.39196036230E+03  0.39196241977E+03  0.12700000000E+01 0. -1.
         25    2    1    2    0    0  0.00000000000E+00  0.00000000000E+00 -0.38203681513E+03  0.40196690319E+03  0.12500105260E+03 0.  0.
    9000005    1    3    3    0    0  0.53743358330E+02  0.26833889318E+02 -0.13560833088E+03  0.14832068495E+03  0.10000000000E+01 0.  0.
    9000005    1    3    3    0    0 -0.53743358330E+02 -0.26833889318E+02 -0.24642848424E+03  0.25364621824E+03  0.10000000000E+01 0.  0.
<mgrwt>
<rscale>  0 0.12500105E+03</rscale>
<asrwt>0</asrwt>
<pdfrwt beam="2">  1        4 0.60307966E-01 0.12500105E+03</pdfrwt>
<pdfrwt beam="1">  1       -4 0.15330840E-02 0.12500105E+03</pdfrwt>
<totfact> 0.64360449E+03</totfact>
</mgrwt>
</event>
<event>
 5    1  0.3234540E-002  0.1250017E+03  0.7818608E-02  0.1235067E+00
          4   -1    0    0  501    0  0.00000000000E+00  0.00000000000E+00  0.27892329637E+03  0.27892618765E+03  0.12700000000E+01 0. -1.
         -4   -1    0    0    0  501 -0.00000000000E+00 -0.00000000000E+00 -0.13973373153E+02  0.14030967795E+02  0.12700000000E+01 0. -1.
         25    2    1    2    0    0  0.00000000000E+00  0.00000000000E+00  0.26494992322E+03  0.29295715545E+03  0.12500173245E+03 0.  0.
    9000005    1    3    3    0    0  0.54823264647E+01 -0.42057561230E+02  0.24003850247E+03  0.24375885016E+03  0.10000000000E+01 0.  0.
    9000005    1    3    3    0    0 -0.54823264647E+01  0.42057561230E+02  0.24911420745E+02  0.49198305292E+02  0.10000000000E+01 0.  0.
<mgrwt>
<rscale>  0 0.12500173E+03</rscale>
<asrwt>0</asrwt>
<pdfrwt beam="1">  1        4 0.42915932E-01 0.12500173E+03</pdfrwt>
<pdfrwt beam="2">  1       -4 0.21544023E-02 0.12500173E+03</pdfrwt>
<totfact> 0.76487912E+03</totfact>
</mgrwt>
</event>
<event>
 5    1  0.3234540E-002  0.1250033E+03  0.7818608E-02  0.1235064E+00
          4   -1    0    0  501    0  0.00000000000E+00  0.00000000000E+00  0.15577362454E+03  0.15577880152E+03  0.12700000000E+01 0.  1.
         -4   -1    0    0    0  501 -0.00000000000E+00 -0.00000000000E+00 -0.25056089837E+02  0.25088254980E+02  0.12700000000E+01 0.  1.
         25    2    1    2    0    0  0.00000000000E+00  0.00000000000E+00  0.13071753470E+03  0.18086705650E+03  0.12500327295E+03 0.  0.
    9000005    1    3    3    0    0  0.27152428563E+02 -0.16104952584E+02 -0.12677647376E+02  0.34034491587E+02  0.10000000000E+01 0.  0.
    9000005    1    3    3    0    0 -0.27152428563E+02  0.16104952584E+02  0.14339518208E+03  0.14683256491E+03  0.10000000000E+01 0.  0.
<mgrwt>
<rscale>  0 0.12500327E+03</rscale>
<asrwt>0</asrwt>
<pdfrwt beam="1">  1        4 0.23968045E-01 0.12500327E+03</pdfrwt>
<pdfrwt beam="2">  1       -4 0.38576555E-02 0.12500327E+03</pdfrwt>
<totfact> 0.93454305E+03</totfact>
</mgrwt>
</event>
<event>
 5    1  0.3234540E-002  0.1249930E+03  0.7818608E-02  0.1235080E+00
         -4   -1    0    0    0  501 -0.00000000000E+00  0.00000000000E+00  0.10317704207E+03  0.10318485795E+03  0.12700000000E+01 0. -1.
          4   -1    0    0  501    0  0.00000000000E+00 -0.00000000000E+00 -0.37835540844E+02  0.37856849459E+02  0.12700000000E+01 0. -1.
         25    2    1    2    0    0  0.00000000000E+00  0.00000000000E+00  0.65341501229E+02  0.14104170741E+03  0.12499300559E+03 0.  0.
    9000005    1    3    3    0    0  0.49904953190E+02 -0.31681060131E+02  0.98052174133E+01  0.59927758280E+02  0.10000000000E+01 0.  0.
    9000005    1    3    3    0    0 -0.49904953190E+02  0.31681060131E+02  0.55536283816E+02  0.81113949133E+02  0.10000000000E+01 0.  0.
<mgrwt>
<rscale>  0 0.12499301E+03</rscale>
<asrwt>0</asrwt>
<pdfrwt beam="2">  1        4 0.58230930E-02 0.12499301E+03</pdfrwt>
<pdfrwt beam="1">  1       -4 0.15875631E-01 0.12499301E+03</pdfrwt>
<totfact> 0.10113635E+04</totfact>
</mgrwt>
</event>
<event>
 5    1  0.3234540E-002  0.1250017E+03  0.7818608E-02  0.1235067E+00
         -4   -1    0    0    0  501 -0.00000000000E+00  0.00000000000E+00  0.10064318956E+04  0.10064326969E+04  0.12700000000E+01 0.  1.
          4   -1    0    0  501    0  0.00000000000E+00 -0.00000000000E+00 -0.37766833346E+01  0.39844995934E+01  0.12700000000E+01 0.  1.
         25    2    1    2    0    0  0.00000000000E+00  0.00000000000E+00  0.10026552123E+04  0.10104171965E+04  0.12500174510E+03 0.  0.
    9000005    1    3    3    0    0  0.58356979251E+02 -0.22038362325E+02  0.53171518665E+03  0.53536274259E+03  0.10000000000E+01 0.  0.
    9000005    1    3    3    0    0 -0.58356979251E+02  0.22038362325E+02  0.47094002564E+03  0.47505445392E+03  0.10000000000E+01 0.  0.
<mgrwt>
<rscale>  0 0.12500175E+03</rscale>
<asrwt>0</asrwt>
<pdfrwt beam="2">  1        4 0.59707641E-03 0.12500175E+03</pdfrwt>
<pdfrwt beam="1">  1       -4 0.15485154E+00 0.12500175E+03</pdfrwt>
<totfact> 0.30261860E+03</totfact>
</mgrwt>
</event>
<event>
 5    1  0.3234540E-002  0.1249969E+03  0.7818608E-02  0.1235074E+00
         -4   -1    0    0    0  501 -0.00000000000E+00  0.00000000000E+00  0.42896744065E+03  0.42896932063E+03  0.12700000000E+01 0.  1.
          4   -1    0    0  501    0  0.00000000000E+00 -0.00000000000E+00 -0.90595291286E+01  0.91481128126E+01  0.12700000000E+01 0.  1.
         25    2    1    2    0    0  0.00000000000E+00  0.00000000000E+00  0.41990791152E+03  0.43811743344E+03  0.12499692526E+03 0.  0.
    9000005    1    3    3    0    0 -0.53186513833E+02  0.32392902407E+02  0.22815055948E+03  0.23649901305E+03  0.10000000000E+01 0.  0.
    9000005    1    3    3    0    0  0.53186513833E+02 -0.32392902407E+02  0.19175735204E+03  0.20161842039E+03  0.10000000000E+01 0.  0.
<mgrwt>
<rscale>  0 0.12499693E+03</rscale>
<asrwt>0</asrwt>
<pdfrwt beam="2">  1        4 0.14007321E-02 0.12499693E+03</pdfrwt>
<pdfrwt beam="1">  1       -4 0.66001967E-01 0.12499693E+03</pdfrwt>
<totfact> 0.61011148E+03</totfact>
</mgrwt>
</event>
<event>
 5    1  0.3234540E-002  0.1249615E+03  0.7818608E-02  0.1235130E+00
          4   -1    0    0  501    0  0.00000000000E+00  0.00000000000E+00  0.16616025906E+03  0.16616511243E+03  0.12700000000E+01 0.  1.
         -4   -1    0    0    0  501 -0.00000000000E+00 -0.00000000000E+00 -0.23472069422E+02  0.23506402169E+02  0.12700000000E+01 0.  1.
         25    2    1    2    0    0  0.00000000000E+00  0.00000000000E+00  0.14268818964E+03  0.18967151460E+03  0.12496145002E+03 0.  0.
    9000005    1    3    3    0    0  0.10313721346E+02 -0.60172015138E+02  0.51219299613E+02  0.79696053268E+02  0.10000000000E+01 0.  0.
    9000005    1    3    3    0    0 -0.10313721346E+02  0.60172015138E+02  0.91468890024E+02  0.10997546134E+03  0.10000000000E+01 0.  0.
<mgrwt>
<rscale>  0 0.12496145E+03</rscale>
<asrwt>0</asrwt>
<pdfrwt beam="1">  1        4 0.25566130E-01 0.12496145E+03</pdfrwt>
<pdfrwt beam="2">  1       -4 0.36141020E-02 0.12496145E+03</pdfrwt>
<totfact> 0.91983910E+03</totfact>
</mgrwt>
</event>
<event>
 5    1  0.3234540E-002  0.1250010E+03  0.7818608E-02  0.1235068E+00
          4   -1    0    0  501    0  0.00000000000E+00  0.00000000000E+00  0.10288277993E+03  0.10289061817E+03  0.12700000000E+01 0.  1.
         -4   -1    0    0    0  501 -0.00000000000E+00 -0.00000000000E+00 -0.37948693344E+02  0.37969938458E+02  0.12700000000E+01 0.  1.
         25    2    1    2    0    0  0.00000000000E+00  0.00000000000E+00  0.64934086591E+02  0.14086055663E+03  0.12500104324E+03 0.  0.
    9000005    1    3    3    0    0  0.52286945106E+02  0.69136914178E+01 -0.53058258911E+01  0.53017690877E+02  0.10000000000E+01 0.  0.
    9000005    1    3    3    0    0 -0.52286945106E+02 -0.69136914178E+01  0.70239912482E+02  0.87842865749E+02  0.10000000000E+01 0.  0.
<mgrwt>
<rscale>  0 0.12500104E+03</rscale>
<asrwt>0</asrwt>
<pdfrwt beam="1">  1        4 0.15830357E-01 0.12500104E+03</pdfrwt>
<pdfrwt beam="2">  1       -4 0.58404978E-02 0.12500104E+03</pdfrwt>
<totfact> 0.10115544E+04</totfact>
</mgrwt>
</event>
<event>
 5    1  0.3234540E-002  0.1250030E+03  0.7818608E-02  0.1235065E+00
          4   -1    0    0  501    0  0.00000000000E+00  0.00000000000E+00  0.44584346199E+01  0.46357889577E+01  0.12700000000E+01 0. -1.
         -4   -1    0    0    0  501 -0.00000000000E+00 -0.00000000000E+00 -0.85892467071E+03  0.85892560962E+03  0.12700000000E+01 0. -1.
         25    2    1    2    0    0  0.00000000000E+00  0.00000000000E+00 -0.85446623609E+03  0.86356139858E+03  0.12500296192E+03 0.  0.
    9000005    1    3    3    0    0  0.46000379574E+02  0.23361961845E+02 -0.18361107486E+03  0.19072452122E+03  0.10000000000E+01 0.  0.
    9000005    1    3    3    0    0 -0.46000379574E+02 -0.23361961845E+02 -0.67085516123E+03  0.67283687736E+03  0.10000000000E+01 0.  0.
<mgrwt>
<rscale>  0 0.12500296E+03</rscale>
<asrwt>0</asrwt>
<pdfrwt beam="1">  1        4 0.69962856E-03 0.12500296E+03</pdfrwt>
<pdfrwt beam="2">  1       -4 0.13215584E+00 0.12500296E+03</pdfrwt>
<totfact> 0.35576448E+03</totfact>
</mgrwt>
</event>
<event>
 5    1  0.3234540E-002  0.1250003E+03  0.7818608E-02  0.1235069E+00
         -4   -1    0    0    0  501 -0.00000000000E+00  0.00000000000E+00  0.21494428050E+02  0.21531914388E+02  0.12700000000E+01 0.  1.
          4   -1    0    0  501    0  0.00000000000E+00 -0.00000000000E+00 -0.18153607616E+03  0.18154051847E+03  0.12700000000E+01 0.  1.
         25    2    1    2    0    0  0.00000000000E+00  0.00000000000E+00 -0.16004164811E+03  0.20307243286E+03  0.12500033543E+03 0.  0.
    9000005    1    3    3    0    0  0.18779857273E+02 -0.59554250415E+02 -0.83959935561E+02  0.10464063532E+03  0.10000000000E+01 0.  0.
    9000005    1    3    3    0    0 -0.18779857273E+02  0.59554250415E+02 -0.76081712545E+02  0.98431797532E+02  0.10000000000E+01 0.  0.
<mgrwt>
<rscale>  0 0.12500034E+03</rscale>
<asrwt>0</asrwt>
<pdfrwt beam="2">  1        4 0.27931851E-01 0.12500034E+03</pdfrwt>
<pdfrwt beam="1">  1       -4 0.33100605E-02 0.12500034E+03</pdfrwt>
<totfact> 0.89619219E+03</totfact>
</mgrwt>
</event>
<event>
 5    1  0.3234540E-002  0.1250088E+03  0.7818608E-02  0.1235056E+00
          4   -1    0    0  501    0  0.00000000000E+00  0.00000000000E+00  0.52922959051E+02  0.52938195046E+02  0.12700000000E+01 0.  1.
         -4   -1    0    0    0  501 -0.00000000000E+00 -0.00000000000E+00 -0.73789169895E+02  0.73800098196E+02  0.12700000000E+01 0.  1.
         25    2    1    2    0    0  0.00000000000E+00  0.00000000000E+00 -0.20866210844E+02  0.12673829324E+03  0.12500878457E+03 0.  0.
    9000005    1    3    3    0    0  0.19027989457E+01  0.62467341104E+02 -0.10532988994E+02  0.63385591467E+02  0.10000000000E+01 0.  0.
    9000005    1    3    3    0    0 -0.19027989457E+01 -0.62467341104E+02 -0.10333221850E+02  0.63352701775E+02  0.10000000000E+01 0.  0.
<mgrwt>
<rscale>  0 0.12500878E+03</rscale>
<asrwt>0</asrwt>
<pdfrwt beam="1">  1        4 0.81440063E-02 0.12500878E+03</pdfrwt>
<pdfrwt beam="2">  1       -4 0.11354193E-01 0.12500878E+03</pdfrwt>
<totfact> 0.10412772E+04</totfact>
</mgrwt>
</event>
<event>
 5    1  0.3234540E-002  0.1250027E+03  0.7818608E-02  0.1235065E+00
          4   -1    0    0  501    0  0.00000000000E+00  0.00000000000E+00  0.37573178375E+03  0.37573393009E+03  0.12700000000E+01 0.  1.
         -4   -1    0    0    0  501 -0.00000000000E+00 -0.00000000000E+00 -0.10355859104E+02  0.10433442279E+02  0.12700000000E+01 0.  1.
         25    2    1    2    0    0  0.00000000000E+00  0.00000000000E+00  0.36537592464E+03  0.38616737236E+03  0.12500269265E+03 0.  0.
    9000005    1    3    3    0    0 -0.59675838758E+02  0.11646148155E+02  0.22730413642E+03  0.23529770278E+03  0.10000000000E+01 0.  0.
    9000005    1    3    3    0    0  0.59675838758E+02 -0.11646148155E+02  0.13807178822E+03  0.15086966958E+03  0.10000000000E+01 0.  0.
<mgrwt>
<rscale>  0 0.12500269E+03</rscale>
<asrwt>0</asrwt>
<pdfrwt beam="1">  1        4 0.57811024E-01 0.12500269E+03</pdfrwt>
<pdfrwt beam="2">  1       -4 0.15993421E-02 0.12500269E+03</pdfrwt>
<totfact> 0.65916818E+03</totfact>
</mgrwt>
</event>
<event>
 5    1  0.3234540E-002  0.1249982E+03  0.7818608E-02  0.1235072E+00
          4   -1    0    0  501    0  0.00000000000E+00  0.00000000000E+00  0.36924355035E+02  0.36946189178E+02  0.12700000000E+01 0. -1.
         -4   -1    0    0    0  501 -0.00000000000E+00 -0.00000000000E+00 -0.10573058574E+03  0.10573821287E+03  0.12700000000E+01 0. -1.
         25    2    1    2    0    0  0.00000000000E+00  0.00000000000E+00 -0.68806230709E+02  0.14268440205E+03  0.12499816480E+03 0.  0.
    9000005    1    3    3    0    0 -0.41578993913E+02  0.31035110138E+02 -0.74161536567E+02  0.90514773943E+02  0.10000000000E+01 0.  0.
    9000005    1    3    3    0    0  0.41578993913E+02 -0.31035110138E+02  0.53553058581E+01  0.52169628108E+02  0.10000000000E+01 0.  0.
<mgrwt>
<rscale>  0 0.12499816E+03</rscale>
<asrwt>0</asrwt>
<pdfrwt beam="1">  1        4 0.56829363E-02 0.12499816E+03</pdfrwt>
<pdfrwt beam="2">  1       -4 0.16268510E-01 0.12499816E+03</pdfrwt>
<totfact> 0.10078667E+04</totfact>
</mgrwt>
</event>
<event>
 5    1  0.3234540E-002  0.1250016E+03  0.7818608E-02  0.1235067E+00
         -4   -1    0    0    0  501 -0.00000000000E+00  0.00000000000E+00  0.52192600329E+01  0.53715524098E+01  0.12700000000E+01 0.  1.
          4   -1    0    0  501    0  0.00000000000E+00 -0.00000000000E+00 -0.73753313195E+03  0.73753422539E+03  0.12700000000E+01 0.  1.
         25    2    1    2    0    0  0.00000000000E+00  0.00000000000E+00 -0.73231387191E+03  0.74290577780E+03  0.12500155074E+03 0.  0.
    9000005    1    3    3    0    0 -0.57079780123E+02  0.20519577181E+02 -0.45554046718E+03  0.45956204324E+03  0.10000000000E+01 0.  0.
    9000005    1    3    3    0    0  0.57079780123E+02 -0.20519577181E+02 -0.27677340474E+03  0.28334373456E+03  0.10000000000E+01 0.  0.
<mgrwt>
<rscale>  0 0.12500155E+03</rscale>
<asrwt>0</asrwt>
<pdfrwt beam="2">  1        4 0.11347835E+00 0.12500155E+03</pdfrwt>
<pdfrwt beam="1">  1       -4 0.81476257E-03 0.12500155E+03</pdfrwt>
<totfact> 0.40914410E+03</totfact>
</mgrwt>
</event>
<event>
 5    1  0.3234540E-002  0.1249993E+03  0.7818608E-02  0.1235070E+00
         -4   -1    0    0    0  501 -0.00000000000E+00  0.00000000000E+00  0.27311350939E+03  0.27311646218E+03  0.12700000000E+01 0. -1.
          4   -1    0    0  501    0  0.00000000000E+00 -0.00000000000E+00 -0.14271264775E+02  0.14327661997E+02  0.12700000000E+01 0. -1.
         25    2    1    2    0    0  0.00000000000E+00  0.00000000000E+00  0.25884224462E+03  0.28744412418E+03  0.12499926769E+03 0.  0.
    9000005    1    3    3    0    0  0.51483531542E+02 -0.34858599063E+02  0.14387884661E+03  0.15674118300E+03  0.10000000000E+01 0.  0.
    9000005    1    3    3    0    0 -0.51483531542E+02  0.34858599063E+02  0.11496339801E+03  0.13070294117E+03  0.10000000000E+01 0.  0.
<mgrwt>
<rscale>  0 0.12499927E+03</rscale>
<asrwt>0</asrwt>
<pdfrwt beam="2">  1        4 0.22001444E-02 0.12499927E+03</pdfrwt>
<pdfrwt beam="1">  1       -4 0.42022031E-01 0.12499927E+03</pdfrwt>
<totfact> 0.77202562E+03</totfact>
</mgrwt>
</event>
<event>
 5    1  0.3234540E-002  0.1249996E+03  0.7818608E-02  0.1235070E+00
          4   -1    0    0  501    0  0.00000000000E+00  0.00000000000E+00  0.34716268143E+02  0.34739490120E+02  0.12700000000E+01 0. -1.
         -4   -1    0    0    0  501 -0.00000000000E+00 -0.00000000000E+00 -0.11245414797E+03  0.11246131911E+03  0.12700000000E+01 0. -1.
         25    2    1    2    0    0  0.00000000000E+00  0.00000000000E+00 -0.77737879825E+02  0.14720080923E+03  0.12499960111E+03 0.  0.
    9000005    1    3    3    0    0 -0.22687032938E+02  0.51085393539E+02 -0.71774795651E+02  0.90978240186E+02  0.10000000000E+01 0.  0.
    9000005    1    3    3    0    0  0.22687032938E+02 -0.51085393539E+02 -0.59630841737E+01  0.56222569040E+02  0.10000000000E+01 0.  0.
<mgrwt>
<rscale>  0 0.12499960E+03</rscale>
<asrwt>0</asrwt>
<pdfrwt beam="1">  1        4 0.53433023E-02 0.12499960E+03</pdfrwt>
<pdfrwt beam="2">  1       -4 0.17302976E-01 0.12499960E+03</pdfrwt>
<totfact> 0.99865527E+03</totfact>
</mgrwt>
</event>
<event>
 5    1  0.3234540E-002  0.1250011E+03  0.7818608E-02  0.1235068E+00
          4   -1    0    0  501    0  0.00000000000E+00  0.00000000000E+00  0.85850262827E+02  0.85859655994E+02  0.12700000000E+01 0. -1.
         -4   -1    0    0    0  501 -0.00000000000E+00 -0.00000000000E+00 -0.45480780118E+02  0.45498508329E+02  0.12700000000E+01 0. -1.
         25    2    1    2    0    0  0.00000000000E+00  0.00000000000E+00  0.40369482709E+02  0.13135816432E+03  0.12500108880E+03 0.  0.
    9000005    1    3    3    0    0  0.52133456291E+02  0.28942409421E+02  0.53182839027E+00  0.59639275392E+02  0.10000000000E+01 0.  0.
    9000005    1    3    3    0    0 -0.52133456291E+02 -0.28942409421E+02  0.39837654319E+02  0.71718888931E+02  0.10000000000E+01 0.  0.
<mgrwt>
<rscale>  0 0.12500109E+03</rscale>
<asrwt>0</asrwt>
<pdfrwt beam="1">  1        4 0.13209819E-01 0.12500109E+03</pdfrwt>
<pdfrwt beam="2">  1       -4 0.69991293E-02 0.12500109E+03</pdfrwt>
<totfact> 0.10315164E+04</totfact>
</mgrwt>
</event>
<event>
 5    1  0.3234540E-002  0.1250001E+03  0.7818608E-02  0.1235069E+00
         -4   -1    0    0    0  501 -0.00000000000E+00  0.00000000000E+00  0.41513071184E+03  0.41513265447E+03  0.12700000000E+01 0.  1.
          4   -1    0    0  501    0  0.00000000000E+00 -0.00000000000E+00 -0.93648743746E+01  0.94505963861E+01  0.12700000000E+01 0.  1.
         25    2    1    2    0    0  0.00000000000E+00  0.00000000000E+00  0.40576583746E+03  0.42458325086E+03  0.12500008824E+03 0.  0.
    9000005    1    3    3    0    0  0.55973688474E+02 -0.27182886906E+02  0.22248151259E+03  0.23102161498E+03  0.10000000000E+01 0.  0.
    9000005    1    3    3    0    0 -0.55973688474E+02  0.27182886906E+02  0.18328432487E+03  0.19356163588E+03  0.10000000000E+01 0.  0.
<mgrwt>
<rscale>  0 0.12500009E+03</rscale>
<asrwt>0</asrwt>
<pdfrwt beam="2">  1        4 0.14474929E-02 0.12500009E+03</pdfrwt>
<pdfrwt beam="1">  1       -4 0.63873028E-01 0.12500009E+03</pdfrwt>
<totfact> 0.62229939E+03</totfact>
</mgrwt>
</event>
<event>
 5    1  0.3234540E-002  0.1250007E+03  0.7818608E-02  0.1235068E+00
          4   -1    0    0  501    0  0.00000000000E+00  0.00000000000E+00  0.66462538530E+03  0.66462659869E+03  0.12700000000E+01 0.  1.
         -4   -1    0    0    0  501 -0.00000000000E+00 -0.00000000000E+00 -0.58076020387E+01  0.59448415824E+01  0.12700000000E+01 0.  1.
         25    2    1    2    0    0  0.00000000000E+00  0.00000000000E+00  0.65881778327E+03  0.67057144028E+03  0.12500073986E+03 0.  0.
    9000005    1    3    3    0    0 -0.60383931606E+02  0.19215498250E+01  0.24367946880E+03  0.25105894739E+03  0.10000000000E+01 0.  0.
    9000005    1    3    3    0    0  0.60383931606E+02 -0.19215498250E+01  0.41513831447E+03  0.41951249289E+03  0.10000000000E+01 0.  0.
<mgrwt>
<rscale>  0 0.12500074E+03</rscale>
<asrwt>0</asrwt>
<pdfrwt beam="1">  1        4 0.10226064E+00 0.12500074E+03</pdfrwt>
<pdfrwt beam="2">  1       -4 0.90412807E-03 0.12500074E+03</pdfrwt>
<totfact> 0.44685665E+03</totfact>
</mgrwt>
</event>
<event>
 5    1  0.3234540E-002  0.1250028E+03  0.7818608E-02  0.1235065E+00
          4   -1    0    0  501    0  0.00000000000E+00  0.00000000000E+00  0.32126164252E+02  0.32151257044E+02  0.12700000000E+01 0. -1.
         -4   -1    0    0    0  501 -0.00000000000E+00 -0.00000000000E+00 -0.12152048943E+03  0.12152712558E+03  0.12700000000E+01 0. -1.
         25    2    1    2    0    0  0.00000000000E+00  0.00000000000E+00 -0.89394325178E+02  0.15367838262E+03  0.12500279961E+03 0.  0.
    9000005    1    3    3    0    0 -0.36594420459E+02  0.31101283223E+02 -0.93857520883E+02  0.10543564698E+03  0.10000000000E+01 0.  0.
    9000005    1    3    3    0    0  0.36594420459E+02 -0.31101283223E+02  0.44631957053E+01  0.48242735647E+02  0.10000000000E+01 0.  0.
<mgrwt>
<rscale>  0 0.12500280E+03</rscale>
<asrwt>0</asrwt>
<pdfrwt beam="1">  1        4 0.49449276E-02 0.12500280E+03</pdfrwt>
<pdfrwt beam="2">  1       -4 0.18697900E-01 0.12500280E+03</pdfrwt>
<totfact> 0.98569248E+03</totfact>
</mgrwt>
</event>
<event>
 5    1  0.3234540E-002  0.1249999E+03  0.7818608E-02  0.1235069E+00
          4   -1    0    0  501    0  0.00000000000E+00  0.00000000000E+00  0.28866418842E+01  0.31536647519E+01  0.12700000000E+01 0. -1.
         -4   -1    0    0    0  501 -0.00000000000E+00 -0.00000000000E+00 -0.12931252013E+04  0.12931258250E+04  0.12700000000E+01 0. -1.
         25    2    1    2    0    0  0.00000000000E+00  0.00000000000E+00 -0.12902385595E+04  0.12962794897E+04  0.12499990081E+03 0.  0.
    9000005    1    3    3    0    0 -0.62330557395E+02  0.39897627747E+01 -0.62379787449E+03  0.62691770179E+03  0.10000000000E+01 0.  0.
    9000005    1    3    3    0    0  0.62330557395E+02 -0.39897627747E+01 -0.66644068496E+03  0.66936178794E+03  0.10000000000E+01 0.  0.
<mgrwt>
<rscale>  0 0.12499990E+03</rscale>
<asrwt>0</asrwt>
<pdfrwt beam="1">  1        4 0.46468798E-03 0.12499990E+03</pdfrwt>
<pdfrwt beam="2">  1       -4 0.19896248E+00 0.12499990E+03</pdfrwt>
<totfact> 0.22316611E+03</totfact>
</mgrwt>
</event>
<event>
 5    1  0.3234540E-002  0.1249986E+03  0.7818608E-02  0.1235072E+00
          4   -1    0    0  501    0  0.00000000000E+00  0.00000000000E+00  0.17289590178E+02  0.17336171104E+02  0.12700000000E+01 0.  1.
         -4   -1    0    0    0  501 -0.00000000000E+00 -0.00000000000E+00 -0.22557321011E+03  0.22557678520E+03  0.12700000000E+01 0.  1.
         25    2    1    2    0    0  0.00000000000E+00  0.00000000000E+00 -0.20828361994E+03  0.24291295630E+03  0.12499855202E+03 0.  0.
    9000005    1    3    3    0    0 -0.36814260059E+02 -0.48396625393E+02 -0.13214435160E+03  0.14546701603E+03  0.10000000000E+01 0.  0.
    9000005    1    3    3    0    0  0.36814260059E+02  0.48396625393E+02 -0.76139268339E+02  0.97445940276E+02  0.10000000000E+01 0.  0.
<mgrwt>
<rscale>  0 0.12499855E+03</rscale>
<asrwt>0</asrwt>
<pdfrwt beam="1">  1        4 0.26637953E-02 0.12499855E+03</pdfrwt>
<pdfrwt beam="2">  1       -4 0.34707427E-01 0.12499855E+03</pdfrwt>
<totfact> 0.83368130E+03</totfact>
</mgrwt>
</event>
<event>
 5    1  0.3234540E-002  0.1250034E+03  0.7818608E-02  0.1235064E+00
          4   -1    0    0  501    0  0.00000000000E+00  0.00000000000E+00  0.28187472786E+02  0.28216068508E+02  0.12700000000E+01 0. -1.
         -4   -1    0    0    0  501 -0.00000000000E+00 -0.00000000000E+00 -0.13848685570E+03  0.13849267887E+03  0.12700000000E+01 0. -1.
         25    2    1    2    0    0  0.00000000000E+00  0.00000000000E+00 -0.11029938291E+03  0.16670874738E+03  0.12500341028E+03 0.  0.
    9000005    1    3    3    0    0  0.16489081117E+02 -0.24891025614E+02  0.18066795230E+02  0.34912204773E+02  0.10000000000E+01 0.  0.
    9000005    1    3    3    0    0 -0.16489081117E+02  0.24891025614E+02 -0.12836617814E+03  0.13179654261E+03  0.10000000000E+01 0.  0.
<mgrwt>
<rscale>  0 0.12500341E+03</rscale>
<asrwt>0</asrwt>
<pdfrwt beam="1">  1        4 0.43391820E-02 0.12500341E+03</pdfrwt>
<pdfrwt beam="2">  1       -4 0.21308317E-01 0.12500341E+03</pdfrwt>
<totfact> 0.96057400E+03</totfact>
</mgrwt>
</event>
<event>
 5    1  0.3234540E-002  0.1249869E+03  0.7818608E-02  0.1235090E+00
          4   -1    0    0  501    0  0.00000000000E+00  0.00000000000E+00  0.77885874196E+01  0.78914506900E+01  0.12700000000E+01 0.  1.
         -4   -1    0    0    0  501 -0.00000000000E+00 -0.00000000000E+00 -0.49803716238E+03  0.49803878163E+03  0.12700000000E+01 0.  1.
         25    2    1    2    0    0  0.00000000000E+00  0.00000000000E+00 -0.49024857496E+03  0.50593023232E+03  0.12498693823E+03 0.  0.
    9000005    1    3    3    0    0  0.26538969375E+02  0.49771106161E+02 -0.13628610812E+03  0.14750045142E+03  0.10000000000E+01 0.  0.
    9000005    1    3    3    0    0 -0.26538969375E+02 -0.49771106161E+02 -0.35396246684E+03  0.35842978090E+03  0.10000000000E+01 0.  0.
<mgrwt>
<rscale>  0 0.12498694E+03</rscale>
<asrwt>0</asrwt>
<pdfrwt beam="1">  1        4 0.12062817E-02 0.12498694E+03</pdfrwt>
<pdfrwt beam="2">  1       -4 0.76629114E-01 0.12498694E+03</pdfrwt>
<totfact> 0.55423095E+03</totfact>
</mgrwt>
</event>
<event>
 5    1  0.3234540E-002  0.1250069E+03  0.7818608E-02  0.1235058E+00
          4   -1    0    0  501    0  0.00000000000E+00  0.00000000000E+00  0.31768157036E+02  0.31793532384E+02  0.12700000000E+01 0.  1.
         -4   -1    0    0    0  501 -0.00000000000E+00 -0.00000000000E+00 -0.12289708364E+03  0.12290364546E+03  0.12700000000E+01 0.  1.
         25    2    1    2    0    0  0.00000000000E+00  0.00000000000E+00 -0.91128926606E+02  0.15469717784E+03  0.12500694208E+03 0.  0.
    9000005    1    3    3    0    0  0.28207771810E+02  0.22908752822E+02 -0.10848535588E+03  0.11441399297E+03  0.10000000000E+01 0.  0.
    9000005    1    3    3    0    0 -0.28207771810E+02 -0.22908752822E+02  0.17356429278E+02  0.40283184874E+02  0.10000000000E+01 0.  0.
<mgrwt>
<rscale>  0 0.12500694E+03</rscale>
<asrwt>0</asrwt>
<pdfrwt beam="1">  1        4 0.48898655E-02 0.12500694E+03</pdfrwt>
<pdfrwt beam="2">  1       -4 0.18909700E-01 0.12500694E+03</pdfrwt>
<totfact> 0.98359622E+03</totfact>
</mgrwt>
</event>
<event>
 5    1  0.3234540E-002  0.1250152E+03  0.7818608E-02  0.1235045E+00
          4   -1    0    0  501    0  0.00000000000E+00  0.00000000000E+00  0.10020108700E+03  0.10020913500E+03  0.12700000000E+01 0.  1.
         -4   -1    0    0    0  501 -0.00000000000E+00 -0.00000000000E+00 -0.38973647595E+02  0.38994334292E+02  0.12700000000E+01 0.  1.
         25    2    1    2    0    0  0.00000000000E+00  0.00000000000E+00  0.61227439409E+02  0.13920346929E+03  0.12501522518E+03 0.  0.
    9000005    1    3    3    0    0  0.52505065048E+02  0.23615272049E+02  0.35272666121E+01  0.57687993026E+02  0.10000000000E+01 0.  0.
    9000005    1    3    3    0    0 -0.52505065048E+02 -0.23615272049E+02  0.57700172797E+02  0.81515476264E+02  0.10000000000E+01 0.  0.
<mgrwt>
<rscale>  0 0.12501523E+03</rscale>
<asrwt>0</asrwt>
<pdfrwt beam="1">  1        4 0.15417762E-01 0.12501523E+03</pdfrwt>
<pdfrwt beam="2">  1       -4 0.59981562E-02 0.12501523E+03</pdfrwt>
<totfact> 0.10146640E+04</totfact>
</mgrwt>
</event>
<event>
 5    1  0.3234540E-002  0.1250009E+03  0.7818608E-02  0.1235068E+00
         -4   -1    0    0    0  501 -0.00000000000E+00  0.00000000000E+00  0.72471095361E+02  0.72482222392E+02  0.12700000000E+01 0. -1.
          4   -1    0    0  501    0  0.00000000000E+00 -0.00000000000E+00 -0.53878818924E+02  0.53893784694E+02  0.12700000000E+01 0. -1.
         25    2    1    2    0    0  0.00000000000E+00  0.00000000000E+00  0.18592276437E+02  0.12637600709E+03  0.12500088969E+03 0.  0.
    9000005    1    3    3    0    0 -0.23895208725E+02  0.24944108287E+02  0.61947021479E+02  0.70933934110E+02  0.10000000000E+01 0.  0.
    9000005    1    3    3    0    0  0.23895208725E+02 -0.24944108287E+02 -0.43354745042E+02  0.55442072976E+02  0.10000000000E+01 0.  0.
<mgrwt>
<rscale>  0 0.12500089E+03</rscale>
<asrwt>0</asrwt>
<pdfrwt beam="2">  1        4 0.82910562E-02 0.12500089E+03</pdfrwt>
<pdfrwt beam="1">  1       -4 0.11151406E-01 0.12500089E+03</pdfrwt>
<totfact> 0.10422524E+04</totfact>
</mgrwt>
</event>
<event>
 5    1  0.3234540E-002  0.1250098E+03  0.7818608E-02  0.1235054E+00
         -4   -1    0    0    0  501 -0.00000000000E+00  0.00000000000E+00  0.68165080808E+03  0.68165199117E+03  0.12700000000E+01 0. -1.
          4   -1    0    0  501    0  0.00000000000E+00 -0.00000000000E+00 -0.56599148036E+01  0.58006495830E+01  0.12700000000E+01 0. -1.
         25    2    1    2    0    0  0.00000000000E+00  0.00000000000E+00  0.67599089328E+03  0.68745264075E+03  0.12500978152E+03 0.  0.
    9000005    1    3    3    0    0  0.12799150303E+02  0.59462340450E+02  0.41697600132E+03  0.42139004955E+03  0.10000000000E+01 0.  0.
    9000005    1    3    3    0    0 -0.12799150303E+02 -0.59462340450E+02  0.25901489196E+03  0.26606259120E+03  0.10000000000E+01 0.  0.
<mgrwt>
<rscale>  0 0.12500978E+03</rscale>
<asrwt>0</asrwt>
<pdfrwt beam="2">  1        4 0.88167318E-03 0.12500978E+03</pdfrwt>
<pdfrwt beam="1">  1       -4 0.10488024E+00 0.12500978E+03</pdfrwt>
<totfact> 0.43748026E+03</totfact>
</mgrwt>
</event>
<event>
 5    1  0.3234540E-002  0.1250026E+03  0.7818608E-02  0.1235065E+00
          4   -1    0    0  501    0  0.00000000000E+00  0.00000000000E+00  0.17789254541E+02  0.17834530471E+02  0.12700000000E+01 0. -1.
         -4   -1    0    0    0  501 -0.00000000000E+00 -0.00000000000E+00 -0.21926780126E+03  0.21927147915E+03  0.12700000000E+01 0. -1.
         25    2    1    2    0    0  0.00000000000E+00  0.00000000000E+00 -0.20147854672E+03  0.23710600963E+03  0.12500262002E+03 0.  0.
    9000005    1    3    3    0    0  0.34889221686E+02 -0.27677860396E+02 -0.18389851730E+03  0.18921677096E+03  0.10000000000E+01 0.  0.
    9000005    1    3    3    0    0 -0.34889221686E+02  0.27677860396E+02 -0.17580029423E+02  0.47889238671E+02  0.10000000000E+01 0.  0.
<mgrwt>
<rscale>  0 0.12500262E+03</rscale>
<asrwt>0</asrwt>
<pdfrwt beam="1">  1        4 0.27405742E-02 0.12500262E+03</pdfrwt>
<pdfrwt beam="2">  1       -4 0.33737272E-01 0.12500262E+03</pdfrwt>
<totfact> 0.84225352E+03</totfact>
</mgrwt>
</event>
<event>
 5    1  0.3234540E-002  0.1249945E+03  0.7818608E-02  0.1235078E+00
         -4   -1    0    0    0  501 -0.00000000000E+00  0.00000000000E+00  0.65015094262E+03  0.65015218302E+03  0.12700000000E+01 0.  1.
          4   -1    0    0  501    0  0.00000000000E+00 -0.00000000000E+00 -0.59393171742E+01  0.60735811920E+01  0.12700000000E+01 0.  1.
         25    2    1    2    0    0  0.00000000000E+00  0.00000000000E+00  0.64421162545E+03  0.65622576422E+03  0.12499454092E+03 0.  0.
    9000005    1    3    3    0    0  0.48192538643E+02 -0.38816381102E+02  0.36777707505E+03  0.37294799792E+03  0.10000000000E+01 0.  0.
    9000005    1    3    3    0    0 -0.48192538643E+02  0.38816381102E+02  0.27643455040E+03  0.28327776630E+03  0.10000000000E+01 0.  0.
<mgrwt>
<rscale>  0 0.12499454E+03</rscale>
<asrwt>0</asrwt>
<pdfrwt beam="2">  1        4 0.92416556E-03 0.12499454E+03</pdfrwt>
<pdfrwt beam="1">  1       -4 0.10003353E+00 0.12499454E+03</pdfrwt>
<totfact> 0.45505597E+03</totfact>
</mgrwt>
</event>
<event>
 5    1  0.3234540E-002  0.1250032E+03  0.7818608E-02  0.1235064E+00
         -4   -1    0    0    0  501 -0.00000000000E+00  0.00000000000E+00  0.12849394400E+02  0.12912003579E+02  0.12700000000E+01 0. -1.
          4   -1    0    0  501    0  0.00000000000E+00 -0.00000000000E+00 -0.30321556924E+03  0.30321822889E+03  0.12700000000E+01 0. -1.
         25    2    1    2    0    0  0.00000000000E+00  0.00000000000E+00 -0.29036617484E+03  0.31613023247E+03  0.12500323351E+03 0.  0.
    9000005    1    3    3    0    0 -0.34794479525E+02 -0.15643326648E+01 -0.27640624191E+03  0.27859381455E+03  0.10000000000E+01 0.  0.
    9000005    1    3    3    0    0  0.34794479525E+02  0.15643326648E+01 -0.13959932930E+02  0.37536417910E+02  0.10000000000E+01 0.  0.
<mgrwt>
<rscale>  0 0.12500323E+03</rscale>
<asrwt>0</asrwt>
<pdfrwt beam="2">  1        4 0.46653564E-01 0.12500323E+03</pdfrwt>
<pdfrwt beam="1">  1       -4 0.19818508E-02 0.12500323E+03</pdfrwt>
<totfact> 0.73613483E+03</totfact>
</mgrwt>
</event>
<event>
 5    1  0.3234540E-002  0.1249977E+03  0.7818608E-02  0.1235073E+00
         -4   -1    0    0    0  501 -0.00000000000E+00  0.00000000000E+00  0.16244170040E+01  0.20619482541E+01  0.12700000000E+01 0. -1.
          4   -1    0    0  501    0  0.00000000000E+00 -0.00000000000E+00 -0.21187792560E+04  0.21187796367E+04  0.12700000000E+01 0. -1.
         25    2    1    2    0    0  0.00000000000E+00  0.00000000000E+00 -0.21171548390E+04  0.21208415849E+04  0.12499766337E+03 0.  0.
    9000005    1    3    3    0    0 -0.29588910149E+02 -0.53506030692E+02 -0.83950853452E+03  0.84173272388E+03  0.10000000000E+01 0.  0.
    9000005    1    3    3    0    0  0.29588910149E+02  0.53506030692E+02 -0.12776463045E+04  0.12791088610E+04  0.10000000000E+01 0.  0.
<mgrwt>
<rscale>  0 0.12499766E+03</rscale>
<asrwt>0</asrwt>
<pdfrwt beam="2">  1        4 0.32599778E+00 0.12499766E+03</pdfrwt>
<pdfrwt beam="1">  1       -4 0.28359753E-03 0.12499766E+03</pdfrwt>
<totfact> 0.83658874E+02</totfact>
</mgrwt>
</event>
<event>
 5    1  0.3234540E-002  0.1249922E+03  0.7818608E-02  0.1235081E+00
          4   -1    0    0  501    0  0.00000000000E+00  0.00000000000E+00  0.13208470337E+02  0.13269385391E+02  0.12700000000E+01 0. -1.
         -4   -1    0    0    0  501 -0.00000000000E+00 -0.00000000000E+00 -0.29495876638E+03  0.29496150047E+03  0.12700000000E+01 0. -1.
         25    2    1    2    0    0  0.00000000000E+00  0.00000000000E+00 -0.28175029604E+03  0.30823088586E+03  0.12499219849E+03 0.  0.
    9000005    1    3    3    0    0  0.48425709836E+02 -0.15231422032E+02 -0.51019376435E+02  0.71979318989E+02  0.10000000000E+01 0.  0.
    9000005    1    3    3    0    0 -0.48425709836E+02  0.15231422032E+02 -0.23073091960E+03  0.23625156688E+03  0.10000000000E+01 0.  0.
<mgrwt>
<rscale>  0 0.12499220E+03</rscale>
<asrwt>0</asrwt>
<pdfrwt beam="1">  1        4 0.20369687E-02 0.12499220E+03</pdfrwt>
<pdfrwt beam="2">  1       -4 0.45383163E-01 0.12499220E+03</pdfrwt>
<totfact> 0.74590749E+03</totfact>
</mgrwt>
</event>
<event>
 5    1  0.3234540E-002  0.1250088E+03  0.7818608E-02  0.1235056E+00
          4   -1    0    0  501    0  0.00000000000E+00  0.00000000000E+00  0.27308950447E+02  0.27338465109E+02  0.12700000000E+01 0. -1.
         -4   -1    0    0    0  501 -0.00000000000E+00 -0.00000000000E+00 -0.14294970347E+03  0.14295534486E+03  0.12700000000E+01 0. -1.
         25    2    1    2    0    0  0.00000000000E+00  0.00000000000E+00 -0.11564075303E+03  0.17029380997E+03  0.12500879150E+03 0.  0.
    9000005    1    3    3    0    0 -0.39696949990E+02  0.47961213248E+02 -0.65241060901E+02  0.90186040174E+02  0.10000000000E+01 0.  0.
    9000005    1    3    3    0    0  0.39696949990E+02 -0.47961213248E+02 -0.50399692126E+02  0.80107769793E+02  0.10000000000E+01 0.  0.
<mgrwt>
<rscale>  0 0.12500879E+03</rscale>
<asrwt>0</asrwt>
<pdfrwt beam="1">  1        4 0.42040814E-02 0.12500879E+03</pdfrwt>
<pdfrwt beam="2">  1       -4 0.21994966E-01 0.12500879E+03</pdfrwt>
<totfact> 0.95375082E+03</totfact>
</mgrwt>
</event>
<event>
 5    1  0.3234540E-002  0.1250033E+03  0.7818608E-02  0.1235064E+00
          4   -1    0    0  501    0  0.00000000000E+00  0.00000000000E+00  0.12141195051E+03  0.12141859259E+03  0.12700000000E+01 0.  1.
         -4   -1    0    0    0  501 -0.00000000000E+00 -0.00000000000E+00 -0.32155146417E+02  0.32180216610E+02  0.12700000000E+01 0.  1.
         25    2    1    2    0    0  0.00000000000E+00  0.00000000000E+00  0.89256804089E+02  0.15359880920E+03  0.12500326840E+03 0.  0.
    9000005    1    3    3    0    0  0.21101756711E+02 -0.41904028764E+01  0.11672428006E+03  0.11869457093E+03  0.10000000000E+01 0.  0.
    9000005    1    3    3    0    0 -0.21101756711E+02  0.41904028764E+01 -0.27467475973E+02  0.34904238265E+02  0.10000000000E+01 0.  0.
<mgrwt>
<rscale>  0 0.12500327E+03</rscale>
<asrwt>0</asrwt>
<pdfrwt beam="1">  1        4 0.18681201E-01 0.12500327E+03</pdfrwt>
<pdfrwt beam="2">  1       -4 0.49493850E-02 0.12500327E+03</pdfrwt>
<totfact> 0.98583857E+03</totfact>
</mgrwt>
</event>
<event>
 5    1  0.3234540E-002  0.1250029E+03  0.7818608E-02  0.1235065E+00
         -4   -1    0    0    0  501 -0.00000000000E+00  0.00000000000E+00  0.11513146119E+02  0.11582980340E+02  0.12700000000E+01 0.  1.
          4   -1    0    0  501    0  0.00000000000E+00 -0.00000000000E+00 -0.33820459886E+03  0.33820698336E+03  0.12700000000E+01 0.  1.
         25    2    1    2    0    0  0.00000000000E+00  0.00000000000E+00 -0.32669145275E+03  0.34978996370E+03  0.12500285360E+03 0.  0.
    9000005    1    3    3    0    0 -0.55264547044E+02  0.17421272557E+02 -0.22883671785E+03  0.23606125123E+03  0.10000000000E+01 0.  0.
    9000005    1    3    3    0    0  0.55264547044E+02 -0.17421272557E+02 -0.97854734895E+02  0.11372871246E+03  0.10000000000E+01 0.  0.
<mgrwt>
<rscale>  0 0.12500285E+03</rscale>
<asrwt>0</asrwt>
<pdfrwt beam="2">  1        4 0.52037024E-01 0.12500285E+03</pdfrwt>
<pdfrwt beam="1">  1       -4 0.17768088E-02 0.12500285E+03</pdfrwt>
<totfact> 0.69743267E+03</totfact>
</mgrwt>
</event>
<event>
 5    1  0.3234540E-002  0.1249985E+03  0.7818608E-02  0.1235072E+00
         -4   -1    0    0    0  501 -0.00000000000E+00  0.00000000000E+00  0.14132268745E+03  0.14132839378E+03  0.12700000000E+01 0.  1.
          4   -1    0    0  501    0  0.00000000000E+00 -0.00000000000E+00 -0.27619138521E+02  0.27648322059E+02  0.12700000000E+01 0.  1.
         25    2    1    2    0    0  0.00000000000E+00  0.00000000000E+00  0.11370354893E+03  0.16897671584E+03  0.12499853382E+03 0.  0.
    9000005    1    3    3    0    0  0.41704487994E+02 -0.38479360755E+02  0.92238553224E+02  0.10829993640E+03  0.10000000000E+01 0.  0.
    9000005    1    3    3    0    0 -0.41704487994E+02  0.38479360755E+02  0.21464995709E+02  0.60676779444E+02  0.10000000000E+01 0.  0.
<mgrwt>
<rscale>  0 0.12499853E+03</rscale>
<asrwt>0</asrwt>
<pdfrwt beam="2">  1        4 0.42517821E-02 0.12499853E+03</pdfrwt>
<pdfrwt beam="1">  1       -4 0.21744636E-01 0.12499853E+03</pdfrwt>
<totfact> 0.95642670E+03</totfact>
</mgrwt>
</event>
<event>
 5    1  0.3234540E-002  0.1250047E+03  0.7818608E-02  0.1235062E+00
          4   -1    0    0  501    0  0.00000000000E+00  0.00000000000E+00  0.21425571883E+02  0.21463178481E+02  0.12700000000E+01 0.  1.
         -4   -1    0    0    0  501 -0.00000000000E+00 -0.00000000000E+00 -0.18213129297E+03  0.18213572077E+03  0.12700000000E+01 0.  1.
         25    2    1    2    0    0  0.00000000000E+00  0.00000000000E+00 -0.16070572109E+03  0.20359889925E+03  0.12500473185E+03 0.  0.
    9000005    1    3    3    0    0  0.48866527700E+02  0.38773154550E+02 -0.74204389722E+02  0.96946307291E+02  0.10000000000E+01 0.  0.
    9000005    1    3    3    0    0 -0.48866527700E+02 -0.38773154550E+02 -0.86501331368E+02  0.10665259196E+03  0.10000000000E+01 0.  0.
<mgrwt>
<rscale>  0 0.12500473E+03</rscale>
<asrwt>0</asrwt>
<pdfrwt beam="1">  1        4 0.32994754E-02 0.12500473E+03</pdfrwt>
<pdfrwt beam="2">  1       -4 0.28023431E-01 0.12500473E+03</pdfrwt>
<totfact> 0.89522577E+03</totfact>
</mgrwt>
</event>
<event>
 5    1  0.3234540E-002  0.1249995E+03  0.7818608E-02  0.1235070E+00
          4   -1    0    0  501    0  0.00000000000E+00  0.00000000000E+00  0.32896528917E+02  0.32921034534E+02  0.12700000000E+01 0. -1.
         -4   -1    0    0    0  501 -0.00000000000E+00 -0.00000000000E+00 -0.11867052245E+03  0.11867731797E+03  0.12700000000E+01 0. -1.
         25    2    1    2    0    0  0.00000000000E+00  0.00000000000E+00 -0.85773993538E+02  0.15159835250E+03  0.12499953005E+03 0.  0.
    9000005    1    3    3    0    0 -0.10255881619E+02 -0.48098635306E+02  0.38732880470E+01  0.49342316386E+02  0.10000000000E+01 0.  0.
    9000005    1    3    3    0    0  0.10255881619E+02  0.48098635306E+02 -0.89647281585E+02  0.10225603611E+03  0.10000000000E+01 0.  0.
<mgrwt>
<rscale>  0 0.12499953E+03</rscale>
<asrwt>0</asrwt>
<pdfrwt beam="1">  1        4 0.50634123E-02 0.12499953E+03</pdfrwt>
<pdfrwt beam="2">  1       -4 0.18259411E-01 0.12499953E+03</pdfrwt>
<totfact> 0.98987087E+03</totfact>
</mgrwt>
</event>
<event>
 5    1  0.3234540E-002  0.1249980E+03  0.7818608E-02  0.1235072E+00
         -4   -1    0    0    0  501 -0.00000000000E+00  0.00000000000E+00  0.48144246444E+02  0.48160994234E+02  0.12700000000E+01 0. -1.
          4   -1    0    0  501    0  0.00000000000E+00 -0.00000000000E+00 -0.81097940170E+02  0.81107883710E+02  0.12700000000E+01 0. -1.
         25    2    1    2    0    0  0.00000000000E+00  0.00000000000E+00 -0.32953693726E+02  0.12926887794E+03  0.12499798748E+03 0.  0.
    9000005    1    3    3    0    0  0.35727322225E+02  0.45209077805E+02 -0.41486219089E+02  0.71009919333E+02  0.10000000000E+01 0.  0.
    9000005    1    3    3    0    0 -0.35727322225E+02 -0.45209077805E+02  0.85325253632E+01  0.58258958611E+02  0.10000000000E+01 0.  0.
<mgrwt>
<rscale>  0 0.12499799E+03</rscale>
<asrwt>0</asrwt>
<pdfrwt beam="2">  1        4 0.12478659E-01 0.12499799E+03</pdfrwt>
<pdfrwt beam="1">  1       -4 0.74088603E-02 0.12499799E+03</pdfrwt>
<totfact> 0.10360643E+04</totfact>
</mgrwt>
</event>
<event>
 5    1  0.3234540E-002  0.1250008E+03  0.7818608E-02  0.1235068E+00
         -4   -1    0    0    0  501 -0.00000000000E+00  0.00000000000E+00  0.89966234079E+02  0.89975197551E+02  0.12700000000E+01 0. -1.
          4   -1    0    0  501    0  0.00000000000E+00 -0.00000000000E+00 -0.43399194042E+02  0.43417772208E+02  0.12700000000E+01 0. -1.
         25    2    1    2    0    0  0.00000000000E+00  0.00000000000E+00  0.46567040037E+02  0.13339296976E+03  0.12500078065E+03 0.  0.
    9000005    1    3    3    0    0  0.45059217503E+02  0.87861476057E+01  0.68530250059E+02  0.82491967154E+02  0.10000000000E+01 0.  0.
    9000005    1    3    3    0    0 -0.45059217503E+02 -0.87861476057E+01 -0.21963210022E+02  0.50901002605E+02  0.10000000000E+01 0.  0.
<mgrwt>
<rscale>  0 0.12500078E+03</rscale>
<asrwt>0</asrwt>
<pdfrwt beam="2">  1        4 0.66789178E-02 0.12500078E+03</pdfrwt>
<pdfrwt beam="1">  1       -4 0.13843077E-01 0.12500078E+03</pdfrwt>
<totfact> 0.10271874E+04</totfact>
</mgrwt>
</event>
<event>
 5    1  0.3234540E-002  0.1249969E+03  0.7818608E-02  0.1235074E+00
         -4   -1    0    0    0  501 -0.00000000000E+00  0.00000000000E+00  0.51802304598E+03  0.51802460276E+03  0.12700000000E+01 0.  1.
          4   -1    0    0  501    0  0.00000000000E+00 -0.00000000000E+00 -0.74852545315E+01  0.75922286188E+01  0.12700000000E+01 0.  1.
         25    2    1    2    0    0  0.00000000000E+00  0.00000000000E+00  0.51053779145E+03  0.52561683138E+03  0.12499686769E+03 0.  0.
    9000005    1    3    3    0    0  0.26301687867E+02 -0.46660262794E+02  0.11991523979E+03  0.13133782259E+03  0.10000000000E+01 0.  0.
    9000005    1    3    3    0    0 -0.26301687867E+02  0.46660262794E+02  0.39062255166E+03  0.39427900879E+03  0.10000000000E+01 0.  0.
<mgrwt>
<rscale>  0 0.12499687E+03</rscale>
<asrwt>0</asrwt>
<pdfrwt beam="2">  1        4 0.11599264E-02 0.12499687E+03</pdfrwt>
<pdfrwt beam="1">  1       -4 0.79704181E-01 0.12499687E+03</pdfrwt>
<totfact> 0.53933909E+03</totfact>
</mgrwt>
</event>
<event>
 5    1  0.3234540E-002  0.1249998E+03  0.7818608E-02  0.1235070E+00
          4   -1    0    0  501    0  0.00000000000E+00  0.00000000000E+00  0.33914058304E+01  0.36213993851E+01  0.12700000000E+01 0.  1.
         -4   -1    0    0    0  501 -0.00000000000E+00 -0.00000000000E+00 -0.11137998658E+04  0.11138005898E+04  0.12700000000E+01 0.  1.
         25    2    1    2    0    0  0.00000000000E+00  0.00000000000E+00 -0.11104084599E+04  0.11174219892E+04  0.12499981624E+03 0.  0.
    9000005    1    3    3    0    0  0.23295708533E+01 -0.47455993937E+02 -0.19233326919E+03  0.19811760321E+03  0.10000000000E+01 0.  0.
    9000005    1    3    3    0    0 -0.23295708533E+01  0.47455993937E+02 -0.91807519075E+03  0.91930438601E+03  0.10000000000E+01 0.  0.
<mgrwt>
<rscale>  0 0.12499982E+03</rscale>
<asrwt>0</asrwt>
<pdfrwt beam="1">  1        4 0.53950314E-03 0.12499982E+03</pdfrwt>
<pdfrwt beam="2">  1       -4 0.17137129E+00 0.12499982E+03</pdfrwt>
<totfact> 0.26979179E+03</totfact>
</mgrwt>
</event>
<event>
 5    1  0.3234540E-002  0.1249992E+03  0.7818608E-02  0.1235071E+00
          4   -1    0    0  501    0  0.00000000000E+00  0.00000000000E+00  0.25113003110E+03  0.25113324236E+03  0.12700000000E+01 0.  1.
         -4   -1    0    0    0  501 -0.00000000000E+00 -0.00000000000E+00 -0.15525239989E+02  0.15577097827E+02  0.12700000000E+01 0.  1.
         25    2    1    2    0    0  0.00000000000E+00  0.00000000000E+00  0.23560479111E+03  0.26671034019E+03  0.12499915188E+03 0.  0.
    9000005    1    3    3    0    0  0.53078346516E+02  0.29903232650E+02  0.14749705271E+03  0.15958663713E+03  0.10000000000E+01 0.  0.
    9000005    1    3    3    0    0 -0.53078346516E+02 -0.29903232650E+02  0.88107738401E+02  0.10712370306E+03  0.10000000000E+01 0.  0.
<mgrwt>
<rscale>  0 0.12499915E+03</rscale>
<asrwt>0</asrwt>
<pdfrwt beam="1">  1        4 0.38639627E-01 0.12499915E+03</pdfrwt>
<pdfrwt beam="2">  1       -4 0.23927345E-02 0.12499915E+03</pdfrwt>
<totfact> 0.79974993E+03</totfact>
</mgrwt>
</event>
<event>
 5    1  0.3234540E-002  0.1249949E+03  0.7818608E-02  0.1235077E+00
         -4   -1    0    0    0  501 -0.00000000000E+00  0.00000000000E+00  0.15667495190E+03  0.15668009909E+03  0.12700000000E+01 0. -1.
          4   -1    0    0  501    0  0.00000000000E+00 -0.00000000000E+00 -0.24908437294E+02  0.24940792859E+02  0.12700000000E+01 0. -1.
         25    2    1    2    0    0  0.00000000000E+00  0.00000000000E+00  0.13176651460E+03  0.18162089195E+03  0.12499493599E+03 0.  0.
    9000005    1    3    3    0    0  0.52552697664E+02 -0.28857457262E+02  0.91482698678E+02  0.10938291927E+03  0.10000000000E+01 0.  0.
    9000005    1    3    3    0    0 -0.52552697664E+02  0.28857457262E+02  0.40283815926E+02  0.72237972680E+02  0.10000000000E+01 0.  0.
<mgrwt>
<rscale>  0 0.12499494E+03</rscale>
<asrwt>0</asrwt>
<pdfrwt beam="2">  1        4 0.38349521E-02 0.12499494E+03</pdfrwt>
<pdfrwt beam="1">  1       -4 0.24106724E-01 0.12499494E+03</pdfrwt>
<totfact> 0.93336644E+03</totfact>
</mgrwt>
</event>
<event>
 5    1  0.3234540E-002  0.1250006E+03  0.7818608E-02  0.1235068E+00
          4   -1    0    0  501    0  0.00000000000E+00  0.00000000000E+00  0.15388912799E+02  0.15441228485E+02  0.12700000000E+01 0. -1.
         -4   -1    0    0    0  501 -0.00000000000E+00 -0.00000000000E+00 -0.25335320577E+03  0.25335638886E+03  0.12700000000E+01 0. -1.
         25    2    1    2    0    0  0.00000000000E+00  0.00000000000E+00 -0.23796429298E+03  0.26879761735E+03  0.12500061744E+03 0.  0.
    9000005    1    3    3    0    0 -0.47678568741E+02 -0.39400689262E+02 -0.13817091650E+03  0.15138646702E+03  0.10000000000E+01 0.  0.
    9000005    1    3    3    0    0  0.47678568741E+02  0.39400689262E+02 -0.99793376474E+02  0.11741115032E+03  0.10000000000E+01 0.  0.
<mgrwt>
<rscale>  0 0.12500062E+03</rscale>
<asrwt>0</asrwt>
<pdfrwt beam="1">  1        4 0.23717944E-02 0.12500062E+03</pdfrwt>
<pdfrwt beam="2">  1       -4 0.38981682E-01 0.12500062E+03</pdfrwt>
<totfact> 0.79685983E+03</totfact>
</mgrwt>
</event>
<event>
 5    1  0.3234540E-002  0.1250001E+03  0.7818608E-02  0.1235069E+00
         -4   -1    0    0    0  501 -0.00000000000E+00  0.00000000000E+00  0.27921542241E+02  0.27950410035E+02  0.12700000000E+01 0. -1.
          4   -1    0    0  501    0  0.00000000000E+00 -0.00000000000E+00 -0.13979710788E+03  0.13980287648E+03  0.12700000000E+01 0. -1.
         25    2    1    2    0    0  0.00000000000E+00  0.00000000000E+00 -0.11187556564E+03  0.16775328652E+03  0.12500009180E+03 0.  0.
    9000005    1    3    3    0    0  0.40416460310E+02 -0.46791908352E+02 -0.68111275520E+02  0.91995210768E+02  0.10000000000E+01 0.  0.
    9000005    1    3    3    0    0 -0.40416460310E+02  0.46791908352E+02 -0.43764290123E+02  0.75758075749E+02  0.10000000000E+01 0.  0.
<mgrwt>
<rscale>  0 0.12500009E+03</rscale>
<asrwt>0</asrwt>
<pdfrwt beam="2">  1        4 0.21509911E-01 0.12500009E+03</pdfrwt>
<pdfrwt beam="1">  1       -4 0.42982863E-02 0.12500009E+03</pdfrwt>
<totfact> 0.95868292E+03</totfact>
</mgrwt>
</event>
<event>
 5    1  0.3234540E-002  0.1249991E+03  0.7818608E-02  0.1235071E+00
          4   -1    0    0  501    0  0.00000000000E+00  0.00000000000E+00  0.68975286998E+02  0.68986977876E+02  0.12700000000E+01 0.  1.
         -4   -1    0    0    0  501 -0.00000000000E+00 -0.00000000000E+00 -0.56608169915E+02  0.56622414300E+02  0.12700000000E+01 0.  1.
         25    2    1    2    0    0  0.00000000000E+00  0.00000000000E+00  0.12367117083E+02  0.12560939218E+03  0.12499909527E+03 0.  0.
    9000005    1    3    3    0    0  0.32172056974E+02  0.27335366575E+02 -0.40116663664E+02  0.58246117632E+02  0.10000000000E+01 0.  0.
    9000005    1    3    3    0    0 -0.32172056974E+02 -0.27335366575E+02  0.52483780747E+02  0.67363274544E+02  0.10000000000E+01 0.  0.
<mgrwt>
<rscale>  0 0.12499910E+03</rscale>
<asrwt>0</asrwt>
<pdfrwt beam="1">  1        4 0.10613578E-01 0.12499910E+03</pdfrwt>
<pdfrwt beam="2">  1       -4 0.87109442E-02 0.12499910E+03</pdfrwt>
<totfact> 0.10439753E+04</totfact>
</mgrwt>
</event>
<event>
 5    1  0.3234540E-002  0.1249999E+03  0.7818608E-02  0.1235070E+00
          4   -1    0    0  501    0  0.00000000000E+00  0.00000000000E+00  0.62090169151E+02  0.62103156161E+02  0.12700000000E+01 0.  1.
         -4   -1    0    0    0  501 -0.00000000000E+00 -0.00000000000E+00 -0.62886415577E+02  0.62899238184E+02  0.12700000000E+01 0.  1.
         25    2    1    2    0    0  0.00000000000E+00  0.00000000000E+00 -0.79624642554E+00  0.12500239435E+03  0.12499985833E+03 0.  0.
    9000005    1    3    3    0    0 -0.30757061972E+02 -0.13685649991E+02  0.52252230493E+02  0.62165822349E+02  0.10000000000E+01 0.  0.
    9000005    1    3    3    0    0  0.30757061972E+02  0.13685649991E+02 -0.53048476919E+02  0.62836571996E+02  0.10000000000E+01 0.  0.
<mgrwt>
<rscale>  0 0.12499986E+03</rscale>
<asrwt>0</asrwt>
<pdfrwt beam="1">  1        4 0.95543190E-02 0.12499986E+03</pdfrwt>
<pdfrwt beam="2">  1       -4 0.96768186E-02 0.12499986E+03</pdfrwt>
<totfact> 0.10452844E+04</totfact>
</mgrwt>
</event>
<event>
 5    1  0.3234540E-002  0.1249993E+03  0.7818608E-02  0.1235070E+00
          4   -1    0    0  501    0  0.00000000000E+00  0.00000000000E+00  0.21191287447E+02  0.21229309072E+02  0.12700000000E+01 0.  1.
         -4   -1    0    0    0  501 -0.00000000000E+00 -0.00000000000E+00 -0.18412522172E+03  0.18412960157E+03  0.12700000000E+01 0.  1.
         25    2    1    2    0    0  0.00000000000E+00  0.00000000000E+00 -0.16293393427E+03  0.20535891064E+03  0.12499926096E+03 0.  0.
    9000005    1    3    3    0    0  0.60813774230E+01 -0.15314144794E+02 -0.18050009574E+03  0.18125338823E+03  0.10000000000E+01 0.  0.
    9000005    1    3    3    0    0 -0.60813774230E+01  0.15314144794E+02  0.17566161466E+02  0.24105522412E+02  0.10000000000E+01 0.  0.
<mgrwt>
<rscale>  0 0.12499926E+03</rscale>
<asrwt>0</asrwt>
<pdfrwt beam="1">  1        4 0.32634598E-02 0.12499926E+03</pdfrwt>
<pdfrwt beam="2">  1       -4 0.28330218E-01 0.12499926E+03</pdfrwt>
<totfact> 0.89240961E+03</totfact>
</mgrwt>
</event>
<event>
 5    1  0.3234540E-002  0.1250005E+03  0.7818608E-02  0.1235068E+00
          4   -1    0    0  501    0  0.00000000000E+00  0.00000000000E+00  0.58129467232E+03  0.58129605965E+03  0.12700000000E+01 0. -1.
         -4   -1    0    0    0  501 -0.00000000000E+00 -0.00000000000E+00 -0.66585580949E+01  0.67785909969E+01  0.12700000000E+01 0. -1.
         25    2    1    2    0    0  0.00000000000E+00  0.00000000000E+00  0.57463611422E+03  0.58807465065E+03  0.12500052386E+03 0.  0.
    9000005    1    3    3    0    0  0.51069995742E+02 -0.28172253733E+02  0.18175689924E+03  0.19088842492E+03  0.10000000000E+01 0.  0.
    9000005    1    3    3    0    0 -0.51069995742E+02  0.28172253733E+02  0.39287921498E+03  0.39718622573E+03  0.10000000000E+01 0.  0.
<mgrwt>
<rscale>  0 0.12500052E+03</rscale>
<asrwt>0</asrwt>
<pdfrwt beam="1">  1        4 0.89439344E-01 0.12500052E+03</pdfrwt>
<pdfrwt beam="2">  1       -4 0.10337329E-02 0.12500052E+03</pdfrwt>
<totfact> 0.49628537E+03</totfact>
</mgrwt>
</event>
<event>
 5    1  0.3234540E-002  0.1249965E+03  0.7818608E-02  0.1235075E+00
          4   -1    0    0  501    0  0.00000000000E+00  0.00000000000E+00  0.41585926237E+02  0.41605314096E+02  0.12700000000E+01 0. -1.
         -4   -1    0    0    0  501 -0.00000000000E+00 -0.00000000000E+00 -0.93881243085E+02  0.93889832800E+02  0.12700000000E+01 0. -1.
         25    2    1    2    0    0  0.00000000000E+00  0.00000000000E+00 -0.52295316848E+02  0.13549514690E+03  0.12499653862E+03 0.  0.
    9000005    1    3    3    0    0  0.53112138745E+02  0.17454058017E+02 -0.56411990613E+02  0.79428307978E+02  0.10000000000E+01 0.  0.
    9000005    1    3    3    0    0 -0.53112138745E+02 -0.17454058017E+02  0.41166737648E+01  0.56066838918E+02  0.10000000000E+01 0.  0.
<mgrwt>
<rscale>  0 0.12499654E+03</rscale>
<asrwt>0</asrwt>
<pdfrwt beam="1">  1        4 0.63999869E-02 0.12499654E+03</pdfrwt>
<pdfrwt beam="2">  1       -4 0.14445420E-01 0.12499654E+03</pdfrwt>
<totfact> 0.10228443E+04</totfact>
</mgrwt>
</event>
<event>
 5    1  0.3234540E-002  0.1249988E+03  0.7818608E-02  0.1235071E+00
         -4   -1    0    0    0  501 -0.00000000000E+00  0.00000000000E+00  0.20871683519E+03  0.20872069900E+03  0.12700000000E+01 0. -1.
          4   -1    0    0  501    0  0.00000000000E+00 -0.00000000000E+00 -0.18689607284E+02  0.18732707238E+02  0.12700000000E+01 0. -1.
         25    2    1    2    0    0  0.00000000000E+00  0.00000000000E+00  0.19002722790E+03  0.22745340624E+03  0.12499881865E+03 0.  0.
    9000005    1    3    3    0    0  0.18435877163E+02  0.52886529612E+02  0.44575985044E+02  0.71588302283E+02  0.10000000000E+01 0.  0.
    9000005    1    3    3    0    0 -0.18435877163E+02 -0.52886529612E+02  0.14545124286E+03  0.15586510395E+03  0.10000000000E+01 0.  0.
<mgrwt>
<rscale>  0 0.12499882E+03</rscale>
<asrwt>0</asrwt>
<pdfrwt beam="2">  1        4 0.28789368E-02 0.12499882E+03</pdfrwt>
<pdfrwt beam="1">  1       -4 0.32113895E-01 0.12499882E+03</pdfrwt>
<totfact> 0.85704428E+03</totfact>
</mgrwt>
</event>
<event>
 5    1  0.3234540E-002  0.1250022E+03  0.7818608E-02  0.1235066E+00
         -4   -1    0    0    0  501 -0.00000000000E+00  0.00000000000E+00  0.18118962177E+03  0.18119407258E+03  0.12700000000E+01 0.  1.
          4   -1    0    0  501    0  0.00000000000E+00 -0.00000000000E+00 -0.21536253854E+02  0.21573667515E+02  0.12700000000E+01 0.  1.
         25    2    1    2    0    0  0.00000000000E+00  0.00000000000E+00  0.15965336792E+03  0.20276774009E+03  0.12500223412E+03 0.  0.
    9000005    1    3    3    0    0 -0.20172352650E+02  0.57267680356E+02  0.10382510927E+03  0.12027952585E+03  0.10000000000E+01 0.  0.
    9000005    1    3    3    0    0  0.20172352650E+02 -0.57267680356E+02  0.55828258650E+02  0.82488214241E+02  0.10000000000E+01 0.  0.
<mgrwt>
<rscale>  0 0.12500223E+03</rscale>
<asrwt>0</asrwt>
<pdfrwt beam="2">  1        4 0.33164904E-02 0.12500223E+03</pdfrwt>
<pdfrwt beam="1">  1       -4 0.27878545E-01 0.12500223E+03</pdfrwt>
<totfact> 0.89666315E+03</totfact>
</mgrwt>
</event>
<event>
 5    1  0.3234540E-002  0.1250008E+03  0.7818608E-02  0.1235068E+00
          4   -1    0    0  501    0  0.00000000000E+00  0.00000000000E+00  0.41504643522E+02  0.41524069332E+02  0.12700000000E+01 0.  1.
         -4   -1    0    0    0  501 -0.00000000000E+00 -0.00000000000E+00 -0.94071497482E+02  0.94080069826E+02  0.12700000000E+01 0.  1.
         25    2    1    2    0    0  0.00000000000E+00  0.00000000000E+00 -0.52566853960E+02  0.13560413916E+03  0.12500083368E+03 0.  0.
    9000005    1    3    3    0    0 -0.30458141308E+02  0.12870752525E+02  0.31242501592E+02  0.45502181796E+02  0.10000000000E+01 0.  0.
    9000005    1    3    3    0    0  0.30458141308E+02 -0.12870752525E+02 -0.83809355552E+02  0.90101957362E+02  0.10000000000E+01 0.  0.
<mgrwt>
<rscale>  0 0.12500083E+03</rscale>
<asrwt>0</asrwt>
<pdfrwt beam="1">  1        4 0.63874835E-02 0.12500083E+03</pdfrwt>
<pdfrwt beam="2">  1       -4 0.14474692E-01 0.12500083E+03</pdfrwt>
<totfact> 0.10225161E+04</totfact>
</mgrwt>
</event>
<event>
 5    1  0.3234540E-002  0.1249961E+03  0.7818608E-02  0.1235075E+00
         -4   -1    0    0    0  501 -0.00000000000E+00  0.00000000000E+00  0.67472827835E+01  0.68657647033E+01  0.12700000000E+01 0.  1.
          4   -1    0    0  501    0  0.00000000000E+00 -0.00000000000E+00 -0.57374255117E+03  0.57374395677E+03  0.12700000000E+01 0.  1.
         25    2    1    2    0    0  0.00000000000E+00  0.00000000000E+00 -0.56699526839E+03  0.58060972147E+03  0.12499605710E+03 0.  0.
    9000005    1    3    3    0    0 -0.15286515810E+01  0.61810931058E+02 -0.32557950304E+03  0.33139997099E+03  0.10000000000E+01 0.  0.
    9000005    1    3    3    0    0  0.15286515810E+01 -0.61810931058E+02 -0.24141576535E+03  0.24920975048E+03  0.10000000000E+01 0.  0.
<mgrwt>
<rscale>  0 0.12499606E+03</rscale>
<asrwt>0</asrwt>
<pdfrwt beam="2">  1        4 0.88277269E-01 0.12499606E+03</pdfrwt>
<pdfrwt beam="1">  1       -4 0.10472661E-02 0.12499606E+03</pdfrwt>
<totfact> 0.50119262E+03</totfact>
</mgrwt>
</event>
<event>
 5    1  0.3234540E-002  0.1249894E+03  0.7818608E-02  0.1235086E+00
         -4   -1    0    0    0  501 -0.00000000000E+00  0.00000000000E+00  0.13416897298E+01  0.18474391278E+01  0.12700000000E+01 0.  1.
          4   -1    0    0  501    0  0.00000000000E+00 -0.00000000000E+00 -0.24488085455E+04  0.24488088748E+04  0.12700000000E+01 0.  1.
         25    2    1    2    0    0  0.00000000000E+00  0.00000000000E+00 -0.24474668558E+04  0.24506563140E+04  0.12498943561E+03 0.  0.
    9000005    1    3    3    0    0  0.35239565988E+02 -0.48122391813E+02 -0.85849818209E+03  0.86056825427E+03  0.10000000000E+01 0.  0.
    9000005    1    3    3    0    0 -0.35239565988E+02  0.48122391813E+02 -0.15889686737E+04  0.15900880597E+04  0.10000000000E+01 0.  0.
<mgrwt>
<rscale>  0 0.12498944E+03</rscale>
<asrwt>0</asrwt>
<pdfrwt beam="2">  1        4 0.37677570E+00 0.12498944E+03</pdfrwt>
<pdfrwt beam="1">  1       -4 0.24534490E-03 0.12498944E+03</pdfrwt>
<totfact> 0.50700654E+02</totfact>
</mgrwt>
</event>
<event>
 5    1  0.3234540E-002  0.1249914E+03  0.7818608E-02  0.1235083E+00
         -4   -1    0    0    0  501 -0.00000000000E+00  0.00000000000E+00  0.85823093916E+01  0.86757670839E+01  0.12700000000E+01 0. -1.
          4   -1    0    0  501    0  0.00000000000E+00 -0.00000000000E+00 -0.45252992540E+03  0.45253170749E+03  0.12700000000E+01 0. -1.
         25    2    1    2    0    0  0.00000000000E+00  0.00000000000E+00 -0.44394761601E+03  0.46120747458E+03  0.12499139507E+03 0.  0.
    9000005    1    3    3    0    0 -0.46582629338E+02  0.41331818006E+02 -0.20299614158E+03  0.21233627583E+03  0.10000000000E+01 0.  0.
    9000005    1    3    3    0    0  0.46582629338E+02 -0.41331818006E+02 -0.24095147443E+03  0.24887119875E+03  0.10000000000E+01 0.  0.
<mgrwt>
<rscale>  0 0.12499140E+03</rscale>
<asrwt>0</asrwt>
<pdfrwt beam="2">  1        4 0.69627296E-01 0.12499140E+03</pdfrwt>
<pdfrwt beam="1">  1       -4 0.13276818E-02 0.12499140E+03</pdfrwt>
<totfact> 0.59016230E+03</totfact>
</mgrwt>
</event>
<event>
 5    1  0.3234540E-002  0.1249922E+03  0.7818608E-02  0.1235081E+00
         -4   -1    0    0    0  501 -0.00000000000E+00  0.00000000000E+00  0.17209762831E+03  0.17210231425E+03  0.12700000000E+01 0. -1.
          4   -1    0    0  501    0  0.00000000000E+00 -0.00000000000E+00 -0.22672275046E+02  0.22707817063E+02  0.12700000000E+01 0. -1.
         25    2    1    2    0    0  0.00000000000E+00  0.00000000000E+00  0.14942535327E+03  0.19481013132E+03  0.12499220401E+03 0.  0.
    9000005    1    3    3    0    0  0.44822666716E+02  0.25278615037E+02  0.19461507533E+02  0.55025722214E+02  0.10000000000E+01 0.  0.
    9000005    1    3    3    0    0 -0.44822666716E+02 -0.25278615037E+02  0.12996384573E+03  0.13978440910E+03  0.10000000000E+01 0.  0.
<mgrwt>
<rscale>  0 0.12499220E+03</rscale>
<asrwt>0</asrwt>
<pdfrwt beam="2">  1        4 0.34911367E-02 0.12499220E+03</pdfrwt>
<pdfrwt beam="1">  1       -4 0.26479653E-01 0.12499220E+03</pdfrwt>
<totfact> 0.91032926E+03</totfact>
</mgrwt>
</event>
<event>
 5    1  0.3234540E-002  0.1250003E+03  0.7818608E-02  0.1235069E+00
         -4   -1    0    0    0  501 -0.00000000000E+00  0.00000000000E+00  0.13994479890E+02  0.14051988023E+02  0.12700000000E+01 0. -1.
          4   -1    0    0  501    0  0.00000000000E+00 -0.00000000000E+00 -0.27849795232E+03  0.27850084802E+03  0.12700000000E+01 0. -1.
         25    2    1    2    0    0  0.00000000000E+00  0.00000000000E+00 -0.26450347243E+03  0.29255283604E+03  0.12500029979E+03 0.  0.
    9000005    1    3    3    0    0 -0.68492244419E+01  0.52889491816E+02 -0.56015240409E+02  0.77349320476E+02  0.10000000000E+01 0.  0.
    9000005    1    3    3    0    0  0.68492244419E+01 -0.52889491816E+02 -0.20848823202E+03  0.21520351557E+03  0.10000000000E+01 0.  0.
<mgrwt>
<rscale>  0 0.12500030E+03</rscale>
<asrwt>0</asrwt>
<pdfrwt beam="2">  1        4 0.42850481E-01 0.12500030E+03</pdfrwt>
<pdfrwt beam="1">  1       -4 0.21576436E-02 0.12500030E+03</pdfrwt>
<totfact> 0.76542087E+03</totfact>
</mgrwt>
</event>
<event>
 5    1  0.3234540E-002  0.1250058E+03  0.7818608E-02  0.1235060E+00
         -4   -1    0    0    0  501 -0.00000000000E+00  0.00000000000E+00  0.24688219908E+01  0.27763252731E+01  0.12700000000E+01 0. -1.
          4   -1    0    0  501    0  0.00000000000E+00 -0.00000000000E+00 -0.14893035470E+04  0.14893040885E+04  0.12700000000E+01 0. -1.
         25    2    1    2    0    0  0.00000000000E+00  0.00000000000E+00 -0.14868347251E+04  0.14920804138E+04  0.12500584649E+03 0.  0.
    9000005    1    3    3    0    0  0.59562602741E+02 -0.12806885186E+02 -0.57721173476E+03  0.58041890622E+03  0.10000000000E+01 0.  0.
    9000005    1    3    3    0    0 -0.59562602741E+02  0.12806885186E+02 -0.90962299029E+03  0.91166150759E+03  0.10000000000E+01 0.  0.
<mgrwt>
<rscale>  0 0.12500585E+03</rscale>
<asrwt>0</asrwt>
<pdfrwt beam="2">  1        4 0.22914664E+00 0.12500585E+03</pdfrwt>
<pdfrwt beam="1">  1       -4 0.40351571E-03 0.12500585E+03</pdfrwt>
<totfact> 0.18084463E+03</totfact>
</mgrwt>
</event>
<event>
 5    1  0.3234540E-002  0.1249998E+03  0.7818608E-02  0.1235070E+00
         -4   -1    0    0    0  501 -0.00000000000E+00  0.00000000000E+00  0.10628160415E+03  0.10628919174E+03  0.12700000000E+01 0. -1.
          4   -1    0    0  501    0  0.00000000000E+00 -0.00000000000E+00 -0.36733765599E+02  0.36755712959E+02  0.12700000000E+01 0. -1.
         25    2    1    2    0    0  0.00000000000E+00  0.00000000000E+00  0.69547838555E+02  0.14304490470E+03  0.12499977165E+03 0.  0.
    9000005    1    3    3    0    0 -0.48601965462E+02 -0.38296938081E+02  0.24769477216E+02  0.66658334173E+02  0.10000000000E+01 0.  0.
    9000005    1    3    3    0    0  0.48601965462E+02  0.38296938081E+02  0.44778361339E+02  0.76386570530E+02  0.10000000000E+01 0.  0.
<mgrwt>
<rscale>  0 0.12499977E+03</rscale>
<asrwt>0</asrwt>
<pdfrwt beam="2">  1        4 0.56536205E-02 0.12499977E+03</pdfrwt>
<pdfrwt beam="1">  1       -4 0.16353288E-01 0.12499977E+03</pdfrwt>
<totfact> 0.10070916E+04</totfact>
</mgrwt>
</event>
<event>
 5    1  0.3234540E-002  0.1250036E+03  0.7818608E-02  0.1235064E+00
         -4   -1    0    0    0  501 -0.00000000000E+00  0.00000000000E+00  0.39944704544E+01  0.41915026197E+01  0.12700000000E+01 0. -1.
          4   -1    0    0  501    0  0.00000000000E+00 -0.00000000000E+00 -0.95423460433E+03  0.95423544946E+03  0.12700000000E+01 0. -1.
         25    2    1    2    0    0  0.00000000000E+00  0.00000000000E+00 -0.95024013388E+03  0.95842695208E+03  0.12500364171E+03 0.  0.
    9000005    1    3    3    0    0 -0.13742624194E+01 -0.19453196694E+02 -0.93034485454E+03  0.93054976430E+03  0.10000000000E+01 0.  0.
    9000005    1    3    3    0    0  0.13742624194E+01  0.19453196694E+02 -0.19895279335E+02  0.27877187782E+02  0.10000000000E+01 0.  0.
<mgrwt>
<rscale>  0 0.12500364E+03</rscale>
<asrwt>0</asrwt>
<pdfrwt beam="2">  1        4 0.14682037E+00 0.12500364E+03</pdfrwt>
<pdfrwt beam="1">  1       -4 0.62975600E-03 0.12500364E+03</pdfrwt>
<totfact> 0.32016152E+03</totfact>
</mgrwt>
</event>
<event>
 4    1  0.3234540E-002  0.1245198E+03  0.7818608E-02  0.1235822E+00
          4   -1    0    0  501    0  0.00000000000E+00  0.00000000000E+00  0.45105051565E+03  0.45105230358E+03  0.12700000000E+01 0. -1.
         -4   -1    0    0    0  501 -0.00000000000E+00 -0.00000000000E+00 -0.85451989252E+01  0.86390580894E+01  0.12700000000E+01 0. -1.
    9000005    1    1    2    0    0 -0.20934796470E+02 -0.46847073761E+02  0.91129166475E+02  0.10458699253E+03  0.10000000000E+01 0.  0.
    9000005    1    1    2    0    0  0.20934796470E+02  0.46847073761E+02  0.35137615025E+03  0.35510436915E+03  0.10000000000E+01 0.  0.
<mgrwt>
<rscale>  0 0.12451985E+03</rscale>
<asrwt>0</asrwt>
<pdfrwt beam="1">  1        4 0.69399768E-01 0.12451985E+03</pdfrwt>
<pdfrwt beam="2">  1       -4 0.13220030E-02 0.12451985E+03</pdfrwt>
<totfact> 0.59762898E+03</totfact>
</mgrwt>
</event>
<event>
 5    1  0.3234540E-002  0.1249579E+03  0.7818608E-02  0.1235135E+00
          4   -1    0    0  501    0  0.00000000000E+00  0.00000000000E+00  0.58712490198E+02  0.58726224169E+02  0.12700000000E+01 0. -1.
         -4   -1    0    0    0  501 -0.00000000000E+00 -0.00000000000E+00 -0.66459406100E+02  0.66471539468E+02  0.12700000000E+01 0. -1.
         25    2    1    2    0    0  0.00000000000E+00  0.00000000000E+00 -0.77469159026E+01  0.12519776364E+03  0.12495785415E+03 0.  0.
    9000005    1    3    3    0    0 -0.58748204472E+02 -0.18250049013E+02  0.70194212972E+01  0.61924858441E+02  0.10000000000E+01 0.  0.
    9000005    1    3    3    0    0  0.58748204472E+02  0.18250049013E+02 -0.14766337200E+02  0.63272905196E+02  0.10000000000E+01 0.  0.
<mgrwt>
<rscale>  0 0.12495785E+03</rscale>
<asrwt>0</asrwt>
<pdfrwt beam="1">  1        4 0.90346806E-02 0.12495785E+03</pdfrwt>
<pdfrwt beam="2">  1       -4 0.10226514E-01 0.12495785E+03</pdfrwt>
<totfact> 0.10458527E+04</totfact>
</mgrwt>
</event>
<event>
 5    1  0.3234540E-002  0.1249939E+03  0.7818608E-02  0.1235079E+00
         -4   -1    0    0    0  501 -0.00000000000E+00  0.00000000000E+00  0.54739808446E+03  0.54739955771E+03  0.12700000000E+01 0.  1.
          4   -1    0    0  501    0  0.00000000000E+00 -0.00000000000E+00 -0.70773306164E+01  0.71903761135E+01  0.12700000000E+01 0.  1.
         25    2    1    2    0    0  0.00000000000E+00  0.00000000000E+00  0.54032075385E+03  0.55458993382E+03  0.12499391047E+03 0.  0.
    9000005    1    3    3    0    0 -0.34326492912E+02  0.23855131684E+02  0.64069899841E+02  0.76507042087E+02  0.10000000000E+01 0.  0.
    9000005    1    3    3    0    0  0.34326492912E+02 -0.23855131684E+02  0.47625085401E+03  0.47808289173E+03  0.10000000000E+01 0.  0.
<mgrwt>
<rscale>  0 0.12499391E+03</rscale>
<asrwt>0</asrwt>
<pdfrwt beam="2">  1        4 0.10976292E-02 0.12499391E+03</pdfrwt>
<pdfrwt beam="1">  1       -4 0.84223898E-01 0.12499391E+03</pdfrwt>
<totfact> 0.51872433E+03</totfact>
</mgrwt>
</event>
<event>
 5    1  0.3234540E-002  0.1250002E+03  0.7818608E-02  0.1235069E+00
         -4   -1    0    0    0  501 -0.00000000000E+00  0.00000000000E+00  0.10989789078E+03  0.10990522871E+03  0.12700000000E+01 0.  1.
          4   -1    0    0  501    0  0.00000000000E+00 -0.00000000000E+00 -0.35524595066E+02  0.35547288991E+02  0.12700000000E+01 0.  1.
         25    2    1    2    0    0  0.00000000000E+00  0.00000000000E+00  0.74373295712E+02  0.14545251770E+03  0.12500019116E+03 0.  0.
    9000005    1    3    3    0    0 -0.60924952213E+02  0.66533673553E+01  0.22975973285E+02  0.65460006475E+02  0.10000000000E+01 0.  0.
    9000005    1    3    3    0    0  0.60924952213E+02 -0.66533673553E+01  0.51397322427E+02  0.79992511224E+02  0.10000000000E+01 0.  0.
<mgrwt>
<rscale>  0 0.12500019E+03</rscale>
<asrwt>0</asrwt>
<pdfrwt beam="2">  1        4 0.54676325E-02 0.12500019E+03</pdfrwt>
<pdfrwt beam="1">  1       -4 0.16909678E-01 0.12500019E+03</pdfrwt>
<totfact> 0.10021759E+04</totfact>
</mgrwt>
</event>
<event>
 5    1  0.3234540E-002  0.1250040E+03  0.7818608E-02  0.1235063E+00
          4   -1    0    0  501    0  0.00000000000E+00  0.00000000000E+00  0.13582142007E+03  0.13582735751E+03  0.12700000000E+01 0. -1.
         -4   -1    0    0    0  501 -0.00000000000E+00 -0.00000000000E+00 -0.28741449508E+02  0.28769494604E+02  0.12700000000E+01 0. -1.
         25    2    1    2    0    0  0.00000000000E+00  0.00000000000E+00  0.10707997056E+03  0.16459685212E+03  0.12500401446E+03 0.  0.
    9000005    1    3    3    0    0 -0.43278359500E+02 -0.25266017080E+02  0.43760616102E+01  0.50314390937E+02  0.10000000000E+01 0.  0.
    9000005    1    3    3    0    0  0.43278359500E+02  0.25266017080E+02  0.10270390895E+03  0.11428246118E+03  0.10000000000E+01 0.  0.
<mgrwt>
<rscale>  0 0.12500401E+03</rscale>
<asrwt>0</asrwt>
<pdfrwt beam="1">  1        4 0.20898218E-01 0.12500401E+03</pdfrwt>
<pdfrwt beam="2">  1       -4 0.44243754E-02 0.12500401E+03</pdfrwt>
<totfact> 0.96455096E+03</totfact>
</mgrwt>
</event>
<event>
 5    1  0.3234540E-002  0.1249961E+03  0.7818608E-02  0.1235075E+00
          4   -1    0    0  501    0  0.00000000000E+00  0.00000000000E+00  0.66359235992E+03  0.66359357519E+03  0.12700000000E+01 0.  1.
         -4   -1    0    0    0  501 -0.00000000000E+00 -0.00000000000E+00 -0.58164135066E+01  0.59534499309E+01  0.12700000000E+01 0.  1.
         25    2    1    2    0    0  0.00000000000E+00  0.00000000000E+00  0.65777594641E+03  0.66954702512E+03  0.12499609265E+03 0.  0.
    9000005    1    3    3    0    0 -0.41171045488E+02  0.45813815065E+02  0.38533414058E+03  0.39022731905E+03  0.10000000000E+01 0.  0.
    9000005    1    3    3    0    0  0.41171045488E+02 -0.45813815065E+02  0.27244180583E+03  0.27931970607E+03  0.10000000000E+01 0.  0.
<mgrwt>
<rscale>  0 0.12499609E+03</rscale>
<asrwt>0</asrwt>
<pdfrwt beam="1">  1        4 0.10210177E+00 0.12499609E+03</pdfrwt>
<pdfrwt beam="2">  1       -4 0.90546756E-03 0.12499609E+03</pdfrwt>
<totfact> 0.44747557E+03</totfact>
</mgrwt>
</event>
<event>
 5    1  0.3234540E-002  0.1249967E+03  0.7818608E-02  0.1235074E+00
          4   -1    0    0  501    0  0.00000000000E+00  0.00000000000E+00  0.13198277165E+03  0.13198888178E+03  0.12700000000E+01 0. -1.
         -4   -1    0    0    0  501 -0.00000000000E+00 -0.00000000000E+00 -0.29574664382E+02  0.29601920095E+02  0.12700000000E+01 0. -1.
         25    2    1    2    0    0  0.00000000000E+00  0.00000000000E+00  0.10240810727E+03  0.16159080187E+03  0.12499666722E+03 0.  0.
    9000005    1    3    3    0    0 -0.61154955095E+02  0.61485264458E+01  0.36617677646E+02  0.71551290878E+02  0.10000000000E+01 0.  0.
    9000005    1    3    3    0    0  0.61154955095E+02 -0.61485264458E+01  0.65790429626E+02  0.90039510997E+02  0.10000000000E+01 0.  0.
<mgrwt>
<rscale>  0 0.12499667E+03</rscale>
<asrwt>0</asrwt>
<pdfrwt beam="1">  1        4 0.20307608E-01 0.12499667E+03</pdfrwt>
<pdfrwt beam="2">  1       -4 0.45525150E-02 0.12499667E+03</pdfrwt>
<totfact> 0.97044233E+03</totfact>
</mgrwt>
</event>
<event>
 5    1  0.3234540E-002  0.1249987E+03  0.7818608E-02  0.1235071E+00
         -4   -1    0    0    0  501 -0.00000000000E+00  0.00000000000E+00  0.95806327715E+01  0.96644412307E+01  0.12700000000E+01 0. -1.
          4   -1    0    0  501    0  0.00000000000E+00 -0.00000000000E+00 -0.40585475550E+03  0.40585674254E+03  0.12700000000E+01 0. -1.
         25    2    1    2    0    0  0.00000000000E+00  0.00000000000E+00 -0.39627412273E+03  0.41552118377E+03  0.12499869525E+03 0.  0.
    9000005    1    3    3    0    0 -0.28077005829E+02 -0.51616045344E+02 -0.26886016405E+03  0.27520778006E+03  0.10000000000E+01 0.  0.
    9000005    1    3    3    0    0  0.28077005829E+02  0.51616045344E+02 -0.12741395868E+03  0.14031340370E+03  0.10000000000E+01 0.  0.
<mgrwt>
<rscale>  0 0.12499870E+03</rscale>
<asrwt>0</asrwt>
<pdfrwt beam="2">  1        4 0.62445780E-01 0.12499870E+03</pdfrwt>
<pdfrwt beam="1">  1       -4 0.14805435E-02 0.12499870E+03</pdfrwt>
<totfact> 0.63072523E+03</totfact>
</mgrwt>
</event>
<event>
 5    1  0.3234540E-002  0.1250005E+03  0.7818608E-02  0.1235069E+00
          4   -1    0    0  501    0  0.00000000000E+00  0.00000000000E+00  0.13851410605E+02  0.13909510262E+02  0.12700000000E+01 0.  1.
         -4   -1    0    0    0  501 -0.00000000000E+00 -0.00000000000E+00 -0.28136329472E+03  0.28136616093E+03  0.12700000000E+01 0.  1.
         25    2    1    2    0    0  0.00000000000E+00  0.00000000000E+00 -0.26751188412E+03  0.29527567119E+03  0.12500045542E+03 0.  0.
    9000005    1    3    3    0    0  0.53797218245E+02 -0.31529457002E+02 -0.12400744653E+03  0.13880595861E+03  0.10000000000E+01 0.  0.
    9000005    1    3    3    0    0 -0.53797218245E+02  0.31529457002E+02 -0.14350443759E+03  0.15646971259E+03  0.10000000000E+01 0.  0.
<mgrwt>
<rscale>  0 0.12500046E+03</rscale>
<asrwt>0</asrwt>
<pdfrwt beam="1">  1        4 0.21356761E-02 0.12500046E+03</pdfrwt>
<pdfrwt beam="2">  1       -4 0.43291346E-01 0.12500046E+03</pdfrwt>
<totfact> 0.76194528E+03</totfact>
</mgrwt>
</event>
<event>
 5    1  0.3234540E-002  0.1250001E+03  0.7818608E-02  0.1235069E+00
          4   -1    0    0  501    0  0.00000000000E+00  0.00000000000E+00  0.26191399328E+02  0.26222171892E+02  0.12700000000E+01 0. -1.
         -4   -1    0    0    0  501 -0.00000000000E+00 -0.00000000000E+00 -0.14902158136E+03  0.14902699289E+03  0.12700000000E+01 0. -1.
         25    2    1    2    0    0  0.00000000000E+00  0.00000000000E+00 -0.12283018203E+03  0.17524916479E+03  0.12500006456E+03 0.  0.
    9000005    1    3    3    0    0  0.25196179210E+02  0.23525546207E+02 -0.13449314322E+03  0.13884417289E+03  0.10000000000E+01 0.  0.
    9000005    1    3    3    0    0 -0.25196179210E+02 -0.23525546207E+02  0.11662961193E+02  0.36404991896E+02  0.10000000000E+01 0.  0.
<mgrwt>
<rscale>  0 0.12500006E+03</rscale>
<asrwt>0</asrwt>
<pdfrwt beam="1">  1        4 0.40322295E-02 0.12500006E+03</pdfrwt>
<pdfrwt beam="2">  1       -4 0.22929180E-01 0.12500006E+03</pdfrwt>
<totfact> 0.94479090E+03</totfact>
</mgrwt>
</event>
<event>
 5    1  0.3234540E-002  0.1249989E+03  0.7818608E-02  0.1235071E+00
          4   -1    0    0  501    0  0.00000000000E+00  0.00000000000E+00  0.38048044466E+02  0.38069234136E+02  0.12700000000E+01 0. -1.
         -4   -1    0    0    0  501 -0.00000000000E+00 -0.00000000000E+00 -0.10261078394E+03  0.10261864294E+03  0.12700000000E+01 0. -1.
         25    2    1    2    0    0  0.00000000000E+00  0.00000000000E+00 -0.64562739469E+02  0.14068787708E+03  0.12499892571E+03 0.  0.
    9000005    1    3    3    0    0  0.26898741358E+02  0.46400539177E+02 -0.68379117163E+02  0.86909470063E+02  0.10000000000E+01 0.  0.
    9000005    1    3    3    0    0 -0.26898741358E+02 -0.46400539177E+02  0.38163776939E+01  0.53778407017E+02  0.10000000000E+01 0.  0.
<mgrwt>
<rscale>  0 0.12499893E+03</rscale>
<asrwt>0</asrwt>
<pdfrwt beam="1">  1        4 0.58557798E-02 0.12499893E+03</pdfrwt>
<pdfrwt beam="2">  1       -4 0.15788509E-01 0.12499893E+03</pdfrwt>
<totfact> 0.10119594E+04</totfact>
</mgrwt>
</event>
<event>
 5    1  0.3234540E-002  0.1249991E+03  0.7818608E-02  0.1235071E+00
          4   -1    0    0  501    0  0.00000000000E+00  0.00000000000E+00  0.42236237412E+01  0.44104305354E+01  0.12700000000E+01 0. -1.
         -4   -1    0    0    0  501 -0.00000000000E+00 -0.00000000000E+00 -0.90464739963E+03  0.90464829108E+03  0.12700000000E+01 0. -1.
         25    2    1    2    0    0  0.00000000000E+00  0.00000000000E+00 -0.90042377589E+03  0.90905872161E+03  0.12499913265E+03 0.  0.
    9000005    1    3    3    0    0  0.41310796821E+02 -0.16417251227E+02 -0.76963102086E+03  0.77091440273E+03  0.10000000000E+01 0.  0.
    9000005    1    3    3    0    0 -0.41310796821E+02  0.16417251227E+02 -0.13079275502E+03  0.13814431888E+03  0.10000000000E+01 0.  0.
<mgrwt>
<rscale>  0 0.12499913E+03</rscale>
<asrwt>0</asrwt>
<pdfrwt beam="1">  1        4 0.66422732E-03 0.12499913E+03</pdfrwt>
<pdfrwt beam="2">  1       -4 0.13919081E+00 0.12499913E+03</pdfrwt>
<totfact> 0.33816094E+03</totfact>
</mgrwt>
</event>
<event>
 5    1  0.3234540E-002  0.1250039E+03  0.7818608E-02  0.1235063E+00
         -4   -1    0    0    0  501 -0.00000000000E+00  0.00000000000E+00  0.42858870593E+02  0.42877682872E+02  0.12700000000E+01 0. -1.
          4   -1    0    0  501    0  0.00000000000E+00 -0.00000000000E+00 -0.91104673788E+02  0.91113525263E+02  0.12700000000E+01 0. -1.
         25    2    1    2    0    0  0.00000000000E+00  0.00000000000E+00 -0.48245803194E+02  0.13399120814E+03  0.12500394527E+03 0.  0.
    9000005    1    3    3    0    0 -0.39607906040E+02 -0.48157058727E+02 -0.19625017098E+02  0.65376064597E+02  0.10000000000E+01 0.  0.
    9000005    1    3    3    0    0  0.39607906040E+02  0.48157058727E+02 -0.28620786097E+02  0.68615143539E+02  0.10000000000E+01 0.  0.
<mgrwt>
<rscale>  0 0.12500395E+03</rscale>
<asrwt>0</asrwt>
<pdfrwt beam="2">  1        4 0.14018232E-01 0.12500395E+03</pdfrwt>
<pdfrwt beam="1">  1       -4 0.65958004E-02 0.12500395E+03</pdfrwt>
<totfact> 0.10258465E+04</totfact>
</mgrwt>
</event>
<event>
 5    1  0.3234540E-002  0.1250018E+03  0.7818608E-02  0.1235066E+00
          4   -1    0    0  501    0  0.00000000000E+00  0.00000000000E+00  0.10871602117E+03  0.10872343886E+03  0.12700000000E+01 0.  1.
         -4   -1    0    0    0  501 -0.00000000000E+00 -0.00000000000E+00 -0.35911938489E+02  0.35934387792E+02  0.12700000000E+01 0.  1.
         25    2    1    2    0    0  0.00000000000E+00  0.00000000000E+00  0.72804082676E+02  0.14465782665E+03  0.12500180942E+03 0.  0.
    9000005    1    3    3    0    0  0.49929578623E+02 -0.35984079793E+02  0.23855325510E+02  0.66014342193E+02  0.10000000000E+01 0.  0.
    9000005    1    3    3    0    0 -0.49929578623E+02  0.35984079793E+02  0.48948757167E+02  0.78643484461E+02  0.10000000000E+01 0.  0.
<mgrwt>
<rscale>  0 0.12500181E+03</rscale>
<asrwt>0</asrwt>
<pdfrwt beam="1">  1        4 0.16727839E-01 0.12500181E+03</pdfrwt>
<pdfrwt beam="2">  1       -4 0.55272112E-02 0.12500181E+03</pdfrwt>
<totfact> 0.10037536E+04</totfact>
</mgrwt>
</event>
<event>
 5    1  0.3234540E-002  0.1250019E+03  0.7818608E-02  0.1235066E+00
         -4   -1    0    0    0  501 -0.00000000000E+00  0.00000000000E+00  0.39615564002E+03  0.39615767571E+03  0.12700000000E+01 0.  1.
          4   -1    0    0  501    0  0.00000000000E+00 -0.00000000000E+00 -0.98177288341E+01  0.98995302647E+01  0.12700000000E+01 0.  1.
         25    2    1    2    0    0  0.00000000000E+00  0.00000000000E+00  0.38633791119E+03  0.40605720597E+03  0.12500189159E+03 0.  0.
    9000005    1    3    3    0    0 -0.33632320365E+02  0.50148170317E+02  0.24548711983E+03  0.25280604811E+03  0.10000000000E+01 0.  0.
    9000005    1    3    3    0    0  0.33632320365E+02 -0.50148170317E+02  0.14085079136E+03  0.15325115786E+03  0.10000000000E+01 0.  0.
<mgrwt>
<rscale>  0 0.12500189E+03</rscale>
<asrwt>0</asrwt>
<pdfrwt beam="2">  1        4 0.15168688E-02 0.12500189E+03</pdfrwt>
<pdfrwt beam="1">  1       -4 0.60953474E-01 0.12500189E+03</pdfrwt>
<totfact> 0.63965231E+03</totfact>
</mgrwt>
</event>
<event>
 5    1  0.3234540E-002  0.1249972E+03  0.7818608E-02  0.1235074E+00
         -4   -1    0    0    0  501 -0.00000000000E+00  0.00000000000E+00  0.35793712856E+02  0.35816236262E+02  0.12700000000E+01 0. -1.
          4   -1    0    0  501    0  0.00000000000E+00 -0.00000000000E+00 -0.10906678732E+03  0.10907418116E+03  0.12700000000E+01 0. -1.
         25    2    1    2    0    0  0.00000000000E+00  0.00000000000E+00 -0.73273074461E+02  0.14489041742E+03  0.12499715845E+03 0.  0.
    9000005    1    3    3    0    0  0.32803275183E+02  0.18331377170E+02  0.21239496304E+02  0.43176503505E+02  0.10000000000E+01 0.  0.
    9000005    1    3    3    0    0 -0.32803275183E+02 -0.18331377170E+02 -0.94512570765E+02  0.10171391392E+03  0.10000000000E+01 0.  0.
<mgrwt>
<rscale>  0 0.12499716E+03</rscale>
<asrwt>0</asrwt>
<pdfrwt beam="2">  1        4 0.16781807E-01 0.12499716E+03</pdfrwt>
<pdfrwt beam="1">  1       -4 0.55090265E-02 0.12499716E+03</pdfrwt>
<totfact> 0.10033857E+04</totfact>
</mgrwt>
</event>
<event>
 5    1  0.3234540E-002  0.1249985E+03  0.7818608E-02  0.1235072E+00
          4   -1    0    0  501    0  0.00000000000E+00  0.00000000000E+00  0.11889821805E+02  0.11957456358E+02  0.12700000000E+01 0. -1.
         -4   -1    0    0    0  501 -0.00000000000E+00 -0.00000000000E+00 -0.32752883205E+03  0.32753129427E+03  0.12700000000E+01 0. -1.
         25    2    1    2    0    0  0.00000000000E+00  0.00000000000E+00 -0.31563901025E+03  0.33948875063E+03  0.12499850804E+03 0.  0.
    9000005    1    3    3    0    0 -0.94817483400E+01  0.49620718258E+02 -0.25772180324E+03  0.26262834405E+03  0.10000000000E+01 0.  0.
    9000005    1    3    3    0    0  0.94817483400E+01 -0.49620718258E+02 -0.57917207009E+02  0.76860406581E+02  0.10000000000E+01 0.  0.
<mgrwt>
<rscale>  0 0.12499851E+03</rscale>
<asrwt>0</asrwt>
<pdfrwt beam="1">  1        4 0.18345957E-02 0.12499851E+03</pdfrwt>
<pdfrwt beam="2">  1       -4 0.50394437E-01 0.12499851E+03</pdfrwt>
<totfact> 0.70898959E+03</totfact>
</mgrwt>
</event>
<event>
 5    1  0.3234540E-002  0.1250001E+03  0.7818608E-02  0.1235069E+00
         -4   -1    0    0    0  501 -0.00000000000E+00  0.00000000000E+00  0.41899450910E+03  0.41899643382E+03  0.12700000000E+01 0.  1.
          4   -1    0    0  501    0  0.00000000000E+00 -0.00000000000E+00 -0.92777160387E+01  0.93642359483E+01  0.12700000000E+01 0.  1.
         25    2    1    2    0    0  0.00000000000E+00  0.00000000000E+00  0.40971679306E+03  0.42836066977E+03  0.12500005156E+03 0.  0.
    9000005    1    3    3    0    0 -0.47973715679E+02 -0.19330011244E+02  0.32505004246E+03  0.32914078574E+03  0.10000000000E+01 0.  0.
    9000005    1    3    3    0    0  0.47973715679E+02  0.19330011244E+02  0.84666750599E+02  0.99219884034E+02  0.10000000000E+01 0.  0.
<mgrwt>
<rscale>  0 0.12500005E+03</rscale>
<asrwt>0</asrwt>
<pdfrwt beam="2">  1        4 0.14341443E-02 0.12500005E+03</pdfrwt>
<pdfrwt beam="1">  1       -4 0.64467501E-01 0.12500005E+03</pdfrwt>
<totfact> 0.61884793E+03</totfact>
</mgrwt>
</event>
<event>
 5    1  0.3234540E-002  0.1249995E+03  0.7818608E-02  0.1235070E+00
          4   -1    0    0  501    0  0.00000000000E+00  0.00000000000E+00  0.34747497690E+03  0.34747729777E+03  0.12700000000E+01 0.  1.
         -4   -1    0    0    0  501 -0.00000000000E+00 -0.00000000000E+00 -0.11203492552E+02  0.11275244802E+02  0.12700000000E+01 0.  1.
         25    2    1    2    0    0  0.00000000000E+00  0.00000000000E+00  0.33627148434E+03  0.35875254258E+03  0.12499950249E+03 0.  0.
    9000005    1    3    3    0    0 -0.33423456443E+02 -0.21929412500E+02  0.30599267228E+03  0.30859446214E+03  0.10000000000E+01 0.  0.
    9000005    1    3    3    0    0  0.33423456443E+02  0.21929412500E+02  0.30278812060E+02  0.50158080435E+02  0.10000000000E+01 0.  0.
<mgrwt>
<rscale>  0 0.12499950E+03</rscale>
<asrwt>0</asrwt>
<pdfrwt beam="1">  1        4 0.53463394E-01 0.12499950E+03</pdfrwt>
<pdfrwt beam="2">  1       -4 0.17293119E-02 0.12499950E+03</pdfrwt>
<totfact> 0.68773032E+03</totfact>
</mgrwt>
</event>
<event>
 5    1  0.3234540E-002  0.1249983E+03  0.7818608E-02  0.1235072E+00
          4   -1    0    0  501    0  0.00000000000E+00  0.00000000000E+00  0.83808942133E+02  0.83818564062E+02  0.12700000000E+01 0. -1.
         -4   -1    0    0    0  501 -0.00000000000E+00 -0.00000000000E+00 -0.46586788717E+02  0.46604096204E+02  0.12700000000E+01 0. -1.
         25    2    1    2    0    0  0.00000000000E+00  0.00000000000E+00  0.37222153416E+02  0.13042266027E+03  0.12499832641E+03 0.  0.
    9000005    1    3    3    0    0  0.26056634806E+02 -0.14592270596E+02  0.75886375402E+02  0.81557492300E+02  0.10000000000E+01 0.  0.
    9000005    1    3    3    0    0 -0.26056634806E+02  0.14592270596E+02 -0.38664221986E+02  0.48865167966E+02  0.10000000000E+01 0.  0.
<mgrwt>
<rscale>  0 0.12499833E+03</rscale>
<asrwt>0</asrwt>
<pdfrwt beam="1">  1        4 0.12895755E-01 0.12499833E+03</pdfrwt>
<pdfrwt beam="2">  1       -4 0.71692698E-02 0.12499833E+03</pdfrwt>
<totfact> 0.10335865E+04</totfact>
</mgrwt>
</event>
<event>
 5    1  0.3234540E-002  0.1249989E+03  0.7818608E-02  0.1235071E+00
          4   -1    0    0  501    0  0.00000000000E+00  0.00000000000E+00  0.31779302441E+02  0.31804668897E+02  0.12700000000E+01 0. -1.
         -4   -1    0    0    0  501 -0.00000000000E+00 -0.00000000000E+00 -0.12283814561E+03  0.12284471058E+03  0.12700000000E+01 0. -1.
         25    2    1    2    0    0  0.00000000000E+00  0.00000000000E+00 -0.91058843169E+02  0.15464937947E+03  0.12499887060E+03 0.  0.
    9000005    1    3    3    0    0 -0.71472619534E+01  0.16285299388E+02 -0.11964711048E+03  0.12096580251E+03  0.10000000000E+01 0.  0.
    9000005    1    3    3    0    0  0.71472619534E+01 -0.16285299388E+02  0.28588267311E+02  0.33683576969E+02  0.10000000000E+01 0.  0.
<mgrwt>
<rscale>  0 0.12499887E+03</rscale>
<asrwt>0</asrwt>
<pdfrwt beam="1">  1        4 0.48915798E-02 0.12499887E+03</pdfrwt>
<pdfrwt beam="2">  1       -4 0.18900632E-01 0.12499887E+03</pdfrwt>
<totfact> 0.98386873E+03</totfact>
</mgrwt>
</event>
<event>
 5    1  0.3234540E-002  0.1249987E+03  0.7818608E-02  0.1235071E+00
         -4   -1    0    0    0  501 -0.00000000000E+00  0.00000000000E+00  0.28955167407E+03  0.28955445923E+03  0.12700000000E+01 0.  1.
          4   -1    0    0  501    0  0.00000000000E+00 -0.00000000000E+00 -0.13457660608E+02  0.13517452758E+02  0.12700000000E+01 0.  1.
         25    2    1    2    0    0  0.00000000000E+00  0.00000000000E+00  0.27609401347E+03  0.30307191199E+03  0.12499871825E+03 0.  0.
    9000005    1    3    3    0    0 -0.21978084478E+02 -0.46333862488E+02  0.51461045928E+02  0.72657430855E+02  0.10000000000E+01 0.  0.
    9000005    1    3    3    0    0  0.21978084478E+02  0.46333862488E+02  0.22463296754E+03  0.23041448113E+03  0.10000000000E+01 0.  0.
<mgrwt>
<rscale>  0 0.12499872E+03</rscale>
<asrwt>0</asrwt>
<pdfrwt beam="2">  1        4 0.20752230E-02 0.12499872E+03</pdfrwt>
<pdfrwt beam="1">  1       -4 0.44551223E-01 0.12499872E+03</pdfrwt>
<totfact> 0.75217252E+03</totfact>
</mgrwt>
</event>
<event>
 5    1  0.3234540E-002  0.1250006E+03  0.7818608E-02  0.1235068E+00
         -4   -1    0    0    0  501 -0.00000000000E+00  0.00000000000E+00  0.79432070845E+02  0.79442222896E+02  0.12700000000E+01 0. -1.
          4   -1    0    0  501    0  0.00000000000E+00 -0.00000000000E+00 -0.49156226332E+02  0.49172629451E+02  0.12700000000E+01 0. -1.
         25    2    1    2    0    0  0.00000000000E+00  0.00000000000E+00  0.30275844513E+02  0.12861485235E+03  0.12500061393E+03 0.  0.
    9000005    1    3    3    0    0 -0.40849117321E+02  0.25974412877E+01 -0.33449160310E+02  0.52870061591E+02  0.10000000000E+01 0.  0.
    9000005    1    3    3    0    0  0.40849117321E+02 -0.25974412877E+01  0.63725004823E+02  0.75744790757E+02  0.10000000000E+01 0.  0.
<mgrwt>
<rscale>  0 0.12500061E+03</rscale>
<asrwt>0</asrwt>
<pdfrwt beam="2">  1        4 0.75645391E-02 0.12500061E+03</pdfrwt>
<pdfrwt beam="1">  1       -4 0.12222361E-01 0.12500061E+03</pdfrwt>
<totfact> 0.10374087E+04</totfact>
</mgrwt>
</event>
<event>
 4    1  0.3234540E-002  0.1248873E+03  0.7818608E-02  0.1235246E+00
         -4   -1    0    0    0  501 -0.00000000000E+00  0.00000000000E+00  0.18383582541E+02  0.18427398271E+02  0.12700000000E+01 0. -1.
          4   -1    0    0  501    0  0.00000000000E+00 -0.00000000000E+00 -0.21180459863E+03  0.21180840612E+03  0.12700000000E+01 0. -1.
    9000005    1    1    2    0    0  0.56300077893E+02 -0.26694417831E+02 -0.10406585717E+03  0.12129712833E+03  0.10000000000E+01 0.  0.
    9000005    1    1    2    0    0 -0.56300077893E+02  0.26694417831E+02 -0.89355158927E+02  0.10893867606E+03  0.10000000000E+01 0.  0.
<mgrwt>
<rscale>  0 0.12488729E+03</rscale>
<asrwt>0</asrwt>
<pdfrwt beam="2">  1        4 0.32588984E-01 0.12488729E+03</pdfrwt>
<pdfrwt beam="1">  1       -4 0.28319070E-02 0.12488729E+03</pdfrwt>
<totfact> 0.85488188E+03</totfact>
</mgrwt>
</event>
<event>
 5    1  0.3234540E-002  0.1249991E+03  0.7818608E-02  0.1235071E+00
         -4   -1    0    0    0  501 -0.00000000000E+00  0.00000000000E+00  0.65757459312E+02  0.65769722177E+02  0.12700000000E+01 0.  1.
          4   -1    0    0  501    0  0.00000000000E+00 -0.00000000000E+00 -0.59378486586E+02  0.59392066551E+02  0.12700000000E+01 0.  1.
         25    2    1    2    0    0  0.00000000000E+00  0.00000000000E+00  0.63789727266E+01  0.12516178873E+03  0.12499912825E+03 0.  0.
    9000005    1    3    3    0    0  0.10462651025E+02  0.54109080541E+02  0.32688574482E+02  0.64084339469E+02  0.10000000000E+01 0.  0.
    9000005    1    3    3    0    0 -0.10462651025E+02 -0.54109080541E+02 -0.26309601755E+02  0.61077449259E+02  0.10000000000E+01 0.  0.
<mgrwt>
<rscale>  0 0.12499913E+03</rscale>
<asrwt>0</asrwt>
<pdfrwt beam="2">  1        4 0.91371397E-02 0.12499913E+03</pdfrwt>
<pdfrwt beam="1">  1       -4 0.10118520E-01 0.12499913E+03</pdfrwt>
<totfact> 0.10449555E+04</totfact>
</mgrwt>
</event>
<event>
 5    1  0.3234540E-002  0.1250005E+03  0.7818608E-02  0.1235068E+00
          4   -1    0    0  501    0  0.00000000000E+00  0.00000000000E+00  0.81309476307E+02  0.81319393980E+02  0.12700000000E+01 0. -1.
         -4   -1    0    0    0  501 -0.00000000000E+00 -0.00000000000E+00 -0.48020898472E+02  0.48037689266E+02  0.12700000000E+01 0. -1.
         25    2    1    2    0    0  0.00000000000E+00  0.00000000000E+00  0.33288577835E+02  0.12935708325E+03  0.12500050229E+03 0.  0.
    9000005    1    3    3    0    0  0.18999570592E+02  0.59302395482E+02  0.22073429386E+02  0.66075669330E+02  0.10000000000E+01 0.  0.
    9000005    1    3    3    0    0 -0.18999570592E+02 -0.59302395482E+02  0.11215148449E+02  0.63281413916E+02  0.10000000000E+01 0.  0.
<mgrwt>
<rscale>  0 0.12500050E+03</rscale>
<asrwt>0</asrwt>
<pdfrwt beam="1">  1        4 0.12511205E-01 0.12500050E+03</pdfrwt>
<pdfrwt beam="2">  1       -4 0.73898851E-02 0.12500050E+03</pdfrwt>
<totfact> 0.10358163E+04</totfact>
</mgrwt>
</event>
<event>
 5    1  0.3234540E-002  0.1250026E+03  0.7818608E-02  0.1235065E+00
         -4   -1    0    0    0  501 -0.00000000000E+00  0.00000000000E+00  0.10822251891E+03  0.10822997043E+03  0.12700000000E+01 0.  1.
          4   -1    0    0  501    0  0.00000000000E+00 -0.00000000000E+00 -0.36076264301E+02  0.36098611413E+02  0.12700000000E+01 0.  1.
         25    2    1    2    0    0  0.00000000000E+00  0.00000000000E+00  0.72146254614E+02  0.14432858185E+03  0.12500262991E+03 0.  0.
    9000005    1    3    3    0    0 -0.15198731073E+02  0.46561199902E+02  0.80887063678E+02  0.94565658846E+02  0.10000000000E+01 0.  0.
    9000005    1    3    3    0    0  0.15198731073E+02 -0.46561199902E+02 -0.87408090639E+01  0.49762923002E+02  0.10000000000E+01 0.  0.
<mgrwt>
<rscale>  0 0.12500263E+03</rscale>
<asrwt>0</asrwt>
<pdfrwt beam="2">  1        4 0.55524868E-02 0.12500263E+03</pdfrwt>
<pdfrwt beam="1">  1       -4 0.16651910E-01 0.12500263E+03</pdfrwt>
<totfact> 0.10044053E+04</totfact>
</mgrwt>
</event>
<event>
 5    1  0.3234540E-002  0.1249973E+03  0.7818608E-02  0.1235074E+00
         -4   -1    0    0    0  501 -0.00000000000E+00  0.00000000000E+00  0.67346530676E+03  0.67346650422E+03  0.12700000000E+01 0.  1.
          4   -1    0    0  501    0  0.00000000000E+00 -0.00000000000E+00 -0.57292303305E+01  0.58683030069E+01  0.12700000000E+01 0.  1.
         25    2    1    2    0    0  0.00000000000E+00  0.00000000000E+00  0.66773607643E+03  0.67933480723E+03  0.12499725016E+03 0.  0.
    9000005    1    3    3    0    0 -0.45723474280E+02 -0.40138035110E+02  0.41137446505E+03  0.41585051215E+03  0.10000000000E+01 0.  0.
    9000005    1    3    3    0    0  0.45723474280E+02  0.40138035110E+02  0.25636161138E+03  0.26348429507E+03  0.10000000000E+01 0.  0.
<mgrwt>
<rscale>  0 0.12499725E+03</rscale>
<asrwt>0</asrwt>
<pdfrwt beam="2">  1        4 0.89221002E-03 0.12499725E+03</pdfrwt>
<pdfrwt beam="1">  1       -4 0.10362084E+00 0.12499725E+03</pdfrwt>
<totfact> 0.44202925E+03</totfact>
</mgrwt>
</event>
<event>
 5    1  0.3234540E-002  0.1250020E+03  0.7818608E-02  0.1235066E+00
          4   -1    0    0  501    0  0.00000000000E+00  0.00000000000E+00  0.48323217493E+03  0.48323384379E+03  0.12700000000E+01 0. -1.
         -4   -1    0    0    0  501 -0.00000000000E+00 -0.00000000000E+00 -0.80322797655E+01  0.81320611306E+01  0.12700000000E+01 0. -1.
         25    2    1    2    0    0  0.00000000000E+00  0.00000000000E+00  0.47519989516E+03  0.49136590492E+03  0.12500204861E+03 0.  0.
    9000005    1    3    3    0    0  0.11408628517E+02 -0.39670670596E+02  0.42203488860E+03  0.42404995709E+03  0.10000000000E+01 0.  0.
    9000005    1    3    3    0    0 -0.11408628517E+02  0.39670670596E+02  0.53165006565E+02  0.67315947837E+02  0.10000000000E+01 0.  0.
<mgrwt>
<rscale>  0 0.12500205E+03</rscale>
<asrwt>0</asrwt>
<pdfrwt beam="1">  1        4 0.74351233E-01 0.12500205E+03</pdfrwt>
<pdfrwt beam="2">  1       -4 0.12435389E-02 0.12500205E+03</pdfrwt>
<totfact> 0.56537986E+03</totfact>
</mgrwt>
</event>
<event>
 5    1  0.3234540E-002  0.1249987E+03  0.7818608E-02  0.1235071E+00
         -4   -1    0    0    0  501 -0.00000000000E+00  0.00000000000E+00  0.62947070813E+03  0.62947198929E+03  0.12700000000E+01 0.  1.
          4   -1    0    0  501    0  0.00000000000E+00 -0.00000000000E+00 -0.61392046778E+01  0.62691892678E+01  0.12700000000E+01 0.  1.
         25    2    1    2    0    0  0.00000000000E+00  0.00000000000E+00  0.62333150345E+03  0.63574117855E+03  0.12499873164E+03 0.  0.
    9000005    1    3    3    0    0  0.39202975077E+02  0.31011525547E+02  0.12091889902E+03  0.13084711732E+03  0.10000000000E+01 0.  0.
    9000005    1    3    3    0    0 -0.39202975077E+02 -0.31011525547E+02  0.50241260443E+03  0.50489406123E+03  0.10000000000E+01 0.  0.
<mgrwt>
<rscale>  0 0.12499873E+03</rscale>
<asrwt>0</asrwt>
<pdfrwt beam="2">  1        4 0.95459016E-03 0.12499873E+03</pdfrwt>
<pdfrwt beam="1">  1       -4 0.96851769E-01 0.12499873E+03</pdfrwt>
<totfact> 0.46687834E+03</totfact>
</mgrwt>
</event>
<event>
 5    1  0.3234540E-002  0.1249928E+03  0.7818608E-02  0.1235081E+00
          4   -1    0    0  501    0  0.00000000000E+00  0.00000000000E+00  0.74203928835E+03  0.74204037515E+03  0.12700000000E+01 0. -1.
         -4   -1    0    0    0  501 -0.00000000000E+00 -0.00000000000E+00 -0.51858861491E+01  0.53391305614E+01  0.12700000000E+01 0. -1.
         25    2    1    2    0    0  0.00000000000E+00  0.00000000000E+00  0.73685340220E+03  0.74737950571E+03  0.12499275669E+03 0.  0.
    9000005    1    3    3    0    0 -0.14819798748E+02  0.27785724471E+02  0.45699291079E+02  0.55507640235E+02  0.10000000000E+01 0.  0.
    9000005    1    3    3    0    0  0.14819798748E+02 -0.27785724471E+02  0.69115411112E+03  0.69187186548E+03  0.10000000000E+01 0.  0.
<mgrwt>
<rscale>  0 0.12499276E+03</rscale>
<asrwt>0</asrwt>
<pdfrwt beam="1">  1        4 0.11417171E+00 0.12499276E+03</pdfrwt>
<pdfrwt beam="2">  1       -4 0.80970065E-03 0.12499276E+03</pdfrwt>
<totfact> 0.40706249E+03</totfact>
</mgrwt>
</event>
<event>
 5    1  0.3234540E-002  0.1250009E+03  0.7818608E-02  0.1235068E+00
         -4   -1    0    0    0  501 -0.00000000000E+00  0.00000000000E+00  0.20049444396E+02  0.20089627189E+02  0.12700000000E+01 0.  1.
          4   -1    0    0  501    0  0.00000000000E+00 -0.00000000000E+00 -0.19459638552E+03  0.19460052970E+03  0.12700000000E+01 0.  1.
         25    2    1    2    0    0  0.00000000000E+00  0.00000000000E+00 -0.17454694113E+03  0.21469015689E+03  0.12500091522E+03 0.  0.
    9000005    1    3    3    0    0  0.24016964479E+01  0.52285125301E+02 -0.14591588552E+03  0.15502241168E+03  0.10000000000E+01 0.  0.
    9000005    1    3    3    0    0 -0.24016964479E+01 -0.52285125301E+02 -0.28631055604E+02  0.59667745211E+02  0.10000000000E+01 0.  0.
<mgrwt>
<rscale>  0 0.12500092E+03</rscale>
<asrwt>0</asrwt>
<pdfrwt beam="2">  1        4 0.29941314E-01 0.12500092E+03</pdfrwt>
<pdfrwt beam="1">  1       -4 0.30879398E-02 0.12500092E+03</pdfrwt>
<totfact> 0.87713806E+03</totfact>
</mgrwt>
</event>
<event>
 5    1  0.3234540E-002  0.1250001E+03  0.7818608E-02  0.1235069E+00
          4   -1    0    0  501    0  0.00000000000E+00  0.00000000000E+00  0.27620461266E+02  0.27649643408E+02  0.12700000000E+01 0. -1.
         -4   -1    0    0    0  501 -0.00000000000E+00 -0.00000000000E+00 -0.14131946921E+03  0.14132517567E+03  0.12700000000E+01 0. -1.
         25    2    1    2    0    0  0.00000000000E+00  0.00000000000E+00 -0.11369900794E+03  0.16897481907E+03  0.12500010030E+03 0.  0.
    9000005    1    3    3    0    0  0.11007454768E+01 -0.48927339290E+02 -0.43176021255E+01  0.49139982283E+02  0.10000000000E+01 0.  0.
    9000005    1    3    3    0    0 -0.11007454768E+01  0.48927339290E+02 -0.10938140582E+03  0.11983483679E+03  0.10000000000E+01 0.  0.
<mgrwt>
<rscale>  0 0.12500010E+03</rscale>
<asrwt>0</asrwt>
<pdfrwt beam="1">  1        4 0.42519856E-02 0.12500010E+03</pdfrwt>
<pdfrwt beam="2">  1       -4 0.21744140E-01 0.12500010E+03</pdfrwt>
<totfact> 0.95639660E+03</totfact>
</mgrwt>
</event>
<event>
 5    1  0.3234540E-002  0.1249953E+03  0.7818608E-02  0.1235077E+00
          4   -1    0    0  501    0  0.00000000000E+00  0.00000000000E+00  0.57612196055E+03  0.57612336034E+03  0.12700000000E+01 0. -1.
         -4   -1    0    0    0  501 -0.00000000000E+00 -0.00000000000E+00 -0.67188421549E+01  0.68378168960E+01  0.12700000000E+01 0. -1.
         25    2    1    2    0    0  0.00000000000E+00  0.00000000000E+00  0.56940311839E+03  0.58296117723E+03  0.12499529161E+03 0.  0.
    9000005    1    3    3    0    0  0.41848879440E+02 -0.70831776163E+00  0.50111320717E+03  0.50285910236E+03  0.10000000000E+01 0.  0.
    9000005    1    3    3    0    0 -0.41848879440E+02  0.70831776163E+00  0.68289911228E+02  0.80102074879E+02  0.10000000000E+01 0.  0.
<mgrwt>
<rscale>  0 0.12499529E+03</rscale>
<asrwt>0</asrwt>
<pdfrwt beam="1">  1        4 0.88643381E-01 0.12499529E+03</pdfrwt>
<pdfrwt beam="2">  1       -4 0.10429279E-02 0.12499529E+03</pdfrwt>
<totfact> 0.49966293E+03</totfact>
</mgrwt>
</event>
<event>
 5    1  0.3234540E-002  0.1250072E+03  0.7818608E-02  0.1235058E+00
          4   -1    0    0  501    0  0.00000000000E+00  0.00000000000E+00  0.11852824813E+02  0.11920669278E+02  0.12700000000E+01 0. -1.
         -4   -1    0    0    0  501 -0.00000000000E+00 -0.00000000000E+00 -0.32859092180E+03  0.32859337606E+03  0.12700000000E+01 0. -1.
         25    2    1    2    0    0  0.00000000000E+00  0.00000000000E+00 -0.31673809699E+03  0.34051404534E+03  0.12500717175E+03 0.  0.
    9000005    1    3    3    0    0  0.61139282930E+02 -0.36787513875E+01 -0.12454884178E+03  0.13879826771E+03  0.10000000000E+01 0.  0.
    9000005    1    3    3    0    0 -0.61139282930E+02  0.36787513875E+01 -0.19218925521E+03  0.20171577764E+03  0.10000000000E+01 0.  0.
<mgrwt>
<rscale>  0 0.12500717E+03</rscale>
<asrwt>0</asrwt>
<pdfrwt beam="1">  1        4 0.18289194E-02 0.12500717E+03</pdfrwt>
<pdfrwt beam="2">  1       -4 0.50557850E-01 0.12500717E+03</pdfrwt>
<totfact> 0.70769655E+03</totfact>
</mgrwt>
</event>
<event>
 5    1  0.3234540E-002  0.1250015E+03  0.7818608E-02  0.1235067E+00
         -4   -1    0    0    0  501 -0.00000000000E+00  0.00000000000E+00  0.36899718070E+03  0.36899936621E+03  0.12700000000E+01 0. -1.
          4   -1    0    0  501    0  0.00000000000E+00 -0.00000000000E+00 -0.10546071528E+02  0.10622265515E+02  0.12700000000E+01 0. -1.
         25    2    1    2    0    0  0.00000000000E+00  0.00000000000E+00  0.35845110917E+03  0.37962163173E+03  0.12500154243E+03 0.  0.
    9000005    1    3    3    0    0  0.44123327783E+02 -0.24437148134E+02  0.29127589031E+03  0.29561239240E+03  0.10000000000E+01 0.  0.
    9000005    1    3    3    0    0 -0.44123327783E+02  0.24437148134E+02  0.67175218864E+02  0.84009239331E+02  0.10000000000E+01 0.  0.
<mgrwt>
<rscale>  0 0.12500154E+03</rscale>
<asrwt>0</asrwt>
<pdfrwt beam="2">  1        4 0.16285019E-02 0.12500154E+03</pdfrwt>
<pdfrwt beam="1">  1       -4 0.56774821E-01 0.12500154E+03</pdfrwt>
<totfact> 0.66581936E+03</totfact>
</mgrwt>
</event>
<event>
 5    1  0.3234540E-002  0.1250056E+03  0.7818608E-02  0.1235061E+00
          4   -1    0    0  501    0  0.00000000000E+00  0.00000000000E+00  0.40750366202E+02  0.40770151405E+02  0.12700000000E+01 0.  1.
         -4   -1    0    0    0  501 -0.00000000000E+00 -0.00000000000E+00 -0.95819290360E+02  0.95827706354E+02  0.12700000000E+01 0.  1.
         25    2    1    2    0    0  0.00000000000E+00  0.00000000000E+00 -0.55068924158E+02  0.13659785776E+03  0.12500555322E+03 0.  0.
    9000005    1    3    3    0    0  0.46684368523E+01  0.42473666651E+02 -0.77368303856E+02  0.88389258979E+02  0.10000000000E+01 0.  0.
    9000005    1    3    3    0    0 -0.46684368523E+01 -0.42473666651E+02  0.22299379698E+02  0.48208598780E+02  0.10000000000E+01 0.  0.
<mgrwt>
<rscale>  0 0.12500555E+03</rscale>
<asrwt>0</asrwt>
<pdfrwt beam="1">  1        4 0.62714564E-02 0.12500555E+03</pdfrwt>
<pdfrwt beam="2">  1       -4 0.14743599E-01 0.12500555E+03</pdfrwt>
<totfact> 0.10203223E+04</totfact>
</mgrwt>
</event>
<event>
 5    1  0.3234540E-002  0.1250014E+03  0.7818608E-02  0.1235067E+00
          4   -1    0    0  501    0  0.00000000000E+00  0.00000000000E+00  0.44376917647E+02  0.44395086663E+02  0.12700000000E+01 0. -1.
         -4   -1    0    0    0  501 -0.00000000000E+00 -0.00000000000E+00 -0.87985629864E+02  0.87994795088E+02  0.12700000000E+01 0. -1.
         25    2    1    2    0    0  0.00000000000E+00  0.00000000000E+00 -0.43608712217E+02  0.13238988175E+03  0.12500144403E+03 0.  0.
    9000005    1    3    3    0    0 -0.35095523465E+02  0.26069104074E+01  0.32889549505E+02  0.48178981058E+02  0.10000000000E+01 0.  0.
    9000005    1    3    3    0    0  0.35095523465E+02 -0.26069104074E+01 -0.76498261722E+02  0.84210900693E+02  0.10000000000E+01 0.  0.
<mgrwt>
<rscale>  0 0.12500144E+03</rscale>
<asrwt>0</asrwt>
<pdfrwt beam="1">  1        4 0.68293207E-02 0.12500144E+03</pdfrwt>
<pdfrwt beam="2">  1       -4 0.13538353E-01 0.12500144E+03</pdfrwt>
<totfact> 0.10293048E+04</totfact>
</mgrwt>
</event>
<event>
 4    1  0.3234540E-002  0.1248796E+03  0.7818608E-02  0.1235258E+00
         -4   -1    0    0    0  501 -0.00000000000E+00  0.00000000000E+00  0.16656388811E+02  0.16704735503E+02  0.12700000000E+01 0. -1.
          4   -1    0    0  501    0  0.00000000000E+00 -0.00000000000E+00 -0.23367875588E+03  0.23368220696E+03  0.12700000000E+01 0. -1.
    9000005    1    1    2    0    0 -0.53120579002E+02 -0.98858666802E+01 -0.17122084740E+03  0.17954694332E+03  0.10000000000E+01 0.  0.
    9000005    1    1    2    0    0  0.53120579002E+02  0.98858666802E+01 -0.45801519669E+02  0.70839999135E+02  0.10000000000E+01 0.  0.
<mgrwt>
<rscale>  0 0.12487959E+03</rscale>
<asrwt>0</asrwt>
<pdfrwt beam="2">  1        4 0.35954560E-01 0.12487959E+03</pdfrwt>
<pdfrwt beam="1">  1       -4 0.25665060E-02 0.12487959E+03</pdfrwt>
<totfact> 0.82495396E+03</totfact>
</mgrwt>
</event>
<event>
 5    1  0.3234540E-002  0.1250049E+03  0.7818608E-02  0.1235062E+00
         -4   -1    0    0    0  501 -0.00000000000E+00  0.00000000000E+00  0.26498578639E+02  0.26528994890E+02  0.12700000000E+01 0.  1.
          4   -1    0    0  501    0  0.00000000000E+00 -0.00000000000E+00 -0.14730742715E+03  0.14731290166E+03  0.12700000000E+01 0.  1.
         25    2    1    2    0    0  0.00000000000E+00  0.00000000000E+00 -0.12080884851E+03  0.17384189655E+03  0.12500490837E+03 0.  0.
    9000005    1    3    3    0    0 -0.19003290990E+02  0.70315988867E+01  0.21810422201E+02  0.29786959697E+02  0.10000000000E+01 0.  0.
    9000005    1    3    3    0    0  0.19003290990E+02 -0.70315988867E+01 -0.14261927071E+03  0.14405493685E+03  0.10000000000E+01 0.  0.
<mgrwt>
<rscale>  0 0.12500491E+03</rscale>
<asrwt>0</asrwt>
<pdfrwt beam="2">  1        4 0.22665442E-01 0.12500491E+03</pdfrwt>
<pdfrwt beam="1">  1       -4 0.40794653E-02 0.12500491E+03</pdfrwt>
<totfact> 0.94726941E+03</totfact>
</mgrwt>
</event>
<event>
 5    1  0.3234540E-002  0.1250005E+03  0.7818608E-02  0.1235068E+00
          4   -1    0    0  501    0  0.00000000000E+00  0.00000000000E+00  0.16019016842E+03  0.16019520267E+03  0.12700000000E+01 0. -1.
         -4   -1    0    0    0  501 -0.00000000000E+00 -0.00000000000E+00 -0.24363326703E+02  0.24396405228E+02  0.12700000000E+01 0. -1.
         25    2    1    2    0    0  0.00000000000E+00  0.00000000000E+00  0.13582684171E+03  0.18459160789E+03  0.12500052310E+03 0.  0.
    9000005    1    3    3    0    0 -0.31008509638E+02 -0.54156790655E+02  0.72765777055E+02  0.95866281634E+02  0.10000000000E+01 0.  0.
    9000005    1    3    3    0    0  0.31008509638E+02  0.54156790655E+02  0.63061064659E+02  0.88725326260E+02  0.10000000000E+01 0.  0.
<mgrwt>
<rscale>  0 0.12500052E+03</rscale>
<asrwt>0</asrwt>
<pdfrwt beam="1">  1        4 0.24647573E-01 0.12500052E+03</pdfrwt>
<pdfrwt beam="2">  1       -4 0.37511359E-02 0.12500052E+03</pdfrwt>
<totfact> 0.92795879E+03</totfact>
</mgrwt>
</event>
<event>
 5    1  0.3234540E-002  0.1249990E+03  0.7818608E-02  0.1235071E+00
          4   -1    0    0  501    0  0.00000000000E+00  0.00000000000E+00  0.29712582030E+02  0.29739711345E+02  0.12700000000E+01 0.  1.
         -4   -1    0    0    0  501 -0.00000000000E+00 -0.00000000000E+00 -0.13137548589E+03  0.13138162425E+03  0.12700000000E+01 0.  1.
         25    2    1    2    0    0  0.00000000000E+00  0.00000000000E+00 -0.10166290386E+03  0.16112133560E+03  0.12499895506E+03 0.  0.
    9000005    1    3    3    0    0 -0.58615084344E+02  0.85940785104E+01 -0.76468849026E+02  0.96737124050E+02  0.10000000000E+01 0.  0.
    9000005    1    3    3    0    0  0.58615084344E+02 -0.85940785104E+01 -0.25194054829E+02  0.64384211549E+02  0.10000000000E+01 0.  0.
<mgrwt>
<rscale>  0 0.12499896E+03</rscale>
<asrwt>0</asrwt>
<pdfrwt beam="1">  1        4 0.45737256E-02 0.12499896E+03</pdfrwt>
<pdfrwt beam="2">  1       -4 0.20214172E-01 0.12499896E+03</pdfrwt>
<totfact> 0.97129316E+03</totfact>
</mgrwt>
</event>
<event>
 5    1  0.3234540E-002  0.1250005E+03  0.7818608E-02  0.1235069E+00
          4   -1    0    0  501    0  0.00000000000E+00  0.00000000000E+00  0.13503764496E+03  0.13504361687E+03  0.12700000000E+01 0.  1.
         -4   -1    0    0    0  501 -0.00000000000E+00 -0.00000000000E+00 -0.28906783183E+02  0.28934668030E+02  0.12700000000E+01 0.  1.
         25    2    1    2    0    0  0.00000000000E+00  0.00000000000E+00  0.10613086178E+03  0.16397828490E+03  0.12500047238E+03 0.  0.
    9000005    1    3    3    0    0  0.33392846776E+02  0.41093952782E+02  0.95278943906E+01  0.53810556051E+02  0.10000000000E+01 0.  0.
    9000005    1    3    3    0    0 -0.33392846776E+02 -0.41093952782E+02  0.96602967391E+02  0.11016772885E+03  0.10000000000E+01 0.  0.
<mgrwt>
<rscale>  0 0.12500047E+03</rscale>
<asrwt>0</asrwt>
<pdfrwt beam="1">  1        4 0.20777627E-01 0.12500047E+03</pdfrwt>
<pdfrwt beam="2">  1       -4 0.44498018E-02 0.12500047E+03</pdfrwt>
<totfact> 0.96580214E+03</totfact>
</mgrwt>
</event>
<event>
 5    1  0.3234540E-002  0.1250007E+03  0.7818608E-02  0.1235068E+00
         -4   -1    0    0    0  501 -0.00000000000E+00  0.00000000000E+00  0.12476550289E+04  0.12476556753E+04  0.12700000000E+01 0.  1.
          4   -1    0    0  501    0  0.00000000000E+00 -0.00000000000E+00 -0.30014475493E+01  0.32590776902E+01  0.12700000000E+01 0.  1.
         25    2    1    2    0    0  0.00000000000E+00  0.00000000000E+00  0.12446535814E+04  0.12509147530E+04  0.12500072644E+03 0.  0.
    9000005    1    3    3    0    0 -0.16772603339E+02 -0.34581020082E+02  0.11154449395E+04  0.11161073337E+04  0.10000000000E+01 0.  0.
    9000005    1    3    3    0    0  0.16772603339E+02  0.34581020082E+02  0.12920864185E+03  0.13480741931E+03  0.10000000000E+01 0.  0.
<mgrwt>
<rscale>  0 0.12500073E+03</rscale>
<asrwt>0</asrwt>
<pdfrwt beam="2">  1        4 0.48162833E-03 0.12500073E+03</pdfrwt>
<pdfrwt beam="1">  1       -4 0.19196689E+00 0.12500073E+03</pdfrwt>
<totfact> 0.23417060E+03</totfact>
</mgrwt>
</event>
<event>
 5    1  0.3234540E-002  0.1250196E+03  0.7818608E-02  0.1235039E+00
         -4   -1    0    0    0  501 -0.00000000000E+00  0.00000000000E+00  0.11096147250E+04  0.11096154518E+04  0.12700000000E+01 0. -1.
          4   -1    0    0  501    0  0.00000000000E+00 -0.00000000000E+00 -0.34062158439E+01  0.36352725311E+01  0.12700000000E+01 0. -1.
         25    2    1    2    0    0  0.00000000000E+00  0.00000000000E+00  0.11062085092E+04  0.11132507244E+04  0.12501963629E+03 0.  0.
    9000005    1    3    3    0    0  0.61412162776E+02 -0.11133738342E+02  0.58272261356E+03  0.58605636096E+03  0.10000000000E+01 0.  0.
    9000005    1    3    3    0    0 -0.61412162776E+02  0.11133738342E+02  0.52348589564E+03  0.52719436340E+03  0.10000000000E+01 0.  0.
<mgrwt>
<rscale>  0 0.12501964E+03</rscale>
<asrwt>0</asrwt>
<pdfrwt beam="2">  1        4 0.54170837E-03 0.12501964E+03</pdfrwt>
<pdfrwt beam="1">  1       -4 0.17072779E+00 0.12501964E+03</pdfrwt>
<totfact> 0.27087155E+03</totfact>
</mgrwt>
</event>
<event>
 5    1  0.3234540E-002  0.1249990E+03  0.7818608E-02  0.1235071E+00
          4   -1    0    0  501    0  0.00000000000E+00  0.00000000000E+00  0.13454422354E+02  0.13514228830E+02  0.12700000000E+01 0.  1.
         -4   -1    0    0    0  501 -0.00000000000E+00 -0.00000000000E+00 -0.28962244389E+03  0.28962522836E+03  0.12700000000E+01 0.  1.
         25    2    1    2    0    0  0.00000000000E+00  0.00000000000E+00 -0.27616802153E+03  0.30313945719E+03  0.12499901755E+03 0.  0.
    9000005    1    3    3    0    0 -0.45113806944E+02  0.42895478354E+02 -0.12482072817E+03  0.13948652918E+03  0.10000000000E+01 0.  0.
    9000005    1    3    3    0    0  0.45113806944E+02 -0.42895478354E+02 -0.15134729336E+03  0.16365292801E+03  0.10000000000E+01 0.  0.
<mgrwt>
<rscale>  0 0.12499902E+03</rscale>
<asrwt>0</asrwt>
<pdfrwt beam="1">  1        4 0.20747260E-02 0.12499902E+03</pdfrwt>
<pdfrwt beam="2">  1       -4 0.44562109E-01 0.12499902E+03</pdfrwt>
<totfact> 0.75208353E+03</totfact>
</mgrwt>
</event>
<event>
 5    1  0.3234540E-002  0.1250005E+03  0.7818608E-02  0.1235068E+00
         -4   -1    0    0    0  501 -0.00000000000E+00  0.00000000000E+00  0.13149885588E+02  0.13211070774E+02  0.12700000000E+01 0. -1.
          4   -1    0    0  501    0  0.00000000000E+00 -0.00000000000E+00 -0.29630638502E+03  0.29630910668E+03  0.12700000000E+01 0. -1.
         25    2    1    2    0    0  0.00000000000E+00  0.00000000000E+00 -0.28315649943E+03  0.30952017746E+03  0.12500054833E+03 0.  0.
    9000005    1    3    3    0    0 -0.36842138382E+02 -0.27695301519E+02 -0.37082601921E+02  0.59164957973E+02  0.10000000000E+01 0.  0.
    9000005    1    3    3    0    0  0.36842138382E+02  0.27695301519E+02 -0.24607389751E+03  0.25035521948E+03  0.10000000000E+01 0.  0.
<mgrwt>
<rscale>  0 0.12500055E+03</rscale>
<asrwt>0</asrwt>
<pdfrwt beam="2">  1        4 0.45590509E-01 0.12500055E+03</pdfrwt>
<pdfrwt beam="1">  1       -4 0.20279755E-02 0.12500055E+03</pdfrwt>
<totfact> 0.74419052E+03</totfact>
</mgrwt>
</event>
<event>
 4    1  0.3234540E-002  0.1249289E+03  0.7818608E-02  0.1235180E+00
         -4   -1    0    0    0  501 -0.00000000000E+00  0.00000000000E+00  0.14001633055E+02  0.14059111928E+02  0.12700000000E+01 0.  1.
          4   -1    0    0  501    0  0.00000000000E+00 -0.00000000000E+00 -0.27803842677E+03  0.27804132726E+03  0.12700000000E+01 0.  1.
    9000005    1    1    2    0    0  0.60070951323E+02 -0.29934116966E+01 -0.92662000117E+02  0.11047500157E+03  0.10000000000E+01 0.  0.
    9000005    1    1    2    0    0 -0.60070951323E+02  0.29934116966E+01 -0.17137479360E+03  0.18162543761E+03  0.10000000000E+01 0.  0.
<mgrwt>
<rscale>  0 0.12492893E+03</rscale>
<asrwt>0</asrwt>
<pdfrwt beam="2">  1        4 0.42779783E-01 0.12492893E+03</pdfrwt>
<pdfrwt beam="1">  1       -4 0.21587422E-02 0.12492893E+03</pdfrwt>
<totfact> 0.76721589E+03</totfact>
</mgrwt>
</event>
<event>
 5    1  0.3234540E-002  0.1250046E+03  0.7818608E-02  0.1235062E+00
          4   -1    0    0  501    0  0.00000000000E+00  0.00000000000E+00  0.32384041968E+02  0.32408935098E+02  0.12700000000E+01 0. -1.
         -4   -1    0    0    0  501 -0.00000000000E+00 -0.00000000000E+00 -0.12055705005E+03  0.12056373923E+03  0.12700000000E+01 0. -1.
         25    2    1    2    0    0  0.00000000000E+00  0.00000000000E+00 -0.88173008084E+02  0.15297267433E+03  0.12500463886E+03 0.  0.
    9000005    1    3    3    0    0 -0.20708876937E+02  0.27092500254E+02  0.20001272244E+02  0.39546327837E+02  0.10000000000E+01 0.  0.
    9000005    1    3    3    0    0  0.20708876937E+02 -0.27092500254E+02 -0.10817428033E+03  0.11342634649E+03  0.10000000000E+01 0.  0.
<mgrwt>
<rscale>  0 0.12500464E+03</rscale>
<asrwt>0</asrwt>
<pdfrwt beam="1">  1        4 0.49845898E-02 0.12500464E+03</pdfrwt>
<pdfrwt beam="2">  1       -4 0.18549668E-01 0.12500464E+03</pdfrwt>
<totfact> 0.98704105E+03</totfact>
</mgrwt>
</event>
<event>
 5    1  0.3234540E-002  0.1249972E+03  0.7818608E-02  0.1235074E+00
          4   -1    0    0  501    0  0.00000000000E+00  0.00000000000E+00  0.47379148556E+02  0.47396166701E+02  0.12700000000E+01 0. -1.
         -4   -1    0    0    0  501 -0.00000000000E+00 -0.00000000000E+00 -0.82406250496E+02  0.82416036187E+02  0.12700000000E+01 0. -1.
         25    2    1    2    0    0  0.00000000000E+00  0.00000000000E+00 -0.35027101940E+02  0.12981220289E+03  0.12499724056E+03 0.  0.
    9000005    1    3    3    0    0  0.42422292846E+02  0.29484346778E+02 -0.54026077052E+02  0.74758241264E+02  0.10000000000E+01 0.  0.
    9000005    1    3    3    0    0 -0.42422292846E+02 -0.29484346778E+02  0.18998975112E+02  0.55053961624E+02  0.10000000000E+01 0.  0.
<mgrwt>
<rscale>  0 0.12499724E+03</rscale>
<asrwt>0</asrwt>
<pdfrwt beam="1">  1        4 0.72911616E-02 0.12499724E+03</pdfrwt>
<pdfrwt beam="2">  1       -4 0.12679947E-01 0.12499724E+03</pdfrwt>
<totfact> 0.10349171E+04</totfact>
</mgrwt>
</event>
<event>
 5    1  0.3234540E-002  0.1250301E+03  0.7818608E-02  0.1235022E+00
          4   -1    0    0  501    0  0.00000000000E+00  0.00000000000E+00  0.53086802411E+02  0.53101991396E+02  0.12700000000E+01 0. -1.
         -4   -1    0    0    0  501 -0.00000000000E+00 -0.00000000000E+00 -0.73586582932E+02  0.73597541315E+02  0.12700000000E+01 0. -1.
         25    2    1    2    0    0  0.00000000000E+00  0.00000000000E+00 -0.20499780521E+02  0.12669953271E+03  0.12503011872E+03 0.  0.
    9000005    1    3    3    0    0  0.27424960110E+02  0.42047438541E+02 -0.47989836806E+02  0.69456028979E+02  0.10000000000E+01 0.  0.
    9000005    1    3    3    0    0 -0.27424960110E+02 -0.42047438541E+02  0.27490056285E+02  0.57243503731E+02  0.10000000000E+01 0.  0.
<mgrwt>
<rscale>  0 0.12503012E+03</rscale>
<asrwt>0</asrwt>
<pdfrwt beam="1">  1        4 0.81692117E-02 0.12503012E+03</pdfrwt>
<pdfrwt beam="2">  1       -4 0.11323024E-01 0.12503012E+03</pdfrwt>
<totfact> 0.10408602E+04</totfact>
</mgrwt>
</event>
<event>
 5    1  0.3234540E-002  0.1249923E+03  0.7818608E-02  0.1235081E+00
         -4   -1    0    0    0  501 -0.00000000000E+00  0.00000000000E+00  0.36043075001E+03  0.36043298747E+03  0.12700000000E+01 0.  1.
          4   -1    0    0  501    0  0.00000000000E+00 -0.00000000000E+00 -0.10796903910E+02  0.10871340030E+02  0.12700000000E+01 0.  1.
         25    2    1    2    0    0  0.00000000000E+00  0.00000000000E+00  0.34963384610E+03  0.37130432750E+03  0.12499230887E+03 0.  0.
    9000005    1    3    3    0    0  0.41617657211E+02  0.10607955528E+02  0.39981937459E+02  0.58686569462E+02  0.10000000000E+01 0.  0.
    9000005    1    3    3    0    0 -0.41617657211E+02 -0.10607955528E+02  0.30965190865E+03  0.31261775804E+03  0.10000000000E+01 0.  0.
<mgrwt>
<rscale>  0 0.12499231E+03</rscale>
<asrwt>0</asrwt>
<pdfrwt beam="2">  1        4 0.16669604E-02 0.12499231E+03</pdfrwt>
<pdfrwt beam="1">  1       -4 0.55456772E-01 0.12499231E+03</pdfrwt>
<totfact> 0.67454174E+03</totfact>
</mgrwt>
</event>
<event>
 5    1  0.3234540E-002  0.1250006E+03  0.7818608E-02  0.1235068E+00
         -4   -1    0    0    0  501 -0.00000000000E+00  0.00000000000E+00  0.30723433208E+02  0.30749670699E+02  0.12700000000E+01 0.  1.
          4   -1    0    0  501    0  0.00000000000E+00 -0.00000000000E+00 -0.12705991602E+03  0.12706626287E+03  0.12700000000E+01 0.  1.
         25    2    1    2    0    0  0.00000000000E+00  0.00000000000E+00 -0.96336482811E+02  0.15781593356E+03  0.12500060386E+03 0.  0.
    9000005    1    3    3    0    0  0.30777759648E+02 -0.26511594609E+02 -0.10812342061E+03  0.11550674969E+03  0.10000000000E+01 0.  0.
    9000005    1    3    3    0    0 -0.30777759648E+02  0.26511594609E+02  0.11786937804E+02  0.42309183878E+02  0.10000000000E+01 0.  0.
<mgrwt>
<rscale>  0 0.12500060E+03</rscale>
<asrwt>0</asrwt>
<pdfrwt beam="2">  1        4 0.19550186E-01 0.12500060E+03</pdfrwt>
<pdfrwt beam="1">  1       -4 0.47291886E-02 0.12500060E+03</pdfrwt>
<totfact> 0.97764188E+03</totfact>
</mgrwt>
</event>
<event>
 5    1  0.3234540E-002  0.1249927E+03  0.7818608E-02  0.1235081E+00
          4   -1    0    0  501    0  0.00000000000E+00  0.00000000000E+00  0.39215259560E+02  0.39235818870E+02  0.12700000000E+01 0.  1.
         -4   -1    0    0    0  501 -0.00000000000E+00 -0.00000000000E+00 -0.99548108352E+02  0.99556209131E+02  0.12700000000E+01 0.  1.
         25    2    1    2    0    0  0.00000000000E+00  0.00000000000E+00 -0.60332848792E+02  0.13879202800E+03  0.12499269736E+03 0.  0.
    9000005    1    3    3    0    0 -0.27927067621E+02  0.55334595447E+02 -0.21356034460E+02  0.65566140401E+02  0.10000000000E+01 0.  0.
    9000005    1    3    3    0    0  0.27927067621E+02 -0.55334595447E+02 -0.38976814332E+02  0.73225887599E+02  0.10000000000E+01 0.  0.
<mgrwt>
<rscale>  0 0.12499270E+03</rscale>
<asrwt>0</asrwt>
<pdfrwt beam="1">  1        4 0.60353215E-02 0.12499270E+03</pdfrwt>
<pdfrwt beam="2">  1       -4 0.15317298E-01 0.12499270E+03</pdfrwt>
<totfact> 0.10160355E+04</totfact>
</mgrwt>
</event>
<event>
 5    1  0.3234540E-002  0.1250117E+03  0.7818608E-02  0.1235051E+00
          4   -1    0    0  501    0  0.00000000000E+00  0.00000000000E+00  0.58344137946E+03  0.58344276169E+03  0.12700000000E+01 0.  1.
         -4   -1    0    0    0  501 -0.00000000000E+00 -0.00000000000E+00 -0.66348236871E+01  0.67552783332E+01  0.12700000000E+01 0.  1.
         25    2    1    2    0    0  0.00000000000E+00  0.00000000000E+00  0.57680655577E+03  0.59019804002E+03  0.12501169410E+03 0.  0.
    9000005    1    3    3    0    0 -0.29622833285E+02  0.26835804503E+02  0.51522989993E+03  0.51677898800E+03  0.10000000000E+01 0.  0.
    9000005    1    3    3    0    0  0.29622833285E+02 -0.26835804503E+02  0.61576655845E+02  0.73419052025E+02  0.10000000000E+01 0.  0.
<mgrwt>
<rscale>  0 0.12501169E+03</rscale>
<asrwt>0</asrwt>
<pdfrwt beam="1">  1        4 0.89769622E-01 0.12501169E+03</pdfrwt>
<pdfrwt beam="2">  1       -4 0.10301137E-02 0.12501169E+03</pdfrwt>
<totfact> 0.49479534E+03</totfact>
</mgrwt>
</event>
<event>
 5    1  0.3234540E-002  0.1249918E+03  0.7818608E-02  0.1235082E+00
          4   -1    0    0  501    0  0.00000000000E+00  0.00000000000E+00  0.28388369704E+02  0.28416763265E+02  0.12700000000E+01 0.  1.
         -4   -1    0    0    0  501 -0.00000000000E+00 -0.00000000000E+00 -0.13748215927E+03  0.13748802499E+03  0.12700000000E+01 0.  1.
         25    2    1    2    0    0  0.00000000000E+00  0.00000000000E+00 -0.10909378956E+03  0.16590478826E+03  0.12499177511E+03 0.  0.
    9000005    1    3    3    0    0 -0.13718162582E+02 -0.36439874897E+02 -0.11941882034E+03  0.12561013939E+03  0.10000000000E+01 0.  0.
    9000005    1    3    3    0    0  0.13718162582E+02  0.36439874897E+02  0.10325030771E+02  0.40294648871E+02  0.10000000000E+01 0.  0.
<mgrwt>
<rscale>  0 0.12499178E+03</rscale>
<asrwt>0</asrwt>
<pdfrwt beam="1">  1        4 0.43700769E-02 0.12499178E+03</pdfrwt>
<pdfrwt beam="2">  1       -4 0.21153736E-01 0.12499178E+03</pdfrwt>
<totfact> 0.96234092E+03</totfact>
</mgrwt>
</event>
<event>
 5    1  0.3234540E-002  0.1250103E+03  0.7818608E-02  0.1235053E+00
         -4   -1    0    0    0  501 -0.00000000000E+00  0.00000000000E+00  0.26331542388E+02  0.26362151364E+02  0.12700000000E+01 0.  1.
          4   -1    0    0  501    0  0.00000000000E+00 -0.00000000000E+00 -0.14825351674E+03  0.14825895631E+03  0.12700000000E+01 0.  1.
         25    2    1    2    0    0  0.00000000000E+00  0.00000000000E+00 -0.12192197435E+03  0.17462110768E+03  0.12501025324E+03 0.  0.
    9000005    1    3    3    0    0  0.26506531698E+02  0.51957067494E+02 -0.29609223123E+02  0.65420479814E+02  0.10000000000E+01 0.  0.
    9000005    1    3    3    0    0 -0.26506531698E+02 -0.51957067494E+02 -0.92312751232E+02  0.10920062786E+03  0.10000000000E+01 0.  0.
<mgrwt>
<rscale>  0 0.12501025E+03</rscale>
<asrwt>0</asrwt>
<pdfrwt beam="2">  1        4 0.22811006E-01 0.12501025E+03</pdfrwt>
<pdfrwt beam="1">  1       -4 0.40537796E-02 0.12501025E+03</pdfrwt>
<totfact> 0.94572524E+03</totfact>
</mgrwt>
</event>
<event>
 5    1  0.3234540E-002  0.1249993E+03  0.7818608E-02  0.1235070E+00
         -4   -1    0    0    0  501 -0.00000000000E+00  0.00000000000E+00  0.32019464578E+03  0.32019716440E+03  0.12700000000E+01 0.  1.
          4   -1    0    0  501    0  0.00000000000E+00 -0.00000000000E+00 -0.12163842392E+02  0.12229961641E+02  0.12700000000E+01 0.  1.
         25    2    1    2    0    0  0.00000000000E+00  0.00000000000E+00  0.30803080339E+03  0.33242712604E+03  0.12499927315E+03 0.  0.
    9000005    1    3    3    0    0 -0.49023015376E+02  0.29577418904E+02  0.87416669132E+02  0.10450241044E+03  0.10000000000E+01 0.  0.
    9000005    1    3    3    0    0  0.49023015376E+02 -0.29577418904E+02  0.22061413426E+03  0.22792471560E+03  0.10000000000E+01 0.  0.
<mgrwt>
<rscale>  0 0.12499927E+03</rscale>
<asrwt>0</asrwt>
<pdfrwt beam="2">  1        4 0.18766400E-02 0.12499927E+03</pdfrwt>
<pdfrwt beam="1">  1       -4 0.49266000E-01 0.12499927E+03</pdfrwt>
<totfact> 0.71703209E+03</totfact>
</mgrwt>
</event>
<event>
 5    1  0.3234540E-002  0.1250055E+03  0.7818608E-02  0.1235061E+00
         -4   -1    0    0    0  501 -0.00000000000E+00  0.00000000000E+00  0.10168022838E+03  0.10168815931E+03  0.12700000000E+01 0. -1.
          4   -1    0    0  501    0  0.00000000000E+00 -0.00000000000E+00 -0.38400453968E+02  0.38421449282E+02  0.12700000000E+01 0. -1.
         25    2    1    2    0    0  0.00000000000E+00  0.00000000000E+00  0.63279774414E+02  0.14010960859E+03  0.12500549016E+03 0.  0.
    9000005    1    3    3    0    0  0.40340692465E+02  0.39014178549E+02  0.81986720924E+00  0.56135102910E+02  0.10000000000E+01 0.  0.
    9000005    1    3    3    0    0 -0.40340692465E+02 -0.39014178549E+02  0.62459907205E+02  0.83974505682E+02  0.10000000000E+01 0.  0.
<mgrwt>
<rscale>  0 0.12500549E+03</rscale>
<asrwt>0</asrwt>
<pdfrwt beam="2">  1        4 0.59099873E-02 0.12500549E+03</pdfrwt>
<pdfrwt beam="1">  1       -4 0.15645337E-01 0.12500549E+03</pdfrwt>
<totfact> 0.10130062E+04</totfact>
</mgrwt>
</event>
<event>
 5    1  0.3234540E-002  0.1249994E+03  0.7818608E-02  0.1235070E+00
          4   -1    0    0  501    0  0.00000000000E+00  0.00000000000E+00  0.17270436159E+03  0.17270903107E+03  0.12700000000E+01 0.  1.
         -4   -1    0    0    0  501 -0.00000000000E+00 -0.00000000000E+00 -0.22595123560E+02  0.22630786745E+02  0.12700000000E+01 0.  1.
         25    2    1    2    0    0  0.00000000000E+00  0.00000000000E+00  0.15010923803E+03  0.19533981781E+03  0.12499944432E+03 0.  0.
    9000005    1    3    3    0    0 -0.44025256657E+02 -0.29618104279E+02  0.12664255076E+03  0.13731274882E+03  0.10000000000E+01 0.  0.
    9000005    1    3    3    0    0  0.44025256657E+02  0.29618104279E+02  0.23466687272E+02  0.58027068996E+02  0.10000000000E+01 0.  0.
<mgrwt>
<rscale>  0 0.12499944E+03</rscale>
<asrwt>0</asrwt>
<pdfrwt beam="1">  1        4 0.26573003E-01 0.12499944E+03</pdfrwt>
<pdfrwt beam="2">  1       -4 0.34792755E-02 0.12499944E+03</pdfrwt>
<totfact> 0.90927547E+03</totfact>
</mgrwt>
</event>
<event>
 5    1  0.3234540E-002  0.1250135E+03  0.7818608E-02  0.1235048E+00
          4   -1    0    0  501    0  0.00000000000E+00  0.00000000000E+00  0.38091605323E+02  0.38112770774E+02  0.12700000000E+01 0. -1.
         -4   -1    0    0    0  501 -0.00000000000E+00 -0.00000000000E+00 -0.10251733306E+03  0.10252519923E+03  0.12700000000E+01 0. -1.
         25    2    1    2    0    0  0.00000000000E+00  0.00000000000E+00 -0.64425727734E+02  0.14063797000E+03  0.12501345613E+03 0.  0.
    9000005    1    3    3    0    0 -0.43856671662E+01  0.79866337331E+00 -0.10234377301E+03  0.10244569202E+03  0.10000000000E+01 0.  0.
    9000005    1    3    3    0    0  0.43856671662E+01 -0.79866337331E+00  0.37918045278E+02  0.38192277981E+02  0.10000000000E+01 0.  0.
<mgrwt>
<rscale>  0 0.12501346E+03</rscale>
<asrwt>0</asrwt>
<pdfrwt beam="1">  1        4 0.58624802E-02 0.12501346E+03</pdfrwt>
<pdfrwt beam="2">  1       -4 0.15774131E-01 0.12501346E+03</pdfrwt>
<totfact> 0.10117313E+04</totfact>
</mgrwt>
</event>
<event>
 5    1  0.3234540E-002  0.1250022E+03  0.7818608E-02  0.1235066E+00
         -4   -1    0    0    0  501 -0.00000000000E+00  0.00000000000E+00  0.20111514828E+03  0.20111915813E+03  0.12700000000E+01 0.  1.
          4   -1    0    0  501    0  0.00000000000E+00 -0.00000000000E+00 -0.19398678231E+02  0.19440206201E+02  0.12700000000E+01 0.  1.
         25    2    1    2    0    0  0.00000000000E+00  0.00000000000E+00  0.18171647005E+03  0.22055936433E+03  0.12500223081E+03 0.  0.
    9000005    1    3    3    0    0  0.34844882094E+02  0.51231992053E+02  0.76468919337E+02  0.98424480910E+02  0.10000000000E+01 0.  0.
    9000005    1    3    3    0    0 -0.34844882094E+02 -0.51231992053E+02  0.10524755071E+03  0.12213488342E+03  0.10000000000E+01 0.  0.
<mgrwt>
<rscale>  0 0.12500223E+03</rscale>
<asrwt>0</asrwt>
<pdfrwt beam="2">  1        4 0.29879148E-02 0.12500223E+03</pdfrwt>
<pdfrwt beam="1">  1       -4 0.30944296E-01 0.12500223E+03</pdfrwt>
<totfact> 0.86775589E+03</totfact>
</mgrwt>
</event>
<event>
 5    1  0.3234540E-002  0.1250057E+03  0.7818608E-02  0.1235060E+00
         -4   -1    0    0    0  501 -0.00000000000E+00  0.00000000000E+00  0.12672442965E+04  0.12672449329E+04  0.12700000000E+01 0. -1.
          4   -1    0    0  501    0  0.00000000000E+00 -0.00000000000E+00 -0.29512946258E+01  0.32129487964E+01  0.12700000000E+01 0. -1.
         25    2    1    2    0    0  0.00000000000E+00  0.00000000000E+00  0.12642930019E+04  0.12704578817E+04  0.12500573798E+03 0.  0.
    9000005    1    3    3    0    0  0.11350710538E+02  0.37975982465E+02  0.11232082163E+04  0.11239077859E+04  0.10000000000E+01 0.  0.
    9000005    1    3    3    0    0 -0.11350710538E+02 -0.37975982465E+02  0.14108478558E+03  0.14655009586E+03  0.10000000000E+01 0.  0.
<mgrwt>
<rscale>  0 0.12500574E+03</rscale>
<asrwt>0</asrwt>
<pdfrwt beam="2">  1        4 0.47421978E-03 0.12500574E+03</pdfrwt>
<pdfrwt beam="1">  1       -4 0.19498155E+00 0.12500574E+03</pdfrwt>
<totfact> 0.22933694E+03</totfact>
</mgrwt>
</event>
<event>
 5    1  0.3234540E-002  0.1249969E+03  0.7818608E-02  0.1235074E+00
          4   -1    0    0  501    0  0.00000000000E+00  0.00000000000E+00  0.12737575876E+03  0.12738208987E+03  0.12700000000E+01 0. -1.
         -4   -1    0    0    0  501 -0.00000000000E+00 -0.00000000000E+00 -0.30645357403E+02  0.30671661683E+02  0.12700000000E+01 0. -1.
         25    2    1    2    0    0  0.00000000000E+00  0.00000000000E+00  0.96730401359E+02  0.15805375155E+03  0.12499687129E+03 0.  0.
    9000005    1    3    3    0    0 -0.24569632369E+02  0.56304471286E+02  0.33882055658E+02  0.70163053077E+02  0.10000000000E+01 0.  0.
    9000005    1    3    3    0    0  0.24569632369E+02 -0.56304471286E+02  0.62848345700E+02  0.87890698477E+02  0.10000000000E+01 0.  0.
<mgrwt>
<rscale>  0 0.12499687E+03</rscale>
<asrwt>0</asrwt>
<pdfrwt beam="1">  1        4 0.19598781E-01 0.12499687E+03</pdfrwt>
<pdfrwt beam="2">  1       -4 0.47171808E-02 0.12499687E+03</pdfrwt>
<totfact> 0.97726198E+03</totfact>
</mgrwt>
</event>
<event>
 5    1  0.3234540E-002  0.1249988E+03  0.7818608E-02  0.1235071E+00
          4   -1    0    0  501    0  0.00000000000E+00  0.00000000000E+00  0.24495708622E+02  0.24528608622E+02  0.12700000000E+01 0. -1.
         -4   -1    0    0    0  501 -0.00000000000E+00 -0.00000000000E+00 -0.15932112800E+03  0.15932618971E+03  0.12700000000E+01 0. -1.
         25    2    1    2    0    0  0.00000000000E+00  0.00000000000E+00 -0.13482541938E+03  0.18385479834E+03  0.12499877263E+03 0.  0.
    9000005    1    3    3    0    0  0.62184401125E+02  0.42259640650E+01 -0.74058421603E+02  0.96800869448E+02  0.10000000000E+01 0.  0.
    9000005    1    3    3    0    0 -0.62184401125E+02 -0.42259640650E+01 -0.60766997779E+02  0.87053928887E+02  0.10000000000E+01 0.  0.
<mgrwt>
<rscale>  0 0.12499877E+03</rscale>
<asrwt>0</asrwt>
<pdfrwt beam="1">  1        4 0.37714908E-02 0.12499877E+03</pdfrwt>
<pdfrwt beam="2">  1       -4 0.24513862E-01 0.12499877E+03</pdfrwt>
<totfact> 0.92930250E+03</totfact>
</mgrwt>
</event>
<event>
 5    1  0.3234540E-002  0.1250466E+03  0.7818608E-02  0.1234996E+00
         -4   -1    0    0    0  501 -0.00000000000E+00  0.00000000000E+00  0.37965592705E+02  0.37986828368E+02  0.12700000000E+01 0.  1.
          4   -1    0    0  501    0  0.00000000000E+00 -0.00000000000E+00 -0.10291198843E+03  0.10291982444E+03  0.12700000000E+01 0.  1.
         25    2    1    2    0    0  0.00000000000E+00  0.00000000000E+00 -0.64946395726E+02  0.14090665281E+03  0.12504659327E+03 0.  0.
    9000005    1    3    3    0    0 -0.53928599154E+02  0.30529137058E+02 -0.41754405580E+02  0.74731200991E+02  0.10000000000E+01 0.  0.
    9000005    1    3    3    0    0  0.53928599154E+02 -0.30529137058E+02 -0.23191990146E+02  0.66175451817E+02  0.10000000000E+01 0.  0.
<mgrwt>
<rscale>  0 0.12504659E+03</rscale>
<asrwt>0</asrwt>
<pdfrwt beam="2">  1        4 0.15834850E-01 0.12504659E+03</pdfrwt>
<pdfrwt beam="1">  1       -4 0.58430967E-02 0.12504659E+03</pdfrwt>
<totfact> 0.10104220E+04</totfact>
</mgrwt>
</event>
<event>
 5    1  0.3234540E-002  0.1250058E+03  0.7818608E-02  0.1235060E+00
          4   -1    0    0  501    0  0.00000000000E+00  0.00000000000E+00  0.28390032676E+01  0.31101188970E+01  0.12700000000E+01 0. -1.
         -4   -1    0    0    0  501 -0.00000000000E+00 -0.00000000000E+00 -0.13130687349E+04  0.13130693490E+04  0.12700000000E+01 0. -1.
         25    2    1    2    0    0  0.00000000000E+00  0.00000000000E+00 -0.13102297316E+04  0.13161794679E+04  0.12500576886E+03 0.  0.
    9000005    1    3    3    0    0 -0.61720907873E+02  0.87445939838E+01 -0.60841547817E+03  0.61160144904E+03  0.10000000000E+01 0.  0.
    9000005    1    3    3    0    0  0.61720907873E+02 -0.87445939838E+01 -0.70181425342E+03  0.70457801889E+03  0.10000000000E+01 0.  0.
<mgrwt>
<rscale>  0 0.12500577E+03</rscale>
<asrwt>0</asrwt>
<pdfrwt beam="1">  1        4 0.45767307E-03 0.12500577E+03</pdfrwt>
<pdfrwt beam="2">  1       -4 0.20203101E+00 0.12500577E+03</pdfrwt>
<totfact> 0.21847165E+03</totfact>
</mgrwt>
</event>
<event>
 5    1  0.3234540E-002  0.1249988E+03  0.7818608E-02  0.1235071E+00
         -4   -1    0    0    0  501 -0.00000000000E+00  0.00000000000E+00  0.20790496852E+02  0.20829250091E+02  0.12700000000E+01 0.  1.
          4   -1    0    0  501    0  0.00000000000E+00 -0.00000000000E+00 -0.18766687842E+03  0.18767117561E+03  0.12700000000E+01 0.  1.
         25    2    1    2    0    0  0.00000000000E+00  0.00000000000E+00 -0.16687638157E+03  0.20850042570E+03  0.12499880317E+03 0.  0.
    9000005    1    3    3    0    0 -0.31118865858E+02 -0.34646342574E+02 -0.15294522733E+03  0.15988119160E+03  0.10000000000E+01 0.  0.
    9000005    1    3    3    0    0  0.31118865858E+02  0.34646342574E+02 -0.13931154242E+02  0.48619234101E+02  0.10000000000E+01 0.  0.
<mgrwt>
<rscale>  0 0.12499880E+03</rscale>
<asrwt>0</asrwt>
<pdfrwt beam="2">  1        4 0.28875138E-01 0.12499880E+03</pdfrwt>
<pdfrwt beam="1">  1       -4 0.32018497E-02 0.12499880E+03</pdfrwt>
<totfact> 0.88723743E+03</totfact>
</mgrwt>
</event>
<event>
 5    1  0.3234540E-002  0.1249996E+03  0.7818608E-02  0.1235070E+00
         -4   -1    0    0    0  501 -0.00000000000E+00  0.00000000000E+00  0.65229795309E+01  0.66454617568E+01  0.12700000000E+01 0.  1.
          4   -1    0    0  501    0  0.00000000000E+00 -0.00000000000E+00 -0.59314740132E+03  0.59314876093E+03  0.12700000000E+01 0.  1.
         25    2    1    2    0    0  0.00000000000E+00  0.00000000000E+00 -0.58662442179E+03  0.59979422268E+03  0.12499958931E+03 0.  0.
    9000005    1    3    3    0    0  0.34870236380E+02  0.26352984543E+02 -0.50762327166E+03  0.50950250158E+03  0.10000000000E+01 0.  0.
    9000005    1    3    3    0    0 -0.34870236380E+02 -0.26352984543E+02 -0.79001150122E+02  0.90291721105E+02  0.10000000000E+01 0.  0.
<mgrwt>
<rscale>  0 0.12499959E+03</rscale>
<asrwt>0</asrwt>
<pdfrwt beam="2">  1        4 0.91262930E-01 0.12499959E+03</pdfrwt>
<pdfrwt beam="1">  1       -4 0.10130621E-02 0.12499959E+03</pdfrwt>
<totfact> 0.48881059E+03</totfact>
</mgrwt>
</event>
<event>
 5    1  0.3234540E-002  0.1249967E+03  0.7818608E-02  0.1235074E+00
          4   -1    0    0  501    0  0.00000000000E+00  0.00000000000E+00  0.56615934459E+01  0.58022875098E+01  0.12700000000E+01 0.  1.
         -4   -1    0    0    0  501 -0.00000000000E+00 -0.00000000000E+00 -0.68131077052E+03  0.68131195420E+03  0.12700000000E+01 0.  1.
         25    2    1    2    0    0  0.00000000000E+00  0.00000000000E+00 -0.67564917708E+03  0.68711424171E+03  0.12499668264E+03 0.  0.
    9000005    1    3    3    0    0 -0.51500664064E+02  0.14941111666E+02 -0.16144797837E+03  0.17012349907E+03  0.10000000000E+01 0.  0.
    9000005    1    3    3    0    0  0.51500664064E+02 -0.14941111666E+02 -0.51420119871E+03  0.51699074264E+03  0.10000000000E+01 0.  0.
<mgrwt>
<rscale>  0 0.12499668E+03</rscale>
<asrwt>0</asrwt>
<pdfrwt beam="1">  1        4 0.88192859E-03 0.12499668E+03</pdfrwt>
<pdfrwt beam="2">  1       -4 0.10482789E+00 0.12499668E+03</pdfrwt>
<totfact> 0.43778899E+03</totfact>
</mgrwt>
</event>
<event>
 5    1  0.3234540E-002  0.1250127E+03  0.7818608E-02  0.1235049E+00
          4   -1    0    0  501    0  0.00000000000E+00  0.00000000000E+00  0.66148875484E+02  0.66161065800E+02  0.12700000000E+01 0.  1.
         -4   -1    0    0    0  501 -0.00000000000E+00 -0.00000000000E+00 -0.59039939029E+02  0.59053596847E+02  0.12700000000E+01 0.  1.
         25    2    1    2    0    0  0.00000000000E+00  0.00000000000E+00  0.71089364542E+01  0.12521466265E+03  0.12501269841E+03 0.  0.
    9000005    1    3    3    0    0 -0.52744947065E+02 -0.23421745644E+02  0.27581471251E+02  0.63971440239E+02  0.10000000000E+01 0.  0.
    9000005    1    3    3    0    0  0.52744947065E+02  0.23421745644E+02 -0.20472534797E+02  0.61243222408E+02  0.10000000000E+01 0.  0.
<mgrwt>
<rscale>  0 0.12501270E+03</rscale>
<asrwt>0</asrwt>
<pdfrwt beam="1">  1        4 0.10178738E-01 0.12501270E+03</pdfrwt>
<pdfrwt beam="2">  1       -4 0.90850559E-02 0.12501270E+03</pdfrwt>
<totfact> 0.10445204E+04</totfact>
</mgrwt>
</event>
<event>
 5    1  0.3234540E-002  0.1249883E+03  0.7818608E-02  0.1235088E+00
         -4   -1    0    0    0  501 -0.00000000000E+00  0.00000000000E+00  0.71247881090E+03  0.71247994280E+03  0.12700000000E+01 0.  1.
          4   -1    0    0  501    0  0.00000000000E+00 -0.00000000000E+00 -0.54068826152E+01  0.55540327344E+01  0.12700000000E+01 0.  1.
         25    2    1    2    0    0  0.00000000000E+00  0.00000000000E+00  0.70707192829E+03  0.71803397553E+03  0.12498831242E+03 0.  0.
    9000005    1    3    3    0    0  0.44947845171E+02  0.21963712486E+02  0.13844628869E+03  0.14721103323E+03  0.10000000000E+01 0.  0.
    9000005    1    3    3    0    0 -0.44947845171E+02 -0.21963712486E+02  0.56862563960E+03  0.57082294230E+03  0.10000000000E+01 0.  0.
<mgrwt>
<rscale>  0 0.12498831E+03</rscale>
<asrwt>0</asrwt>
<pdfrwt beam="2">  1        4 0.84323472E-03 0.12498831E+03</pdfrwt>
<pdfrwt beam="1">  1       -4 0.10962349E+00 0.12498831E+03</pdfrwt>
<totfact> 0.42162431E+03</totfact>
</mgrwt>
</event>
<event>
 5    1  0.3234540E-002  0.1250017E+03  0.7818608E-02  0.1235067E+00
         -4   -1    0    0    0  501 -0.00000000000E+00  0.00000000000E+00  0.52488670344E+02  0.52504032364E+02  0.12700000000E+01 0.  1.
          4   -1    0    0  501    0  0.00000000000E+00 -0.00000000000E+00 -0.74391137895E+02  0.74401977778E+02  0.12700000000E+01 0.  1.
         25    2    1    2    0    0  0.00000000000E+00  0.00000000000E+00 -0.21902467551E+02  0.12690601014E+03  0.12500166929E+03 0.  0.
    9000005    1    3    3    0    0  0.46658246178E+02 -0.40759687936E+02 -0.26405463971E+01  0.62018679302E+02  0.10000000000E+01 0.  0.
    9000005    1    3    3    0    0 -0.46658246178E+02  0.40759687936E+02 -0.19261921154E+02  0.64887330841E+02  0.10000000000E+01 0.  0.
<mgrwt>
<rscale>  0 0.12500167E+03</rscale>
<asrwt>0</asrwt>
<pdfrwt beam="2">  1        4 0.11446806E-01 0.12500167E+03</pdfrwt>
<pdfrwt beam="1">  1       -4 0.80771956E-02 0.12500167E+03</pdfrwt>
<totfact> 0.10410796E+04</totfact>
</mgrwt>
</event>
<event>
 5    1  0.3234540E-002  0.1249998E+03  0.7818608E-02  0.1235070E+00
          4   -1    0    0  501    0  0.00000000000E+00  0.00000000000E+00  0.21604072988E+02  0.21641369404E+02  0.12700000000E+01 0.  1.
         -4   -1    0    0    0  501 -0.00000000000E+00 -0.00000000000E+00 -0.18061479926E+03  0.18061926423E+03  0.12700000000E+01 0.  1.
         25    2    1    2    0    0  0.00000000000E+00  0.00000000000E+00 -0.15901072627E+03  0.20226063363E+03  0.12499981140E+03 0.  0.
    9000005    1    3    3    0    0 -0.13100981310E+02 -0.46908686468E+02 -0.14286289394E+03  0.15093994515E+03  0.10000000000E+01 0.  0.
    9000005    1    3    3    0    0  0.13100981310E+02  0.46908686468E+02 -0.16147832331E+02  0.51320688484E+02  0.10000000000E+01 0.  0.
<mgrwt>
<rscale>  0 0.12499981E+03</rscale>
<asrwt>0</asrwt>
<pdfrwt beam="1">  1        4 0.33269161E-02 0.12499981E+03</pdfrwt>
<pdfrwt beam="2">  1       -4 0.27790104E-01 0.12499981E+03</pdfrwt>
<totfact> 0.89756007E+03</totfact>
</mgrwt>
</event>
<event>
 5    1  0.3234540E-002  0.1250005E+03  0.7818608E-02  0.1235069E+00
         -4   -1    0    0    0  501 -0.00000000000E+00  0.00000000000E+00  0.12748524559E+02  0.12811626689E+02  0.12700000000E+01 0. -1.
          4   -1    0    0  501    0  0.00000000000E+00 -0.00000000000E+00 -0.30558936449E+03  0.30559200347E+03  0.12700000000E+01 0. -1.
         25    2    1    2    0    0  0.00000000000E+00  0.00000000000E+00 -0.29284083993E+03  0.31840363016E+03  0.12500045669E+03 0.  0.
    9000005    1    3    3    0    0  0.51337040529E+02 -0.24212290792E+02 -0.21301702994E+03  0.22045176751E+03  0.10000000000E+01 0.  0.
    9000005    1    3    3    0    0 -0.51337040529E+02  0.24212290792E+02 -0.79823809992E+02  0.97951862653E+02  0.10000000000E+01 0.  0.
<mgrwt>
<rscale>  0 0.12500046E+03</rscale>
<asrwt>0</asrwt>
<pdfrwt beam="2">  1        4 0.47018800E-01 0.12500046E+03</pdfrwt>
<pdfrwt beam="1">  1       -4 0.19663687E-02 0.12500046E+03</pdfrwt>
<totfact> 0.73345655E+03</totfact>
</mgrwt>
</event>
<event>
 5    1  0.3234540E-002  0.1249951E+03  0.7818608E-02  0.1235077E+00
          4   -1    0    0  501    0  0.00000000000E+00  0.00000000000E+00  0.79190433056E+03  0.79190534893E+03  0.12700000000E+01 0.  1.
         -4   -1    0    0    0  501 -0.00000000000E+00 -0.00000000000E+00 -0.48495527773E+01  0.50130890816E+01  0.12700000000E+01 0.  1.
         25    2    1    2    0    0  0.00000000000E+00  0.00000000000E+00  0.78705477778E+03  0.79691843801E+03  0.12499509434E+03 0.  0.
    9000005    1    3    3    0    0  0.49634470043E+02 -0.22211457710E+02  0.58983098984E+03  0.59233312084E+03  0.10000000000E+01 0.  0.
    9000005    1    3    3    0    0 -0.49634470043E+02  0.22211457710E+02  0.19722378795E+03  0.20458531717E+03  0.10000000000E+01 0.  0.
<mgrwt>
<rscale>  0 0.12499509E+03</rscale>
<asrwt>0</asrwt>
<pdfrwt beam="1">  1        4 0.12184410E+00 0.12499509E+03</pdfrwt>
<pdfrwt beam="2">  1       -4 0.75874303E-03 0.12499509E+03</pdfrwt>
<totfact> 0.38406777E+03</totfact>
</mgrwt>
</event>
<event>
 5    1  0.3234540E-002  0.1250025E+03  0.7818608E-02  0.1235065E+00
         -4   -1    0    0    0  501 -0.00000000000E+00  0.00000000000E+00  0.73643822124E+03  0.73643931631E+03  0.12700000000E+01 0.  1.
          4   -1    0    0  501    0  0.00000000000E+00 -0.00000000000E+00 -0.52273242893E+01  0.53793883691E+01  0.12700000000E+01 0.  1.
         25    2    1    2    0    0  0.00000000000E+00  0.00000000000E+00  0.73121089695E+03  0.74181870468E+03  0.12500245913E+03 0.  0.
    9000005    1    3    3    0    0 -0.37713880930E+02 -0.28244066526E+02  0.12197984152E+03  0.13076752597E+03  0.10000000000E+01 0.  0.
    9000005    1    3    3    0    0  0.37713880930E+02  0.28244066526E+02  0.60923105543E+03  0.61105117871E+03  0.10000000000E+01 0.  0.
<mgrwt>
<rscale>  0 0.12500246E+03</rscale>
<asrwt>0</asrwt>
<pdfrwt beam="2">  1        4 0.81598483E-03 0.12500246E+03</pdfrwt>
<pdfrwt beam="1">  1       -4 0.11331002E+00 0.12500246E+03</pdfrwt>
<totfact> 0.40966317E+03</totfact>
</mgrwt>
</event>
<event>
 4    1  0.3234540E-002  0.1251512E+03  0.7818608E-02  0.1234833E+00
          4   -1    0    0  501    0  0.00000000000E+00  0.00000000000E+00  0.10958295139E+03  0.10959031041E+03  0.12700000000E+01 0.  1.
         -4   -1    0    0    0  501 -0.00000000000E+00 -0.00000000000E+00 -0.35712945918E+02  0.35735520230E+02  0.12700000000E+01 0.  1.
    9000005    1    1    2    0    0  0.31640661525E+02 -0.50725788783E+02  0.15508769915E+02  0.61771830584E+02  0.10000000000E+01 0.  0.
    9000005    1    1    2    0    0 -0.31640661525E+02  0.50725788783E+02  0.58361235557E+02  0.83554000055E+02  0.10000000000E+01 0.  0.
<mgrwt>
<rscale>  0 0.12515119E+03</rscale>
<asrwt>0</asrwt>
<pdfrwt beam="1">  1        4 0.16861218E-01 0.12515119E+03</pdfrwt>
<pdfrwt beam="2">  1       -4 0.54966020E-02 0.12515119E+03</pdfrwt>
<totfact> 0.99903231E+03</totfact>
</mgrwt>
</event>
<event>
 5    1  0.3234540E-002  0.1250069E+03  0.7818608E-02  0.1235059E+00
          4   -1    0    0  501    0  0.00000000000E+00  0.00000000000E+00  0.58349008275E+02  0.58362827782E+02  0.12700000000E+01 0. -1.
         -4   -1    0    0    0  501 -0.00000000000E+00 -0.00000000000E+00 -0.66925903037E+02  0.66937951845E+02  0.12700000000E+01 0. -1.
         25    2    1    2    0    0  0.00000000000E+00  0.00000000000E+00 -0.85768947614E+01  0.12530077963E+03  0.12500688882E+03 0.  0.
    9000005    1    3    3    0    0 -0.48403596750E+02  0.34620454078E+02  0.14840353075E+02  0.61341014813E+02  0.10000000000E+01 0.  0.
    9000005    1    3    3    0    0  0.48403596750E+02 -0.34620454078E+02 -0.23417247837E+02  0.63959764814E+02  0.10000000000E+01 0.  0.
<mgrwt>
<rscale>  0 0.12500689E+03</rscale>
<asrwt>0</asrwt>
<pdfrwt beam="1">  1        4 0.89787604E-02 0.12500689E+03</pdfrwt>
<pdfrwt beam="2">  1       -4 0.10298283E-01 0.12500689E+03</pdfrwt>
<totfact> 0.10444707E+04</totfact>
</mgrwt>
</event>
<event>
 5    1  0.3234540E-002  0.1250002E+03  0.7818608E-02  0.1235069E+00
         -4   -1    0    0    0  501 -0.00000000000E+00  0.00000000000E+00  0.51188707261E+01  0.52740627140E+01  0.12700000000E+01 0.  1.
          4   -1    0    0  501    0  0.00000000000E+00 -0.00000000000E+00 -0.75155922727E+03  0.75156030030E+03  0.12700000000E+01 0.  1.
         25    2    1    2    0    0  0.00000000000E+00  0.00000000000E+00 -0.74644035654E+03  0.75683436302E+03  0.12500018868E+03 0.  0.
    9000005    1    3    3    0    0 -0.48240190575E+02 -0.13364428173E+02 -0.14671272332E+03  0.15502047320E+03  0.10000000000E+01 0.  0.
    9000005    1    3    3    0    0  0.48240190575E+02  0.13364428173E+02 -0.59972763322E+03  0.60181388982E+03  0.10000000000E+01 0.  0.
<mgrwt>
<rscale>  0 0.12500019E+03</rscale>
<asrwt>0</asrwt>
<pdfrwt beam="2">  1        4 0.11563643E+00 0.12500019E+03</pdfrwt>
<pdfrwt beam="1">  1       -4 0.79953955E-03 0.12500019E+03</pdfrwt>
<totfact> 0.40249223E+03</totfact>
</mgrwt>
</event>
<event>
 5    1  0.3234540E-002  0.1250060E+03  0.7818608E-02  0.1235060E+00
          4   -1    0    0  501    0  0.00000000000E+00  0.00000000000E+00  0.23639043693E+03  0.23639384842E+03  0.12700000000E+01 0. -1.
         -4   -1    0    0    0  501 -0.00000000000E+00 -0.00000000000E+00 -0.16498228535E+02  0.16547037342E+02  0.12700000000E+01 0. -1.
         25    2    1    2    0    0  0.00000000000E+00  0.00000000000E+00  0.21989220839E+03  0.25294088576E+03  0.12500603337E+03 0.  0.
    9000005    1    3    3    0    0  0.41823958818E+02  0.40061417674E+02  0.15746294734E+03  0.16777884403E+03  0.10000000000E+01 0.  0.
    9000005    1    3    3    0    0 -0.41823958818E+02 -0.40061417674E+02  0.62429261048E+02  0.85162041733E+02  0.10000000000E+01 0.  0.
<mgrwt>
<rscale>  0 0.12500603E+03</rscale>
<asrwt>0</asrwt>
<pdfrwt beam="1">  1        4 0.36371773E-01 0.12500603E+03</pdfrwt>
<pdfrwt beam="2">  1       -4 0.25422062E-02 0.12500603E+03</pdfrwt>
<totfact> 0.81896025E+03</totfact>
</mgrwt>
</event>
<event>
 5    1  0.3234540E-002  0.1250001E+03  0.7818608E-02  0.1235069E+00
          4   -1    0    0  501    0  0.00000000000E+00  0.00000000000E+00  0.25274047756E+02  0.25305935864E+02  0.12700000000E+01 0.  1.
         -4   -1    0    0    0  501 -0.00000000000E+00 -0.00000000000E+00 -0.15442399590E+03  0.15442921812E+03  0.12700000000E+01 0.  1.
         25    2    1    2    0    0  0.00000000000E+00  0.00000000000E+00 -0.12914994814E+03  0.17973515398E+03  0.12500006589E+03 0.  0.
    9000005    1    3    3    0    0  0.55630597862E+01 -0.57649126239E+02 -0.30826576828E+02  0.65617430833E+02  0.10000000000E+01 0.  0.
    9000005    1    3    3    0    0 -0.55630597862E+01  0.57649126239E+02 -0.98323371313E+02  0.11411772315E+03  0.10000000000E+01 0.  0.
<mgrwt>
<rscale>  0 0.12500007E+03</rscale>
<asrwt>0</asrwt>
<pdfrwt beam="1">  1        4 0.38911698E-02 0.12500007E+03</pdfrwt>
<pdfrwt beam="2">  1       -4 0.23760392E-01 0.12500007E+03</pdfrwt>
<totfact> 0.93664560E+03</totfact>
</mgrwt>
</event>
<event>
 5    1  0.3234540E-002  0.1249903E+03  0.7818608E-02  0.1235084E+00
          4   -1    0    0  501    0  0.00000000000E+00  0.00000000000E+00  0.24301801045E+03  0.24302132890E+03  0.12700000000E+01 0.  1.
         -4   -1    0    0    0  501 -0.00000000000E+00 -0.00000000000E+00 -0.16042885627E+02  0.16093075506E+02  0.12700000000E+01 0.  1.
         25    2    1    2    0    0  0.00000000000E+00  0.00000000000E+00  0.22697512482E+03  0.25911440441E+03  0.12499026876E+03 0.  0.
    9000005    1    3    3    0    0 -0.35627565176E+02  0.47125465940E+02  0.15569434763E+03  0.16652886484E+03  0.10000000000E+01 0.  0.
    9000005    1    3    3    0    0  0.35627565176E+02 -0.47125465940E+02  0.71280777189E+02  0.92585539568E+02  0.10000000000E+01 0.  0.
<mgrwt>
<rscale>  0 0.12499027E+03</rscale>
<asrwt>0</asrwt>
<pdfrwt beam="1">  1        4 0.37391499E-01 0.12499027E+03</pdfrwt>
<pdfrwt beam="2">  1       -4 0.24722525E-02 0.12499027E+03</pdfrwt>
<totfact> 0.81048060E+03</totfact>
</mgrwt>
</event>
<event>
 5    1  0.3234540E-002  0.1249993E+03  0.7818608E-02  0.1235070E+00
         -4   -1    0    0    0  501 -0.00000000000E+00  0.00000000000E+00  0.14944731754E+02  0.14998596841E+02  0.12700000000E+01 0.  1.
          4   -1    0    0  501    0  0.00000000000E+00 -0.00000000000E+00 -0.26085115858E+03  0.26085425017E+03  0.12700000000E+01 0.  1.
         25    2    1    2    0    0  0.00000000000E+00  0.00000000000E+00 -0.24590642683E+03  0.27585284701E+03  0.12499928980E+03 0.  0.
    9000005    1    3    3    0    0  0.53867100766E+00 -0.61534110245E+02 -0.98933281178E+02  0.11651408076E+03  0.10000000000E+01 0.  0.
    9000005    1    3    3    0    0 -0.53867100766E+00  0.61534110245E+02 -0.14697314565E+03  0.15933876626E+03  0.10000000000E+01 0.  0.
<mgrwt>
<rscale>  0 0.12499929E+03</rscale>
<asrwt>0</asrwt>
<pdfrwt beam="2">  1        4 0.40135325E-01 0.12499929E+03</pdfrwt>
<pdfrwt beam="1">  1       -4 0.23035710E-02 0.12499929E+03</pdfrwt>
<totfact> 0.78732465E+03</totfact>
</mgrwt>
</event>
<event>
 5    1  0.3234540E-002  0.1250025E+03  0.7818608E-02  0.1235065E+00
         -4   -1    0    0    0  501 -0.00000000000E+00  0.00000000000E+00  0.17494645860E+02  0.17540682249E+02  0.12700000000E+01 0.  1.
          4   -1    0    0  501    0  0.00000000000E+00 -0.00000000000E+00 -0.22295015146E+03  0.22295376861E+03  0.12700000000E+01 0.  1.
         25    2    1    2    0    0  0.00000000000E+00  0.00000000000E+00 -0.20545550560E+03  0.24049445086E+03  0.12500246442E+03 0.  0.
    9000005    1    3    3    0    0 -0.33209076035E+02  0.50149934108E+02 -0.13535194006E+03  0.14811821731E+03  0.10000000000E+01 0.  0.
    9000005    1    3    3    0    0  0.33209076035E+02 -0.50149934108E+02 -0.70103565542E+02  0.92376233544E+02  0.10000000000E+01 0.  0.
<mgrwt>
<rscale>  0 0.12500246E+03</rscale>
<asrwt>0</asrwt>
<pdfrwt beam="2">  1        4 0.34303841E-01 0.12500246E+03</pdfrwt>
<pdfrwt beam="1">  1       -4 0.26953036E-02 0.12500246E+03</pdfrwt>
<totfact> 0.83719184E+03</totfact>
</mgrwt>
</event>
<event>
 5    1  0.3234540E-002  0.1249732E+03  0.7818608E-02  0.1235111E+00
         -4   -1    0    0    0  501 -0.00000000000E+00  0.00000000000E+00  0.18623951542E+03  0.18624384554E+03  0.12700000000E+01 0.  1.
          4   -1    0    0  501    0  0.00000000000E+00 -0.00000000000E+00 -0.20941516996E+02  0.20979991279E+02  0.12700000000E+01 0.  1.
         25    2    1    2    0    0  0.00000000000E+00  0.00000000000E+00  0.16529799842E+03  0.20722383682E+03  0.12497315818E+03 0.  0.
    9000005    1    3    3    0    0 -0.12553989347E+02 -0.45008372459E+02  0.15142144952E+03  0.15847022312E+03  0.10000000000E+01 0.  0.
    9000005    1    3    3    0    0  0.12553989347E+02  0.45008372459E+02  0.13876548900E+02  0.48753613705E+02  0.10000000000E+01 0.  0.
<mgrwt>
<rscale>  0 0.12497316E+03</rscale>
<asrwt>0</asrwt>
<pdfrwt beam="2">  1        4 0.32250645E-02 0.12497316E+03</pdfrwt>
<pdfrwt beam="1">  1       -4 0.28655526E-01 0.12497316E+03</pdfrwt>
<totfact> 0.88984682E+03</totfact>
</mgrwt>
</event>
<event>
 5    1  0.3234540E-002  0.1250101E+03  0.7818608E-02  0.1235054E+00
         -4   -1    0    0    0  501 -0.00000000000E+00  0.00000000000E+00  0.69423055768E+02  0.69434671255E+02  0.12700000000E+01 0.  1.
          4   -1    0    0  501    0  0.00000000000E+00 -0.00000000000E+00 -0.56252888498E+02  0.56267222824E+02  0.12700000000E+01 0.  1.
         25    2    1    2    0    0  0.00000000000E+00  0.00000000000E+00  0.13170167270E+02  0.12570189408E+03  0.12501005107E+03 0.  0.
    9000005    1    3    3    0    0 -0.39614465792E+02 -0.46130932098E+02  0.21104853411E+02  0.64372227193E+02  0.10000000000E+01 0.  0.
    9000005    1    3    3    0    0  0.39614465792E+02  0.46130932098E+02 -0.79346861403E+01  0.61329666886E+02  0.10000000000E+01 0.  0.
<mgrwt>
<rscale>  0 0.12501005E+03</rscale>
<asrwt>0</asrwt>
<pdfrwt beam="2">  1        4 0.86562867E-02 0.12501005E+03</pdfrwt>
<pdfrwt beam="1">  1       -4 0.10682466E-01 0.12501005E+03</pdfrwt>
<totfact> 0.10435136E+04</totfact>
</mgrwt>
</event>
<event>
 5    1  0.3234540E-002  0.1249992E+03  0.7818608E-02  0.1235071E+00
          4   -1    0    0  501    0  0.00000000000E+00  0.00000000000E+00  0.16406381255E+04  0.16406386171E+04  0.12700000000E+01 0. -1.
         -4   -1    0    0    0  501 -0.00000000000E+00 -0.00000000000E+00 -0.22110162975E+01  0.25498025547E+01  0.12700000000E+01 0. -1.
         25    2    1    2    0    0  0.00000000000E+00  0.00000000000E+00  0.16384271092E+04  0.16431884196E+04  0.12499916056E+03 0.  0.
    9000005    1    3    3    0    0  0.43771863342E+02 -0.23586552810E+02  0.32160526051E+03  0.32542778781E+03  0.10000000000E+01 0.  0.
    9000005    1    3    3    0    0 -0.43771863342E+02  0.23586552810E+02  0.13168218487E+04  0.13177606318E+04  0.10000000000E+01 0.  0.
<mgrwt>
<rscale>  0 0.12499916E+03</rscale>
<asrwt>0</asrwt>
<pdfrwt beam="1">  1        4 0.25243103E+00 0.12499916E+03</pdfrwt>
<pdfrwt beam="2">  1       -4 0.36625600E-03 0.12499916E+03</pdfrwt>
<totfact> 0.15278517E+03</totfact>
</mgrwt>
</event>
<event>
 5    1  0.3234540E-002  0.1249974E+03  0.7818608E-02  0.1235073E+00
         -4   -1    0    0    0  501 -0.00000000000E+00  0.00000000000E+00  0.13419845768E+02  0.13479805653E+02  0.12700000000E+01 0. -1.
          4   -1    0    0  501    0  0.00000000000E+00 -0.00000000000E+00 -0.29035760706E+03  0.29036038448E+03  0.12700000000E+01 0. -1.
         25    2    1    2    0    0  0.00000000000E+00  0.00000000000E+00 -0.27693776129E+03  0.30384019014E+03  0.12499735002E+03 0.  0.
    9000005    1    3    3    0    0 -0.99347564179E+01  0.50018477859E+02 -0.50673312916E+02  0.71898067806E+02  0.10000000000E+01 0.  0.
    9000005    1    3    3    0    0  0.99347564179E+01 -0.50018477859E+02 -0.22626444837E+03  0.23194212233E+03  0.10000000000E+01 0.  0.
<mgrwt>
<rscale>  0 0.12499735E+03</rscale>
<asrwt>0</asrwt>
<pdfrwt beam="2">  1        4 0.44675222E-01 0.12499735E+03</pdfrwt>
<pdfrwt beam="1">  1       -4 0.20694178E-02 0.12499735E+03</pdfrwt>
<totfact> 0.75124064E+03</totfact>
</mgrwt>
</event>
<event>
 5    1  0.3234540E-002  0.1249979E+03  0.7818608E-02  0.1235073E+00
          4   -1    0    0  501    0  0.00000000000E+00  0.00000000000E+00  0.52396749131E+03  0.52396903043E+03  0.12700000000E+01 0. -1.
         -4   -1    0    0    0  501 -0.00000000000E+00 -0.00000000000E+00 -0.73992381684E+01  0.75074380099E+01  0.12700000000E+01 0. -1.
         25    2    1    2    0    0  0.00000000000E+00  0.00000000000E+00  0.51656825314E+03  0.53147646844E+03  0.12499790539E+03 0.  0.
    9000005    1    3    3    0    0  0.44553766310E+02 -0.37303591562E+02  0.16053491297E+03  0.17073094130E+03  0.10000000000E+01 0.  0.
    9000005    1    3    3    0    0 -0.44553766310E+02  0.37303591562E+02  0.35603334017E+03  0.36074552714E+03  0.10000000000E+01 0.  0.
<mgrwt>
<rscale>  0 0.12499791E+03</rscale>
<asrwt>0</asrwt>
<pdfrwt beam="1">  1        4 0.80618846E-01 0.12499791E+03</pdfrwt>
<pdfrwt beam="2">  1       -4 0.11467855E-02 0.12499791E+03</pdfrwt>
<totfact> 0.53504744E+03</totfact>
</mgrwt>
</event>
<event>
 5    1  0.3234540E-002  0.1250054E+03  0.7818608E-02  0.1235061E+00
          4   -1    0    0  501    0  0.00000000000E+00  0.00000000000E+00  0.16149099355E+03  0.16149598724E+03  0.12700000000E+01 0.  1.
         -4   -1    0    0    0  501 -0.00000000000E+00 -0.00000000000E+00 -0.24168688994E+02  0.24202033545E+02  0.12700000000E+01 0.  1.
         25    2    1    2    0    0  0.00000000000E+00  0.00000000000E+00  0.13732230455E+03  0.18569802079E+03  0.12500535828E+03 0.  0.
    9000005    1    3    3    0    0  0.61343935268E+02  0.67666948824E+01  0.54051728880E+02  0.82045450506E+02  0.10000000000E+01 0.  0.
    9000005    1    3    3    0    0 -0.61343935268E+02 -0.67666948824E+01  0.83270575671E+02  0.10365257028E+03  0.10000000000E+01 0.  0.
<mgrwt>
<rscale>  0 0.12500536E+03</rscale>
<asrwt>0</asrwt>
<pdfrwt beam="1">  1        4 0.24847718E-01 0.12500536E+03</pdfrwt>
<pdfrwt beam="2">  1       -4 0.37212088E-02 0.12500536E+03</pdfrwt>
<totfact> 0.92590160E+03</totfact>
</mgrwt>
</event>
<event>
 5    1  0.3234540E-002  0.1249978E+03  0.7818608E-02  0.1235073E+00
          4   -1    0    0  501    0  0.00000000000E+00  0.00000000000E+00  0.13581247033E+03  0.13581840817E+03  0.12700000000E+01 0. -1.
         -4   -1    0    0    0  501 -0.00000000000E+00 -0.00000000000E+00 -0.28740478705E+02  0.28768524748E+02  0.12700000000E+01 0. -1.
         25    2    1    2    0    0  0.00000000000E+00  0.00000000000E+00  0.10707199163E+03  0.16458693292E+03  0.12499778837E+03 0.  0.
    9000005    1    3    3    0    0 -0.50087132087E+02 -0.37200187910E+02  0.58198183069E+02  0.85326451314E+02  0.10000000000E+01 0.  0.
    9000005    1    3    3    0    0  0.50087132087E+02  0.37200187910E+02  0.48873808559E+02  0.79260481605E+02  0.10000000000E+01 0.  0.
<mgrwt>
<rscale>  0 0.12499779E+03</rscale>
<asrwt>0</asrwt>
<pdfrwt beam="1">  1        4 0.20896840E-01 0.12499779E+03</pdfrwt>
<pdfrwt beam="2">  1       -4 0.44242263E-02 0.12499779E+03</pdfrwt>
<totfact> 0.96470471E+03</totfact>
</mgrwt>
</event>
<event>
 5    1  0.3234540E-002  0.1250058E+03  0.7818608E-02  0.1235060E+00
          4   -1    0    0  501    0  0.00000000000E+00  0.00000000000E+00  0.77612579942E+02  0.77622969959E+02  0.12700000000E+01 0.  1.
         -4   -1    0    0    0  501 -0.00000000000E+00 -0.00000000000E+00 -0.50313046061E+02  0.50329072154E+02  0.12700000000E+01 0.  1.
         25    2    1    2    0    0  0.00000000000E+00  0.00000000000E+00  0.27299533881E+02  0.12795204211E+03  0.12500584199E+03 0.  0.
    9000005    1    3    3    0    0 -0.57960538701E+02  0.21711315565E+02  0.22502886729E+02  0.65864900981E+02  0.10000000000E+01 0.  0.
    9000005    1    3    3    0    0  0.57960538701E+02 -0.21711315565E+02  0.47966471520E+01  0.62087141132E+02  0.10000000000E+01 0.  0.
<mgrwt>
<rscale>  0 0.12500584E+03</rscale>
<asrwt>0</asrwt>
<pdfrwt beam="1">  1        4 0.11942429E-01 0.12500584E+03</pdfrwt>
<pdfrwt beam="2">  1       -4 0.77425007E-02 0.12500584E+03</pdfrwt>
<totfact> 0.10387153E+04</totfact>
</mgrwt>
</event>
<event>
 5    1  0.3234540E-002  0.1249986E+03  0.7818608E-02  0.1235071E+00
          4   -1    0    0  501    0  0.00000000000E+00  0.00000000000E+00  0.84787161240E+01  0.85733031622E+01  0.12700000000E+01 0.  1.
         -4   -1    0    0    0  501 -0.00000000000E+00 -0.00000000000E+00 -0.45805117068E+03  0.45805293129E+03  0.12700000000E+01 0.  1.
         25    2    1    2    0    0  0.00000000000E+00  0.00000000000E+00 -0.44957245456E+03  0.46662623445E+03  0.12499860312E+03 0.  0.
    9000005    1    3    3    0    0 -0.45345830889E+02  0.22282552850E+02 -0.87502974287E+02  0.10104715261E+03  0.10000000000E+01 0.  0.
    9000005    1    3    3    0    0  0.45345830889E+02 -0.22282552850E+02 -0.36206948027E+03  0.36557908185E+03  0.10000000000E+01 0.  0.
<mgrwt>
<rscale>  0 0.12499860E+03</rscale>
<asrwt>0</asrwt>
<pdfrwt beam="1">  1        4 0.13118296E-02 0.12499860E+03</pdfrwt>
<pdfrwt beam="2">  1       -4 0.70476803E-01 0.12499860E+03</pdfrwt>
<totfact> 0.58551855E+03</totfact>
</mgrwt>
</event>
<event>
 5    1  0.3234540E-002  0.1250007E+03  0.7818608E-02  0.1235068E+00
          4   -1    0    0  501    0  0.00000000000E+00  0.00000000000E+00  0.31880120170E+02  0.31905406471E+02  0.12700000000E+01 0.  1.
         -4   -1    0    0    0  501 -0.00000000000E+00 -0.00000000000E+00 -0.12245362405E+03  0.12246020963E+03  0.12700000000E+01 0.  1.
         25    2    1    2    0    0  0.00000000000E+00  0.00000000000E+00 -0.90573503879E+02  0.15436561610E+03  0.12500073532E+03 0.  0.
    9000005    1    3    3    0    0 -0.56944199460E+02  0.22361417052E+02 -0.29538712506E+02  0.67942699102E+02  0.10000000000E+01 0.  0.
    9000005    1    3    3    0    0  0.56944199460E+02 -0.22361417052E+02 -0.61034791373E+02  0.86422916999E+02  0.10000000000E+01 0.  0.
<mgrwt>
<rscale>  0 0.12500074E+03</rscale>
<asrwt>0</asrwt>
<pdfrwt beam="1">  1        4 0.49070856E-02 0.12500074E+03</pdfrwt>
<pdfrwt beam="2">  1       -4 0.18841470E-01 0.12500074E+03</pdfrwt>
<totfact> 0.98438552E+03</totfact>
</mgrwt>
</event>
<event>
 5    1  0.3234540E-002  0.1249988E+03  0.7818608E-02  0.1235071E+00
         -4   -1    0    0    0  501 -0.00000000000E+00  0.00000000000E+00  0.29293420010E+03  0.29293695310E+03  0.12700000000E+01 0. -1.
          4   -1    0    0  501    0  0.00000000000E+00 -0.00000000000E+00 -0.13301581311E+02  0.13362071897E+02  0.12700000000E+01 0. -1.
         25    2    1    2    0    0  0.00000000000E+00  0.00000000000E+00  0.27963261879E+03  0.30629902499E+03  0.12499876487E+03 0.  0.
    9000005    1    3    3    0    0  0.33646960724E+01  0.35474029447E+02  0.14020301319E+02  0.38305310258E+02  0.10000000000E+01 0.  0.
    9000005    1    3    3    0    0 -0.33646960724E+01 -0.35474029447E+02  0.26561231747E+03  0.26799371474E+03  0.10000000000E+01 0.  0.
<mgrwt>
<rscale>  0 0.12499876E+03</rscale>
<asrwt>0</asrwt>
<pdfrwt beam="2">  1        4 0.20512622E-02 0.12499876E+03</pdfrwt>
<pdfrwt beam="1">  1       -4 0.45071662E-01 0.12499876E+03</pdfrwt>
<totfact> 0.74817485E+03</totfact>
</mgrwt>
</event>
<event>
 5    1  0.3234540E-002  0.1250008E+03  0.7818608E-02  0.1235068E+00
         -4   -1    0    0    0  501 -0.00000000000E+00  0.00000000000E+00  0.47105759721E+01  0.48787730004E+01  0.12700000000E+01 0.  1.
          4   -1    0    0  501    0  0.00000000000E+00 -0.00000000000E+00 -0.81454791127E+03  0.81454890133E+03  0.12700000000E+01 0.  1.
         25    2    1    2    0    0  0.00000000000E+00  0.00000000000E+00 -0.80983733530E+03  0.81942767433E+03  0.12500081525E+03 0.  0.
    9000005    1    3    3    0    0  0.61148770099E+02  0.12311541065E+02 -0.37990938253E+03  0.38499725332E+03  0.10000000000E+01 0.  0.
    9000005    1    3    3    0    0 -0.61148770099E+02 -0.12311541065E+02 -0.42992795276E+03  0.43443042100E+03  0.10000000000E+01 0.  0.
<mgrwt>
<rscale>  0 0.12500082E+03</rscale>
<asrwt>0</asrwt>
<pdfrwt beam="2">  1        4 0.12532797E+00 0.12500082E+03</pdfrwt>
<pdfrwt beam="1">  1       -4 0.73771903E-03 0.12500082E+03</pdfrwt>
<totfact> 0.37411367E+03</totfact>
</mgrwt>
</event>
<event>
 5    1  0.3234540E-002  0.1250001E+03  0.7818608E-02  0.1235069E+00
          4   -1    0    0  501    0  0.00000000000E+00  0.00000000000E+00  0.12365869729E+02  0.12430914454E+02  0.12700000000E+01 0.  1.
         -4   -1    0    0    0  501 -0.00000000000E+00 -0.00000000000E+00 -0.31499534524E+03  0.31499790543E+03  0.12700000000E+01 0.  1.
         25    2    1    2    0    0  0.00000000000E+00  0.00000000000E+00 -0.30262947551E+03  0.32742881988E+03  0.12500013056E+03 0.  0.
    9000005    1    3    3    0    0  0.29014940051E+02 -0.40104738689E+02 -0.51398025751E+02  0.71365354778E+02  0.10000000000E+01 0.  0.
    9000005    1    3    3    0    0 -0.29014940051E+02  0.40104738689E+02 -0.25123144976E+03  0.25606346510E+03  0.10000000000E+01 0.  0.
<mgrwt>
<rscale>  0 0.12500013E+03</rscale>
<asrwt>0</asrwt>
<pdfrwt beam="1">  1        4 0.19076421E-02 0.12500013E+03</pdfrwt>
<pdfrwt beam="2">  1       -4 0.48466017E-01 0.12500013E+03</pdfrwt>
<totfact> 0.72280985E+03</totfact>
</mgrwt>
</event>
<event>
 5    1  0.3234540E-002  0.1249907E+03  0.7818608E-02  0.1235084E+00
          4   -1    0    0  501    0  0.00000000000E+00  0.00000000000E+00  0.12992826574E+02  0.13054747887E+02  0.12700000000E+01 0. -1.
         -4   -1    0    0    0  501 -0.00000000000E+00 -0.00000000000E+00 -0.29982421866E+03  0.29982690839E+03  0.12700000000E+01 0. -1.
         25    2    1    2    0    0  0.00000000000E+00  0.00000000000E+00 -0.28683139208E+03  0.31288165628E+03  0.12499073305E+03 0.  0.
    9000005    1    3    3    0    0  0.42507407797E+02  0.28950179966E+02 -0.54570879792E+02  0.74993156748E+02  0.10000000000E+01 0.  0.
    9000005    1    3    3    0    0 -0.42507407797E+02 -0.28950179966E+02 -0.23226051229E+03  0.23788849953E+03  0.10000000000E+01 0.  0.
<mgrwt>
<rscale>  0 0.12499073E+03</rscale>
<asrwt>0</asrwt>
<pdfrwt beam="1">  1        4 0.20038667E-02 0.12499073E+03</pdfrwt>
<pdfrwt beam="2">  1       -4 0.46131768E-01 0.12499073E+03</pdfrwt>
<totfact> 0.74026048E+03</totfact>
</mgrwt>
</event>
<event>
 5    1  0.3234540E-002  0.1249984E+03  0.7818608E-02  0.1235072E+00
          4   -1    0    0  501    0  0.00000000000E+00  0.00000000000E+00  0.42796853434E+02  0.42815692963E+02  0.12700000000E+01 0. -1.
         -4   -1    0    0    0  501 -0.00000000000E+00 -0.00000000000E+00 -0.91228512180E+02  0.91237351642E+02  0.12700000000E+01 0. -1.
         25    2    1    2    0    0  0.00000000000E+00  0.00000000000E+00 -0.48431658746E+02  0.13405304460E+03  0.12499837278E+03 0.  0.
    9000005    1    3    3    0    0 -0.51248299203E+02  0.33769046681E+02 -0.36832901633E+02  0.71584909916E+02  0.10000000000E+01 0.  0.
    9000005    1    3    3    0    0  0.51248299203E+02 -0.33769046681E+02 -0.11598757113E+02  0.62468134689E+02  0.10000000000E+01 0.  0.
<mgrwt>
<rscale>  0 0.12499837E+03</rscale>
<asrwt>0</asrwt>
<pdfrwt beam="1">  1        4 0.65862605E-02 0.12499837E+03</pdfrwt>
<pdfrwt beam="2">  1       -4 0.14037285E-01 0.12499837E+03</pdfrwt>
<totfact> 0.10258446E+04</totfact>
</mgrwt>
</event>
<event>
 5    1  0.3234540E-002  0.1250004E+03  0.7818608E-02  0.1235069E+00
         -4   -1    0    0    0  501 -0.00000000000E+00  0.00000000000E+00  0.25499907932E+03  0.25500224187E+03  0.12700000000E+01 0. -1.
          4   -1    0    0  501    0  0.00000000000E+00 -0.00000000000E+00 -0.15289195022E+02  0.15341850750E+02  0.12700000000E+01 0. -1.
         25    2    1    2    0    0  0.00000000000E+00  0.00000000000E+00  0.23970988430E+03  0.27034409261E+03  0.12500039912E+03 0.  0.
    9000005    1    3    3    0    0  0.61067188690E+01  0.42315234325E+02  0.21280131177E+02  0.47767301099E+02  0.10000000000E+01 0.  0.
    9000005    1    3    3    0    0 -0.61067188690E+01 -0.42315234325E+02  0.21842975312E+03  0.22257679152E+03  0.10000000000E+01 0.  0.
<mgrwt>
<rscale>  0 0.12500040E+03</rscale>
<asrwt>0</asrwt>
<pdfrwt beam="2">  1        4 0.23564778E-02 0.12500040E+03</pdfrwt>
<pdfrwt beam="1">  1       -4 0.39234917E-01 0.12500040E+03</pdfrwt>
<totfact> 0.79475276E+03</totfact>
</mgrwt>
</event>
<event>
 5    1  0.3234540E-002  0.1250481E+03  0.7818608E-02  0.1234994E+00
         -4   -1    0    0    0  501 -0.00000000000E+00  0.00000000000E+00  0.13339794200E+02  0.13400112287E+02  0.12700000000E+01 0.  1.
          4   -1    0    0  501    0  0.00000000000E+00 -0.00000000000E+00 -0.29232929092E+03  0.29233204961E+03  0.12700000000E+01 0.  1.
         25    2    1    2    0    0  0.00000000000E+00  0.00000000000E+00 -0.27898949672E+03  0.30573216190E+03  0.12504805292E+03 0.  0.
    9000005    1    3    3    0    0  0.17287023971E+02  0.66147564479E+01 -0.28548841531E+03  0.28608955149E+03  0.10000000000E+01 0.  0.
    9000005    1    3    3    0    0 -0.17287023971E+02 -0.66147564479E+01  0.64989185862E+01  0.19642610403E+02  0.10000000000E+01 0.  0.
<mgrwt>
<rscale>  0 0.12504805E+03</rscale>
<asrwt>0</asrwt>
<pdfrwt beam="2">  1        4 0.44978584E-01 0.12504805E+03</pdfrwt>
<pdfrwt beam="1">  1       -4 0.20571283E-02 0.12504805E+03</pdfrwt>
<totfact> 0.74805591E+03</totfact>
</mgrwt>
</event>
<event>
 5    1  0.3234540E-002  0.1249957E+03  0.7818608E-02  0.1235076E+00
         -4   -1    0    0    0  501 -0.00000000000E+00  0.00000000000E+00  0.27447727533E+03  0.27448021344E+03  0.12700000000E+01 0.  1.
          4   -1    0    0  501    0  0.00000000000E+00 -0.00000000000E+00 -0.14199267077E+02  0.14255949128E+02  0.12700000000E+01 0.  1.
         25    2    1    2    0    0  0.00000000000E+00  0.00000000000E+00  0.26027800825E+03  0.28873616257E+03  0.12499571991E+03 0.  0.
    9000005    1    3    3    0    0  0.49473152690E-01 -0.46051226925E+02  0.32564655328E+02  0.56410767815E+02  0.10000000000E+01 0.  0.
    9000005    1    3    3    0    0 -0.49473152690E-01  0.46051226925E+02  0.22771335292E+03  0.23232539476E+03  0.10000000000E+01 0.  0.
<mgrwt>
<rscale>  0 0.12499572E+03</rscale>
<asrwt>0</asrwt>
<pdfrwt beam="2">  1        4 0.21890891E-02 0.12499572E+03</pdfrwt>
<pdfrwt beam="1">  1       -4 0.42231854E-01 0.12499572E+03</pdfrwt>
<totfact> 0.77041160E+03</totfact>
</mgrwt>
</event>
<event>
 5    1  0.3234540E-002  0.1250174E+03  0.7818608E-02  0.1235042E+00
          4   -1    0    0  501    0  0.00000000000E+00  0.00000000000E+00  0.20759973767E+02  0.20798783878E+02  0.12700000000E+01 0. -1.
         -4   -1    0    0    0  501 -0.00000000000E+00 -0.00000000000E+00 -0.18799835979E+03  0.18800264940E+03  0.12700000000E+01 0. -1.
         25    2    1    2    0    0  0.00000000000E+00  0.00000000000E+00 -0.16723838602E+03  0.20880143328E+03  0.12501744191E+03 0.  0.
    9000005    1    3    3    0    0 -0.56284872314E+02  0.26654736315E+02 -0.74800654756E+02  0.97337555812E+02  0.10000000000E+01 0.  0.
    9000005    1    3    3    0    0  0.56284872314E+02 -0.26654736315E+02 -0.92437731264E+02  0.11146387747E+03  0.10000000000E+01 0.  0.
<mgrwt>
<rscale>  0 0.12501744E+03</rscale>
<asrwt>0</asrwt>
<pdfrwt beam="1">  1        4 0.31971576E-02 0.12501744E+03</pdfrwt>
<pdfrwt beam="2">  1       -4 0.28926139E-01 0.12501744E+03</pdfrwt>
<totfact> 0.88637426E+03</totfact>
</mgrwt>
</event>
<event>
 5    1  0.3234540E-002  0.1250048E+03  0.7818608E-02  0.1235062E+00
          4   -1    0    0  501    0  0.00000000000E+00  0.00000000000E+00  0.11855160439E+03  0.11855840672E+03  0.12700000000E+01 0.  1.
         -4   -1    0    0    0  501 -0.00000000000E+00 -0.00000000000E+00 -0.32932342273E+02  0.32956821260E+02  0.12700000000E+01 0.  1.
         25    2    1    2    0    0  0.00000000000E+00  0.00000000000E+00  0.85619262122E+02  0.15151522798E+03  0.12500482496E+03 0.  0.
    9000005    1    3    3    0    0  0.40461957481E+02 -0.47102683557E+02  0.34263104008E+02  0.70928083985E+02  0.10000000000E+01 0.  0.
    9000005    1    3    3    0    0 -0.40461957481E+02  0.47102683557E+02  0.51356158114E+02  0.80587143998E+02  0.10000000000E+01 0.  0.
<mgrwt>
<rscale>  0 0.12500482E+03</rscale>
<asrwt>0</asrwt>
<pdfrwt beam="1">  1        4 0.18241115E-01 0.12500482E+03</pdfrwt>
<pdfrwt beam="2">  1       -4 0.50689204E-02 0.12500482E+03</pdfrwt>
<totfact> 0.98991766E+03</totfact>
</mgrwt>
</event>
<event>
 5    1  0.3234540E-002  0.1249987E+03  0.7818608E-02  0.1235071E+00
          4   -1    0    0  501    0  0.00000000000E+00  0.00000000000E+00  0.22902321525E+02  0.22937507084E+02  0.12700000000E+01 0.  1.
         -4   -1    0    0    0  501 -0.00000000000E+00 -0.00000000000E+00 -0.17038933276E+03  0.17039406568E+03  0.12700000000E+01 0.  1.
         25    2    1    2    0    0  0.00000000000E+00  0.00000000000E+00 -0.14748701123E+03  0.19333157276E+03  0.12499871417E+03 0.  0.
    9000005    1    3    3    0    0  0.21517878926E+02 -0.58053134125E+02 -0.86865977498E+02  0.10667653698E+03  0.10000000000E+01 0.  0.
    9000005    1    3    3    0    0 -0.21517878926E+02  0.58053134125E+02 -0.60621033734E+02  0.86655035781E+02  0.10000000000E+01 0.  0.
<mgrwt>
<rscale>  0 0.12499871E+03</rscale>
<asrwt>0</asrwt>
<pdfrwt beam="1">  1        4 0.35265048E-02 0.12499871E+03</pdfrwt>
<pdfrwt beam="2">  1       -4 0.26216813E-01 0.12499871E+03</pdfrwt>
<totfact> 0.91273470E+03</totfact>
</mgrwt>
</event>
<event>
 5    1  0.3234540E-002  0.1250009E+03  0.7818608E-02  0.1235068E+00
          4   -1    0    0  501    0  0.00000000000E+00  0.00000000000E+00  0.25412935699E+01  0.28409633945E+01  0.12700000000E+01 0. -1.
         -4   -1    0    0    0  501 -0.00000000000E+00 -0.00000000000E+00 -0.14512500879E+04  0.14512506436E+04  0.12700000000E+01 0. -1.
         25    2    1    2    0    0  0.00000000000E+00  0.00000000000E+00 -0.14487087943E+04  0.14540916070E+04  0.12500092297E+03 0.  0.
    9000005    1    3    3    0    0 -0.59885605490E+01 -0.54426987242E+02 -0.10747168797E+04  0.10761113006E+04  0.10000000000E+01 0.  0.
    9000005    1    3    3    0    0  0.59885605490E+01  0.54426987242E+02 -0.37399191467E+03  0.37798030641E+03  0.10000000000E+01 0.  0.
<mgrwt>
<rscale>  0 0.12500092E+03</rscale>
<asrwt>0</asrwt>
<pdfrwt beam="1">  1        4 0.41406367E-03 0.12500092E+03</pdfrwt>
<pdfrwt beam="2">  1       -4 0.22329171E+00 0.12500092E+03</pdfrwt>
<totfact> 0.18848786E+03</totfact>
</mgrwt>
</event>
<event>
 5    1  0.3234540E-002  0.1249919E+03  0.7818608E-02  0.1235082E+00
         -4   -1    0    0    0  501 -0.00000000000E+00  0.00000000000E+00  0.11420421657E+02  0.11490819415E+02  0.12700000000E+01 0.  1.
          4   -1    0    0  501    0  0.00000000000E+00 -0.00000000000E+00 -0.34087397263E+03  0.34087633845E+03  0.12700000000E+01 0.  1.
         25    2    1    2    0    0  0.00000000000E+00  0.00000000000E+00 -0.32945355097E+03  0.35236715786E+03  0.12499188651E+03 0.  0.
    9000005    1    3    3    0    0  0.42138691434E+02 -0.37322320417E+02 -0.88239829376E+02  0.10467039890E+03  0.10000000000E+01 0.  0.
    9000005    1    3    3    0    0 -0.42138691434E+02  0.37322320417E+02 -0.24121372159E+03  0.24769675897E+03  0.10000000000E+01 0.  0.
<mgrwt>
<rscale>  0 0.12499189E+03</rscale>
<asrwt>0</asrwt>
<pdfrwt beam="2">  1        4 0.52447739E-01 0.12499189E+03</pdfrwt>
<pdfrwt beam="1">  1       -4 0.17625854E-02 0.12499189E+03</pdfrwt>
<totfact> 0.69477398E+03</totfact>
</mgrwt>
</event>
<event>
 5    1  0.3234540E-002  0.1250002E+03  0.7818608E-02  0.1235069E+00
         -4   -1    0    0    0  501 -0.00000000000E+00  0.00000000000E+00  0.99601513967E+03  0.99601594935E+03  0.12700000000E+01 0.  1.
          4   -1    0    0  501    0  0.00000000000E+00 -0.00000000000E+00 -0.38182411439E+01  0.40239117079E+01  0.12700000000E+01 0.  1.
         25    2    1    2    0    0  0.00000000000E+00  0.00000000000E+00  0.99219689853E+03  0.10000398611E+04  0.12500015301E+03 0.  0.
    9000005    1    3    3    0    0  0.39022314799E+02  0.45851945672E+02  0.62999733293E+03  0.63286869213E+03  0.10000000000E+01 0.  0.
    9000005    1    3    3    0    0 -0.39022314799E+02 -0.45851945672E+02  0.36219956560E+03  0.36717116893E+03  0.10000000000E+01 0.  0.
<mgrwt>
<rscale>  0 0.12500015E+03</rscale>
<asrwt>0</asrwt>
<pdfrwt beam="2">  1        4 0.60330449E-03 0.12500015E+03</pdfrwt>
<pdfrwt beam="1">  1       -4 0.15324906E+00 0.12500015E+03</pdfrwt>
<totfact> 0.30603046E+03</totfact>
</mgrwt>
</event>
<event>
 5    1  0.3234540E-002  0.1250321E+03  0.7818608E-02  0.1235019E+00
          4   -1    0    0  501    0  0.00000000000E+00  0.00000000000E+00  0.16835656549E+02  0.16883489907E+02  0.12700000000E+01 0. -1.
         -4   -1    0    0    0  501 -0.00000000000E+00 -0.00000000000E+00 -0.23176262543E+03  0.23176610505E+03  0.12700000000E+01 0. -1.
         25    2    1    2    0    0  0.00000000000E+00  0.00000000000E+00 -0.21492696888E+03  0.24864959495E+03  0.12503207235E+03 0.  0.
    9000005    1    3    3    0    0 -0.19797347336E+02 -0.14360600307E+02  0.69351423998E+01  0.25441265747E+02  0.10000000000E+01 0.  0.
    9000005    1    3    3    0    0  0.19797347336E+02  0.14360600307E+02 -0.22186211128E+03  0.22320832920E+03  0.10000000000E+01 0.  0.
<mgrwt>
<rscale>  0 0.12503207E+03</rscale>
<asrwt>0</asrwt>
<pdfrwt beam="1">  1        4 0.25940483E-02 0.12503207E+03</pdfrwt>
<pdfrwt beam="2">  1       -4 0.35659733E-01 0.12503207E+03</pdfrwt>
<totfact> 0.82466857E+03</totfact>
</mgrwt>
</event>
<event>
 5    1  0.3234540E-002  0.1250020E+03  0.7818608E-02  0.1235066E+00
         -4   -1    0    0    0  501 -0.00000000000E+00  0.00000000000E+00  0.25507626838E+02  0.25539223303E+02  0.12700000000E+01 0. -1.
          4   -1    0    0  501    0  0.00000000000E+00 -0.00000000000E+00 -0.15301626438E+03  0.15302153464E+03  0.12700000000E+01 0. -1.
         25    2    1    2    0    0  0.00000000000E+00  0.00000000000E+00 -0.12750863754E+03  0.17856075795E+03  0.12500196651E+03 0.  0.
    9000005    1    3    3    0    0  0.68692199375E+01 -0.60671158627E+02 -0.82769376451E+02  0.10285886131E+03  0.10000000000E+01 0.  0.
    9000005    1    3    3    0    0 -0.68692199375E+01  0.60671158627E+02 -0.44739261092E+02  0.75701896639E+02  0.10000000000E+01 0.  0.
<mgrwt>
<rscale>  0 0.12500197E+03</rscale>
<asrwt>0</asrwt>
<pdfrwt beam="2">  1        4 0.23543799E-01 0.12500197E+03</pdfrwt>
<pdfrwt beam="1">  1       -4 0.39270863E-02 0.12500197E+03</pdfrwt>
<totfact> 0.93872575E+03</totfact>
</mgrwt>
</event>
<event>
 5    1  0.3234540E-002  0.1250008E+03  0.7818608E-02  0.1235068E+00
         -4   -1    0    0    0  501 -0.00000000000E+00  0.00000000000E+00  0.10583942025E+03  0.10584703954E+03  0.12700000000E+01 0. -1.
          4   -1    0    0  501    0  0.00000000000E+00 -0.00000000000E+00 -0.36887950881E+02  0.36909806559E+02  0.12700000000E+01 0. -1.
         25    2    1    2    0    0  0.00000000000E+00  0.00000000000E+00  0.68951469368E+02  0.14275684610E+03  0.12500084791E+03 0.  0.
    9000005    1    3    3    0    0 -0.43732641172E+02 -0.93173447557E+01  0.84334245391E+02  0.95460053231E+02  0.10000000000E+01 0.  0.
    9000005    1    3    3    0    0  0.43732641172E+02  0.93173447557E+01 -0.15382776023E+02  0.47296792865E+02  0.10000000000E+01 0.  0.
<mgrwt>
<rscale>  0 0.12500085E+03</rscale>
<asrwt>0</asrwt>
<pdfrwt beam="2">  1        4 0.56773367E-02 0.12500085E+03</pdfrwt>
<pdfrwt beam="1">  1       -4 0.16285255E-01 0.12500085E+03</pdfrwt>
<totfact> 0.10076572E+04</totfact>
</mgrwt>
</event>
<event>
 5    1  0.3234540E-002  0.1250004E+03  0.7818608E-02  0.1235069E+00
         -4   -1    0    0    0  501 -0.00000000000E+00  0.00000000000E+00  0.56713911477E+02  0.56728129311E+02  0.12700000000E+01 0.  1.
          4   -1    0    0  501    0  0.00000000000E+00 -0.00000000000E+00 -0.68848165071E+02  0.68859877532E+02  0.12700000000E+01 0.  1.
         25    2    1    2    0    0  0.00000000000E+00  0.00000000000E+00 -0.12134253594E+02  0.12558800684E+03  0.12500042941E+03 0.  0.
    9000005    1    3    3    0    0  0.48797758908E+02  0.27559554709E+02 -0.33847171295E+02  0.65478098131E+02  0.10000000000E+01 0.  0.
    9000005    1    3    3    0    0 -0.48797758908E+02 -0.27559554709E+02  0.21712917701E+02  0.60109908711E+02  0.10000000000E+01 0.  0.
<mgrwt>
<rscale>  0 0.12500043E+03</rscale>
<asrwt>0</asrwt>
<pdfrwt beam="2">  1        4 0.10594020E-01 0.12500043E+03</pdfrwt>
<pdfrwt beam="1">  1       -4 0.87272118E-02 0.12500043E+03</pdfrwt>
<totfact> 0.10439910E+04</totfact>
</mgrwt>
</event>
<event>
 5    1  0.3234540E-002  0.1250031E+03  0.7818608E-02  0.1235064E+00
          4   -1    0    0  501    0  0.00000000000E+00  0.00000000000E+00  0.66947251758E+03  0.66947372218E+03  0.12700000000E+01 0.  1.
         -4   -1    0    0    0  501 -0.00000000000E+00 -0.00000000000E+00 -0.57647768852E+01  0.59030121579E+01  0.12700000000E+01 0.  1.
         25    2    1    2    0    0  0.00000000000E+00  0.00000000000E+00  0.66370774069E+03  0.67537673434E+03  0.12500307289E+03 0.  0.
    9000005    1    3    3    0    0  0.26245070946E+02 -0.20797376209E+02  0.46772785377E+02  0.57532843299E+02  0.10000000000E+01 0.  0.
    9000005    1    3    3    0    0 -0.26245070946E+02  0.20797376209E+02  0.61693495532E+03  0.61784389104E+03  0.10000000000E+01 0.  0.
<mgrwt>
<rscale>  0 0.12500307E+03</rscale>
<asrwt>0</asrwt>
<pdfrwt beam="1">  1        4 0.10300655E+00 0.12500307E+03</pdfrwt>
<pdfrwt beam="2">  1       -4 0.89761447E-03 0.12500307E+03</pdfrwt>
<totfact> 0.44415782E+03</totfact>
</mgrwt>
</event>
<event>
 5    1  0.3234540E-002  0.1250006E+03  0.7818608E-02  0.1235068E+00
         -4   -1    0    0    0  501 -0.00000000000E+00  0.00000000000E+00  0.10825306406E+04  0.10825313856E+04  0.12700000000E+01 0. -1.
          4   -1    0    0  501    0  0.00000000000E+00 -0.00000000000E+00 -0.34959653505E+01  0.37194991238E+01  0.12700000000E+01 0. -1.
         25    2    1    2    0    0  0.00000000000E+00  0.00000000000E+00  0.10790346752E+04  0.10862508847E+04  0.12500061640E+03 0.  0.
    9000005    1    3    3    0    0  0.47263214290E+02  0.17546644876E+02  0.86041035517E+03  0.86188669526E+03  0.10000000000E+01 0.  0.
    9000005    1    3    3    0    0 -0.47263214290E+02 -0.17546644876E+02  0.21862432006E+03  0.22436418942E+03  0.10000000000E+01 0.  0.
<mgrwt>
<rscale>  0 0.12500062E+03</rscale>
<asrwt>0</asrwt>
<pdfrwt beam="2">  1        4 0.55509223E-03 0.12500062E+03</pdfrwt>
<pdfrwt beam="1">  1       -4 0.16656067E+00 0.12500062E+03</pdfrwt>
<totfact> 0.27888885E+03</totfact>
</mgrwt>
</event>
<event>
 5    1  0.3234540E-002  0.1249892E+03  0.7818608E-02  0.1235086E+00
         -4   -1    0    0    0  501 -0.00000000000E+00  0.00000000000E+00  0.30821190144E+03  0.30821451797E+03  0.12700000000E+01 0. -1.
          4   -1    0    0  501    0  0.00000000000E+00 -0.00000000000E+00 -0.12637227530E+02  0.12700882633E+02  0.12700000000E+01 0. -1.
         25    2    1    2    0    0  0.00000000000E+00  0.00000000000E+00  0.29557467391E+03  0.32091540061E+03  0.12498922549E+03 0.  0.
    9000005    1    3    3    0    0 -0.22868176574E+02 -0.32056189375E+02  0.23214483874E+02  0.45721603631E+02  0.10000000000E+01 0.  0.
    9000005    1    3    3    0    0  0.22868176574E+02  0.32056189375E+02  0.27236019004E+03  0.27519379698E+03  0.10000000000E+01 0.  0.
<mgrwt>
<rscale>  0 0.12498923E+03</rscale>
<asrwt>0</asrwt>
<pdfrwt beam="2">  1        4 0.19492868E-02 0.12498923E+03</pdfrwt>
<pdfrwt beam="1">  1       -4 0.47422310E-01 0.12498923E+03</pdfrwt>
<totfact> 0.73064832E+03</totfact>
</mgrwt>
</event>
<event>
 5    1  0.3234540E-002  0.1250009E+03  0.7818608E-02  0.1235068E+00
          4   -1    0    0  501    0  0.00000000000E+00  0.00000000000E+00  0.27375497734E+03  0.27375792320E+03  0.12700000000E+01 0. -1.
         -4   -1    0    0    0  501 -0.00000000000E+00 -0.00000000000E+00 -0.14238060025E+02  0.14294588251E+02  0.12700000000E+01 0. -1.
         25    2    1    2    0    0  0.00000000000E+00  0.00000000000E+00  0.25951691731E+03  0.28805251146E+03  0.12500087593E+03 0.  0.
    9000005    1    3    3    0    0  0.35037251246E+02  0.37168289439E+02  0.21272385055E+03  0.21877277551E+03  0.10000000000E+01 0.  0.
    9000005    1    3    3    0    0 -0.35037251246E+02 -0.37168289439E+02  0.46793066766E+02  0.69279735941E+02  0.10000000000E+01 0.  0.
<mgrwt>
<rscale>  0 0.12500088E+03</rscale>
<asrwt>0</asrwt>
<pdfrwt beam="1">  1        4 0.42120724E-01 0.12500088E+03</pdfrwt>
<pdfrwt beam="2">  1       -4 0.21950458E-02 0.12500088E+03</pdfrwt>
<totfact> 0.77120873E+03</totfact>
</mgrwt>
</event>
<event>
 5    1  0.3234540E-002  0.1249991E+03  0.7818608E-02  0.1235071E+00
          4   -1    0    0  501    0  0.00000000000E+00  0.00000000000E+00  0.52314412073E+01  0.53833889982E+01  0.12700000000E+01 0. -1.
         -4   -1    0    0    0  501 -0.00000000000E+00 -0.00000000000E+00 -0.73583509668E+03  0.73583619265E+03  0.12700000000E+01 0. -1.
         25    2    1    2    0    0  0.00000000000E+00  0.00000000000E+00 -0.73060365547E+03  0.74121958164E+03  0.12499906728E+03 0.  0.
    9000005    1    3    3    0    0 -0.24268080992E+02 -0.41315116635E+02 -0.60318317157E+03  0.60508414050E+03  0.10000000000E+01 0.  0.
    9000005    1    3    3    0    0  0.24268080992E+02  0.41315116635E+02 -0.12742048390E+03  0.13613544114E+03  0.10000000000E+01 0.  0.
<mgrwt>
<rscale>  0 0.12499907E+03</rscale>
<asrwt>0</asrwt>
<pdfrwt beam="1">  1        4 0.81661029E-03 0.12499907E+03</pdfrwt>
<pdfrwt beam="2">  1       -4 0.11321709E+00 0.12499907E+03</pdfrwt>
<totfact> 0.40998527E+03</totfact>
</mgrwt>
</event>
<event>
 5    1  0.3234540E-002  0.1249991E+03  0.7818608E-02  0.1235071E+00
         -4   -1    0    0    0  501 -0.00000000000E+00  0.00000000000E+00  0.54540466653E+02  0.54555250918E+02  0.12700000000E+01 0. -1.
          4   -1    0    0  501    0  0.00000000000E+00 -0.00000000000E+00 -0.71589987786E+02  0.71601251743E+02  0.12700000000E+01 0. -1.
         25    2    1    2    0    0  0.00000000000E+00  0.00000000000E+00 -0.17049521133E+02  0.12615650266E+03  0.12499910797E+03 0.  0.
    9000005    1    3    3    0    0  0.61635428370E+01 -0.52911285413E+02  0.24451938829E+02  0.58621589000E+02  0.10000000000E+01 0.  0.
    9000005    1    3    3    0    0 -0.61635428370E+01  0.52911285413E+02 -0.41501459962E+02  0.67534913662E+02  0.10000000000E+01 0.  0.
<mgrwt>
<rscale>  0 0.12499911E+03</rscale>
<asrwt>0</asrwt>
<pdfrwt beam="2">  1        4 0.11015848E-01 0.12499911E+03</pdfrwt>
<pdfrwt beam="1">  1       -4 0.83928448E-02 0.12499911E+03</pdfrwt>
<totfact> 0.10427740E+04</totfact>
</mgrwt>
</event>
<event>
 5    1  0.3234540E-002  0.1250014E+03  0.7818608E-02  0.1235067E+00
         -4   -1    0    0    0  501 -0.00000000000E+00  0.00000000000E+00  0.76713038659E+01  0.77757188094E+01  0.12700000000E+01 0. -1.
          4   -1    0    0  501    0  0.00000000000E+00 -0.00000000000E+00 -0.50566695473E+03  0.50566854956E+03  0.12700000000E+01 0. -1.
         25    2    1    2    0    0  0.00000000000E+00  0.00000000000E+00 -0.49799565087E+03  0.51344426837E+03  0.12500139373E+03 0.  0.
    9000005    1    3    3    0    0  0.31437711451E+01  0.62171156646E+02 -0.22642479939E+03  0.23482829002E+03  0.10000000000E+01 0.  0.
    9000005    1    3    3    0    0 -0.31437711451E+01 -0.62171156646E+02 -0.27157085148E+03  0.27861597835E+03  0.10000000000E+01 0.  0.
<mgrwt>
<rscale>  0 0.12500139E+03</rscale>
<asrwt>0</asrwt>
<pdfrwt beam="2">  1        4 0.77803045E-01 0.12500139E+03</pdfrwt>
<pdfrwt beam="1">  1       -4 0.11883556E-02 0.12500139E+03</pdfrwt>
<totfact> 0.54834471E+03</totfact>
</mgrwt>
</event>
<event>
 5    1  0.3234540E-002  0.1250046E+03  0.7818608E-02  0.1235062E+00
          4   -1    0    0  501    0  0.00000000000E+00  0.00000000000E+00  0.12040757420E+04  0.12040764118E+04  0.12700000000E+01 0. -1.
         -4   -1    0    0    0  501 -0.00000000000E+00 -0.00000000000E+00 -0.31194503668E+01  0.33680662985E+01  0.12700000000E+01 0. -1.
         25    2    1    2    0    0  0.00000000000E+00  0.00000000000E+00  0.12009562917E+04  0.12074444781E+04  0.12500461270E+03 0.  0.
    9000005    1    3    3    0    0 -0.14513364814E+02  0.51065739944E+02  0.28198946340E+03  0.28694495120E+03  0.10000000000E+01 0.  0.
    9000005    1    3    3    0    0  0.14513364814E+02 -0.51065739944E+02  0.91896682825E+03  0.92049952688E+03  0.10000000000E+01 0.  0.
<mgrwt>
<rscale>  0 0.12500461E+03</rscale>
<asrwt>0</asrwt>
<pdfrwt beam="1">  1        4 0.18526161E+00 0.12500461E+03</pdfrwt>
<pdfrwt beam="2">  1       -4 0.49909124E-03 0.12500461E+03</pdfrwt>
<totfact> 0.24516249E+03</totfact>
</mgrwt>
</event>
<event>
 5    1  0.3234540E-002  0.1250053E+03  0.7818608E-02  0.1235061E+00
         -4   -1    0    0    0  501 -0.00000000000E+00  0.00000000000E+00  0.23204239975E+03  0.23204587517E+03  0.12700000000E+01 0. -1.
          4   -1    0    0  501    0  0.00000000000E+00 -0.00000000000E+00 -0.16808078728E+02  0.16855990345E+02  0.12700000000E+01 0. -1.
         25    2    1    2    0    0  0.00000000000E+00  0.00000000000E+00  0.21523432103E+03  0.24890186552E+03  0.12500530273E+03 0.  0.
    9000005    1    3    3    0    0 -0.10673916430E+02  0.59795829922E+02  0.78346346833E+02  0.99139416128E+02  0.10000000000E+01 0.  0.
    9000005    1    3    3    0    0  0.10673916430E+02 -0.59795829922E+02  0.13688797419E+03  0.14976244939E+03  0.10000000000E+01 0.  0.
<mgrwt>
<rscale>  0 0.12500530E+03</rscale>
<asrwt>0</asrwt>
<pdfrwt beam="2">  1        4 0.25898111E-02 0.12500530E+03</pdfrwt>
<pdfrwt beam="1">  1       -4 0.35702783E-01 0.12500530E+03</pdfrwt>
<totfact> 0.82479457E+03</totfact>
</mgrwt>
</event>
<event>
 5    1  0.3234540E-002  0.1249926E+03  0.7818608E-02  0.1235081E+00
         -4   -1    0    0    0  501 -0.00000000000E+00  0.00000000000E+00  0.88100469444E+02  0.88109622722E+02  0.12700000000E+01 0. -1.
          4   -1    0    0  501    0  0.00000000000E+00 -0.00000000000E+00 -0.44312789072E+02  0.44330984372E+02  0.12700000000E+01 0. -1.
         25    2    1    2    0    0  0.00000000000E+00  0.00000000000E+00  0.43787680371E+02  0.13244060709E+03  0.12499261360E+03 0.  0.
    9000005    1    3    3    0    0 -0.44577917752E+02  0.18695251563E+02  0.63852502980E+02  0.80092729501E+02  0.10000000000E+01 0.  0.
    9000005    1    3    3    0    0  0.44577917752E+02 -0.18695251563E+02 -0.20064822609E+02  0.52347877592E+02  0.10000000000E+01 0.  0.
<mgrwt>
<rscale>  0 0.12499261E+03</rscale>
<asrwt>0</asrwt>
<pdfrwt beam="2">  1        4 0.68194559E-02 0.12499261E+03</pdfrwt>
<pdfrwt beam="1">  1       -4 0.13556022E-01 0.12499261E+03</pdfrwt>
<totfact> 0.10294018E+04</totfact>
</mgrwt>
</event>
<event>
 5    1  0.3234540E-002  0.1249945E+03  0.7818608E-02  0.1235078E+00
         -4   -1    0    0    0  501 -0.00000000000E+00  0.00000000000E+00  0.10722586665E+02  0.10797535125E+02  0.12700000000E+01 0.  1.
          4   -1    0    0  501    0  0.00000000000E+00 -0.00000000000E+00 -0.36292460488E+03  0.36292682696E+03  0.12700000000E+01 0.  1.
         25    2    1    2    0    0  0.00000000000E+00  0.00000000000E+00 -0.35220201821E+03  0.37372436208E+03  0.12499454861E+03 0.  0.
    9000005    1    3    3    0    0  0.61500976063E+01 -0.59238125301E+02 -0.23266752773E+03  0.24017110078E+03  0.10000000000E+01 0.  0.
    9000005    1    3    3    0    0 -0.61500976063E+01  0.59238125301E+02 -0.11953449048E+03  0.13355326130E+03  0.10000000000E+01 0.  0.
<mgrwt>
<rscale>  0 0.12499455E+03</rscale>
<asrwt>0</asrwt>
<pdfrwt beam="2">  1        4 0.55840481E-01 0.12499455E+03</pdfrwt>
<pdfrwt beam="1">  1       -4 0.16555652E-02 0.12499455E+03</pdfrwt>
<totfact> 0.67199192E+03</totfact>
</mgrwt>
</event>
<event>
 5    1  0.3234540E-002  0.1249977E+03  0.7818608E-02  0.1235073E+00
          4   -1    0    0  501    0  0.00000000000E+00  0.00000000000E+00  0.48974762404E+02  0.48991226281E+02  0.12700000000E+01 0.  1.
         -4   -1    0    0    0  501 -0.00000000000E+00 -0.00000000000E+00 -0.79722648505E+02  0.79732763559E+02  0.12700000000E+01 0.  1.
         25    2    1    2    0    0  0.00000000000E+00  0.00000000000E+00 -0.30747886101E+02  0.12872398984E+03  0.12499773222E+03 0.  0.
    9000005    1    3    3    0    0 -0.19335856021E+02  0.31368279175E+02  0.36601037721E+02  0.51946898163E+02  0.10000000000E+01 0.  0.
    9000005    1    3    3    0    0  0.19335856021E+02 -0.31368279175E+02 -0.67348923822E+02  0.76777091677E+02  0.10000000000E+01 0.  0.
<mgrwt>
<rscale>  0 0.12499773E+03</rscale>
<asrwt>0</asrwt>
<pdfrwt beam="1">  1        4 0.75366234E-02 0.12499773E+03</pdfrwt>
<pdfrwt beam="2">  1       -4 0.12267067E-01 0.12499773E+03</pdfrwt>
<totfact> 0.10372413E+04</totfact>
</mgrwt>
</event>
<event>
 5    1  0.3234540E-002  0.1249938E+03  0.7818608E-02  0.1235079E+00
          4   -1    0    0  501    0  0.00000000000E+00  0.00000000000E+00  0.83746704346E+01  0.84704194045E+01  0.12700000000E+01 0.  1.
         -4   -1    0    0    0  501 -0.00000000000E+00 -0.00000000000E+00 -0.46364223802E+03  0.46364397740E+03  0.12700000000E+01 0.  1.
         25    2    1    2    0    0  0.00000000000E+00  0.00000000000E+00 -0.45526756759E+03  0.47211439680E+03  0.12499378213E+03 0.  0.
    9000005    1    3    3    0    0  0.38606257428E+02  0.25338500687E+02 -0.38664841683E+03  0.38939758726E+03  0.10000000000E+01 0.  0.
    9000005    1    3    3    0    0 -0.38606257428E+02 -0.25338500687E+02 -0.68619150756E+02  0.82716809538E+02  0.10000000000E+01 0.  0.
<mgrwt>
<rscale>  0 0.12499378E+03</rscale>
<asrwt>0</asrwt>
<pdfrwt beam="1">  1        4 0.12959103E-02 0.12499378E+03</pdfrwt>
<pdfrwt beam="2">  1       -4 0.71337055E-01 0.12499378E+03</pdfrwt>
<totfact> 0.58102736E+03</totfact>
</mgrwt>
</event>
<event>
 5    1  0.3234540E-002  0.1250017E+03  0.7818608E-02  0.1235067E+00
         -4   -1    0    0    0  501 -0.00000000000E+00  0.00000000000E+00  0.79113288324E+02  0.79123481278E+02  0.12700000000E+01 0. -1.
          4   -1    0    0  501    0  0.00000000000E+00 -0.00000000000E+00 -0.49355236437E+02  0.49371573438E+02  0.12700000000E+01 0. -1.
         25    2    1    2    0    0  0.00000000000E+00  0.00000000000E+00  0.29758051887E+02  0.12849505472E+03  0.12500174973E+03 0.  0.
    9000005    1    3    3    0    0  0.48810683301E+02  0.61474874307E+00  0.54988667229E+02  0.73536482401E+02  0.10000000000E+01 0.  0.
    9000005    1    3    3    0    0 -0.48810683301E+02 -0.61474874307E+00 -0.25230615342E+02  0.54958572315E+02  0.10000000000E+01 0.  0.
<mgrwt>
<rscale>  0 0.12500175E+03</rscale>
<asrwt>0</asrwt>
<pdfrwt beam="2">  1        4 0.75951542E-02 0.12500175E+03</pdfrwt>
<pdfrwt beam="1">  1       -4 0.12173316E-01 0.12500175E+03</pdfrwt>
<totfact> 0.10376400E+04</totfact>
</mgrwt>
</event>
<event>
 5    1  0.3234540E-002  0.1250139E+03  0.7818608E-02  0.1235048E+00
         -4   -1    0    0    0  501 -0.00000000000E+00  0.00000000000E+00  0.32424796654E+02  0.32449658520E+02  0.12700000000E+01 0. -1.
          4   -1    0    0  501    0  0.00000000000E+00 -0.00000000000E+00 -0.12042340400E+03  0.12043010061E+03  0.12700000000E+01 0. -1.
         25    2    1    2    0    0  0.00000000000E+00  0.00000000000E+00 -0.87998607349E+02  0.15287975913E+03  0.12501386265E+03 0.  0.
    9000005    1    3    3    0    0  0.20033978523E+02  0.35547655600E+02  0.13893476377E+02  0.43116409868E+02  0.10000000000E+01 0.  0.
    9000005    1    3    3    0    0 -0.20033978523E+02 -0.35547655600E+02 -0.10189208373E+03  0.10976334926E+03  0.10000000000E+01 0.  0.
<mgrwt>
<rscale>  0 0.12501386E+03</rscale>
<asrwt>0</asrwt>
<pdfrwt beam="2">  1        4 0.18529105E-01 0.12501386E+03</pdfrwt>
<pdfrwt beam="1">  1       -4 0.49908579E-02 0.12501386E+03</pdfrwt>
<totfact> 0.98701941E+03</totfact>
</mgrwt>
</event>
<event>
 5    1  0.3234540E-002  0.1249775E+03  0.7818608E-02  0.1235104E+00
          4   -1    0    0  501    0  0.00000000000E+00  0.00000000000E+00  0.11990481086E+03  0.11991153642E+03  0.12700000000E+01 0.  1.
         -4   -1    0    0    0  501 -0.00000000000E+00 -0.00000000000E+00 -0.32546194596E+02  0.32570963798E+02  0.12700000000E+01 0.  1.
         25    2    1    2    0    0  0.00000000000E+00  0.00000000000E+00  0.87358616263E+02  0.15248250022E+03  0.12497753813E+03 0.  0.
    9000005    1    3    3    0    0  0.34266903366E+02  0.51414007905E+02  0.55008674166E+02  0.82731947327E+02  0.10000000000E+01 0.  0.
    9000005    1    3    3    0    0 -0.34266903366E+02 -0.51414007905E+02  0.32349942097E+02  0.69750552892E+02  0.10000000000E+01 0.  0.
<mgrwt>
<rscale>  0 0.12497754E+03</rscale>
<asrwt>0</asrwt>
<pdfrwt beam="1">  1        4 0.18449317E-01 0.12497754E+03</pdfrwt>
<pdfrwt beam="2">  1       -4 0.50095294E-02 0.12497754E+03</pdfrwt>
<totfact> 0.98861084E+03</totfact>
</mgrwt>
</event>
<event>
 5    1  0.3234540E-002  0.1250055E+03  0.7818608E-02  0.1235061E+00
          4   -1    0    0  501    0  0.00000000000E+00  0.00000000000E+00  0.13496547630E+04  0.13496553605E+04  0.12700000000E+01 0. -1.
         -4   -1    0    0    0  501 -0.00000000000E+00 -0.00000000000E+00 -0.27545803994E+01  0.30332512551E+01  0.12700000000E+01 0. -1.
         25    2    1    2    0    0  0.00000000000E+00  0.00000000000E+00  0.13469001826E+04  0.13526886118E+04  0.12500551406E+03 0.  0.
    9000005    1    3    3    0    0  0.21179044022E+02  0.54700844360E+02  0.44014193646E+03  0.44403452401E+03  0.10000000000E+01 0.  0.
    9000005    1    3    3    0    0 -0.21179044022E+02 -0.54700844360E+02  0.90675824616E+03  0.90865408780E+03  0.10000000000E+01 0.  0.
<mgrwt>
<rscale>  0 0.12500551E+03</rscale>
<asrwt>0</asrwt>
<pdfrwt beam="1">  1        4 0.20766029E+00 0.12500551E+03</pdfrwt>
<pdfrwt beam="2">  1       -4 0.44526462E-03 0.12500551E+03</pdfrwt>
<totfact> 0.21015555E+03</totfact>
</mgrwt>
</event>
<event>
 5    1  0.3234540E-002  0.1250008E+03  0.7818608E-02  0.1235068E+00
          4   -1    0    0  501    0  0.00000000000E+00  0.00000000000E+00  0.44674064482E+01  0.46444181953E+01  0.12700000000E+01 0.  1.
         -4   -1    0    0    0  501 -0.00000000000E+00 -0.00000000000E+00 -0.85723578060E+03  0.85723672135E+03  0.12700000000E+01 0.  1.
         25    2    1    2    0    0  0.00000000000E+00  0.00000000000E+00 -0.85276837415E+03  0.86188113955E+03  0.12500079504E+03 0.  0.
    9000005    1    3    3    0    0 -0.16386335453E+02 -0.20772633887E+02 -0.81674656367E+03  0.81717560143E+03  0.10000000000E+01 0.  0.
    9000005    1    3    3    0    0  0.16386335453E+02  0.20772633887E+02 -0.36021810482E+02  0.44705538120E+02  0.10000000000E+01 0.  0.
<mgrwt>
<rscale>  0 0.12500080E+03</rscale>
<asrwt>0</asrwt>
<pdfrwt beam="1">  1        4 0.70098263E-03 0.12500080E+03</pdfrwt>
<pdfrwt beam="2">  1       -4 0.13189599E+00 0.12500080E+03</pdfrwt>
<totfact> 0.35645423E+03</totfact>
</mgrwt>
</event>
<event>
 5    1  0.3234540E-002  0.1250014E+03  0.7818608E-02  0.1235067E+00
          4   -1    0    0  501    0  0.00000000000E+00  0.00000000000E+00  0.12766315398E+03  0.12766947084E+03  0.12700000000E+01 0.  1.
         -4   -1    0    0    0  501 -0.00000000000E+00 -0.00000000000E+00 -0.30578506771E+02  0.30604868507E+02  0.12700000000E+01 0.  1.
         25    2    1    2    0    0  0.00000000000E+00  0.00000000000E+00  0.97084647211E+02  0.15827433935E+03  0.12500135108E+03 0.  0.
    9000005    1    3    3    0    0  0.50099783884E+02 -0.24991051580E+02  0.13389128317E+02  0.57574384594E+02  0.10000000000E+01 0.  0.
    9000005    1    3    3    0    0 -0.50099783884E+02  0.24991051580E+02  0.83695518894E+02  0.10069995475E+03  0.10000000000E+01 0.  0.
<mgrwt>
<rscale>  0 0.12500135E+03</rscale>
<asrwt>0</asrwt>
<pdfrwt beam="1">  1        4 0.19642999E-01 0.12500135E+03</pdfrwt>
<pdfrwt beam="2">  1       -4 0.47068994E-02 0.12500135E+03</pdfrwt>
<totfact> 0.97673547E+03</totfact>
</mgrwt>
</event>
<event>
 5    1  0.3234540E-002  0.1249976E+03  0.7818608E-02  0.1235073E+00
         -4   -1    0    0    0  501 -0.00000000000E+00  0.00000000000E+00  0.10844038702E+04  0.10844046139E+04  0.12700000000E+01 0.  1.
          4   -1    0    0  501    0  0.00000000000E+00 -0.00000000000E+00 -0.34893590866E+01  0.37132905670E+01  0.12700000000E+01 0.  1.
         25    2    1    2    0    0  0.00000000000E+00  0.00000000000E+00  0.10809145111E+04  0.10881179045E+04  0.12499757455E+03 0.  0.
    9000005    1    3    3    0    0  0.20790620539E+02  0.57543425946E+02  0.42979523531E+03  0.43412951992E+03  0.10000000000E+01 0.  0.
    9000005    1    3    3    0    0 -0.20790620539E+02 -0.57543425946E+02  0.65111927583E+03  0.65398838455E+03  0.10000000000E+01 0.  0.
<mgrwt>
<rscale>  0 0.12499757E+03</rscale>
<asrwt>0</asrwt>
<pdfrwt beam="2">  1        4 0.55410719E-03 0.12499757E+03</pdfrwt>
<pdfrwt beam="1">  1       -4 0.16684865E+00 0.12499757E+03</pdfrwt>
<totfact> 0.27835241E+03</totfact>
</mgrwt>
</event>
<event>
 5    1  0.3234540E-002  0.1249971E+03  0.7818608E-02  0.1235074E+00
          4   -1    0    0  501    0  0.00000000000E+00  0.00000000000E+00  0.12153829799E+02  0.12220003224E+02  0.12700000000E+01 0. -1.
         -4   -1    0    0    0  501 -0.00000000000E+00 -0.00000000000E+00 -0.32044582633E+03  0.32044834297E+03  0.12700000000E+01 0. -1.
         25    2    1    2    0    0  0.00000000000E+00  0.00000000000E+00 -0.30829199653E+03  0.33266834620E+03  0.12499709370E+03 0.  0.
    9000005    1    3    3    0    0  0.46133871652E+02  0.39759830979E+02 -0.11689672607E+03  0.13181434990E+03  0.10000000000E+01 0.  0.
    9000005    1    3    3    0    0 -0.46133871652E+02 -0.39759830979E+02 -0.19139527046E+03  0.20085399630E+03  0.10000000000E+01 0.  0.
<mgrwt>
<rscale>  0 0.12499709E+03</rscale>
<asrwt>0</asrwt>
<pdfrwt beam="1">  1        4 0.18751041E-02 0.12499709E+03</pdfrwt>
<pdfrwt beam="2">  1       -4 0.49304635E-01 0.12499709E+03</pdfrwt>
<totfact> 0.71678919E+03</totfact>
</mgrwt>
</event>
<event>
 5    1  0.3234540E-002  0.1250002E+03  0.7818608E-02  0.1235069E+00
          4   -1    0    0  501    0  0.00000000000E+00  0.00000000000E+00  0.32973902905E+02  0.32998351062E+02  0.12700000000E+01 0.  1.
         -4   -1    0    0    0  501 -0.00000000000E+00 -0.00000000000E+00 -0.11839357972E+03  0.11840039113E+03  0.12700000000E+01 0.  1.
         25    2    1    2    0    0  0.00000000000E+00  0.00000000000E+00 -0.85419676820E+02  0.15139874219E+03  0.12500023180E+03 0.  0.
    9000005    1    3    3    0    0  0.58712516782E+02 -0.11602900067E+02 -0.64493633096E+02  0.87989860932E+02  0.10000000000E+01 0.  0.
    9000005    1    3    3    0    0 -0.58712516782E+02  0.11602900067E+02 -0.20926043724E+02  0.63408881261E+02  0.10000000000E+01 0.  0.
<mgrwt>
<rscale>  0 0.12500023E+03</rscale>
<asrwt>0</asrwt>
<pdfrwt beam="1">  1        4 0.50753128E-02 0.12500023E+03</pdfrwt>
<pdfrwt beam="2">  1       -4 0.18216801E-01 0.12500023E+03</pdfrwt>
<totfact> 0.99025091E+03</totfact>
</mgrwt>
</event>
<event>
 5    1  0.3234540E-002  0.1249999E+03  0.7818608E-02  0.1235069E+00
          4   -1    0    0  501    0  0.00000000000E+00  0.00000000000E+00  0.12915313710E+03  0.12915938108E+03  0.12700000000E+01 0. -1.
         -4   -1    0    0    0  501 -0.00000000000E+00 -0.00000000000E+00 -0.30224762233E+02  0.30251432231E+02  0.12700000000E+01 0. -1.
         25    2    1    2    0    0  0.00000000000E+00  0.00000000000E+00  0.98928374863E+02  0.15941081331E+03  0.12499993619E+03 0.  0.
    9000005    1    3    3    0    0  0.25203178891E+02 -0.41433407295E+02  0.99726012002E+02  0.11089727200E+03  0.10000000000E+01 0.  0.
    9000005    1    3    3    0    0 -0.25203178891E+02  0.41433407295E+02 -0.79763713909E+00  0.48513541319E+02  0.10000000000E+01 0.  0.
<mgrwt>
<rscale>  0 0.12499994E+03</rscale>
<asrwt>0</asrwt>
<pdfrwt beam="1">  1        4 0.19872245E-01 0.12499994E+03</pdfrwt>
<pdfrwt beam="2">  1       -4 0.46524952E-02 0.12499994E+03</pdfrwt>
<totfact> 0.97456635E+03</totfact>
</mgrwt>
</event>
<event>
 5    1  0.3234540E-002  0.1249999E+03  0.7818608E-02  0.1235069E+00
          4   -1    0    0  501    0  0.00000000000E+00  0.00000000000E+00  0.18244328229E+02  0.18288477589E+02  0.12700000000E+01 0.  1.
         -4   -1    0    0    0  501 -0.00000000000E+00 -0.00000000000E+00 -0.21380250212E+03  0.21380627403E+03  0.12700000000E+01 0.  1.
         25    2    1    2    0    0  0.00000000000E+00  0.00000000000E+00 -0.19555817389E+03  0.23209475162E+03  0.12499989741E+03 0.  0.
    9000005    1    3    3    0    0  0.56135298951E+02  0.27017160715E+02 -0.10690271786E+03  0.12373475602E+03  0.10000000000E+01 0.  0.
    9000005    1    3    3    0    0 -0.56135298951E+02 -0.27017160715E+02 -0.88655456036E+02  0.10835999560E+03  0.10000000000E+01 0.  0.
<mgrwt>
<rscale>  0 0.12499990E+03</rscale>
<asrwt>0</asrwt>
<pdfrwt beam="1">  1        4 0.28105061E-02 0.12499990E+03</pdfrwt>
<pdfrwt beam="2">  1       -4 0.32896377E-01 0.12499990E+03</pdfrwt>
<totfact> 0.84989176E+03</totfact>
</mgrwt>
</event>
<event>
 5    1  0.3234540E-002  0.1250000E+03  0.7818608E-02  0.1235069E+00
          4   -1    0    0  501    0  0.00000000000E+00  0.00000000000E+00  0.66780722372E+02  0.66792797370E+02  0.12700000000E+01 0.  1.
         -4   -1    0    0    0  501 -0.00000000000E+00 -0.00000000000E+00 -0.58469391858E+02  0.58483182919E+02  0.12700000000E+01 0.  1.
         25    2    1    2    0    0  0.00000000000E+00  0.00000000000E+00  0.83113305135E+01  0.12527598029E+03  0.12499997209E+03 0.  0.
    9000005    1    3    3    0    0  0.52386581119E+02 -0.27092740910E+02  0.24862306562E+02  0.64011755006E+02  0.10000000000E+01 0.  0.
    9000005    1    3    3    0    0 -0.52386581119E+02  0.27092740910E+02 -0.16550976048E+02  0.61264225283E+02  0.10000000000E+01 0.  0.
<mgrwt>
<rscale>  0 0.12499997E+03</rscale>
<asrwt>0</asrwt>
<pdfrwt beam="1">  1        4 0.10275947E-01 0.12499997E+03</pdfrwt>
<pdfrwt beam="2">  1       -4 0.89972808E-02 0.12499997E+03</pdfrwt>
<totfact> 0.10446878E+04</totfact>
</mgrwt>
</event>
<event>
 5    1  0.3234540E-002  0.1250035E+03  0.7818608E-02  0.1235064E+00
          4   -1    0    0  501    0  0.00000000000E+00  0.00000000000E+00  0.92485907620E+03  0.92485994817E+03  0.12700000000E+01 0. -1.
         -4   -1    0    0    0  501 -0.00000000000E+00 -0.00000000000E+00 -0.41274986121E+01  0.43184655600E+01  0.12700000000E+01 0. -1.
         25    2    1    2    0    0  0.00000000000E+00  0.00000000000E+00  0.92073157758E+03  0.92917841373E+03  0.12500354625E+03 0.  0.
    9000005    1    3    3    0    0 -0.17144072197E+02 -0.60093703984E+02  0.46443151815E+03  0.46861797610E+03  0.10000000000E+01 0.  0.
    9000005    1    3    3    0    0  0.17144072197E+02  0.60093703984E+02  0.45630005943E+03  0.46056043763E+03  0.10000000000E+01 0.  0.
<mgrwt>
<rscale>  0 0.12500355E+03</rscale>
<asrwt>0</asrwt>
<pdfrwt beam="1">  1        4 0.14230074E+00 0.12500355E+03</pdfrwt>
<pdfrwt beam="2">  1       -4 0.64975676E-03 0.12500355E+03</pdfrwt>
<totfact> 0.33064391E+03</totfact>
</mgrwt>
</event>
<event>
 5    1  0.3234540E-002  0.1249991E+03  0.7818608E-02  0.1235071E+00
          4   -1    0    0  501    0  0.00000000000E+00  0.00000000000E+00  0.84308600528E+01  0.85259780219E+01  0.12700000000E+01 0.  1.
         -4   -1    0    0    0  501 -0.00000000000E+00 -0.00000000000E+00 -0.46062576232E+03  0.46062751308E+03  0.12700000000E+01 0.  1.
         25    2    1    2    0    0  0.00000000000E+00  0.00000000000E+00 -0.45219490226E+03  0.46915349110E+03  0.12499907433E+03 0.  0.
    9000005    1    3    3    0    0 -0.72564988468E+01  0.44468602854E+02 -0.38862160334E+03  0.39122610342E+03  0.10000000000E+01 0.  0.
    9000005    1    3    3    0    0  0.72564988468E+01 -0.44468602854E+02 -0.63573298924E+02  0.77927387685E+02  0.10000000000E+01 0.  0.
<mgrwt>
<rscale>  0 0.12499907E+03</rscale>
<asrwt>0</asrwt>
<pdfrwt beam="1">  1        4 0.13045072E-02 0.12499907E+03</pdfrwt>
<pdfrwt beam="2">  1       -4 0.70872934E-01 0.12499907E+03</pdfrwt>
<totfact> 0.58340907E+03</totfact>
</mgrwt>
</event>
<event>
 5    1  0.3234540E-002  0.1250025E+03  0.7818608E-02  0.1235065E+00
         -4   -1    0    0    0  501 -0.00000000000E+00  0.00000000000E+00  0.26447006096E+03  0.26447311025E+03  0.12700000000E+01 0. -1.
          4   -1    0    0  501    0  0.00000000000E+00 -0.00000000000E+00 -0.14740250166E+02  0.14794859747E+02  0.12700000000E+01 0. -1.
         25    2    1    2    0    0  0.00000000000E+00  0.00000000000E+00  0.24972981080E+03  0.27926797000E+03  0.12500248264E+03 0.  0.
    9000005    1    3    3    0    0  0.53635776621E+02  0.20045394595E+02  0.18079734886E+03  0.18965045671E+03  0.10000000000E+01 0.  0.
    9000005    1    3    3    0    0 -0.53635776621E+02 -0.20045394595E+02  0.68932461942E+02  0.89617513286E+02  0.10000000000E+01 0.  0.
<mgrwt>
<rscale>  0 0.12500248E+03</rscale>
<asrwt>0</asrwt>
<pdfrwt beam="2">  1        4 0.22721661E-02 0.12500248E+03</pdfrwt>
<pdfrwt beam="1">  1       -4 0.40692137E-01 0.12500248E+03</pdfrwt>
<totfact> 0.78270947E+03</totfact>
</mgrwt>
</event>
<event>
 5    1  0.3234540E-002  0.1250001E+03  0.7818608E-02  0.1235069E+00
          4   -1    0    0  501    0  0.00000000000E+00  0.00000000000E+00  0.93655080103E+02  0.93663690559E+02  0.12700000000E+01 0.  1.
         -4   -1    0    0    0  501 -0.00000000000E+00 -0.00000000000E+00 -0.41688769297E+02  0.41708109349E+02  0.12700000000E+01 0.  1.
         25    2    1    2    0    0  0.00000000000E+00  0.00000000000E+00  0.51966310806E+02  0.13537179991E+03  0.12500010701E+03 0.  0.
    9000005    1    3    3    0    0 -0.79713565628E+01  0.53739192767E+02 -0.74632547197E+01  0.54846545340E+02  0.10000000000E+01 0.  0.
    9000005    1    3    3    0    0  0.79713565628E+01 -0.53739192767E+02  0.59429565526E+02  0.80525254568E+02  0.10000000000E+01 0.  0.
<mgrwt>
<rscale>  0 0.12500011E+03</rscale>
<asrwt>0</asrwt>
<pdfrwt beam="1">  1        4 0.14410624E-01 0.12500011E+03</pdfrwt>
<pdfrwt beam="2">  1       -4 0.64158069E-02 0.12500011E+03</pdfrwt>
<totfact> 0.10230216E+04</totfact>
</mgrwt>
</event>
<event>
 5    1  0.3234540E-002  0.1249983E+03  0.7818608E-02  0.1235072E+00
          4   -1    0    0  501    0  0.00000000000E+00  0.00000000000E+00  0.19725823205E+02  0.19766663884E+02  0.12700000000E+01 0.  1.
         -4   -1    0    0    0  501 -0.00000000000E+00 -0.00000000000E+00 -0.19777428571E+03  0.19777836329E+03  0.12700000000E+01 0.  1.
         25    2    1    2    0    0  0.00000000000E+00  0.00000000000E+00 -0.17804846250E+03  0.21754502718E+03  0.12499833539E+03 0.  0.
    9000005    1    3    3    0    0  0.45360776813E+02  0.41116780481E+02 -0.67220328263E+02  0.90927235974E+02  0.10000000000E+01 0.  0.
    9000005    1    3    3    0    0 -0.45360776813E+02 -0.41116780481E+02 -0.11082813424E+03  0.12661779120E+03  0.10000000000E+01 0.  0.
<mgrwt>
<rscale>  0 0.12499834E+03</rscale>
<asrwt>0</asrwt>
<pdfrwt beam="1">  1        4 0.30381974E-02 0.12499834E+03</pdfrwt>
<pdfrwt beam="2">  1       -4 0.30430267E-01 0.12499834E+03</pdfrwt>
<totfact> 0.87261559E+03</totfact>
</mgrwt>
</event>
<event>
 4    1  0.3234540E-002  0.1250631E+03  0.7818608E-02  0.1234971E+00
         -4   -1    0    0    0  501 -0.00000000000E+00  0.00000000000E+00  0.49256337416E+01  0.50867246590E+01  0.12700000000E+01 0.  1.
          4   -1    0    0  501    0  0.00000000000E+00 -0.00000000000E+00 -0.78091191498E+03  0.78091294768E+03  0.12700000000E+01 0.  1.
    9000005    1    1    2    0    0 -0.16266469147E+02  0.39449169495E+02 -0.10078562532E+03  0.10945125520E+03  0.10000000000E+01 0.  0.
    9000005    1    1    2    0    0  0.16266469147E+02 -0.39449169495E+02 -0.67520065591E+03  0.67654841714E+03  0.10000000000E+01 0.  0.
<mgrwt>
<rscale>  0 0.12506309E+03</rscale>
<asrwt>0</asrwt>
<pdfrwt beam="2">  1        4 0.12015267E+00 0.12506309E+03</pdfrwt>
<pdfrwt beam="1">  1       -4 0.77026147E-03 0.12506309E+03</pdfrwt>
<totfact> 0.38843888E+03</totfact>
</mgrwt>
</event>
<event>
 5    1  0.3234540E-002  0.1250047E+03  0.7818608E-02  0.1235062E+00
          4   -1    0    0  501    0  0.00000000000E+00  0.00000000000E+00  0.37691793499E+02  0.37713183334E+02  0.12700000000E+01 0.  1.
         -4   -1    0    0    0  501 -0.00000000000E+00 -0.00000000000E+00 -0.10358973601E+03  0.10359752075E+03  0.12700000000E+01 0.  1.
         25    2    1    2    0    0  0.00000000000E+00  0.00000000000E+00 -0.65897942509E+02  0.14131070409E+03  0.12500470496E+03 0.  0.
    9000005    1    3    3    0    0  0.21262206239E+02 -0.55501459036E+02 -0.11115005316E+02  0.60473438073E+02  0.10000000000E+01 0.  0.
    9000005    1    3    3    0    0 -0.21262206239E+02  0.55501459036E+02 -0.54782937193E+02  0.80837266014E+02  0.10000000000E+01 0.  0.
<mgrwt>
<rscale>  0 0.12500470E+03</rscale>
<asrwt>0</asrwt>
<pdfrwt beam="1">  1        4 0.58009817E-02 0.12500470E+03</pdfrwt>
<pdfrwt beam="2">  1       -4 0.15939127E-01 0.12500470E+03</pdfrwt>
<totfact> 0.10105422E+04</totfact>
</mgrwt>
</event>
<event>
 5    1  0.3234540E-002  0.1249999E+03  0.7818608E-02  0.1235069E+00
         -4   -1    0    0    0  501 -0.00000000000E+00  0.00000000000E+00  0.46437991597E+03  0.46438165258E+03  0.12700000000E+01 0. -1.
          4   -1    0    0  501    0  0.00000000000E+00 -0.00000000000E+00 -0.83620451342E+01  0.84579370314E+01  0.12700000000E+01 0. -1.
         25    2    1    2    0    0  0.00000000000E+00  0.00000000000E+00  0.45601787083E+03  0.47283958961E+03  0.12499991594E+03 0.  0.
    9000005    1    3    3    0    0 -0.31860840514E+02 -0.32154464238E+02  0.65034655568E+02  0.79243480196E+02  0.10000000000E+01 0.  0.
    9000005    1    3    3    0    0  0.31860840514E+02  0.32154464238E+02  0.39098321527E+03  0.39359610942E+03  0.10000000000E+01 0.  0.
<mgrwt>
<rscale>  0 0.12499992E+03</rscale>
<asrwt>0</asrwt>
<pdfrwt beam="2">  1        4 0.12939779E-02 0.12499992E+03</pdfrwt>
<pdfrwt beam="1">  1       -4 0.71450600E-01 0.12499992E+03</pdfrwt>
<totfact> 0.58035122E+03</totfact>
</mgrwt>
</event>
<event>
 5    1  0.3234540E-002  0.1249975E+03  0.7818608E-02  0.1235073E+00
          4   -1    0    0  501    0  0.00000000000E+00  0.00000000000E+00  0.23414595916E+02  0.23449012813E+02  0.12700000000E+01 0.  1.
         -4   -1    0    0    0  501 -0.00000000000E+00 -0.00000000000E+00 -0.16666363747E+03  0.16666847619E+03  0.12700000000E+01 0.  1.
         25    2    1    2    0    0  0.00000000000E+00  0.00000000000E+00 -0.14324904156E+03  0.19011748900E+03  0.12499748685E+03 0.  0.
    9000005    1    3    3    0    0 -0.48242526840E+01 -0.63385701284E+01 -0.16589576439E+03  0.16608990194E+03  0.10000000000E+01 0.  0.
    9000005    1    3    3    0    0  0.48242526840E+01  0.63385701284E+01  0.22646722829E+02  0.24027587064E+02  0.10000000000E+01 0.  0.
<mgrwt>
<rscale>  0 0.12499749E+03</rscale>
<asrwt>0</asrwt>
<pdfrwt beam="1">  1        4 0.36052653E-02 0.12499749E+03</pdfrwt>
<pdfrwt beam="2">  1       -4 0.25643578E-01 0.12499749E+03</pdfrwt>
<totfact> 0.91832046E+03</totfact>
</mgrwt>
</event>
<event>
 5    1  0.3234540E-002  0.1249923E+03  0.7818608E-02  0.1235081E+00
         -4   -1    0    0    0  501 -0.00000000000E+00  0.00000000000E+00  0.32253760358E+02  0.32278753960E+02  0.12700000000E+01 0. -1.
          4   -1    0    0  501    0  0.00000000000E+00 -0.00000000000E+00 -0.12101979749E+03  0.12102646110E+03  0.12700000000E+01 0. -1.
         25    2    1    2    0    0  0.00000000000E+00  0.00000000000E+00 -0.88766037135E+02  0.15330521506E+03  0.12499231822E+03 0.  0.
    9000005    1    3    3    0    0 -0.54105062798E+02  0.31105147639E+02 -0.40527407185E+02  0.74420150250E+02  0.10000000000E+01 0.  0.
    9000005    1    3    3    0    0  0.54105062798E+02 -0.31105147639E+02 -0.48238629949E+02  0.78885064806E+02  0.10000000000E+01 0.  0.
<mgrwt>
<rscale>  0 0.12499232E+03</rscale>
<asrwt>0</asrwt>
<pdfrwt beam="2">  1        4 0.18620865E-01 0.12499232E+03</pdfrwt>
<pdfrwt beam="1">  1       -4 0.49645522E-02 0.12499232E+03</pdfrwt>
<totfact> 0.98665937E+03</totfact>
</mgrwt>
</event>
<event>
 5    1  0.3234540E-002  0.1250005E+03  0.7818608E-02  0.1235068E+00
         -4   -1    0    0    0  501 -0.00000000000E+00  0.00000000000E+00  0.40721275299E+02  0.40741074630E+02  0.12700000000E+01 0.  1.
          4   -1    0    0  501    0  0.00000000000E+00 -0.00000000000E+00 -0.95880017302E+02  0.95888427966E+02  0.12700000000E+01 0.  1.
         25    2    1    2    0    0  0.00000000000E+00  0.00000000000E+00 -0.55158742003E+02  0.13662950260E+03  0.12500053664E+03 0.  0.
    9000005    1    3    3    0    0 -0.58047434981E+02  0.19557999736E+02 -0.41111058166E+02  0.73777633230E+02  0.10000000000E+01 0.  0.
    9000005    1    3    3    0    0  0.58047434981E+02 -0.19557999736E+02 -0.14047683837E+02  0.62851869365E+02  0.10000000000E+01 0.  0.
<mgrwt>
<rscale>  0 0.12500054E+03</rscale>
<asrwt>0</asrwt>
<pdfrwt beam="2">  1        4 0.14752942E-01 0.12500054E+03</pdfrwt>
<pdfrwt beam="1">  1       -4 0.62669816E-02 0.12500054E+03</pdfrwt>
<totfact> 0.10203715E+04</totfact>
</mgrwt>
</event>
<event>
 5    1  0.3234540E-002  0.1250033E+03  0.7818608E-02  0.1235064E+00
          4   -1    0    0  501    0  0.00000000000E+00  0.00000000000E+00  0.47239996829E+02  0.47257065085E+02  0.12700000000E+01 0. -1.
         -4   -1    0    0    0  501 -0.00000000000E+00 -0.00000000000E+00 -0.82656897741E+02  0.82666653762E+02  0.12700000000E+01 0. -1.
         25    2    1    2    0    0  0.00000000000E+00  0.00000000000E+00 -0.35416900912E+02  0.12992371885E+03  0.12500326335E+03 0.  0.
    9000005    1    3    3    0    0 -0.34235883819E+02 -0.49771272654E+02 -0.10728473710E+01  0.60427033055E+02  0.10000000000E+01 0.  0.
    9000005    1    3    3    0    0  0.34235883819E+02  0.49771272654E+02 -0.34344053541E+02  0.69496685791E+02  0.10000000000E+01 0.  0.
<mgrwt>
<rscale>  0 0.12500326E+03</rscale>
<asrwt>0</asrwt>
<pdfrwt beam="1">  1        4 0.72697552E-02 0.12500326E+03</pdfrwt>
<pdfrwt beam="2">  1       -4 0.12718509E-01 0.12500326E+03</pdfrwt>
<totfact> 0.10345377E+04</totfact>
</mgrwt>
</event>
<event>
 5    1  0.3234540E-002  0.1249967E+03  0.7818608E-02  0.1235075E+00
         -4   -1    0    0    0  501 -0.00000000000E+00  0.00000000000E+00  0.60358844546E+01  0.61680467856E+01  0.12700000000E+01 0.  1.
          4   -1    0    0  501    0  0.00000000000E+00 -0.00000000000E+00 -0.63999546816E+03  0.63999672825E+03  0.12700000000E+01 0.  1.
         25    2    1    2    0    0  0.00000000000E+00  0.00000000000E+00 -0.63395958371E+03  0.64616477503E+03  0.12499665083E+03 0.  0.
    9000005    1    3    3    0    0 -0.41294698532E+02  0.20149591212E+02 -0.53592215295E+03  0.53788921924E+03  0.10000000000E+01 0.  0.
    9000005    1    3    3    0    0  0.41294698532E+02 -0.20149591212E+02 -0.98037430763E+02  0.10827555580E+03  0.10000000000E+01 0.  0.
<mgrwt>
<rscale>  0 0.12499665E+03</rscale>
<asrwt>0</asrwt>
<pdfrwt beam="2">  1        4 0.98471051E-01 0.12499665E+03</pdfrwt>
<pdfrwt beam="1">  1       -4 0.93886138E-03 0.12499665E+03</pdfrwt>
<totfact> 0.46080727E+03</totfact>
</mgrwt>
</event>
<event>
 5    1  0.3234540E-002  0.1250008E+03  0.7818608E-02  0.1235068E+00
          4   -1    0    0  501    0  0.00000000000E+00  0.00000000000E+00  0.11254348719E+03  0.11255065263E+03  0.12700000000E+01 0.  1.
         -4   -1    0    0    0  501 -0.00000000000E+00 -0.00000000000E+00 -0.34689366723E+02  0.34712606696E+02  0.12700000000E+01 0.  1.
         25    2    1    2    0    0  0.00000000000E+00  0.00000000000E+00  0.77854120464E+02  0.14726325933E+03  0.12500081390E+03 0.  0.
    9000005    1    3    3    0    0  0.18115849116E+01 -0.16910204775E+02  0.10977049706E+03  0.11108464741E+03  0.10000000000E+01 0.  0.
    9000005    1    3    3    0    0 -0.18115849116E+01  0.16910204775E+02 -0.31916376595E+02  0.36178611919E+02  0.10000000000E+01 0.  0.
<mgrwt>
<rscale>  0 0.12500081E+03</rscale>
<asrwt>0</asrwt>
<pdfrwt beam="1">  1        4 0.17316722E-01 0.12500081E+03</pdfrwt>
<pdfrwt beam="2">  1       -4 0.53391645E-02 0.12500081E+03</pdfrwt>
<totfact> 0.99850221E+03</totfact>
</mgrwt>
</event>
<event>
 5    1  0.3234540E-002  0.1250063E+03  0.7818608E-02  0.1235059E+00
         -4   -1    0    0    0  501 -0.00000000000E+00  0.00000000000E+00  0.10071125527E+02  0.10150885153E+02  0.12700000000E+01 0. -1.
          4   -1    0    0  501    0  0.00000000000E+00 -0.00000000000E+00 -0.38629438253E+03  0.38629647018E+03  0.12700000000E+01 0. -1.
         25    2    1    2    0    0  0.00000000000E+00  0.00000000000E+00 -0.37622325700E+03  0.39644735533E+03  0.12500626561E+03 0.  0.
    9000005    1    3    3    0    0 -0.17966026359E+02 -0.35436998223E+02 -0.34110043234E+03  0.34340801372E+03  0.10000000000E+01 0.  0.
    9000005    1    3    3    0    0  0.17966026359E+02  0.35436998223E+02 -0.35122824659E+02  0.53039341608E+02  0.10000000000E+01 0.  0.
<mgrwt>
<rscale>  0 0.12500627E+03</rscale>
<asrwt>0</asrwt>
<pdfrwt beam="2">  1        4 0.59436189E-01 0.12500627E+03</pdfrwt>
<pdfrwt beam="1">  1       -4 0.15557002E-02 0.12500627E+03</pdfrwt>
<totfact> 0.64890815E+03</totfact>
</mgrwt>
</event>
<event>
 5    1  0.3234540E-002  0.1250514E+03  0.7818608E-02  0.1234989E+00
          4   -1    0    0  501    0  0.00000000000E+00  0.00000000000E+00  0.64472412961E+03  0.64472538046E+03  0.12700000000E+01 0. -1.
         -4   -1    0    0    0  501 -0.00000000000E+00 -0.00000000000E+00 -0.59960046632E+01  0.61290269963E+01  0.12700000000E+01 0. -1.
         25    2    1    2    0    0  0.00000000000E+00  0.00000000000E+00  0.63872812495E+03  0.65085440745E+03  0.12505135785E+03 0.  0.
    9000005    1    3    3    0    0 -0.42463969732E+02  0.31272903139E+02  0.49411150350E+03  0.49691886771E+03  0.10000000000E+01 0.  0.
    9000005    1    3    3    0    0  0.42463969732E+02 -0.31272903139E+02  0.14461662145E+03  0.15393553974E+03  0.10000000000E+01 0.  0.
<mgrwt>
<rscale>  0 0.12505136E+03</rscale>
<asrwt>0</asrwt>
<pdfrwt beam="1">  1        4 0.99198612E-01 0.12505136E+03</pdfrwt>
<pdfrwt beam="2">  1       -4 0.93279138E-03 0.12505136E+03</pdfrwt>
<totfact> 0.45755561E+03</totfact>
</mgrwt>
</event>
<event>
 5    1  0.3234540E-002  0.1250560E+03  0.7818608E-02  0.1234982E+00
         -4   -1    0    0    0  501 -0.00000000000E+00  0.00000000000E+00  0.21485909694E+02  0.21523410868E+02  0.12700000000E+01 0. -1.
          4   -1    0    0  501    0  0.00000000000E+00 -0.00000000000E+00 -0.18176972594E+03  0.18177416255E+03  0.12700000000E+01 0. -1.
         25    2    1    2    0    0  0.00000000000E+00  0.00000000000E+00 -0.16028381625E+03  0.20329757342E+03  0.12505599388E+03 0.  0.
    9000005    1    3    3    0    0  0.24785649096E+02 -0.50950871032E+02 -0.12310438941E+03  0.13552125425E+03  0.10000000000E+01 0.  0.
    9000005    1    3    3    0    0 -0.24785649096E+02  0.50950871032E+02 -0.37179426839E+02  0.67776319169E+02  0.10000000000E+01 0.  0.
<mgrwt>
<rscale>  0 0.12505599E+03</rscale>
<asrwt>0</asrwt>
<pdfrwt beam="2">  1        4 0.27967798E-01 0.12505599E+03</pdfrwt>
<pdfrwt beam="1">  1       -4 0.33087507E-02 0.12505599E+03</pdfrwt>
<totfact> 0.89470190E+03</totfact>
</mgrwt>
</event>
<event>
 5    1  0.3234540E-002  0.1249941E+03  0.7818608E-02  0.1235079E+00
         -4   -1    0    0    0  501 -0.00000000000E+00  0.00000000000E+00  0.69485771308E+02  0.69497376312E+02  0.12700000000E+01 0. -1.
          4   -1    0    0  501    0  0.00000000000E+00 -0.00000000000E+00 -0.56187746927E+02  0.56202097868E+02  0.12700000000E+01 0. -1.
         25    2    1    2    0    0  0.00000000000E+00  0.00000000000E+00  0.13298024381E+02  0.12569947418E+03  0.12499408129E+03 0.  0.
    9000005    1    3    3    0    0  0.24320598598E+02 -0.19220740012E+02 -0.47915384085E+02  0.57077249363E+02  0.10000000000E+01 0.  0.
    9000005    1    3    3    0    0 -0.24320598598E+02  0.19220740012E+02  0.61213408466E+02  0.68622224817E+02  0.10000000000E+01 0.  0.
<mgrwt>
<rscale>  0 0.12499408E+03</rscale>
<asrwt>0</asrwt>
<pdfrwt beam="2">  1        4 0.86462654E-02 0.12499408E+03</pdfrwt>
<pdfrwt beam="1">  1       -4 0.10692115E-01 0.12499408E+03</pdfrwt>
<totfact> 0.10438950E+04</totfact>
</mgrwt>
</event>
<event>
 4    1  0.3234540E-002  0.1252104E+03  0.7818608E-02  0.1234741E+00
         -4   -1    0    0    0  501 -0.00000000000E+00  0.00000000000E+00  0.29704983304E+01  0.32305975192E+01  0.12700000000E+01 0.  1.
          4   -1    0    0  501    0  0.00000000000E+00 -0.00000000000E+00 -0.12638428606E+04  0.12638434987E+04  0.12700000000E+01 0.  1.
    9000005    1    1    2    0    0 -0.54321502281E+02  0.14518434503E+02 -0.90882560343E+03  0.91056388463E+03  0.10000000000E+01 0.  0.
    9000005    1    1    2    0    0  0.54321502281E+02 -0.14518434503E+02 -0.35204675888E+03  0.35651021162E+03  0.10000000000E+01 0.  0.
<mgrwt>
<rscale>  0 0.12521043E+03</rscale>
<asrwt>0</asrwt>
<pdfrwt beam="2">  1        4 0.19445701E+00 0.12521043E+03</pdfrwt>
<pdfrwt beam="1">  1       -4 0.47705747E-03 0.12521043E+03</pdfrwt>
<totfact> 0.22913899E+03</totfact>
</mgrwt>
</event>
<event>
 5    1  0.3234540E-002  0.1250028E+03  0.7818608E-02  0.1235065E+00
          4   -1    0    0  501    0  0.00000000000E+00  0.00000000000E+00  0.16652294280E+03  0.16652778561E+03  0.12700000000E+01 0.  1.
         -4   -1    0    0    0  501 -0.00000000000E+00 -0.00000000000E+00 -0.23436419988E+02  0.23470804883E+02  0.12700000000E+01 0.  1.
         25    2    1    2    0    0  0.00000000000E+00  0.00000000000E+00  0.14308652281E+03  0.18999859049E+03  0.12500284548E+03 0.  0.
    9000005    1    3    3    0    0 -0.26458842728E+01  0.43598736059E+02  0.13947649434E+03  0.14615930679E+03  0.10000000000E+01 0.  0.
    9000005    1    3    3    0    0  0.26458842728E+01 -0.43598736059E+02  0.36100284762E+01  0.43839283697E+02  0.10000000000E+01 0.  0.
<mgrwt>
<rscale>  0 0.12500285E+03</rscale>
<asrwt>0</asrwt>
<pdfrwt beam="1">  1        4 0.25621931E-01 0.12500285E+03</pdfrwt>
<pdfrwt beam="2">  1       -4 0.36086206E-02 0.12500285E+03</pdfrwt>
<totfact> 0.91841706E+03</totfact>
</mgrwt>
</event>
<event>
 5    1  0.3234540E-002  0.1250010E+03  0.7818608E-02  0.1235068E+00
         -4   -1    0    0    0  501 -0.00000000000E+00  0.00000000000E+00  0.69132131181E+01  0.70288986062E+01  0.12700000000E+01 0.  1.
          4   -1    0    0  501    0  0.00000000000E+00 -0.00000000000E+00 -0.56024483591E+03  0.56024627537E+03  0.12700000000E+01 0.  1.
         25    2    1    2    0    0  0.00000000000E+00  0.00000000000E+00 -0.55333162279E+03  0.56727517398E+03  0.12500095290E+03 0.  0.
    9000005    1    3    3    0    0 -0.52682579482E+01  0.61344214987E+01 -0.55788293516E+03  0.55794242984E+03  0.10000000000E+01 0.  0.
    9000005    1    3    3    0    0  0.52682579482E+01 -0.61344214987E+01  0.45513123659E+01  0.93327441401E+01  0.10000000000E+01 0.  0.
<mgrwt>
<rscale>  0 0.12500095E+03</rscale>
<asrwt>0</asrwt>
<pdfrwt beam="2">  1        4 0.86200488E-01 0.12500095E+03</pdfrwt>
<pdfrwt beam="1">  1       -4 0.10725813E-02 0.12500095E+03</pdfrwt>
<totfact> 0.50999619E+03</totfact>
</mgrwt>
</event>
<event>
 5    1  0.3234540E-002  0.1249949E+03  0.7818608E-02  0.1235077E+00
          4   -1    0    0  501    0  0.00000000000E+00  0.00000000000E+00  0.99987391978E+01  0.10079071661E+02  0.12700000000E+01 0.  1.
         -4   -1    0    0    0  501 -0.00000000000E+00 -0.00000000000E+00 -0.38899817257E+03  0.38900024571E+03  0.12700000000E+01 0.  1.
         25    2    1    2    0    0  0.00000000000E+00  0.00000000000E+00 -0.37899943337E+03  0.39907931737E+03  0.12499492413E+03 0.  0.
    9000005    1    3    3    0    0 -0.63755103188E+01 -0.30980870020E+02 -0.17431606052E+02  0.36129244783E+02  0.10000000000E+01 0.  0.
    9000005    1    3    3    0    0  0.63755103188E+01  0.30980870020E+02 -0.36156782732E+03  0.36295007259E+03  0.10000000000E+01 0.  0.
<mgrwt>
<rscale>  0 0.12499492E+03</rscale>
<asrwt>0</asrwt>
<pdfrwt beam="1">  1        4 0.15446068E-02 0.12499492E+03</pdfrwt>
<pdfrwt beam="2">  1       -4 0.59852200E-01 0.12499492E+03</pdfrwt>
<totfact> 0.64649682E+03</totfact>
</mgrwt>
</event>
<event>
 5    1  0.3234540E-002  0.1249947E+03  0.7818608E-02  0.1235078E+00
         -4   -1    0    0    0  501 -0.00000000000E+00  0.00000000000E+00  0.53363755134E+02  0.53378865312E+02  0.12700000000E+01 0.  1.
          4   -1    0    0  501    0  0.00000000000E+00 -0.00000000000E+00 -0.73163234160E+02  0.73174255943E+02  0.12700000000E+01 0.  1.
         25    2    1    2    0    0  0.00000000000E+00  0.00000000000E+00 -0.19799479026E+02  0.12655312126E+03  0.12499469241E+03 0.  0.
    9000005    1    3    3    0    0 -0.28267209075E+02 -0.32518679861E+02 -0.55723491698E+02  0.70445774720E+02  0.10000000000E+01 0.  0.
    9000005    1    3    3    0    0  0.28267209075E+02  0.32518679861E+02  0.35924012672E+02  0.56107346536E+02  0.10000000000E+01 0.  0.
<mgrwt>
<rscale>  0 0.12499469E+03</rscale>
<asrwt>0</asrwt>
<pdfrwt beam="2">  1        4 0.11257892E-01 0.12499469E+03</pdfrwt>
<pdfrwt beam="1">  1       -4 0.82118187E-02 0.12499469E+03</pdfrwt>
<totfact> 0.10420118E+04</totfact>
</mgrwt>
</event>
<event>
 5    1  0.3234540E-002  0.1249968E+03  0.7818608E-02  0.1235074E+00
         -4   -1    0    0    0  501 -0.00000000000E+00  0.00000000000E+00  0.18859985499E+03  0.18860413093E+03  0.12700000000E+01 0.  1.
          4   -1    0    0  501    0  0.00000000000E+00 -0.00000000000E+00 -0.20686797060E+02  0.20725744199E+02  0.12700000000E+01 0.  1.
         25    2    1    2    0    0  0.00000000000E+00  0.00000000000E+00  0.16791305793E+03  0.20932987513E+03  0.12499680634E+03 0.  0.
    9000005    1    3    3    0    0  0.58234658239E+02 -0.74759519491E+01  0.11979178925E+03  0.13341003729E+03  0.10000000000E+01 0.  0.
    9000005    1    3    3    0    0 -0.58234658239E+02  0.74759519491E+01  0.48121268686E+02  0.75919837840E+02  0.10000000000E+01 0.  0.
<mgrwt>
<rscale>  0 0.12499681E+03</rscale>
<asrwt>0</asrwt>
<pdfrwt beam="2">  1        4 0.31859091E-02 0.12499681E+03</pdfrwt>
<pdfrwt beam="1">  1       -4 0.29018686E-01 0.12499681E+03</pdfrwt>
<totfact> 0.88591764E+03</totfact>
</mgrwt>
</event>
<event>
 5    1  0.3234540E-002  0.1249975E+03  0.7818608E-02  0.1235073E+00
          4   -1    0    0  501    0  0.00000000000E+00  0.00000000000E+00  0.36368054873E+02  0.36390222797E+02  0.12700000000E+01 0.  1.
         -4   -1    0    0    0  501 -0.00000000000E+00 -0.00000000000E+00 -0.10734592825E+03  0.10735344061E+03  0.12700000000E+01 0.  1.
         25    2    1    2    0    0  0.00000000000E+00  0.00000000000E+00 -0.70977873375E+02  0.14374366341E+03  0.12499752902E+03 0.  0.
    9000005    1    3    3    0    0  0.49675832373E+02  0.30385781390E+02 -0.61563434588E+02  0.84746920362E+02  0.10000000000E+01 0.  0.
    9000005    1    3    3    0    0 -0.49675832373E+02 -0.30385781390E+02 -0.94144387869E+01  0.58996743048E+02  0.10000000000E+01 0.  0.
<mgrwt>
<rscale>  0 0.12499753E+03</rscale>
<asrwt>0</asrwt>
<pdfrwt beam="1">  1        4 0.55973685E-02 0.12499753E+03</pdfrwt>
<pdfrwt beam="2">  1       -4 0.16517041E-01 0.12499753E+03</pdfrwt>
<totfact> 0.10057137E+04</totfact>
</mgrwt>
</event>
<event>
 5    1  0.3234540E-002  0.1249958E+03  0.7818608E-02  0.1235076E+00
         -4   -1    0    0    0  501 -0.00000000000E+00  0.00000000000E+00  0.34748623689E+03  0.34748855769E+03  0.12700000000E+01 0.  1.
          4   -1    0    0  501    0  0.00000000000E+00 -0.00000000000E+00 -0.11202456450E+02  0.11274215295E+02  0.12700000000E+01 0.  1.
         25    2    1    2    0    0  0.00000000000E+00  0.00000000000E+00  0.33628378044E+03  0.35876277299E+03  0.12499578511E+03 0.  0.
    9000005    1    3    3    0    0 -0.21805650738E+02  0.53089663119E+02  0.23908795103E+03  0.24588218126E+03  0.10000000000E+01 0.  0.
    9000005    1    3    3    0    0  0.21805650738E+02 -0.53089663119E+02  0.97195829412E+02  0.11288059173E+03  0.10000000000E+01 0.  0.
<mgrwt>
<rscale>  0 0.12499579E+03</rscale>
<asrwt>0</asrwt>
<pdfrwt beam="2">  1        4 0.17291534E-02 0.12499579E+03</pdfrwt>
<pdfrwt beam="1">  1       -4 0.53465116E-01 0.12499579E+03</pdfrwt>
<totfact> 0.68777594E+03</totfact>
</mgrwt>
</event>
<event>
 5    1  0.3234540E-002  0.1249975E+03  0.7818608E-02  0.1235073E+00
         -4   -1    0    0    0  501 -0.00000000000E+00  0.00000000000E+00  0.26105434996E+02  0.26136308774E+02  0.12700000000E+01 0.  1.
          4   -1    0    0  501    0  0.00000000000E+00 -0.00000000000E+00 -0.14950569525E+03  0.14951108927E+03  0.12700000000E+01 0.  1.
         25    2    1    2    0    0  0.00000000000E+00  0.00000000000E+00 -0.12340026026E+03  0.17564739804E+03  0.12499753680E+03 0.  0.
    9000005    1    3    3    0    0 -0.34163894418E+02  0.51258296366E+02 -0.46927975255E+02  0.77445590512E+02  0.10000000000E+01 0.  0.
    9000005    1    3    3    0    0  0.34163894418E+02 -0.51258296366E+02 -0.76472285003E+02  0.98201807528E+02  0.10000000000E+01 0.  0.
<mgrwt>
<rscale>  0 0.12499754E+03</rscale>
<asrwt>0</asrwt>
<pdfrwt beam="2">  1        4 0.23003665E-01 0.12499754E+03</pdfrwt>
<pdfrwt beam="1">  1       -4 0.40190107E-02 0.12499754E+03</pdfrwt>
<totfact> 0.94411622E+03</totfact>
</mgrwt>
</event>
<event>
 5    1  0.3234540E-002  0.1249992E+03  0.7818608E-02  0.1235070E+00
         -4   -1    0    0    0  501 -0.00000000000E+00  0.00000000000E+00  0.47924208382E+02  0.47941033041E+02  0.12700000000E+01 0. -1.
          4   -1    0    0  501    0  0.00000000000E+00 -0.00000000000E+00 -0.81471839233E+02  0.81481737144E+02  0.12700000000E+01 0. -1.
         25    2    1    2    0    0  0.00000000000E+00  0.00000000000E+00 -0.33547630851E+02  0.12942277019E+03  0.12499923962E+03 0.  0.
    9000005    1    3    3    0    0 -0.39223336296E+02 -0.28095422720E+02 -0.57895550278E+02  0.75370535556E+02  0.10000000000E+01 0.  0.
    9000005    1    3    3    0    0  0.39223336296E+02  0.28095422720E+02  0.24347919428E+02  0.54052234629E+02  0.10000000000E+01 0.  0.
<mgrwt>
<rscale>  0 0.12499924E+03</rscale>
<asrwt>0</asrwt>
<pdfrwt beam="2">  1        4 0.12536185E-01 0.12499924E+03</pdfrwt>
<pdfrwt beam="1">  1       -4 0.73750107E-02 0.12499924E+03</pdfrwt>
<totfact> 0.10357049E+04</totfact>
</mgrwt>
</event>
<event>
 5    1  0.3234540E-002  0.1249978E+03  0.7818608E-02  0.1235073E+00
          4   -1    0    0  501    0  0.00000000000E+00  0.00000000000E+00  0.76981713172E+01  0.78022267096E+01  0.12700000000E+01 0. -1.
         -4   -1    0    0    0  501 -0.00000000000E+00 -0.00000000000E+00 -0.50389657527E+03  0.50389817570E+03  0.12700000000E+01 0. -1.
         25    2    1    2    0    0  0.00000000000E+00  0.00000000000E+00 -0.49619840396E+03  0.51170040241E+03  0.12499778292E+03 0.  0.
    9000005    1    3    3    0    0 -0.22889863909E+02 -0.47026153326E+02 -0.38810689323E+03  0.39161634994E+03  0.10000000000E+01 0.  0.
    9000005    1    3    3    0    0  0.22889863909E+02  0.47026153326E+02 -0.10809151073E+03  0.12008405247E+03  0.10000000000E+01 0.  0.
<mgrwt>
<rscale>  0 0.12499778E+03</rscale>
<asrwt>0</asrwt>
<pdfrwt beam="1">  1        4 0.11924618E-02 0.12499778E+03</pdfrwt>
<pdfrwt beam="2">  1       -4 0.77530652E-01 0.12499778E+03</pdfrwt>
<totfact> 0.54970541E+03</totfact>
</mgrwt>
</event>
<event>
 5    1  0.3234540E-002  0.1250018E+03  0.7818608E-02  0.1235067E+00
         -4   -1    0    0    0  501 -0.00000000000E+00  0.00000000000E+00  0.67508005371E+03  0.67508124831E+03  0.12700000000E+01 0. -1.
          4   -1    0    0  501    0  0.00000000000E+00 -0.00000000000E+00 -0.57156163814E+01  0.58550124355E+01  0.12700000000E+01 0. -1.
         25    2    1    2    0    0  0.00000000000E+00  0.00000000000E+00  0.66936443733E+03  0.68093626074E+03  0.12500176493E+03 0.  0.
    9000005    1    3    3    0    0 -0.20318049523E+02 -0.51729587506E+02  0.49034741860E+03  0.49348795760E+03  0.10000000000E+01 0.  0.
    9000005    1    3    3    0    0  0.20318049523E+02  0.51729587506E+02  0.17901701872E+03  0.18744830315E+03  0.10000000000E+01 0.  0.
<mgrwt>
<rscale>  0 0.12500176E+03</rscale>
<asrwt>0</asrwt>
<pdfrwt beam="2">  1        4 0.89014092E-03 0.12500176E+03</pdfrwt>
<pdfrwt beam="1">  1       -4 0.10386921E+00 0.12500176E+03</pdfrwt>
<totfact> 0.44110657E+03</totfact>
</mgrwt>
</event>
<event>
 5    1  0.3234540E-002  0.1249998E+03  0.7818608E-02  0.1235070E+00
         -4   -1    0    0    0  501 -0.00000000000E+00  0.00000000000E+00  0.39781026601E+01  0.41759071798E+01  0.12700000000E+01 0.  1.
          4   -1    0    0  501    0  0.00000000000E+00 -0.00000000000E+00 -0.95791569199E+03  0.95791653387E+03  0.12700000000E+01 0.  1.
         25    2    1    2    0    0  0.00000000000E+00  0.00000000000E+00 -0.95393758933E+03  0.96209244104E+03  0.12499976315E+03 0.  0.
    9000005    1    3    3    0    0  0.29401415194E+02  0.40791025619E+02 -0.76256755777E+03  0.76422420215E+03  0.10000000000E+01 0.  0.
    9000005    1    3    3    0    0 -0.29401415194E+02 -0.40791025619E+02 -0.19137003156E+03  0.19786823890E+03  0.10000000000E+01 0.  0.
<mgrwt>
<rscale>  0 0.12499976E+03</rscale>
<asrwt>0</asrwt>
<pdfrwt beam="2">  1        4 0.14738675E+00 0.12499976E+03</pdfrwt>
<pdfrwt beam="1">  1       -4 0.62729705E-03 0.12499976E+03</pdfrwt>
<totfact> 0.31890698E+03</totfact>
</mgrwt>
</event>
<event>
 5    1  0.3234540E-002  0.1250001E+03  0.7818608E-02  0.1235069E+00
          4   -1    0    0  501    0  0.00000000000E+00  0.00000000000E+00  0.19257881615E+03  0.19258300374E+03  0.12700000000E+01 0.  1.
         -4   -1    0    0    0  501 -0.00000000000E+00 -0.00000000000E+00 -0.20259633109E+02  0.20299399836E+02  0.12700000000E+01 0.  1.
         25    2    1    2    0    0  0.00000000000E+00  0.00000000000E+00  0.17231918304E+03  0.21288240357E+03  0.12500006763E+03 0.  0.
    9000005    1    3    3    0    0  0.40343609637E+02 -0.46848526984E+02  0.70656810871E+02  0.93892365193E+02  0.10000000000E+01 0.  0.
    9000005    1    3    3    0    0 -0.40343609637E+02  0.46848526984E+02  0.10166237217E+03  0.11899003838E+03  0.10000000000E+01 0.  0.
<mgrwt>
<rscale>  0 0.12500007E+03</rscale>
<asrwt>0</asrwt>
<pdfrwt beam="1">  1        4 0.29630891E-01 0.12500007E+03</pdfrwt>
<pdfrwt beam="2">  1       -4 0.31202478E-02 0.12500007E+03</pdfrwt>
<totfact> 0.88007166E+03</totfact>
</mgrwt>
</event>
<event>
 5    1  0.3234540E-002  0.1250011E+03  0.7818608E-02  0.1235068E+00
         -4   -1    0    0    0  501 -0.00000000000E+00  0.00000000000E+00  0.19152988264E+02  0.19195047784E+02  0.12700000000E+01 0. -1.
          4   -1    0    0  501    0  0.00000000000E+00 -0.00000000000E+00 -0.20368579407E+03  0.20368975331E+03  0.12700000000E+01 0. -1.
         25    2    1    2    0    0  0.00000000000E+00  0.00000000000E+00 -0.18453280580E+03  0.22288480110E+03  0.12500111257E+03 0.  0.
    9000005    1    3    3    0    0 -0.50376380838E+02  0.18839904043E+02 -0.35526960102E+02  0.64466166512E+02  0.10000000000E+01 0.  0.
    9000005    1    3    3    0    0  0.50376380838E+02 -0.18839904043E+02 -0.14900584570E+03  0.15841863459E+03  0.10000000000E+01 0.  0.
<mgrwt>
<rscale>  0 0.12500111E+03</rscale>
<asrwt>0</asrwt>
<pdfrwt beam="2">  1        4 0.31339814E-01 0.12500111E+03</pdfrwt>
<pdfrwt beam="1">  1       -4 0.29501536E-02 0.12500111E+03</pdfrwt>
<totfact> 0.86411770E+03</totfact>
</mgrwt>
</event>
<event>
 5    1  0.3234540E-002  0.1249955E+03  0.7818608E-02  0.1235076E+00
          4   -1    0    0  501    0  0.00000000000E+00  0.00000000000E+00  0.62586836765E+02  0.62599720736E+02  0.12700000000E+01 0.  1.
         -4   -1    0    0    0  501 -0.00000000000E+00 -0.00000000000E+00 -0.62383068386E+02  0.62395994433E+02  0.12700000000E+01 0.  1.
         25    2    1    2    0    0  0.00000000000E+00  0.00000000000E+00  0.20376837856E+00  0.12499571517E+03  0.12499554908E+03 0.  0.
    9000005    1    3    3    0    0  0.39407036190E+02  0.15417380772E+02 -0.45880365758E+02  0.62422897187E+02  0.10000000000E+01 0.  0.
    9000005    1    3    3    0    0 -0.39407036190E+02 -0.15417380772E+02  0.46084134136E+02  0.62572817982E+02  0.10000000000E+01 0.  0.
<mgrwt>
<rscale>  0 0.12499555E+03</rscale>
<asrwt>0</asrwt>
<pdfrwt beam="1">  1        4 0.96307295E-02 0.12499555E+03</pdfrwt>
<pdfrwt beam="2">  1       -4 0.95993805E-02 0.12499555E+03</pdfrwt>
<totfact> 0.10454007E+04</totfact>
</mgrwt>
</event>
<event>
 5    1  0.3234540E-002  0.1250156E+03  0.7818608E-02  0.1235045E+00
         -4   -1    0    0    0  501 -0.00000000000E+00  0.00000000000E+00  0.22553836572E+03  0.22554194136E+03  0.12700000000E+01 0.  1.
          4   -1    0    0  501    0  0.00000000000E+00 -0.00000000000E+00 -0.17296993144E+02  0.17343554186E+02  0.12700000000E+01 0.  1.
         25    2    1    2    0    0  0.00000000000E+00  0.00000000000E+00  0.20824137258E+03  0.24288549554E+03  0.12501557780E+03 0.  0.
    9000005    1    3    3    0    0 -0.47562577998E+02 -0.34650629163E+02  0.14502933068E+03  0.15651636235E+03  0.10000000000E+01 0.  0.
    9000005    1    3    3    0    0  0.47562577998E+02  0.34650629163E+02  0.63212041895E+02  0.86369133189E+02  0.10000000000E+01 0.  0.
<mgrwt>
<rscale>  0 0.12501558E+03</rscale>
<asrwt>0</asrwt>
<pdfrwt beam="2">  1        4 0.26649330E-02 0.12501558E+03</pdfrwt>
<pdfrwt beam="1">  1       -4 0.34702061E-01 0.12501558E+03</pdfrwt>
<totfact> 0.83340557E+03</totfact>
</mgrwt>
</event>
<event>
 5    1  0.3234540E-002  0.1250240E+03  0.7818608E-02  0.1235032E+00
          4   -1    0    0  501    0  0.00000000000E+00  0.00000000000E+00  0.44717439406E+02  0.44735470122E+02  0.12700000000E+01 0. -1.
         -4   -1    0    0    0  501 -0.00000000000E+00 -0.00000000000E+00 -0.87347329011E+02  0.87356561203E+02  0.12700000000E+01 0. -1.
         25    2    1    2    0    0  0.00000000000E+00  0.00000000000E+00 -0.42629889604E+02  0.13209203133E+03  0.12502398671E+03 0.  0.
    9000005    1    3    3    0    0 -0.19134965313E+02 -0.43104766893E+02  0.22023301009E+02  0.52059519914E+02  0.10000000000E+01 0.  0.
    9000005    1    3    3    0    0  0.19134965313E+02  0.43104766893E+02 -0.64653190613E+02  0.80032511411E+02  0.10000000000E+01 0.  0.
<mgrwt>
<rscale>  0 0.12502399E+03</rscale>
<asrwt>0</asrwt>
<pdfrwt beam="1">  1        4 0.68817032E-02 0.12502399E+03</pdfrwt>
<pdfrwt beam="2">  1       -4 0.13440148E-01 0.12502399E+03</pdfrwt>
<totfact> 0.10294163E+04</totfact>
</mgrwt>
</event>
<event>
 5    1  0.3234540E-002  0.1249948E+03  0.7818608E-02  0.1235077E+00
          4   -1    0    0  501    0  0.00000000000E+00  0.00000000000E+00  0.81670963086E+03  0.81671061829E+03  0.12700000000E+01 0.  1.
         -4   -1    0    0    0  501 -0.00000000000E+00 -0.00000000000E+00 -0.46971901151E+01  0.48658498721E+01  0.12700000000E+01 0.  1.
         25    2    1    2    0    0  0.00000000000E+00  0.00000000000E+00  0.81201244074E+03  0.82157646816E+03  0.12499475639E+03 0.  0.
    9000005    1    3    3    0    0  0.28890504996E+01 -0.62207954830E+02  0.37201350841E+03  0.37719123359E+03  0.10000000000E+01 0.  0.
    9000005    1    3    3    0    0 -0.28890504996E+01  0.62207954830E+02  0.43999893233E+03  0.44438523458E+03  0.10000000000E+01 0.  0.
<mgrwt>
<rscale>  0 0.12499476E+03</rscale>
<asrwt>0</asrwt>
<pdfrwt beam="1">  1        4 0.12566072E+00 0.12499476E+03</pdfrwt>
<pdfrwt beam="2">  1       -4 0.73569424E-03 0.12499476E+03</pdfrwt>
<totfact> 0.37323724E+03</totfact>
</mgrwt>
</event>
<event>
 5    1  0.3234540E-002  0.1250119E+03  0.7818608E-02  0.1235051E+00
         -4   -1    0    0    0  501 -0.00000000000E+00  0.00000000000E+00  0.84840871747E+03  0.84840966802E+03  0.12700000000E+01 0.  1.
          4   -1    0    0  501    0  0.00000000000E+00 -0.00000000000E+00 -0.45165487553E+01  0.46917067960E+01  0.12700000000E+01 0.  1.
         25    2    1    2    0    0  0.00000000000E+00  0.00000000000E+00  0.84389216872E+03  0.85310137481E+03  0.12501185258E+03 0.  0.
    9000005    1    3    3    0    0 -0.35753088671E+02 -0.50658618632E+02  0.36846804582E+03  0.37364994283E+03  0.10000000000E+01 0.  0.
    9000005    1    3    3    0    0  0.35753088671E+02  0.50658618632E+02  0.47542412290E+03  0.47945143198E+03  0.10000000000E+01 0.  0.
<mgrwt>
<rscale>  0 0.12501185E+03</rscale>
<asrwt>0</asrwt>
<pdfrwt beam="2">  1        4 0.70840057E-03 0.12501185E+03</pdfrwt>
<pdfrwt beam="1">  1       -4 0.13053795E+00 0.12501185E+03</pdfrwt>
<totfact> 0.35991434E+03</totfact>
</mgrwt>
</event>
<event>
 5    1  0.3234540E-002  0.1249982E+03  0.7818608E-02  0.1235072E+00
         -4   -1    0    0    0  501 -0.00000000000E+00  0.00000000000E+00  0.16939803512E+03  0.16940279573E+03  0.12700000000E+01 0.  1.
          4   -1    0    0  501    0  0.00000000000E+00 -0.00000000000E+00 -0.23036340471E+02  0.23071321642E+02  0.12700000000E+01 0.  1.
         25    2    1    2    0    0  0.00000000000E+00  0.00000000000E+00  0.14636169465E+03  0.19247411737E+03  0.12499816078E+03 0.  0.
    9000005    1    3    3    0    0 -0.35087567812E+02  0.10560006344E+02  0.15112782611E+03  0.15550971344E+03  0.10000000000E+01 0.  0.
    9000005    1    3    3    0    0  0.35087567812E+02 -0.10560006344E+02 -0.47661314670E+01  0.36964403933E+02  0.10000000000E+01 0.  0.
<mgrwt>
<rscale>  0 0.12499816E+03</rscale>
<asrwt>0</asrwt>
<pdfrwt beam="2">  1        4 0.35471096E-02 0.12499816E+03</pdfrwt>
<pdfrwt beam="1">  1       -4 0.26064292E-01 0.12499816E+03</pdfrwt>
<totfact> 0.91422366E+03</totfact>
</mgrwt>
</event>
<event>
 5    1  0.3234540E-002  0.1249982E+03  0.7818608E-02  0.1235072E+00
          4   -1    0    0  501    0  0.00000000000E+00  0.00000000000E+00  0.31578636948E+02  0.31604164464E+02  0.12700000000E+01 0. -1.
         -4   -1    0    0    0  501 -0.00000000000E+00 -0.00000000000E+00 -0.12361673589E+03  0.12362325951E+03  0.12700000000E+01 0. -1.
         25    2    1    2    0    0  0.00000000000E+00  0.00000000000E+00 -0.92038098946E+02  0.15522742398E+03  0.12499816598E+03 0.  0.
    9000005    1    3    3    0    0 -0.11863187577E+02 -0.24144552027E+02  0.24025884469E+02  0.36082374320E+02  0.10000000000E+01 0.  0.
    9000005    1    3    3    0    0  0.11863187577E+02  0.24144552027E+02 -0.11606398341E+03  0.11914504966E+03  0.10000000000E+01 0.  0.
<mgrwt>
<rscale>  0 0.12499817E+03</rscale>
<asrwt>0</asrwt>
<pdfrwt beam="1">  1        4 0.48607174E-02 0.12499817E+03</pdfrwt>
<pdfrwt beam="2">  1       -4 0.19020425E-01 0.12499817E+03</pdfrwt>
<totfact> 0.98274925E+03</totfact>
</mgrwt>
</event>
<event>
 5    1  0.3234540E-002  0.1249979E+03  0.7818608E-02  0.1235073E+00
         -4   -1    0    0    0  501 -0.00000000000E+00  0.00000000000E+00  0.67983829791E+02  0.67995691136E+02  0.12700000000E+01 0. -1.
          4   -1    0    0  501    0  0.00000000000E+00 -0.00000000000E+00 -0.57432685540E+02  0.57446725480E+02  0.12700000000E+01 0. -1.
         25    2    1    2    0    0  0.00000000000E+00  0.00000000000E+00  0.10551144251E+02  0.12544241662E+03  0.12499789295E+03 0.  0.
    9000005    1    3    3    0    0  0.36895213711E+02 -0.25004660596E+02  0.49233494858E+02  0.66418573172E+02  0.10000000000E+01 0.  0.
    9000005    1    3    3    0    0 -0.36895213711E+02  0.25004660596E+02 -0.38682350608E+02  0.59023843443E+02  0.10000000000E+01 0.  0.
<mgrwt>
<rscale>  0 0.12499789E+03</rscale>
<asrwt>0</asrwt>
<pdfrwt beam="2">  1        4 0.88377902E-02 0.12499789E+03</pdfrwt>
<pdfrwt beam="1">  1       -4 0.10461043E-01 0.12499789E+03</pdfrwt>
<totfact> 0.10443724E+04</totfact>
</mgrwt>
</event>
<event>
 5    1  0.3234540E-002  0.1250006E+03  0.7818608E-02  0.1235068E+00
         -4   -1    0    0    0  501 -0.00000000000E+00  0.00000000000E+00  0.15355441574E+02  0.15407870909E+02  0.12700000000E+01 0.  1.
          4   -1    0    0  501    0  0.00000000000E+00 -0.00000000000E+00 -0.25390371215E+03  0.25390688833E+03  0.12700000000E+01 0.  1.
         25    2    1    2    0    0  0.00000000000E+00  0.00000000000E+00 -0.23854827057E+03  0.26931475924E+03  0.12500064860E+03 0.  0.
    9000005    1    3    3    0    0 -0.24961424276E+02 -0.43229610862E+02 -0.38274458429E+02  0.62911096996E+02  0.10000000000E+01 0.  0.
    9000005    1    3    3    0    0  0.24961424276E+02  0.43229610862E+02 -0.20027381214E+03  0.20640366224E+03  0.10000000000E+01 0.  0.
<mgrwt>
<rscale>  0 0.12500065E+03</rscale>
<asrwt>0</asrwt>
<pdfrwt beam="2">  1        4 0.39066384E-01 0.12500065E+03</pdfrwt>
<pdfrwt beam="1">  1       -4 0.23666532E-02 0.12500065E+03</pdfrwt>
<totfact> 0.79615233E+03</totfact>
</mgrwt>
</event>
<event>
 5    1  0.3234540E-002  0.1250013E+03  0.7818608E-02  0.1235067E+00
         -4   -1    0    0    0  501 -0.00000000000E+00  0.00000000000E+00  0.18311486991E+03  0.18311927392E+03  0.12700000000E+01 0.  1.
          4   -1    0    0  501    0  0.00000000000E+00 -0.00000000000E+00 -0.21309103128E+02  0.21346914908E+02  0.12700000000E+01 0.  1.
         25    2    1    2    0    0  0.00000000000E+00  0.00000000000E+00  0.16180576678E+03  0.20446618883E+03  0.12500126484E+03 0.  0.
    9000005    1    3    3    0    0  0.94450503254E+01  0.47859329791E+02  0.17013588749E+02  0.51673848568E+02  0.10000000000E+01 0.  0.
    9000005    1    3    3    0    0 -0.94450503254E+01 -0.47859329791E+02  0.14479217803E+03  0.15279234026E+03  0.10000000000E+01 0.  0.
<mgrwt>
<rscale>  0 0.12500126E+03</rscale>
<asrwt>0</asrwt>
<pdfrwt beam="2">  1        4 0.32815710E-02 0.12500126E+03</pdfrwt>
<pdfrwt beam="1">  1       -4 0.28174765E-01 0.12500126E+03</pdfrwt>
<totfact> 0.89385146E+03</totfact>
</mgrwt>
</event>
<event>
 5    1  0.3234540E-002  0.1249992E+03  0.7818608E-02  0.1235070E+00
          4   -1    0    0  501    0  0.00000000000E+00  0.00000000000E+00  0.17581757196E+02  0.17627566086E+02  0.12700000000E+01 0. -1.
         -4   -1    0    0    0  501 -0.00000000000E+00 -0.00000000000E+00 -0.22183694567E+03  0.22184058097E+03  0.12700000000E+01 0. -1.
         25    2    1    2    0    0  0.00000000000E+00  0.00000000000E+00 -0.20425518848E+03  0.23946814706E+03  0.12499924574E+03 0.  0.
    9000005    1    3    3    0    0  0.14402723240E+02 -0.17727125464E+02 -0.21356328631E+03  0.21478353446E+03  0.10000000000E+01 0.  0.
    9000005    1    3    3    0    0 -0.14402723240E+02  0.17727125464E+02  0.93080978336E+01  0.24684612600E+02  0.10000000000E+01 0.  0.
<mgrwt>
<rscale>  0 0.12499925E+03</rscale>
<asrwt>0</asrwt>
<pdfrwt beam="1">  1        4 0.27086893E-02 0.12499925E+03</pdfrwt>
<pdfrwt beam="2">  1       -4 0.34132562E-01 0.12499925E+03</pdfrwt>
<totfact> 0.83878053E+03</totfact>
</mgrwt>
</event>
<event>
 5    1  0.3234540E-002  0.1249997E+03  0.7818608E-02  0.1235070E+00
         -4   -1    0    0    0  501 -0.00000000000E+00  0.00000000000E+00  0.75154397459E+03  0.75154504765E+03  0.12700000000E+01 0.  1.
          4   -1    0    0  501    0  0.00000000000E+00 -0.00000000000E+00 -0.51189340873E+01  0.52741242107E+01  0.12700000000E+01 0.  1.
         25    2    1    2    0    0  0.00000000000E+00  0.00000000000E+00  0.74642504051E+03  0.75681917186E+03  0.12499967121E+03 0.  0.
    9000005    1    3    3    0    0 -0.32124612314E+01 -0.92431150459E-01 -0.46479547083E+01  0.57386351733E+01  0.10000000000E+01 0.  0.
    9000005    1    3    3    0    0  0.32124612314E+01  0.92431150459E-01  0.75107299522E+03  0.75108053669E+03  0.10000000000E+01 0.  0.
<mgrwt>
<rscale>  0 0.12499967E+03</rscale>
<asrwt>0</asrwt>
<pdfrwt beam="2">  1        4 0.79954798E-03 0.12499967E+03</pdfrwt>
<pdfrwt beam="1">  1       -4 0.11563426E+00 0.12499967E+03</pdfrwt>
<totfact> 0.40250344E+03</totfact>
</mgrwt>
</event>
<event>
 5    1  0.3234540E-002  0.1249815E+03  0.7818608E-02  0.1235098E+00
          4   -1    0    0  501    0  0.00000000000E+00  0.00000000000E+00  0.65354471895E+02  0.65366810360E+02  0.12700000000E+01 0.  1.
         -4   -1    0    0    0  501 -0.00000000000E+00 -0.00000000000E+00 -0.59727741682E+02  0.59741242257E+02  0.12700000000E+01 0.  1.
         25    2    1    2    0    0  0.00000000000E+00  0.00000000000E+00  0.56267302128E+01  0.12510805262E+03  0.12498145757E+03 0.  0.
    9000005    1    3    3    0    0  0.61012448402E+02  0.72518937467E+01 -0.85551787217E+01  0.62042726454E+02  0.10000000000E+01 0.  0.
    9000005    1    3    3    0    0 -0.61012448402E+02 -0.72518937467E+01  0.14181908934E+02  0.63065326162E+02  0.10000000000E+01 0.  0.
<mgrwt>
<rscale>  0 0.12498146E+03</rscale>
<asrwt>0</asrwt>
<pdfrwt beam="1">  1        4 0.10056522E-01 0.12498146E+03</pdfrwt>
<pdfrwt beam="2">  1       -4 0.91908710E-02 0.12498146E+03</pdfrwt>
<totfact> 0.10454897E+04</totfact>
</mgrwt>
</event>
<event>
 5    1  0.3234540E-002  0.1249921E+03  0.7818608E-02  0.1235082E+00
          4   -1    0    0  501    0  0.00000000000E+00  0.00000000000E+00  0.66227125866E+01  0.67433835725E+01  0.12700000000E+01 0.  1.
         -4   -1    0    0    0  501 -0.00000000000E+00 -0.00000000000E+00 -0.58430615034E+03  0.58430753053E+03  0.12700000000E+01 0.  1.
         25    2    1    2    0    0  0.00000000000E+00  0.00000000000E+00 -0.57768343776E+03  0.59105091410E+03  0.12499211494E+03 0.  0.
    9000005    1    3    3    0    0 -0.17198256163E+02  0.90905940682E+01 -0.56964634786E+03  0.56997928081E+03  0.10000000000E+01 0.  0.
    9000005    1    3    3    0    0  0.17198256163E+02 -0.90905940682E+01 -0.80370898921E+01  0.21071633290E+02  0.10000000000E+01 0.  0.
<mgrwt>
<rscale>  0 0.12499211E+03</rscale>
<asrwt>0</asrwt>
<pdfrwt beam="1">  1        4 0.10282679E-02 0.12499211E+03</pdfrwt>
<pdfrwt beam="2">  1       -4 0.89902602E-01 0.12499211E+03</pdfrwt>
<totfact> 0.49445986E+03</totfact>
</mgrwt>
</event>
<event>
 5    1  0.3234540E-002  0.1249997E+03  0.7818608E-02  0.1235070E+00
          4   -1    0    0  501    0  0.00000000000E+00  0.00000000000E+00  0.20508946208E+02  0.20548230448E+02  0.12700000000E+01 0. -1.
         -4   -1    0    0    0  501 -0.00000000000E+00 -0.00000000000E+00 -0.19024101937E+03  0.19024525842E+03  0.12700000000E+01 0. -1.
         25    2    1    2    0    0  0.00000000000E+00  0.00000000000E+00 -0.16973207316E+03  0.21079348887E+03  0.12499967316E+03 0.  0.
    9000005    1    3    3    0    0  0.10388980850E+02  0.15915813596E+02  0.15524848776E+02  0.24561453032E+02  0.10000000000E+01 0.  0.
    9000005    1    3    3    0    0 -0.10388980850E+02 -0.15915813596E+02 -0.18525692194E+03  0.18623203584E+03  0.10000000000E+01 0.  0.
<mgrwt>
<rscale>  0 0.12499967E+03</rscale>
<asrwt>0</asrwt>
<pdfrwt beam="1">  1        4 0.31585706E-02 0.12499967E+03</pdfrwt>
<pdfrwt beam="2">  1       -4 0.29271196E-01 0.12499967E+03</pdfrwt>
<totfact> 0.88347103E+03</totfact>
</mgrwt>
</event>
<event>
 5    1  0.3234540E-002  0.1249865E+03  0.7818608E-02  0.1235090E+00
          4   -1    0    0  501    0  0.00000000000E+00  0.00000000000E+00  0.21177121964E+02  0.21215168976E+02  0.12700000000E+01 0. -1.
         -4   -1    0    0    0  501 -0.00000000000E+00 -0.00000000000E+00 -0.18421066311E+03  0.18421504093E+03  0.12700000000E+01 0. -1.
         25    2    1    2    0    0  0.00000000000E+00  0.00000000000E+00 -0.16303354115E+03  0.20543020991E+03  0.12498654169E+03 0.  0.
    9000005    1    3    3    0    0 -0.45996090356E+01 -0.59709515665E+02 -0.11082789866E+03  0.12597700499E+03  0.10000000000E+01 0.  0.
    9000005    1    3    3    0    0  0.45996090356E+01  0.59709515665E+02 -0.52205642493E+02  0.79453204922E+02  0.10000000000E+01 0.  0.
<mgrwt>
<rscale>  0 0.12498654E+03</rscale>
<asrwt>0</asrwt>
<pdfrwt beam="1">  1        4 0.32612823E-02 0.12498654E+03</pdfrwt>
<pdfrwt beam="2">  1       -4 0.28343364E-01 0.12498654E+03</pdfrwt>
<totfact> 0.89254532E+03</totfact>
</mgrwt>
</event>
<event>
 5    1  0.3234540E-002  0.1249993E+03  0.7818608E-02  0.1235070E+00
          4   -1    0    0  501    0  0.00000000000E+00  0.00000000000E+00  0.39061753337E+02  0.39082393399E+02  0.12700000000E+01 0.  1.
         -4   -1    0    0    0  501 -0.00000000000E+00 -0.00000000000E+00 -0.99949715838E+02  0.99957784070E+02  0.12700000000E+01 0.  1.
         25    2    1    2    0    0  0.00000000000E+00  0.00000000000E+00 -0.60887962501E+02  0.13904017747E+03  0.12499930789E+03 0.  0.
    9000005    1    3    3    0    0  0.13710769404E+02 -0.17755679180E+02  0.34433972042E+02  0.41108974341E+02  0.10000000000E+01 0.  0.
    9000005    1    3    3    0    0 -0.13710769404E+02  0.17755679180E+02 -0.95321934543E+02  0.97931203127E+02  0.10000000000E+01 0.  0.
<mgrwt>
<rscale>  0 0.12499931E+03</rscale>
<asrwt>0</asrwt>
<pdfrwt beam="1">  1        4 0.60117089E-02 0.12499931E+03</pdfrwt>
<pdfrwt beam="2">  1       -4 0.15379088E-01 0.12499931E+03</pdfrwt>
<totfact> 0.10153676E+04</totfact>
</mgrwt>
</event>
<event>
 5    1  0.3234540E-002  0.1250141E+03  0.7818608E-02  0.1235047E+00
         -4   -1    0    0    0  501 -0.00000000000E+00  0.00000000000E+00  0.24529463933E+04  0.24529467220E+04  0.12700000000E+01 0.  1.
          4   -1    0    0  501    0  0.00000000000E+00 -0.00000000000E+00 -0.13393024352E+01  0.18457061015E+01  0.12700000000E+01 0.  1.
         25    2    1    2    0    0  0.00000000000E+00  0.00000000000E+00  0.24516070908E+04  0.24547924281E+04  0.12501414888E+03 0.  0.
    9000005    1    3    3    0    0  0.34341668835E+02  0.47393035636E+02  0.79529122994E+03  0.79744253113E+03  0.10000000000E+01 0.  0.
    9000005    1    3    3    0    0 -0.34341668835E+02 -0.47393035636E+02  0.16563158609E+04  0.16573498970E+04  0.10000000000E+01 0.  0.
<mgrwt>
<rscale>  0 0.12501415E+03</rscale>
<asrwt>0</asrwt>
<pdfrwt beam="2">  1        4 0.24502596E-03 0.12501415E+03</pdfrwt>
<pdfrwt beam="1">  1       -4 0.37741532E+00 0.12501415E+03</pdfrwt>
<totfact> 0.50327588E+02</totfact>
</mgrwt>
</event>
<event>
 5    1  0.3234540E-002  0.1250039E+03  0.7818608E-02  0.1235063E+00
         -4   -1    0    0    0  501 -0.00000000000E+00  0.00000000000E+00  0.42231068651E+02  0.42250160466E+02  0.12700000000E+01 0.  1.
          4   -1    0    0  501    0  0.00000000000E+00 -0.00000000000E+00 -0.92458553991E+02  0.92467275866E+02  0.12700000000E+01 0.  1.
         25    2    1    2    0    0  0.00000000000E+00  0.00000000000E+00 -0.50227485340E+02  0.13471743633E+03  0.12500394941E+03 0.  0.
    9000005    1    3    3    0    0  0.20981413496E+02 -0.40485883879E+02 -0.71168099034E+02  0.84529431714E+02  0.10000000000E+01 0.  0.
    9000005    1    3    3    0    0 -0.20981413496E+02  0.40485883879E+02  0.20940613694E+02  0.50188004619E+02  0.10000000000E+01 0.  0.
<mgrwt>
<rscale>  0 0.12500395E+03</rscale>
<asrwt>0</asrwt>
<pdfrwt beam="2">  1        4 0.14226532E-01 0.12500395E+03</pdfrwt>
<pdfrwt beam="1">  1       -4 0.64992270E-02 0.12500395E+03</pdfrwt>
<totfact> 0.10243118E+04</totfact>
</mgrwt>
</event>
<event>
 5    1  0.3234540E-002  0.1249977E+03  0.7818608E-02  0.1235073E+00
         -4   -1    0    0    0  501 -0.00000000000E+00  0.00000000000E+00  0.14629863732E+03  0.14630414957E+03  0.12700000000E+01 0. -1.
          4   -1    0    0  501    0  0.00000000000E+00 -0.00000000000E+00 -0.26678404921E+02  0.26708616384E+02  0.12700000000E+01 0. -1.
         25    2    1    2    0    0  0.00000000000E+00  0.00000000000E+00  0.11962023240E+03  0.17301276595E+03  0.12499766871E+03 0.  0.
    9000005    1    3    3    0    0  0.38026981274E+02 -0.49051540359E+02  0.49733571658E+02  0.79539506324E+02  0.10000000000E+01 0.  0.
    9000005    1    3    3    0    0 -0.38026981274E+02  0.49051540359E+02  0.69886660741E+02  0.93473259630E+02  0.10000000000E+01 0.  0.
<mgrwt>
<rscale>  0 0.12499767E+03</rscale>
<asrwt>0</asrwt>
<pdfrwt beam="2">  1        4 0.41071178E-02 0.12499767E+03</pdfrwt>
<pdfrwt beam="1">  1       -4 0.22510231E-01 0.12499767E+03</pdfrwt>
<totfact> 0.94895026E+03</totfact>
</mgrwt>
</event>
<event>
 5    1  0.3234540E-002  0.1250017E+03  0.7818608E-02  0.1235067E+00
          4   -1    0    0  501    0  0.00000000000E+00  0.00000000000E+00  0.52315041651E+02  0.52330454641E+02  0.12700000000E+01 0.  1.
         -4   -1    0    0    0  501 -0.00000000000E+00 -0.00000000000E+00 -0.74638043790E+02  0.74648847820E+02  0.12700000000E+01 0.  1.
         25    2    1    2    0    0  0.00000000000E+00  0.00000000000E+00 -0.22323002139E+02  0.12697930246E+03  0.12500170730E+03 0.  0.
    9000005    1    3    3    0    0  0.48264103530E+02 -0.38911390425E+02 -0.19149540314E+02  0.64893951094E+02  0.10000000000E+01 0.  0.
    9000005    1    3    3    0    0 -0.48264103530E+02  0.38911390425E+02 -0.31734618249E+01  0.62085351367E+02  0.10000000000E+01 0.  0.
<mgrwt>
<rscale>  0 0.12500171E+03</rscale>
<asrwt>0</asrwt>
<pdfrwt beam="1">  1        4 0.80504846E-02 0.12500171E+03</pdfrwt>
<pdfrwt beam="2">  1       -4 0.11484793E-01 0.12500171E+03</pdfrwt>
<totfact> 0.10409194E+04</totfact>
</mgrwt>
</event>
<event>
 5    1  0.3234540E-002  0.1250061E+03  0.7818608E-02  0.1235060E+00
         -4   -1    0    0    0  501 -0.00000000000E+00  0.00000000000E+00  0.18129978318E+02  0.18174405460E+02  0.12700000000E+01 0.  1.
          4   -1    0    0  501    0  0.00000000000E+00 -0.00000000000E+00 -0.21516916601E+03  0.21517291395E+03  0.12700000000E+01 0.  1.
         25    2    1    2    0    0  0.00000000000E+00  0.00000000000E+00 -0.19703918769E+03  0.23334731941E+03  0.12500611982E+03 0.  0.
    9000005    1    3    3    0    0 -0.16323422403E+02 -0.14342464939E+02 -0.20789969014E+03  0.20903454637E+03  0.10000000000E+01 0.  0.
    9000005    1    3    3    0    0  0.16323422403E+02  0.14342464939E+02  0.10860502448E+02  0.24312773040E+02  0.10000000000E+01 0.  0.
<mgrwt>
<rscale>  0 0.12500612E+03</rscale>
<asrwt>0</asrwt>
<pdfrwt beam="2">  1        4 0.33106653E-01 0.12500612E+03</pdfrwt>
<pdfrwt beam="1">  1       -4 0.27929334E-02 0.12500612E+03</pdfrwt>
<totfact> 0.84786676E+03</totfact>
</mgrwt>
</event>
<event>
 5    1  0.3234540E-002  0.1250011E+03  0.7818608E-02  0.1235068E+00
          4   -1    0    0  501    0  0.00000000000E+00  0.00000000000E+00  0.41130571110E+02  0.41150173510E+02  0.12700000000E+01 0. -1.
         -4   -1    0    0    0  501 -0.00000000000E+00 -0.00000000000E+00 -0.94927089352E+02  0.94935584439E+02  0.12700000000E+01 0. -1.
         25    2    1    2    0    0  0.00000000000E+00  0.00000000000E+00 -0.53796518241E+02  0.13608575795E+03  0.12500107256E+03 0.  0.
    9000005    1    3    3    0    0  0.71241594343E+01  0.55072219047E+02  0.43073649877E+01  0.55706878853E+02  0.10000000000E+01 0.  0.
    9000005    1    3    3    0    0 -0.71241594343E+01 -0.55072219047E+02 -0.58103883229E+02  0.80378879096E+02  0.10000000000E+01 0.  0.
<mgrwt>
<rscale>  0 0.12500107E+03</rscale>
<asrwt>0</asrwt>
<pdfrwt beam="1">  1        4 0.63299415E-02 0.12500107E+03</pdfrwt>
<pdfrwt beam="2">  1       -4 0.14606329E-01 0.12500107E+03</pdfrwt>
<totfact> 0.10214989E+04</totfact>
</mgrwt>
</event>
<event>
 5    1  0.3234540E-002  0.1249988E+03  0.7818608E-02  0.1235071E+00
          4   -1    0    0  501    0  0.00000000000E+00  0.00000000000E+00  0.80487308303E+02  0.80497327272E+02  0.12700000000E+01 0.  1.
         -4   -1    0    0    0  501 -0.00000000000E+00 -0.00000000000E+00 -0.48510236291E+02  0.48526857770E+02  0.12700000000E+01 0.  1.
         25    2    1    2    0    0  0.00000000000E+00  0.00000000000E+00  0.31977072012E+02  0.12902418504E+03  0.12499882876E+03 0.  0.
    9000005    1    3    3    0    0 -0.17919743573E+02 -0.59630543883E+02  0.21475530715E+02  0.65871977297E+02  0.10000000000E+01 0.  0.
    9000005    1    3    3    0    0  0.17919743573E+02  0.59630543883E+02  0.10501541297E+02  0.63152207745E+02  0.10000000000E+01 0.  0.
<mgrwt>
<rscale>  0 0.12499883E+03</rscale>
<asrwt>0</asrwt>
<pdfrwt beam="1">  1        4 0.12384712E-01 0.12499883E+03</pdfrwt>
<pdfrwt beam="2">  1       -4 0.74651626E-02 0.12499883E+03</pdfrwt>
<totfact> 0.10365701E+04</totfact>
</mgrwt>
</event>
<event>
 5    1  0.3234540E-002  0.1250011E+03  0.7818608E-02  0.1235068E+00
         -4   -1    0    0    0  501 -0.00000000000E+00  0.00000000000E+00  0.60719007516E+03  0.60719140333E+03  0.12700000000E+01 0. -1.
          4   -1    0    0  501    0  0.00000000000E+00 -0.00000000000E+00 -0.63694134335E+01  0.64947923360E+01  0.12700000000E+01 0. -1.
         25    2    1    2    0    0  0.00000000000E+00  0.00000000000E+00  0.60082066173E+03  0.61368619566E+03  0.12500111675E+03 0.  0.
    9000005    1    3    3    0    0  0.51584244924E+02 -0.29150240843E+02  0.39794026412E+03  0.40232837916E+03  0.10000000000E+01 0.  0.
    9000005    1    3    3    0    0 -0.51584244924E+02  0.29150240843E+02  0.20288039760E+03  0.21135781651E+03  0.10000000000E+01 0.  0.
<mgrwt>
<rscale>  0 0.12500112E+03</rscale>
<asrwt>0</asrwt>
<pdfrwt beam="2">  1        4 0.98965637E-03 0.12500112E+03</pdfrwt>
<pdfrwt beam="1">  1       -4 0.93423612E-01 0.12500112E+03</pdfrwt>
<totfact> 0.48013760E+03</totfact>
</mgrwt>
</event>
<event>
 5    1  0.3234540E-002  0.1249977E+03  0.7818608E-02  0.1235073E+00
         -4   -1    0    0    0  501 -0.00000000000E+00  0.00000000000E+00  0.63032721342E+03  0.63032849283E+03  0.12700000000E+01 0. -1.
          4   -1    0    0  501    0  0.00000000000E+00 -0.00000000000E+00 -0.61305814570E+01  0.62607450835E+01  0.12700000000E+01 0. -1.
         25    2    1    2    0    0  0.00000000000E+00  0.00000000000E+00  0.62419663196E+03  0.63658923791E+03  0.12499768989E+03 0.  0.
    9000005    1    3    3    0    0 -0.61039617571E+02  0.82621302794E+01  0.25844034238E+03  0.26568121552E+03  0.10000000000E+01 0.  0.
    9000005    1    3    3    0    0  0.61039617571E+02 -0.82621302794E+01  0.36575628958E+03  0.37090802239E+03  0.10000000000E+01 0.  0.
<mgrwt>
<rscale>  0 0.12499769E+03</rscale>
<asrwt>0</asrwt>
<pdfrwt beam="2">  1        4 0.95327811E-03 0.12499769E+03</pdfrwt>
<pdfrwt beam="1">  1       -4 0.96983455E-01 0.12499769E+03</pdfrwt>
<totfact> 0.46638929E+03</totfact>
</mgrwt>
</event>
<event>
 5    1  0.3234540E-002  0.1250323E+03  0.7818608E-02  0.1235019E+00
         -4   -1    0    0    0  501 -0.00000000000E+00  0.00000000000E+00  0.10075926163E+04  0.10075934167E+04  0.12700000000E+01 0. -1.
          4   -1    0    0  501    0  0.00000000000E+00 -0.00000000000E+00 -0.37740422091E+01  0.39819963079E+01  0.12700000000E+01 0. -1.
         25    2    1    2    0    0  0.00000000000E+00  0.00000000000E+00  0.10038185741E+04  0.10115754130E+04  0.12503234164E+03 0.  0.
    9000005    1    3    3    0    0  0.18646212521E+01  0.34371190207E+02  0.92404602633E+03  0.92468746844E+03  0.10000000000E+01 0.  0.
    9000005    1    3    3    0    0 -0.18646212521E+01 -0.34371190207E+02  0.79772547748E+02  0.86887944520E+02  0.10000000000E+01 0.  0.
<mgrwt>
<rscale>  0 0.12503234E+03</rscale>
<asrwt>0</asrwt>
<pdfrwt beam="2">  1        4 0.59667947E-03 0.12503234E+03</pdfrwt>
<pdfrwt beam="1">  1       -4 0.15503042E+00 0.12503234E+03</pdfrwt>
<totfact> 0.30203964E+03</totfact>
</mgrwt>
</event>
<event>
 5    1  0.3234540E-002  0.1249988E+03  0.7818608E-02  0.1235071E+00
         -4   -1    0    0    0  501 -0.00000000000E+00  0.00000000000E+00  0.18513504197E+01  0.22450831558E+01  0.12700000000E+01 0.  1.
          4   -1    0    0  501    0  0.00000000000E+00 -0.00000000000E+00 -0.19067167325E+04  0.19067171555E+04  0.12700000000E+01 0.  1.
         25    2    1    2    0    0  0.00000000000E+00  0.00000000000E+00 -0.19048653821E+04  0.19089622386E+04  0.12499881833E+03 0.  0.
    9000005    1    3    3    0    0  0.58441520364E+02  0.21494825201E+02 -0.87200163330E+03  0.87422267604E+03  0.10000000000E+01 0.  0.
    9000005    1    3    3    0    0 -0.58441520364E+02 -0.21494825201E+02 -0.10328637488E+04  0.10347395626E+04  0.10000000000E+01 0.  0.
<mgrwt>
<rscale>  0 0.12499882E+03</rscale>
<asrwt>0</asrwt>
<pdfrwt beam="2">  1        4 0.29336994E+00 0.12499882E+03</pdfrwt>
<pdfrwt beam="1">  1       -4 0.31514433E-03 0.12499882E+03</pdfrwt>
<totfact> 0.11097069E+03</totfact>
</mgrwt>
</event>
<event>
 5    1  0.3234540E-002  0.1250017E+03  0.7818608E-02  0.1235067E+00
          4   -1    0    0  501    0  0.00000000000E+00  0.00000000000E+00  0.72512315772E+02  0.72523436478E+02  0.12700000000E+01 0.  1.
         -4   -1    0    0    0  501 -0.00000000000E+00 -0.00000000000E+00 -0.53848896359E+02  0.53863870443E+02  0.12700000000E+01 0.  1.
         25    2    1    2    0    0  0.00000000000E+00  0.00000000000E+00  0.18663419413E+02  0.12638730692E+03  0.12500171249E+03 0.  0.
    9000005    1    3    3    0    0 -0.23275355219E+02 -0.48665924407E+02  0.41228867848E+02  0.67903857792E+02  0.10000000000E+01 0.  0.
    9000005    1    3    3    0    0  0.23275355219E+02  0.48665924407E+02 -0.22565448435E+02  0.58483449129E+02  0.10000000000E+01 0.  0.
<mgrwt>
<rscale>  0 0.12500171E+03</rscale>
<asrwt>0</asrwt>
<pdfrwt beam="1">  1        4 0.11157748E-01 0.12500171E+03</pdfrwt>
<pdfrwt beam="2">  1       -4 0.82864529E-02 0.12500171E+03</pdfrwt>
<totfact> 0.10422084E+04</totfact>
</mgrwt>
</event>
<event>
 5    1  0.3234540E-002  0.1249983E+03  0.7818608E-02  0.1235072E+00
          4   -1    0    0  501    0  0.00000000000E+00  0.00000000000E+00  0.22191341410E+02  0.22227652454E+02  0.12700000000E+01 0. -1.
         -4   -1    0    0    0  501 -0.00000000000E+00 -0.00000000000E+00 -0.17583861638E+03  0.17584320262E+03  0.12700000000E+01 0. -1.
         25    2    1    2    0    0  0.00000000000E+00  0.00000000000E+00 -0.15364727496E+03  0.19807085508E+03  0.12499831410E+03 0.  0.
    9000005    1    3    3    0    0 -0.20160532781E+02 -0.34711846567E+02 -0.93219642142E+00  0.40165014182E+02  0.10000000000E+01 0.  0.
    9000005    1    3    3    0    0  0.20160532781E+02  0.34711846567E+02 -0.15271507854E+03  0.15790584089E+03  0.10000000000E+01 0.  0.
<mgrwt>
<rscale>  0 0.12499831E+03</rscale>
<asrwt>0</asrwt>
<pdfrwt beam="1">  1        4 0.34171986E-02 0.12499831E+03</pdfrwt>
<pdfrwt beam="2">  1       -4 0.27055240E-01 0.12499831E+03</pdfrwt>
<totfact> 0.90465080E+03</totfact>
</mgrwt>
</event>
<event>
 5    1  0.3234540E-002  0.1249970E+03  0.7818608E-02  0.1235074E+00
         -4   -1    0    0    0  501 -0.00000000000E+00  0.00000000000E+00  0.15962180957E+03  0.15962686175E+03  0.12700000000E+01 0. -1.
          4   -1    0    0  501    0  0.00000000000E+00 -0.00000000000E+00 -0.24448807951E+02  0.24481770979E+02  0.12700000000E+01 0. -1.
         25    2    1    2    0    0  0.00000000000E+00  0.00000000000E+00  0.13517300162E+03  0.18410863273E+03  0.12499699307E+03 0.  0.
    9000005    1    3    3    0    0  0.19599611787E+02 -0.12886028171E+02 -0.17725922326E+02  0.29417729799E+02  0.10000000000E+01 0.  0.
    9000005    1    3    3    0    0 -0.19599611787E+02  0.12886028171E+02  0.15289892395E+03  0.15469090293E+03  0.10000000000E+01 0.  0.
<mgrwt>
<rscale>  0 0.12499699E+03</rscale>
<asrwt>0</asrwt>
<pdfrwt beam="2">  1        4 0.37642794E-02 0.12499699E+03</pdfrwt>
<pdfrwt beam="1">  1       -4 0.24560125E-01 0.12499699E+03</pdfrwt>
<totfact> 0.92888881E+03</totfact>
</mgrwt>
</event>
<event>
 5    1  0.3234540E-002  0.1249979E+03  0.7818608E-02  0.1235073E+00
          4   -1    0    0  501    0  0.00000000000E+00  0.00000000000E+00  0.65147376670E+02  0.65159754351E+02  0.12700000000E+01 0. -1.
         -4   -1    0    0    0  501 -0.00000000000E+00 -0.00000000000E+00 -0.59933423341E+02  0.59946877595E+02  0.12700000000E+01 0. -1.
         25    2    1    2    0    0  0.00000000000E+00  0.00000000000E+00  0.52139533293E+01  0.12510663195E+03  0.12499793617E+03 0.  0.
    9000005    1    3    3    0    0 -0.55021288988E+02  0.99962915200E+01 -0.25307290753E+02  0.61389958881E+02  0.10000000000E+01 0.  0.
    9000005    1    3    3    0    0  0.55021288988E+02 -0.99962915200E+01  0.30521244083E+02  0.63716673065E+02  0.10000000000E+01 0.  0.
<mgrwt>
<rscale>  0 0.12499794E+03</rscale>
<asrwt>0</asrwt>
<pdfrwt beam="1">  1        4 0.10024660E-01 0.12499794E+03</pdfrwt>
<pdfrwt beam="2">  1       -4 0.92225137E-02 0.12499794E+03</pdfrwt>
<totfact> 0.10451034E+04</totfact>
</mgrwt>
</event>
<event>
 5    1  0.3234540E-002  0.1249973E+03  0.7818608E-02  0.1235073E+00
         -4   -1    0    0    0  501 -0.00000000000E+00  0.00000000000E+00  0.58833440913E+02  0.58847146657E+02  0.12700000000E+01 0. -1.
          4   -1    0    0  501    0  0.00000000000E+00 -0.00000000000E+00 -0.66364702619E+02  0.66376853298E+02  0.12700000000E+01 0. -1.
         25    2    1    2    0    0  0.00000000000E+00  0.00000000000E+00 -0.75312617060E+01  0.12522399996E+03  0.12499732102E+03 0.  0.
    9000005    1    3    3    0    0 -0.23794296318E+02 -0.37987221923E+02 -0.47386354096E+02  0.65235451414E+02  0.10000000000E+01 0.  0.
    9000005    1    3    3    0    0  0.23794296318E+02  0.37987221923E+02  0.39855092390E+02  0.59988548541E+02  0.10000000000E+01 0.  0.
<mgrwt>
<rscale>  0 0.12499732E+03</rscale>
<asrwt>0</asrwt>
<pdfrwt beam="2">  1        4 0.10211943E-01 0.12499732E+03</pdfrwt>
<pdfrwt beam="1">  1       -4 0.90532875E-02 0.12499732E+03</pdfrwt>
<totfact> 0.10448632E+04</totfact>
</mgrwt>
</event>
<event>
 5    1  0.3234540E-002  0.1249965E+03  0.7818608E-02  0.1235075E+00
          4   -1    0    0  501    0  0.00000000000E+00  0.00000000000E+00  0.28335030877E+03  0.28335315488E+03  0.12700000000E+01 0.  1.
         -4   -1    0    0    0  501 -0.00000000000E+00 -0.00000000000E+00 -0.13752987979E+02  0.13811501669E+02  0.12700000000E+01 0.  1.
         25    2    1    2    0    0  0.00000000000E+00  0.00000000000E+00  0.26959732079E+03  0.29716465655E+03  0.12499647085E+03 0.  0.
    9000005    1    3    3    0    0 -0.31857939028E+02 -0.67226100971E+01  0.79945032964E+01  0.33541524243E+02  0.10000000000E+01 0.  0.
    9000005    1    3    3    0    0  0.31857939028E+02  0.67226100971E+01  0.26160281749E+03  0.26362313231E+03  0.10000000000E+01 0.  0.
<mgrwt>
<rscale>  0 0.12499647E+03</rscale>
<asrwt>0</asrwt>
<pdfrwt beam="1">  1        4 0.43597077E-01 0.12499647E+03</pdfrwt>
<pdfrwt beam="2">  1       -4 0.21205642E-02 0.12499647E+03</pdfrwt>
<totfact> 0.75961830E+03</totfact>
</mgrwt>
</event>
<event>
 5    1  0.3234540E-002  0.1250014E+03  0.7818608E-02  0.1235067E+00
         -4   -1    0    0    0  501 -0.00000000000E+00  0.00000000000E+00  0.22455041827E+02  0.22490927136E+02  0.12700000000E+01 0.  1.
          4   -1    0    0  501    0  0.00000000000E+00 -0.00000000000E+00 -0.17378546178E+03  0.17379010221E+03  0.12700000000E+01 0.  1.
         25    2    1    2    0    0  0.00000000000E+00  0.00000000000E+00 -0.15133041995E+03  0.19628102934E+03  0.12500138590E+03 0.  0.
    9000005    1    3    3    0    0  0.81390656471E+01  0.53950698566E+02 -0.27820445399E+02  0.61252750531E+02  0.10000000000E+01 0.  0.
    9000005    1    3    3    0    0 -0.81390656471E+01 -0.53950698566E+02 -0.12350997455E+03  0.13502827881E+03  0.10000000000E+01 0.  0.
<mgrwt>
<rscale>  0 0.12500139E+03</rscale>
<asrwt>0</asrwt>
<pdfrwt beam="2">  1        4 0.26739341E-01 0.12500139E+03</pdfrwt>
<pdfrwt beam="1">  1       -4 0.34577393E-02 0.12500139E+03</pdfrwt>
<totfact> 0.90762960E+03</totfact>
</mgrwt>
</event>
<event>
 5    1  0.3234540E-002  0.1249828E+03  0.7818608E-02  0.1235096E+00
         -4   -1    0    0    0  501 -0.00000000000E+00  0.00000000000E+00  0.44750346026E+02  0.44768363488E+02  0.12700000000E+01 0.  1.
          4   -1    0    0  501    0  0.00000000000E+00 -0.00000000000E+00 -0.87225609841E+02  0.87234854915E+02  0.12700000000E+01 0.  1.
         25    2    1    2    0    0  0.00000000000E+00  0.00000000000E+00 -0.42475263815E+02  0.13200321840E+03  0.12498280535E+03 0.  0.
    9000005    1    3    3    0    0  0.24588144563E+02 -0.54282684705E+02 -0.13942975363E+01  0.59616531076E+02  0.10000000000E+01 0.  0.
    9000005    1    3    3    0    0 -0.24588144563E+02  0.54282684705E+02 -0.41080966279E+02  0.72386687328E+02  0.10000000000E+01 0.  0.
<mgrwt>
<rscale>  0 0.12498281E+03</rscale>
<asrwt>0</asrwt>
<pdfrwt beam="2">  1        4 0.13421422E-01 0.12498281E+03</pdfrwt>
<pdfrwt beam="1">  1       -4 0.68867657E-02 0.12498281E+03</pdfrwt>
<totfact> 0.10305627E+04</totfact>
</mgrwt>
</event>
<event>
 5    1  0.3234540E-002  0.1249933E+03  0.7818608E-02  0.1235080E+00
         -4   -1    0    0    0  501 -0.00000000000E+00  0.00000000000E+00  0.17503707229E+03  0.17504167954E+03  0.12700000000E+01 0.  1.
          4   -1    0    0  501    0  0.00000000000E+00 -0.00000000000E+00 -0.22291349613E+02  0.22327498014E+02  0.12700000000E+01 0.  1.
         25    2    1    2    0    0  0.00000000000E+00  0.00000000000E+00  0.15274572268E+03  0.19736917755E+03  0.12499334563E+03 0.  0.
    9000005    1    3    3    0    0 -0.59849063856E+02 -0.75407702307E+01  0.10212910955E+03  0.11861757322E+03  0.10000000000E+01 0.  0.
    9000005    1    3    3    0    0  0.59849063856E+02  0.75407702307E+01  0.50616613130E+02  0.78751604332E+02  0.10000000000E+01 0.  0.
<mgrwt>
<rscale>  0 0.12499335E+03</rscale>
<asrwt>0</asrwt>
<pdfrwt beam="2">  1        4 0.34325734E-02 0.12499335E+03</pdfrwt>
<pdfrwt beam="1">  1       -4 0.26931916E-01 0.12499335E+03</pdfrwt>
<totfact> 0.90594168E+03</totfact>
</mgrwt>
</event>
<event>
 5    1  0.3234540E-002  0.1250010E+03  0.7818608E-02  0.1235068E+00
          4   -1    0    0  501    0  0.00000000000E+00  0.00000000000E+00  0.25465866260E+02  0.25497514474E+02  0.12700000000E+01 0.  1.
         -4   -1    0    0    0  501 -0.00000000000E+00 -0.00000000000E+00 -0.15326453002E+03  0.15326979175E+03  0.12700000000E+01 0.  1.
         25    2    1    2    0    0  0.00000000000E+00  0.00000000000E+00 -0.12779866376E+03  0.17876730622E+03  0.12500100526E+03 0.  0.
    9000005    1    3    3    0    0  0.21022450892E+01 -0.41603734100E+02 -0.13051965414E+03  0.13700974506E+03  0.10000000000E+01 0.  0.
    9000005    1    3    3    0    0 -0.21022450892E+01  0.41603734100E+02  0.27209903774E+01  0.41757561160E+02  0.10000000000E+01 0.  0.
<mgrwt>
<rscale>  0 0.12500101E+03</rscale>
<asrwt>0</asrwt>
<pdfrwt beam="1">  1        4 0.39206649E-02 0.12500101E+03</pdfrwt>
<pdfrwt beam="2">  1       -4 0.23581997E-01 0.12500101E+03</pdfrwt>
<totfact> 0.93837249E+03</totfact>
</mgrwt>
</event>
<event>
 5    1  0.3234540E-002  0.1249998E+03  0.7818608E-02  0.1235070E+00
         -4   -1    0    0    0  501 -0.00000000000E+00  0.00000000000E+00  0.96195355124E+02  0.96203738220E+02  0.12700000000E+01 0.  1.
          4   -1    0    0  501    0  0.00000000000E+00 -0.00000000000E+00 -0.40587275478E+02  0.40607140145E+02  0.12700000000E+01 0.  1.
         25    2    1    2    0    0  0.00000000000E+00  0.00000000000E+00  0.55608079646E+02  0.13681087836E+03  0.12499983167E+03 0.  0.
    9000005    1    3    3    0    0  0.44426853937E+02  0.27335055482E+02  0.65469218065E+02  0.83714808266E+02  0.10000000000E+01 0.  0.
    9000005    1    3    3    0    0 -0.44426853937E+02 -0.27335055482E+02 -0.98611384191E+01  0.53096070099E+02  0.10000000000E+01 0.  0.
<mgrwt>
<rscale>  0 0.12499983E+03</rscale>
<asrwt>0</asrwt>
<pdfrwt beam="2">  1        4 0.62463693E-02 0.12499983E+03</pdfrwt>
<pdfrwt beam="1">  1       -4 0.14801458E-01 0.12499983E+03</pdfrwt>
<totfact> 0.10200080E+04</totfact>
</mgrwt>
</event>
<event>
 5    1  0.3234540E-002  0.1249936E+03  0.7818608E-02  0.1235079E+00
          4   -1    0    0  501    0  0.00000000000E+00  0.00000000000E+00  0.16416432752E+02  0.16465484029E+02  0.12700000000E+01 0.  1.
         -4   -1    0    0    0  501 -0.00000000000E+00 -0.00000000000E+00 -0.23751765346E+03  0.23752104876E+03  0.12700000000E+01 0.  1.
         25    2    1    2    0    0  0.00000000000E+00  0.00000000000E+00 -0.22110122071E+03  0.25398653279E+03  0.12499363600E+03 0.  0.
    9000005    1    3    3    0    0 -0.23158625526E+02 -0.57772915364E+02 -0.12183149480E+03  0.13681354031E+03  0.10000000000E+01 0.  0.
    9000005    1    3    3    0    0  0.23158625526E+02  0.57772915364E+02 -0.99269725906E+02  0.11717299248E+03  0.10000000000E+01 0.  0.
<mgrwt>
<rscale>  0 0.12499364E+03</rscale>
<asrwt>0</asrwt>
<pdfrwt beam="1">  1        4 0.25296396E-02 0.12499364E+03</pdfrwt>
<pdfrwt beam="2">  1       -4 0.36545209E-01 0.12499364E+03</pdfrwt>
<totfact> 0.81769032E+03</totfact>
</mgrwt>
</event>
<event>
 5    1  0.3234540E-002  0.1250007E+03  0.7818608E-02  0.1235068E+00
          4   -1    0    0  501    0  0.00000000000E+00  0.00000000000E+00  0.86261671801E+03  0.86261765290E+03  0.12700000000E+01 0. -1.
         -4   -1    0    0    0  501 -0.00000000000E+00 -0.00000000000E+00 -0.44384256328E+01  0.46165487214E+01  0.12700000000E+01 0. -1.
         25    2    1    2    0    0  0.00000000000E+00  0.00000000000E+00  0.85817829238E+03  0.86723420162E+03  0.12500071580E+03 0.  0.
    9000005    1    3    3    0    0  0.16807796515E+01  0.31025039846E+02  0.52912869302E+02  0.61368964921E+02  0.10000000000E+01 0.  0.
    9000005    1    3    3    0    0 -0.16807796515E+01 -0.31025039846E+02  0.80526542308E+03  0.80586523670E+03  0.10000000000E+01 0.  0.
<mgrwt>
<rscale>  0 0.12500072E+03</rscale>
<asrwt>0</asrwt>
<pdfrwt beam="1">  1        4 0.13272401E+00 0.12500072E+03</pdfrwt>
<pdfrwt beam="2">  1       -4 0.69660854E-03 0.12500072E+03</pdfrwt>
<totfact> 0.35431732E+03</totfact>
</mgrwt>
</event>
<event>
 5    1  0.3234540E-002  0.1250008E+03  0.7818608E-02  0.1235068E+00
          4   -1    0    0  501    0  0.00000000000E+00  0.00000000000E+00  0.62763521527E+01  0.64035534154E+01  0.12700000000E+01 0.  1.
         -4   -1    0    0    0  501 -0.00000000000E+00 -0.00000000000E+00 -0.61601209518E+03  0.61601340433E+03  0.12700000000E+01 0.  1.
         25    2    1    2    0    0  0.00000000000E+00  0.00000000000E+00 -0.60973574303E+03  0.62241695774E+03  0.12500077183E+03 0.  0.
    9000005    1    3    3    0    0  0.36799866796E+02  0.50324868957E+02 -0.28346519500E+03  0.29024186364E+03  0.10000000000E+01 0.  0.
    9000005    1    3    3    0    0 -0.36799866796E+02 -0.50324868957E+02 -0.32627054802E+03  0.33217509410E+03  0.10000000000E+01 0.  0.
<mgrwt>
<rscale>  0 0.12500077E+03</rscale>
<asrwt>0</asrwt>
<pdfrwt beam="1">  1        4 0.97547854E-03 0.12500077E+03</pdfrwt>
<pdfrwt beam="2">  1       -4 0.94780930E-01 0.12500077E+03</pdfrwt>
<totfact> 0.47481701E+03</totfact>
</mgrwt>
</event>
<event>
 5    1  0.3234540E-002  0.1250013E+03  0.7818608E-02  0.1235067E+00
          4   -1    0    0  501    0  0.00000000000E+00  0.00000000000E+00  0.15895049089E+03  0.15895556440E+03  0.12700000000E+01 0.  1.
         -4   -1    0    0    0  501 -0.00000000000E+00 -0.00000000000E+00 -0.24553884068E+02  0.24586706222E+02  0.12700000000E+01 0.  1.
         25    2    1    2    0    0  0.00000000000E+00  0.00000000000E+00  0.13439660682E+03  0.18354227062E+03  0.12500126871E+03 0.  0.
    9000005    1    3    3    0    0  0.52716754495E+01  0.47318873361E+01 -0.23969649963E+02  0.25014504576E+02  0.10000000000E+01 0.  0.
    9000005    1    3    3    0    0 -0.52716754495E+01 -0.47318873361E+01  0.15836625679E+03  0.15852776605E+03  0.10000000000E+01 0.  0.
<mgrwt>
<rscale>  0 0.12500127E+03</rscale>
<asrwt>0</asrwt>
<pdfrwt beam="1">  1        4 0.24456836E-01 0.12500127E+03</pdfrwt>
<pdfrwt beam="2">  1       -4 0.37804358E-02 0.12500127E+03</pdfrwt>
<totfact> 0.92980597E+03</totfact>
</mgrwt>
</event>
<event>
 5    1  0.3234540E-002  0.1250002E+03  0.7818608E-02  0.1235069E+00
          4   -1    0    0  501    0  0.00000000000E+00  0.00000000000E+00  0.11144590872E+02  0.11216719917E+02  0.12700000000E+01 0. -1.
         -4   -1    0    0    0  501 -0.00000000000E+00 -0.00000000000E+00 -0.34930346880E+03  0.34930577753E+03  0.12700000000E+01 0. -1.
         25    2    1    2    0    0  0.00000000000E+00  0.00000000000E+00 -0.33815887793E+03  0.36052249745E+03  0.12500017778E+03 0.  0.
    9000005    1    3    3    0    0 -0.41957725575E+02  0.11199631596E+02 -0.39471794398E+02  0.58693313386E+02  0.10000000000E+01 0.  0.
    9000005    1    3    3    0    0  0.41957725575E+02 -0.11199631596E+02 -0.29868708353E+03  0.30182918406E+03  0.10000000000E+01 0.  0.
<mgrwt>
<rscale>  0 0.12500018E+03</rscale>
<asrwt>0</asrwt>
<pdfrwt beam="1">  1        4 0.17202787E-02 0.12500018E+03</pdfrwt>
<pdfrwt beam="2">  1       -4 0.53744713E-01 0.12500018E+03</pdfrwt>
<totfact> 0.68581991E+03</totfact>
</mgrwt>
</event>
<event>
 5    1  0.3234540E-002  0.1250006E+03  0.7818608E-02  0.1235068E+00
          4   -1    0    0  501    0  0.00000000000E+00  0.00000000000E+00  0.99199688794E+02  0.99207818023E+02  0.12700000000E+01 0. -1.
         -4   -1    0    0    0  501 -0.00000000000E+00 -0.00000000000E+00 -0.39358039383E+02  0.39378524148E+02  0.12700000000E+01 0. -1.
         25    2    1    2    0    0  0.00000000000E+00  0.00000000000E+00  0.59841649412E+02  0.13858634217E+03  0.12500060493E+03 0.  0.
    9000005    1    3    3    0    0 -0.34238057515E+02 -0.47417166580E+02  0.54328415179E+02  0.79832380427E+02  0.10000000000E+01 0.  0.
    9000005    1    3    3    0    0  0.34238057515E+02  0.47417166580E+02  0.55132342321E+01  0.58753961743E+02  0.10000000000E+01 0.  0.
<mgrwt>
<rscale>  0 0.12500060E+03</rscale>
<asrwt>0</asrwt>
<pdfrwt beam="1">  1        4 0.15263692E-01 0.12500060E+03</pdfrwt>
<pdfrwt beam="2">  1       -4 0.60572841E-02 0.12500060E+03</pdfrwt>
<totfact> 0.10162830E+04</totfact>
</mgrwt>
</event>
<event>
 5    1  0.3234540E-002  0.1250026E+03  0.7818608E-02  0.1235065E+00
          4   -1    0    0  501    0  0.00000000000E+00  0.00000000000E+00  0.24954521577E+02  0.24986817467E+02  0.12700000000E+01 0. -1.
         -4   -1    0    0    0  501 -0.00000000000E+00 -0.00000000000E+00 -0.15640518726E+03  0.15641034334E+03  0.12700000000E+01 0. -1.
         25    2    1    2    0    0  0.00000000000E+00  0.00000000000E+00 -0.13145066569E+03  0.18139716080E+03  0.12500260973E+03 0.  0.
    9000005    1    3    3    0    0 -0.10169231365E+02  0.50578219036E+01 -0.15490204387E+03  0.15532108043E+03  0.10000000000E+01 0.  0.
    9000005    1    3    3    0    0  0.10169231365E+02 -0.50578219036E+01  0.23451378187E+02  0.26076080377E+02  0.10000000000E+01 0.  0.
<mgrwt>
<rscale>  0 0.12500261E+03</rscale>
<asrwt>0</asrwt>
<pdfrwt beam="1">  1        4 0.38420382E-02 0.12500261E+03</pdfrwt>
<pdfrwt beam="2">  1       -4 0.24065217E-01 0.12500261E+03</pdfrwt>
<totfact> 0.93360651E+03</totfact>
</mgrwt>
</event>
<event>
 5    1  0.3234540E-002  0.1250008E+03  0.7818608E-02  0.1235068E+00
          4   -1    0    0  501    0  0.00000000000E+00  0.00000000000E+00  0.23527199391E+03  0.23527542162E+03  0.12700000000E+01 0. -1.
         -4   -1    0    0    0  501 -0.00000000000E+00 -0.00000000000E+00 -0.16575497438E+02  0.16624079382E+02  0.12700000000E+01 0. -1.
         25    2    1    2    0    0  0.00000000000E+00  0.00000000000E+00  0.21869649647E+03  0.25189950100E+03  0.12500080414E+03 0.  0.
    9000005    1    3    3    0    0 -0.50430944875E+01  0.53661046766E+02  0.17308538565E+03  0.18128566261E+03  0.10000000000E+01 0.  0.
    9000005    1    3    3    0    0  0.50430944875E+01 -0.53661046766E+02  0.45611110820E+02  0.70613838391E+02  0.10000000000E+01 0.  0.
<mgrwt>
<rscale>  0 0.12500080E+03</rscale>
<asrwt>0</asrwt>
<pdfrwt beam="1">  1        4 0.36199691E-01 0.12500080E+03</pdfrwt>
<pdfrwt beam="2">  1       -4 0.25540774E-02 0.12500080E+03</pdfrwt>
<totfact> 0.82054994E+03</totfact>
</mgrwt>
</event>
<event>
 5    1  0.3234540E-002  0.1250039E+03  0.7818608E-02  0.1235063E+00
          4   -1    0    0  501    0  0.00000000000E+00  0.00000000000E+00  0.45365183952E+02  0.45382957318E+02  0.12700000000E+01 0.  1.
         -4   -1    0    0    0  501 -0.00000000000E+00 -0.00000000000E+00 -0.86072867337E+02  0.86082236214E+02  0.12700000000E+01 0.  1.
         25    2    1    2    0    0  0.00000000000E+00  0.00000000000E+00 -0.40707683385E+02  0.13146519353E+03  0.12500392643E+03 0.  0.
    9000005    1    3    3    0    0 -0.38766376541E+02 -0.23085462389E+02 -0.65829184780E+02  0.79813859027E+02  0.10000000000E+01 0.  0.
    9000005    1    3    3    0    0  0.38766376541E+02  0.23085462389E+02  0.25121501395E+02  0.51651334506E+02  0.10000000000E+01 0.  0.
<mgrwt>
<rscale>  0 0.12500393E+03</rscale>
<asrwt>0</asrwt>
<pdfrwt beam="1">  1        4 0.69813469E-02 0.12500393E+03</pdfrwt>
<pdfrwt beam="2">  1       -4 0.13244067E-01 0.12500393E+03</pdfrwt>
<totfact> 0.10312213E+04</totfact>
</mgrwt>
</event>
<event>
 5    1  0.3234540E-002  0.1250036E+03  0.7818608E-02  0.1235064E+00
          4   -1    0    0  501    0  0.00000000000E+00  0.00000000000E+00  0.80322712334E+02  0.80332751830E+02  0.12700000000E+01 0. -1.
         -4   -1    0    0    0  501 -0.00000000000E+00 -0.00000000000E+00 -0.48613415809E+02  0.48630002021E+02  0.12700000000E+01 0. -1.
         25    2    1    2    0    0  0.00000000000E+00  0.00000000000E+00  0.31709296525E+02  0.12896275385E+03  0.12500364953E+03 0.  0.
    9000005    1    3    3    0    0 -0.44754224677E+02 -0.26357194849E+02  0.51709303109E+02  0.73297301279E+02  0.10000000000E+01 0.  0.
    9000005    1    3    3    0    0  0.44754224677E+02  0.26357194849E+02 -0.20000006584E+02  0.55665452573E+02  0.10000000000E+01 0.  0.
<mgrwt>
<rscale>  0 0.12500365E+03</rscale>
<asrwt>0</asrwt>
<pdfrwt beam="1">  1        4 0.12359388E-01 0.12500365E+03</pdfrwt>
<pdfrwt beam="2">  1       -4 0.74810353E-02 0.12500365E+03</pdfrwt>
<totfact> 0.10365893E+04</totfact>
</mgrwt>
</event>
<event>
 5    1  0.3234540E-002  0.1249979E+03  0.7818608E-02  0.1235073E+00
          4   -1    0    0  501    0  0.00000000000E+00  0.00000000000E+00  0.81632681644E+01  0.82614676132E+01  0.12700000000E+01 0. -1.
         -4   -1    0    0    0  501 -0.00000000000E+00 -0.00000000000E+00 -0.47553952961E+03  0.47554122547E+03  0.12700000000E+01 0. -1.
         25    2    1    2    0    0  0.00000000000E+00  0.00000000000E+00 -0.46737626144E+03  0.48380269308E+03  0.12499790427E+03 0.  0.
    9000005    1    3    3    0    0  0.33406234913E+02  0.32772385739E+02 -0.73396094043E+02  0.87051665227E+02  0.10000000000E+01 0.  0.
    9000005    1    3    3    0    0 -0.33406234913E+02 -0.32772385739E+02 -0.39398016740E+03  0.39675102785E+03  0.10000000000E+01 0.  0.
<mgrwt>
<rscale>  0 0.12499790E+03</rscale>
<asrwt>0</asrwt>
<pdfrwt beam="1">  1        4 0.12635720E-02 0.12499790E+03</pdfrwt>
<pdfrwt beam="2">  1       -4 0.73167590E-01 0.12499790E+03</pdfrwt>
<totfact> 0.57145993E+03</totfact>
</mgrwt>
</event>
<event>
 4    1  0.3234540E-002  0.1248450E+03  0.7818608E-02  0.1235312E+00
          4   -1    0    0  501    0  0.00000000000E+00  0.00000000000E+00  0.22707424946E+02  0.22742912032E+02  0.12700000000E+01 0.  1.
         -4   -1    0    0    0  501 -0.00000000000E+00 -0.00000000000E+00 -0.17142693621E+03  0.17143164048E+03  0.12700000000E+01 0.  1.
    9000005    1    1    2    0    0  0.62392734814E+01  0.24435865663E+02 -0.16315680174E+03  0.16509749247E+03  0.10000000000E+01 0.  0.
    9000005    1    1    2    0    0 -0.62392734814E+01 -0.24435865663E+02  0.14437290482E+02  0.29077060043E+02  0.10000000000E+01 0.  0.
<mgrwt>
<rscale>  0 0.12484496E+03</rscale>
<asrwt>0</asrwt>
<pdfrwt beam="1">  1        4 0.34965417E-02 0.12484496E+03</pdfrwt>
<pdfrwt beam="2">  1       -4 0.26376466E-01 0.12484496E+03</pdfrwt>
<totfact> 0.91443054E+03</totfact>
</mgrwt>
</event>
<event>
 5    1  0.3234540E-002  0.1250013E+03  0.7818608E-02  0.1235067E+00
          4   -1    0    0  501    0  0.00000000000E+00  0.00000000000E+00  0.25386252457E+02  0.25417999800E+02  0.12700000000E+01 0. -1.
         -4   -1    0    0    0  501 -0.00000000000E+00 -0.00000000000E+00 -0.15374528731E+03  0.15375053259E+03  0.12700000000E+01 0. -1.
         25    2    1    2    0    0  0.00000000000E+00  0.00000000000E+00 -0.12835903485E+03  0.17916853239E+03  0.12500128467E+03 0.  0.
    9000005    1    3    3    0    0 -0.20279155778E+02  0.58185282030E+02 -0.79113662069E+02  0.10028331232E+03  0.10000000000E+01 0.  0.
    9000005    1    3    3    0    0  0.20279155778E+02 -0.58185282030E+02 -0.49245372786E+02  0.78885220066E+02  0.10000000000E+01 0.  0.
<mgrwt>
<rscale>  0 0.12500128E+03</rscale>
<asrwt>0</asrwt>
<pdfrwt beam="1">  1        4 0.39084230E-02 0.12500128E+03</pdfrwt>
<pdfrwt beam="2">  1       -4 0.23655966E-01 0.12500128E+03</pdfrwt>
<totfact> 0.93764184E+03</totfact>
</mgrwt>
</event>
<event>
 5    1  0.3234540E-002  0.1249980E+03  0.7818608E-02  0.1235072E+00
          4   -1    0    0  501    0  0.00000000000E+00  0.00000000000E+00  0.43162838965E+01  0.44992451229E+01  0.12700000000E+01 0.  1.
         -4   -1    0    0    0  501 -0.00000000000E+00 -0.00000000000E+00 -0.88600912174E+03  0.88601003194E+03  0.12700000000E+01 0.  1.
         25    2    1    2    0    0  0.00000000000E+00  0.00000000000E+00 -0.88169283784E+03  0.89050927706E+03  0.12499804894E+03 0.  0.
    9000005    1    3    3    0    0  0.37531864733E+02  0.10206333002E+02 -0.78929978475E+03  0.79025816055E+03  0.10000000000E+01 0.  0.
    9000005    1    3    3    0    0 -0.37531864733E+02 -0.10206333002E+02 -0.92393053086E+02  0.10025111651E+03  0.10000000000E+01 0.  0.
<mgrwt>
<rscale>  0 0.12499805E+03</rscale>
<asrwt>0</asrwt>
<pdfrwt beam="1">  1        4 0.67818834E-03 0.12499805E+03</pdfrwt>
<pdfrwt beam="2">  1       -4 0.13632310E+00 0.12499805E+03</pdfrwt>
<totfact> 0.34525955E+03</totfact>
</mgrwt>
</event>
<event>
 5    1  0.3234540E-002  0.1250005E+03  0.7818608E-02  0.1235068E+00
          4   -1    0    0  501    0  0.00000000000E+00  0.00000000000E+00  0.95690057141E+02  0.95698484500E+02  0.12700000000E+01 0. -1.
         -4   -1    0    0    0  501 -0.00000000000E+00 -0.00000000000E+00 -0.40802125929E+02  0.40821886046E+02  0.12700000000E+01 0. -1.
         25    2    1    2    0    0  0.00000000000E+00  0.00000000000E+00  0.54887931211E+02  0.13652037055E+03  0.12500050632E+03 0.  0.
    9000005    1    3    3    0    0  0.10506964521E+02  0.12598138436E+02 -0.38413939239E+02  0.41782055040E+02  0.10000000000E+01 0.  0.
    9000005    1    3    3    0    0 -0.10506964521E+02 -0.12598138436E+02  0.93301870450E+02  0.94738315506E+02  0.10000000000E+01 0.  0.
<mgrwt>
<rscale>  0 0.12500051E+03</rscale>
<asrwt>0</asrwt>
<pdfrwt beam="1">  1        4 0.14723715E-01 0.12500051E+03</pdfrwt>
<pdfrwt beam="2">  1       -4 0.62794185E-02 0.12500051E+03</pdfrwt>
<totfact> 0.10206007E+04</totfact>
</mgrwt>
</event>
<event>
 5    1  0.3234540E-002  0.1249935E+03  0.7818608E-02  0.1235080E+00
         -4   -1    0    0    0  501 -0.00000000000E+00  0.00000000000E+00  0.15343995586E+02  0.15396463898E+02  0.12700000000E+01 0. -1.
          4   -1    0    0  501    0  0.00000000000E+00 -0.00000000000E+00 -0.25406320135E+03  0.25406637554E+03  0.12700000000E+01 0. -1.
         25    2    1    2    0    0  0.00000000000E+00  0.00000000000E+00 -0.23871920577E+03  0.26946283944E+03  0.12499345038E+03 0.  0.
    9000005    1    3    3    0    0 -0.17438833731E+02 -0.12847542329E+02 -0.24572182221E+03  0.24667668349E+03  0.10000000000E+01 0.  0.
    9000005    1    3    3    0    0  0.17438833731E+02  0.12847542329E+02  0.70026164492E+01  0.22786155949E+02  0.10000000000E+01 0.  0.
<mgrwt>
<rscale>  0 0.12499345E+03</rscale>
<asrwt>0</asrwt>
<pdfrwt beam="2">  1        4 0.39090923E-01 0.12499345E+03</pdfrwt>
<pdfrwt beam="1">  1       -4 0.23648951E-02 0.12499345E+03</pdfrwt>
<totfact> 0.79607756E+03</totfact>
</mgrwt>
</event>
<event>
 5    1  0.3234540E-002  0.1250006E+03  0.7818608E-02  0.1235068E+00
          4   -1    0    0  501    0  0.00000000000E+00  0.00000000000E+00  0.12252813270E+02  0.12318454978E+02  0.12700000000E+01 0. -1.
         -4   -1    0    0    0  501 -0.00000000000E+00 -0.00000000000E+00 -0.31788898638E+03  0.31789152327E+03  0.12700000000E+01 0. -1.
         25    2    1    2    0    0  0.00000000000E+00  0.00000000000E+00 -0.30563617311E+03  0.33020997824E+03  0.12500063766E+03 0.  0.
    9000005    1    3    3    0    0 -0.13792616677E+01 -0.60383028598E+02 -0.11044610840E+03  0.12588627950E+03  0.10000000000E+01 0.  0.
    9000005    1    3    3    0    0  0.13792616677E+01  0.60383028598E+02 -0.19519006472E+03  0.20432369875E+03  0.10000000000E+01 0.  0.
<mgrwt>
<rscale>  0 0.12500064E+03</rscale>
<asrwt>0</asrwt>
<pdfrwt beam="1">  1        4 0.18902929E-02 0.12500064E+03</pdfrwt>
<pdfrwt beam="2">  1       -4 0.48911236E-01 0.12500064E+03</pdfrwt>
<totfact> 0.71957002E+03</totfact>
</mgrwt>
</event>
<event>
 5    1  0.3234540E-002  0.1250061E+03  0.7818608E-02  0.1235060E+00
          4   -1    0    0  501    0  0.00000000000E+00  0.00000000000E+00  0.35170160839E+02  0.35193083318E+02  0.12700000000E+01 0.  1.
         -4   -1    0    0    0  501 -0.00000000000E+00 -0.00000000000E+00 -0.11101521416E+03  0.11102247824E+03  0.12700000000E+01 0.  1.
         25    2    1    2    0    0  0.00000000000E+00  0.00000000000E+00 -0.75845053318E+02  0.14621556156E+03  0.12500607317E+03 0.  0.
    9000005    1    3    3    0    0  0.13521610718E+02 -0.10380613168E+02 -0.10824901741E+03  0.10958759444E+03  0.10000000000E+01 0.  0.
    9000005    1    3    3    0    0 -0.13521610718E+02  0.10380613168E+02  0.32403964089E+02  0.36627967113E+02  0.10000000000E+01 0.  0.
<mgrwt>
<rscale>  0 0.12500607E+03</rscale>
<asrwt>0</asrwt>
<pdfrwt beam="1">  1        4 0.54131161E-02 0.12500607E+03</pdfrwt>
<pdfrwt beam="2">  1       -4 0.17081586E-01 0.12500607E+03</pdfrwt>
<totfact> 0.10004981E+04</totfact>
</mgrwt>
</event>
<event>
 5    1  0.3234540E-002  0.1250008E+03  0.7818608E-02  0.1235068E+00
          4   -1    0    0  501    0  0.00000000000E+00  0.00000000000E+00  0.15697962398E+02  0.15749251520E+02  0.12700000000E+01 0. -1.
         -4   -1    0    0    0  501 -0.00000000000E+00 -0.00000000000E+00 -0.24838235405E+03  0.24838560083E+03  0.12700000000E+01 0. -1.
         25    2    1    2    0    0  0.00000000000E+00  0.00000000000E+00 -0.23268439165E+03  0.26413485235E+03  0.12500077644E+03 0.  0.
    9000005    1    3    3    0    0 -0.10915105359E+02 -0.61311685595E+02 -0.12732936781E+03  0.14174635876E+03  0.10000000000E+01 0.  0.
    9000005    1    3    3    0    0  0.10915105359E+02  0.61311685595E+02 -0.10535502384E+03  0.12238849359E+03  0.10000000000E+01 0.  0.
<mgrwt>
<rscale>  0 0.12500078E+03</rscale>
<asrwt>0</asrwt>
<pdfrwt beam="1">  1        4 0.24192664E-02 0.12500078E+03</pdfrwt>
<pdfrwt beam="2">  1       -4 0.38216862E-01 0.12500078E+03</pdfrwt>
<totfact> 0.80327886E+03</totfact>
</mgrwt>
</event>
<event>
 5    1  0.3234540E-002  0.1250123E+03  0.7818608E-02  0.1235050E+00
          4   -1    0    0  501    0  0.00000000000E+00  0.00000000000E+00  0.54260952584E+02  0.54275812987E+02  0.12700000000E+01 0.  1.
         -4   -1    0    0    0  501 -0.00000000000E+00 -0.00000000000E+00 -0.71973965625E+02  0.71985169499E+02  0.12700000000E+01 0.  1.
         25    2    1    2    0    0  0.00000000000E+00  0.00000000000E+00 -0.17713013041E+02  0.12626098249E+03  0.12501233886E+03 0.  0.
    9000005    1    3    3    0    0 -0.49929311125E+02  0.35480382474E+02 -0.21399387107E+02  0.64890118034E+02  0.10000000000E+01 0.  0.
    9000005    1    3    3    0    0  0.49929311125E+02 -0.35480382474E+02  0.36863740664E+01  0.61370864452E+02  0.10000000000E+01 0.  0.
<mgrwt>
<rscale>  0 0.12501234E+03</rscale>
<asrwt>0</asrwt>
<pdfrwt beam="1">  1        4 0.83498438E-02 0.12501234E+03</pdfrwt>
<pdfrwt beam="2">  1       -4 0.11074923E-01 0.12501234E+03</pdfrwt>
<totfact> 0.10422343E+04</totfact>
</mgrwt>
</event>
<event>
 5    1  0.3234540E-002  0.1250019E+03  0.7818608E-02  0.1235066E+00
          4   -1    0    0  501    0  0.00000000000E+00  0.00000000000E+00  0.50054446135E+03  0.50054607250E+03  0.12700000000E+01 0. -1.
         -4   -1    0    0    0  501 -0.00000000000E+00 -0.00000000000E+00 -0.77509368945E+01  0.78542932682E+01  0.12700000000E+01 0. -1.
         25    2    1    2    0    0  0.00000000000E+00  0.00000000000E+00  0.49279352446E+03  0.50840036577E+03  0.12500189663E+03 0.  0.
    9000005    1    3    3    0    0  0.55339278083E+02 -0.16125059736E+02  0.14820117416E+03  0.15901899658E+03  0.10000000000E+01 0.  0.
    9000005    1    3    3    0    0 -0.55339278083E+02  0.16125059736E+02  0.34459235030E+03  0.34938136919E+03  0.10000000000E+01 0.  0.
<mgrwt>
<rscale>  0 0.12500190E+03</rscale>
<asrwt>0</asrwt>
<pdfrwt beam="1">  1        4 0.77014944E-01 0.12500190E+03</pdfrwt>
<pdfrwt beam="2">  1       -4 0.12005258E-02 0.12500190E+03</pdfrwt>
<totfact> 0.55216124E+03</totfact>
</mgrwt>
</event>
<event>
 5    1  0.3234540E-002  0.1249928E+03  0.7818608E-02  0.1235081E+00
         -4   -1    0    0    0  501 -0.00000000000E+00  0.00000000000E+00  0.14070594333E+02  0.14127792640E+02  0.12700000000E+01 0. -1.
          4   -1    0    0  501    0  0.00000000000E+00 -0.00000000000E+00 -0.27696406429E+03  0.27696697603E+03  0.12700000000E+01 0. -1.
         25    2    1    2    0    0  0.00000000000E+00  0.00000000000E+00 -0.26289346996E+03  0.29109476867E+03  0.12499275098E+03 0.  0.
    9000005    1    3    3    0    0  0.47952006422E+02  0.33902725844E+01 -0.22442495128E+03  0.22951785905E+03  0.10000000000E+01 0.  0.
    9000005    1    3    3    0    0 -0.47952006422E+02 -0.33902725844E+01 -0.38468518682E+02  0.61576909614E+02  0.10000000000E+01 0.  0.
<mgrwt>
<rscale>  0 0.12499275E+03</rscale>
<asrwt>0</asrwt>
<pdfrwt beam="2">  1        4 0.42614476E-01 0.12499275E+03</pdfrwt>
<pdfrwt beam="1">  1       -4 0.21693309E-02 0.12499275E+03</pdfrwt>
<totfact> 0.76742005E+03</totfact>
</mgrwt>
</event>
<event>
 5    1  0.3234540E-002  0.1249973E+03  0.7818608E-02  0.1235073E+00
         -4   -1    0    0    0  501 -0.00000000000E+00  0.00000000000E+00  0.12539542159E+02  0.12603690633E+02  0.12700000000E+01 0.  1.
          4   -1    0    0  501    0  0.00000000000E+00 -0.00000000000E+00 -0.31064104173E+03  0.31064363780E+03  0.12700000000E+01 0.  1.
         25    2    1    2    0    0  0.00000000000E+00  0.00000000000E+00 -0.29810149957E+03  0.32324732844E+03  0.12499732515E+03 0.  0.
    9000005    1    3    3    0    0 -0.19791336089E+02  0.41046907586E+01 -0.30196688415E+03  0.30264425419E+03  0.10000000000E+01 0.  0.
    9000005    1    3    3    0    0  0.19791336089E+02 -0.41046907586E+01  0.38653845804E+01  0.20603074245E+02  0.10000000000E+01 0.  0.
<mgrwt>
<rscale>  0 0.12499733E+03</rscale>
<asrwt>0</asrwt>
<pdfrwt beam="2">  1        4 0.47796058E-01 0.12499733E+03</pdfrwt>
<pdfrwt beam="1">  1       -4 0.19342948E-02 0.12499733E+03</pdfrwt>
<totfact> 0.72775873E+03</totfact>
</mgrwt>
</event>
<event>
 5    1  0.3234540E-002  0.1250025E+03  0.7818608E-02  0.1235065E+00
          4   -1    0    0  501    0  0.00000000000E+00  0.00000000000E+00  0.13839389129E+04  0.13839394956E+04  0.12700000000E+01 0.  1.
         -4   -1    0    0    0  501 -0.00000000000E+00 -0.00000000000E+00 -0.26792069685E+01  0.29649704855E+01  0.12700000000E+01 0.  1.
         25    2    1    2    0    0  0.00000000000E+00  0.00000000000E+00  0.13812597059E+04  0.13869044661E+04  0.12500249148E+03 0.  0.
    9000005    1    3    3    0    0 -0.38058331558E+02  0.43355796829E+02  0.95719759351E+03  0.95893503155E+03  0.10000000000E+01 0.  0.
    9000005    1    3    3    0    0  0.38058331558E+02 -0.43355796829E+02  0.42406211241E+03  0.42796943454E+03  0.10000000000E+01 0.  0.
<mgrwt>
<rscale>  0 0.12500249E+03</rscale>
<asrwt>0</asrwt>
<pdfrwt beam="1">  1        4 0.21293565E+00 0.12500249E+03</pdfrwt>
<pdfrwt beam="2">  1       -4 0.43421244E-03 0.12500249E+03</pdfrwt>
<totfact> 0.20262607E+03</totfact>
</mgrwt>
</event>
<event>
 5    1  0.3234540E-002  0.1250034E+03  0.7818608E-02  0.1235064E+00
          4   -1    0    0  501    0  0.00000000000E+00  0.00000000000E+00  0.64107145709E+02  0.64119724196E+02  0.12700000000E+01 0.  1.
         -4   -1    0    0    0  501 -0.00000000000E+00 -0.00000000000E+00 -0.60911254416E+02  0.60924492731E+02  0.12700000000E+01 0.  1.
         25    2    1    2    0    0  0.00000000000E+00  0.00000000000E+00  0.31958912928E+01  0.12504421693E+03  0.12500336982E+03 0.  0.
    9000005    1    3    3    0    0 -0.47957959971E+02  0.10967499491E+02  0.40148943595E+02  0.63507398321E+02  0.10000000000E+01 0.  0.
    9000005    1    3    3    0    0  0.47957959971E+02 -0.10967499491E+02 -0.36953052302E+02  0.61536818606E+02  0.10000000000E+01 0.  0.
<mgrwt>
<rscale>  0 0.12500337E+03</rscale>
<asrwt>0</asrwt>
<pdfrwt beam="1">  1        4 0.98646237E-02 0.12500337E+03</pdfrwt>
<pdfrwt beam="2">  1       -4 0.93729482E-02 0.12500337E+03</pdfrwt>
<totfact> 0.10451106E+04</totfact>
</mgrwt>
</event>
<event>
 5    1  0.3234540E-002  0.1250027E+03  0.7818608E-02  0.1235065E+00
         -4   -1    0    0    0  501 -0.00000000000E+00  0.00000000000E+00  0.33416346066E+02  0.33440470756E+02  0.12700000000E+01 0. -1.
          4   -1    0    0  501    0  0.00000000000E+00 -0.00000000000E+00 -0.11683167600E+03  0.11683857846E+03  0.12700000000E+01 0. -1.
         25    2    1    2    0    0  0.00000000000E+00  0.00000000000E+00 -0.83415329933E+02  0.15027904922E+03  0.12500270143E+03 0.  0.
    9000005    1    3    3    0    0  0.22751489711E-01  0.51137790655E+02 -0.84892564110E+02  0.99110148784E+02  0.10000000000E+01 0.  0.
    9000005    1    3    3    0    0 -0.22751489711E-01 -0.51137790655E+02  0.14772341771E+01  0.51168900433E+02  0.10000000000E+01 0.  0.
<mgrwt>
<rscale>  0 0.12500270E+03</rscale>
<asrwt>0</asrwt>
<pdfrwt beam="2">  1        4 0.17976491E-01 0.12500270E+03</pdfrwt>
<pdfrwt beam="1">  1       -4 0.51433631E-02 0.12500270E+03</pdfrwt>
<totfact> 0.99242069E+03</totfact>
</mgrwt>
</event>
<event>
 5    1  0.3234540E-002  0.1250006E+03  0.7818608E-02  0.1235068E+00
         -4   -1    0    0    0  501 -0.00000000000E+00  0.00000000000E+00  0.18528286237E+03  0.18528721485E+03  0.12700000000E+01 0.  1.
          4   -1    0    0  501    0  0.00000000000E+00 -0.00000000000E+00 -0.21059099850E+02  0.21097359705E+02  0.12700000000E+01 0.  1.
         25    2    1    2    0    0  0.00000000000E+00  0.00000000000E+00  0.16422376251E+03  0.20638457455E+03  0.12500059375E+03 0.  0.
    9000005    1    3    3    0    0  0.24174273564E+02 -0.17353864391E+02 -0.86178396019E+01  0.30997084880E+02  0.10000000000E+01 0.  0.
    9000005    1    3    3    0    0 -0.24174273564E+02  0.17353864391E+02  0.17284160212E+03  0.17538748967E+03  0.10000000000E+01 0.  0.
<mgrwt>
<rscale>  0 0.12500059E+03</rscale>
<asrwt>0</asrwt>
<pdfrwt beam="2">  1        4 0.32431395E-02 0.12500059E+03</pdfrwt>
<pdfrwt beam="1">  1       -4 0.28508333E-01 0.12500059E+03</pdfrwt>
<totfact> 0.89068569E+03</totfact>
</mgrwt>
</event>
<event>
 5    1  0.3234540E-002  0.1250198E+03  0.7818608E-02  0.1235038E+00
          4   -1    0    0  501    0  0.00000000000E+00  0.00000000000E+00  0.64068928223E+01  0.65315523144E+01  0.12700000000E+01 0.  1.
         -4   -1    0    0    0  501 -0.00000000000E+00 -0.00000000000E+00 -0.60388706310E+03  0.60388839853E+03  0.12700000000E+01 0.  1.
         25    2    1    2    0    0  0.00000000000E+00  0.00000000000E+00 -0.59748017028E+03  0.61041995085E+03  0.12501984848E+03 0.  0.
    9000005    1    3    3    0    0  0.20694149872E+02 -0.20553791818E+02 -0.28834974284E+02  0.41026356638E+02  0.10000000000E+01 0.  0.
    9000005    1    3    3    0    0 -0.20694149872E+02  0.20553791818E+02 -0.56864519599E+03  0.56939359421E+03  0.10000000000E+01 0.  0.
<mgrwt>
<rscale>  0 0.12501985E+03</rscale>
<asrwt>0</asrwt>
<pdfrwt beam="1">  1        4 0.99536822E-03 0.12501985E+03</pdfrwt>
<pdfrwt beam="2">  1       -4 0.92915349E-01 0.12501985E+03</pdfrwt>
<totfact> 0.48195454E+03</totfact>
</mgrwt>
</event>
<event>
 5    1  0.3234540E-002  0.1249985E+03  0.7818608E-02  0.1235072E+00
         -4   -1    0    0    0  501 -0.00000000000E+00  0.00000000000E+00  0.12263620141E+02  0.12329204312E+02  0.12700000000E+01 0.  1.
          4   -1    0    0  501    0  0.00000000000E+00 -0.00000000000E+00 -0.31759964234E+03  0.31760218154E+03  0.12700000000E+01 0.  1.
         25    2    1    2    0    0  0.00000000000E+00  0.00000000000E+00 -0.30533602220E+03  0.32993138585E+03  0.12499853164E+03 0.  0.
    9000005    1    3    3    0    0  0.33659076788E+02 -0.49363029076E+02 -0.10432035467E+03  0.12022220464E+03  0.10000000000E+01 0.  0.
    9000005    1    3    3    0    0 -0.33659076788E+02  0.49363029076E+02 -0.20101566753E+03  0.20970918121E+03  0.10000000000E+01 0.  0.
<mgrwt>
<rscale>  0 0.12499853E+03</rscale>
<asrwt>0</asrwt>
<pdfrwt beam="2">  1        4 0.48866718E-01 0.12499853E+03</pdfrwt>
<pdfrwt beam="1">  1       -4 0.18919513E-02 0.12499853E+03</pdfrwt>
<totfact> 0.71992627E+03</totfact>
</mgrwt>
</event>
<event>
 5    1  0.3234540E-002  0.1249864E+03  0.7818608E-02  0.1235090E+00
         -4   -1    0    0    0  501 -0.00000000000E+00  0.00000000000E+00  0.11019528483E+02  0.11092470779E+02  0.12700000000E+01 0. -1.
          4   -1    0    0  501    0  0.00000000000E+00 -0.00000000000E+00 -0.35316421958E+03  0.35316650307E+03  0.12700000000E+01 0. -1.
         25    2    1    2    0    0  0.00000000000E+00  0.00000000000E+00 -0.34214469110E+03  0.36425897385E+03  0.12498644080E+03 0.  0.
    9000005    1    3    3    0    0 -0.15234862456E+02 -0.51171349735E+02 -0.26567979371E+03  0.27099328563E+03  0.10000000000E+01 0.  0.
    9000005    1    3    3    0    0  0.15234862456E+02  0.51171349735E+02 -0.76464897383E+02  0.93265688222E+02  0.10000000000E+01 0.  0.
<mgrwt>
<rscale>  0 0.12498644E+03</rscale>
<asrwt>0</asrwt>
<pdfrwt beam="2">  1        4 0.54338735E-01 0.12498644E+03</pdfrwt>
<pdfrwt beam="1">  1       -4 0.17010989E-02 0.12498644E+03</pdfrwt>
<totfact> 0.68204316E+03</totfact>
</mgrwt>
</event>
<event>
 5    1  0.3234540E-002  0.1250010E+03  0.7818608E-02  0.1235068E+00
          4   -1    0    0  501    0  0.00000000000E+00  0.00000000000E+00  0.20958229083E+02  0.20996672743E+02  0.12700000000E+01 0. -1.
         -4   -1    0    0    0  501 -0.00000000000E+00 -0.00000000000E+00 -0.18617424584E+03  0.18617857748E+03  0.12700000000E+01 0. -1.
         25    2    1    2    0    0  0.00000000000E+00  0.00000000000E+00 -0.16521601675E+03  0.20717525022E+03  0.12500100845E+03 0.  0.
    9000005    1    3    3    0    0  0.19004834609E+01 -0.13452371504E+02 -0.18370511325E+03  0.18420951867E+03  0.10000000000E+01 0.  0.
    9000005    1    3    3    0    0 -0.19004834609E+01  0.13452371504E+02  0.18489096494E+02  0.22965731550E+02  0.10000000000E+01 0.  0.
<mgrwt>
<rscale>  0 0.12500101E+03</rscale>
<asrwt>0</asrwt>
<pdfrwt beam="1">  1        4 0.32276335E-02 0.12500101E+03</pdfrwt>
<pdfrwt beam="2">  1       -4 0.28645481E-01 0.12500101E+03</pdfrwt>
<totfact> 0.88937282E+03</totfact>
</mgrwt>
</event>
<event>
 5    1  0.3234540E-002  0.1249986E+03  0.7818608E-02  0.1235071E+00
         -4   -1    0    0    0  501 -0.00000000000E+00  0.00000000000E+00  0.13646536834E+03  0.13647127777E+03  0.12700000000E+01 0. -1.
          4   -1    0    0  501    0  0.00000000000E+00 -0.00000000000E+00 -0.28603221078E+02  0.28631401574E+02  0.12700000000E+01 0. -1.
         25    2    1    2    0    0  0.00000000000E+00  0.00000000000E+00  0.10786214726E+03  0.16510267934E+03  0.12499860765E+03 0.  0.
    9000005    1    3    3    0    0  0.41155694457E+02  0.36953109177E+02  0.15516773012E+02  0.57455145190E+02  0.10000000000E+01 0.  0.
    9000005    1    3    3    0    0 -0.41155694457E+02 -0.36953109177E+02  0.92345374251E+02  0.10764753416E+03  0.10000000000E+01 0.  0.
<mgrwt>
<rscale>  0 0.12499861E+03</rscale>
<asrwt>0</asrwt>
<pdfrwt beam="2">  1        4 0.44031178E-02 0.12499861E+03</pdfrwt>
<pdfrwt beam="1">  1       -4 0.20997295E-01 0.12499861E+03</pdfrwt>
<totfact> 0.96370964E+03</totfact>
</mgrwt>
</event>
<event>
 5    1  0.3234540E-002  0.1249903E+03  0.7818608E-02  0.1235084E+00
         -4   -1    0    0    0  501 -0.00000000000E+00  0.00000000000E+00  0.15523381852E+02  0.15575245877E+02  0.12700000000E+01 0. -1.
          4   -1    0    0  501    0  0.00000000000E+00 -0.00000000000E+00 -0.25112448303E+03  0.25112769436E+03  0.12700000000E+01 0. -1.
         25    2    1    2    0    0  0.00000000000E+00  0.00000000000E+00 -0.23560110118E+03  0.26670294024E+03  0.12499031745E+03 0.  0.
    9000005    1    3    3    0    0 -0.30928587119E+01  0.62342877732E+02 -0.12400128557E+03  0.13882909998E+03  0.10000000000E+01 0.  0.
    9000005    1    3    3    0    0  0.30928587119E+01 -0.62342877732E+02 -0.11159981561E+03  0.12787384026E+03  0.10000000000E+01 0.  0.
<mgrwt>
<rscale>  0 0.12499032E+03</rscale>
<asrwt>0</asrwt>
<pdfrwt beam="2">  1        4 0.38638769E-01 0.12499032E+03</pdfrwt>
<pdfrwt beam="1">  1       -4 0.23924493E-02 0.12499032E+03</pdfrwt>
<totfact> 0.79991737E+03</totfact>
</mgrwt>
</event>
<event>
 5    1  0.3234540E-002  0.1250006E+03  0.7818608E-02  0.1235068E+00
          4   -1    0    0  501    0  0.00000000000E+00  0.00000000000E+00  0.12412110546E+03  0.12412760257E+03  0.12700000000E+01 0. -1.
         -4   -1    0    0    0  501 -0.00000000000E+00 -0.00000000000E+00 -0.31451449602E+02  0.31477080266E+02  0.12700000000E+01 0. -1.
         25    2    1    2    0    0  0.00000000000E+00  0.00000000000E+00  0.92669655859E+02  0.15560468284E+03  0.12500060882E+03 0.  0.
    9000005    1    3    3    0    0 -0.71232580328E+00  0.12906216119E+02  0.12244494592E+03  0.12312937344E+03  0.10000000000E+01 0.  0.
    9000005    1    3    3    0    0  0.71232580328E+00 -0.12906216119E+02 -0.29775290060E+02  0.32475309401E+02  0.10000000000E+01 0.  0.
<mgrwt>
<rscale>  0 0.12500061E+03</rscale>
<asrwt>0</asrwt>
<pdfrwt beam="1">  1        4 0.19098026E-01 0.12500061E+03</pdfrwt>
<pdfrwt beam="2">  1       -4 0.48411559E-02 0.12500061E+03</pdfrwt>
<totfact> 0.98195578E+03</totfact>
</mgrwt>
</event>
<event>
 5    1  0.3234540E-002  0.1250059E+03  0.7818608E-02  0.1235060E+00
         -4   -1    0    0    0  501 -0.00000000000E+00  0.00000000000E+00  0.40072571189E+03  0.40072772436E+03  0.12700000000E+01 0. -1.
          4   -1    0    0  501    0  0.00000000000E+00 -0.00000000000E+00 -0.97054456055E+01  0.97881854499E+01  0.12700000000E+01 0. -1.
         25    2    1    2    0    0  0.00000000000E+00  0.00000000000E+00  0.39102026629E+03  0.41051590981E+03  0.12500585411E+03 0.  0.
    9000005    1    3    3    0    0 -0.24676983092E+02  0.13709060991E+02  0.37861113785E+03  0.37966338453E+03  0.10000000000E+01 0.  0.
    9000005    1    3    3    0    0  0.24676983092E+02 -0.13709060991E+02  0.12409128438E+02  0.30852525284E+02  0.10000000000E+01 0.  0.
<mgrwt>
<rscale>  0 0.12500585E+03</rscale>
<asrwt>0</asrwt>
<pdfrwt beam="2">  1        4 0.14996647E-02 0.12500585E+03</pdfrwt>
<pdfrwt beam="1">  1       -4 0.61656637E-01 0.12500585E+03</pdfrwt>
<totfact> 0.63534501E+03</totfact>
</mgrwt>
</event>
<event>
 5    1  0.3234540E-002  0.1250008E+03  0.7818608E-02  0.1235068E+00
         -4   -1    0    0    0  501 -0.00000000000E+00  0.00000000000E+00  0.15799848292E+02  0.15850807741E+02  0.12700000000E+01 0.  1.
          4   -1    0    0  501    0  0.00000000000E+00 -0.00000000000E+00 -0.24678582835E+03  0.24678909615E+03  0.12700000000E+01 0.  1.
         25    2    1    2    0    0  0.00000000000E+00  0.00000000000E+00 -0.23098598006E+03  0.26263990389E+03  0.12500078451E+03 0.  0.
    9000005    1    3    3    0    0 -0.61078343759E+02  0.11921919110E+02 -0.12749006646E+03  0.14187111502E+03  0.10000000000E+01 0.  0.
    9000005    1    3    3    0    0  0.61078343759E+02 -0.11921919110E+02 -0.10349591360E+03  0.12076878886E+03  0.10000000000E+01 0.  0.
<mgrwt>
<rscale>  0 0.12500078E+03</rscale>
<asrwt>0</asrwt>
<pdfrwt beam="2">  1        4 0.37971219E-01 0.12500078E+03</pdfrwt>
<pdfrwt beam="1">  1       -4 0.24349174E-02 0.12500078E+03</pdfrwt>
<totfact> 0.80535605E+03</totfact>
</mgrwt>
</event>
<event>
 5    1  0.3234540E-002  0.1249996E+03  0.7818608E-02  0.1235070E+00
         -4   -1    0    0    0  501 -0.00000000000E+00  0.00000000000E+00  0.10880907016E+02  0.10954772362E+02  0.12700000000E+01 0.  1.
          4   -1    0    0  501    0  0.00000000000E+00 -0.00000000000E+00 -0.35770868590E+03  0.35771094038E+03  0.12700000000E+01 0.  1.
         25    2    1    2    0    0  0.00000000000E+00  0.00000000000E+00 -0.34682777888E+03  0.36866571274E+03  0.12499959819E+03 0.  0.
    9000005    1    3    3    0    0  0.24251710925E+02  0.52702287436E+02 -0.24192157519E+03  0.24878248557E+03  0.10000000000E+01 0.  0.
    9000005    1    3    3    0    0 -0.24251710925E+02 -0.52702287436E+02 -0.10490620369E+03  0.11988322717E+03  0.10000000000E+01 0.  0.
<mgrwt>
<rscale>  0 0.12499960E+03</rscale>
<asrwt>0</asrwt>
<pdfrwt beam="2">  1        4 0.55037952E-01 0.12499960E+03</pdfrwt>
<pdfrwt beam="1">  1       -4 0.16798413E-02 0.12499960E+03</pdfrwt>
<totfact> 0.67719365E+03</totfact>
</mgrwt>
</event>
<event>
 5    1  0.3234540E-002  0.1250008E+03  0.7818608E-02  0.1235068E+00
          4   -1    0    0  501    0  0.00000000000E+00  0.00000000000E+00  0.36015559318E+02  0.36037944073E+02  0.12700000000E+01 0.  1.
         -4   -1    0    0    0  501 -0.00000000000E+00 -0.00000000000E+00 -0.10840164028E+03  0.10840907949E+03  0.12700000000E+01 0.  1.
         25    2    1    2    0    0  0.00000000000E+00  0.00000000000E+00 -0.72386080967E+02  0.14444702357E+03  0.12500079159E+03 0.  0.
    9000005    1    3    3    0    0 -0.58479631353E+02 -0.13708702598E+02 -0.56124632730E+02  0.82211740093E+02  0.10000000000E+01 0.  0.
    9000005    1    3    3    0    0  0.58479631353E+02  0.13708702598E+02 -0.16261448237E+02  0.62235283472E+02  0.10000000000E+01 0.  0.
<mgrwt>
<rscale>  0 0.12500079E+03</rscale>
<asrwt>0</asrwt>
<pdfrwt beam="1">  1        4 0.55431495E-02 0.12500079E+03</pdfrwt>
<pdfrwt beam="2">  1       -4 0.16679469E-01 0.12500079E+03</pdfrwt>
<totfact> 0.10042057E+04</totfact>
</mgrwt>
</event>
<event>
 5    1  0.3234540E-002  0.1249997E+03  0.7818608E-02  0.1235070E+00
         -4   -1    0    0    0  501 -0.00000000000E+00  0.00000000000E+00  0.25938497510E+03  0.25938808417E+03  0.12700000000E+01 0.  1.
          4   -1    0    0  501    0  0.00000000000E+00 -0.00000000000E+00 -0.15029620503E+02  0.15083182438E+02  0.12700000000E+01 0.  1.
         25    2    1    2    0    0  0.00000000000E+00  0.00000000000E+00  0.24435535460E+03  0.27447126660E+03  0.12499974749E+03 0.  0.
    9000005    1    3    3    0    0  0.42276156054E+02  0.43984089120E+02  0.92444525998E+02  0.11076490353E+03  0.10000000000E+01 0.  0.
    9000005    1    3    3    0    0 -0.42276156054E+02 -0.43984089120E+02  0.15191082860E+03  0.16370636308E+03  0.10000000000E+01 0.  0.
<mgrwt>
<rscale>  0 0.12499975E+03</rscale>
<asrwt>0</asrwt>
<pdfrwt beam="2">  1        4 0.23166088E-02 0.12499975E+03</pdfrwt>
<pdfrwt beam="1">  1       -4 0.39909738E-01 0.12499975E+03</pdfrwt>
<totfact> 0.78917376E+03</totfact>
</mgrwt>
</event>
<event>
 5    1  0.3234540E-002  0.1249940E+03  0.7818608E-02  0.1235079E+00
          4   -1    0    0  501    0  0.00000000000E+00  0.00000000000E+00  0.19344045317E+02  0.19385690321E+02  0.12700000000E+01 0. -1.
         -4   -1    0    0    0  501 -0.00000000000E+00 -0.00000000000E+00 -0.20165542544E+03  0.20165942454E+03  0.12700000000E+01 0. -1.
         25    2    1    2    0    0  0.00000000000E+00  0.00000000000E+00 -0.18231138012E+03  0.22104511487E+03  0.12499401380E+03 0.  0.
    9000005    1    3    3    0    0  0.99721006795E+01 -0.10401976109E+02  0.16374411766E+02  0.21834954995E+02  0.10000000000E+01 0.  0.
    9000005    1    3    3    0    0 -0.99721006795E+01  0.10401976109E+02 -0.19868579188E+03  0.19921015987E+03  0.10000000000E+01 0.  0.
<mgrwt>
<rscale>  0 0.12499401E+03</rscale>
<asrwt>0</asrwt>
<pdfrwt beam="1">  1        4 0.29795182E-02 0.12499401E+03</pdfrwt>
<pdfrwt beam="2">  1       -4 0.31027421E-01 0.12499401E+03</pdfrwt>
<totfact> 0.86714837E+03</totfact>
</mgrwt>
</event>
<event>
 5    1  0.3234540E-002  0.1249993E+03  0.7818608E-02  0.1235070E+00
         -4   -1    0    0    0  501 -0.00000000000E+00  0.00000000000E+00  0.71500374613E+01  0.72619512321E+01  0.12700000000E+01 0.  1.
          4   -1    0    0  501    0  0.00000000000E+00 -0.00000000000E+00 -0.54196478006E+03  0.54196626807E+03  0.12700000000E+01 0.  1.
         25    2    1    2    0    0  0.00000000000E+00  0.00000000000E+00 -0.53481474260E+03  0.54922821931E+03  0.12499931190E+03 0.  0.
    9000005    1    3    3    0    0  0.58273244994E+01  0.60420988022E+02 -0.20215411517E+03  0.21107330429E+03  0.10000000000E+01 0.  0.
    9000005    1    3    3    0    0 -0.58273244994E+01 -0.60420988022E+02 -0.33266062743E+03  0.33815491501E+03  0.10000000000E+01 0.  0.
<mgrwt>
<rscale>  0 0.12499931E+03</rscale>
<asrwt>0</asrwt>
<pdfrwt beam="2">  1        4 0.83387888E-01 0.12499931E+03</pdfrwt>
<pdfrwt beam="1">  1       -4 0.11087294E-02 0.12499931E+03</pdfrwt>
<totfact> 0.52238568E+03</totfact>
</mgrwt>
</event>
<event>
 5    1  0.3234540E-002  0.1249985E+03  0.7818608E-02  0.1235072E+00
         -4   -1    0    0    0  501 -0.00000000000E+00  0.00000000000E+00  0.24396947087E+02  0.24429980089E+02  0.12700000000E+01 0. -1.
          4   -1    0    0  501    0  0.00000000000E+00 -0.00000000000E+00 -0.15996462909E+03  0.15996967044E+03  0.12700000000E+01 0. -1.
         25    2    1    2    0    0  0.00000000000E+00  0.00000000000E+00 -0.13556768200E+03  0.18439965053E+03  0.12499853883E+03 0.  0.
    9000005    1    3    3    0    0  0.17468355513E+02 -0.58934567901E+02 -0.84391109155E+02  0.10440922393E+03  0.10000000000E+01 0.  0.
    9000005    1    3    3    0    0 -0.17468355513E+02  0.58934567901E+02 -0.51176572847E+02  0.79990426593E+02  0.10000000000E+01 0.  0.
<mgrwt>
<rscale>  0 0.12499854E+03</rscale>
<asrwt>0</asrwt>
<pdfrwt beam="2">  1        4 0.24612871E-01 0.12499854E+03</pdfrwt>
<pdfrwt beam="1">  1       -4 0.37563054E-02 0.12499854E+03</pdfrwt>
<totfact> 0.92834034E+03</totfact>
</mgrwt>
</event>
<event>
 5    1  0.3234540E-002  0.1250105E+03  0.7818608E-02  0.1235053E+00
         -4   -1    0    0    0  501 -0.00000000000E+00  0.00000000000E+00  0.73046303701E+03  0.73046414103E+03  0.12700000000E+01 0. -1.
          4   -1    0    0  501    0  0.00000000000E+00 -0.00000000000E+00 -0.52720176940E+01  0.54228286499E+01  0.12700000000E+01 0. -1.
         25    2    1    2    0    0  0.00000000000E+00  0.00000000000E+00  0.72519101931E+03  0.73588696968E+03  0.12501047018E+03 0.  0.
    9000005    1    3    3    0    0 -0.58057047471E+02 -0.18357223771E+02  0.27970177850E+03  0.28625459528E+03  0.10000000000E+01 0.  0.
    9000005    1    3    3    0    0  0.58057047471E+02  0.18357223771E+02  0.44548924082E+03  0.44963237440E+03  0.10000000000E+01 0.  0.
<mgrwt>
<rscale>  0 0.12501047E+03</rscale>
<asrwt>0</asrwt>
<pdfrwt beam="2">  1        4 0.82276482E-03 0.12501047E+03</pdfrwt>
<pdfrwt beam="1">  1       -4 0.11239070E+00 0.12501047E+03</pdfrwt>
<totfact> 0.41248961E+03</totfact>
</mgrwt>
</event>
<event>
 5    1  0.3234540E-002  0.1250000E+03  0.7818608E-02  0.1235069E+00
          4   -1    0    0  501    0  0.00000000000E+00  0.00000000000E+00  0.21706095326E+02  0.21743216742E+02  0.12700000000E+01 0. -1.
         -4   -1    0    0    0  501 -0.00000000000E+00 -0.00000000000E+00 -0.17976772534E+03  0.17977221135E+03  0.12700000000E+01 0. -1.
         25    2    1    2    0    0  0.00000000000E+00  0.00000000000E+00 -0.15806163001E+03  0.20151542809E+03  0.12499995551E+03 0.  0.
    9000005    1    3    3    0    0  0.23984429287E+02  0.31825677401E+01  0.13856989150E+02  0.27899780178E+02  0.10000000000E+01 0.  0.
    9000005    1    3    3    0    0 -0.23984429287E+02 -0.31825677401E+01 -0.17191861916E+03  0.17361564791E+03  0.10000000000E+01 0.  0.
<mgrwt>
<rscale>  0 0.12499996E+03</rscale>
<asrwt>0</asrwt>
<pdfrwt beam="1">  1        4 0.33426000E-02 0.12499996E+03</pdfrwt>
<pdfrwt beam="2">  1       -4 0.27659773E-01 0.12499996E+03</pdfrwt>
<totfact> 0.89880635E+03</totfact>
</mgrwt>
</event>
<event>
 5    1  0.3234540E-002  0.1249894E+03  0.7818608E-02  0.1235086E+00
         -4   -1    0    0    0  501 -0.00000000000E+00  0.00000000000E+00  0.24390774878E+03  0.24391105513E+03  0.12700000000E+01 0.  1.
          4   -1    0    0  501    0  0.00000000000E+00 -0.00000000000E+00 -0.15983957298E+02  0.16034331633E+02  0.12700000000E+01 0.  1.
         25    2    1    2    0    0  0.00000000000E+00  0.00000000000E+00  0.22792379148E+03  0.25994538677E+03  0.12498939705E+03 0.  0.
    9000005    1    3    3    0    0  0.46318855592E+02  0.13595036756E+02  0.19648133470E+03  0.20232690452E+03  0.10000000000E+01 0.  0.
    9000005    1    3    3    0    0 -0.46318855592E+02 -0.13595036756E+02  0.31442456789E+02  0.57618482249E+02  0.10000000000E+01 0.  0.
<mgrwt>
<rscale>  0 0.12498940E+03</rscale>
<asrwt>0</asrwt>
<pdfrwt beam="2">  1        4 0.24631998E-02 0.12498940E+03</pdfrwt>
<pdfrwt beam="1">  1       -4 0.37528396E-01 0.12498940E+03</pdfrwt>
<totfact> 0.80932827E+03</totfact>
</mgrwt>
</event>
<event>
 5    1  0.3234540E-002  0.1249991E+03  0.7818608E-02  0.1235071E+00
          4   -1    0    0  501    0  0.00000000000E+00  0.00000000000E+00  0.34575516002E+02  0.34598832448E+02  0.12700000000E+01 0. -1.
         -4   -1    0    0    0  501 -0.00000000000E+00 -0.00000000000E+00 -0.11291069073E+03  0.11291783288E+03  0.12700000000E+01 0. -1.
         25    2    1    2    0    0  0.00000000000E+00  0.00000000000E+00 -0.78335174730E+02  0.14751666533E+03  0.12499906779E+03 0.  0.
    9000005    1    3    3    0    0 -0.50567652765E+02 -0.35430458724E+02 -0.27799759969E+02  0.67721721522E+02  0.10000000000E+01 0.  0.
    9000005    1    3    3    0    0  0.50567652765E+02  0.35430458724E+02 -0.50535414761E+02  0.79794943803E+02  0.10000000000E+01 0.  0.
<mgrwt>
<rscale>  0 0.12499907E+03</rscale>
<asrwt>0</asrwt>
<pdfrwt beam="1">  1        4 0.53216532E-02 0.12499907E+03</pdfrwt>
<pdfrwt beam="2">  1       -4 0.17373218E-01 0.12499907E+03</pdfrwt>
<totfact> 0.99803131E+03</totfact>
</mgrwt>
</event>
<event>
 5    1  0.3234540E-002  0.1250009E+03  0.7818608E-02  0.1235068E+00
         -4   -1    0    0    0  501 -0.00000000000E+00  0.00000000000E+00  0.19095248020E+02  0.19137434440E+02  0.12700000000E+01 0.  1.
          4   -1    0    0  501    0  0.00000000000E+00 -0.00000000000E+00 -0.20429955467E+03  0.20430350203E+03  0.12700000000E+01 0.  1.
         25    2    1    2    0    0  0.00000000000E+00  0.00000000000E+00 -0.18520430665E+03  0.22344093647E+03  0.12500086754E+03 0.  0.
    9000005    1    3    3    0    0 -0.85360546691E+01  0.29173208363E+02 -0.19020381473E+03  0.19261991448E+03  0.10000000000E+01 0.  0.
    9000005    1    3    3    0    0  0.85360546691E+01 -0.29173208363E+02  0.49995080738E+01  0.30821021990E+02  0.10000000000E+01 0.  0.
<mgrwt>
<rscale>  0 0.12500087E+03</rscale>
<asrwt>0</asrwt>
<pdfrwt beam="2">  1        4 0.31434248E-01 0.12500087E+03</pdfrwt>
<pdfrwt beam="1">  1       -4 0.29412794E-02 0.12500087E+03</pdfrwt>
<totfact> 0.86325106E+03</totfact>
</mgrwt>
</event>
<event>
 5    1  0.3234540E-002  0.1249995E+03  0.7818608E-02  0.1235070E+00
          4   -1    0    0  501    0  0.00000000000E+00  0.00000000000E+00  0.39199981349E+01  0.41205928430E+01  0.12700000000E+01 0. -1.
         -4   -1    0    0    0  501 -0.00000000000E+00 -0.00000000000E+00 -0.97142310779E+03  0.97142393796E+03  0.12700000000E+01 0. -1.
         25    2    1    2    0    0  0.00000000000E+00  0.00000000000E+00 -0.96750310965E+03  0.97554453080E+03  0.12499945757E+03 0.  0.
    9000005    1    3    3    0    0  0.10288589596E+02  0.31908179808E+02 -0.72168627994E+02  0.79582019835E+02  0.10000000000E+01 0.  0.
    9000005    1    3    3    0    0 -0.10288589596E+02 -0.31908179808E+02 -0.89533448166E+03  0.89596251097E+03  0.10000000000E+01 0.  0.
<mgrwt>
<rscale>  0 0.12499946E+03</rscale>
<asrwt>0</asrwt>
<pdfrwt beam="1">  1        4 0.61857163E-03 0.12499946E+03</pdfrwt>
<pdfrwt beam="2">  1       -4 0.14946502E+00 0.12499946E+03</pdfrwt>
<totfact> 0.31426459E+03</totfact>
</mgrwt>
</event>
<event>
 5    1  0.3234540E-002  0.1250020E+03  0.7818608E-02  0.1235066E+00
          4   -1    0    0  501    0  0.00000000000E+00  0.00000000000E+00  0.20676387576E+03  0.20676777607E+03  0.12700000000E+01 0.  1.
         -4   -1    0    0    0  501 -0.00000000000E+00 -0.00000000000E+00 -0.18867487323E+02  0.18910181858E+02  0.12700000000E+01 0.  1.
         25    2    1    2    0    0  0.00000000000E+00  0.00000000000E+00  0.18789638844E+03  0.22567795793E+03  0.12500195161E+03 0.  0.
    9000005    1    3    3    0    0 -0.16912920245E+02  0.48694962618E+02  0.15773069109E+03  0.16594341555E+03  0.10000000000E+01 0.  0.
    9000005    1    3    3    0    0  0.16912920245E+02 -0.48694962618E+02  0.30165697355E+02  0.59734542373E+02  0.10000000000E+01 0.  0.
<mgrwt>
<rscale>  0 0.12500195E+03</rscale>
<asrwt>0</asrwt>
<pdfrwt beam="1">  1        4 0.31813411E-01 0.12500195E+03</pdfrwt>
<pdfrwt beam="2">  1       -4 0.29062746E-02 0.12500195E+03</pdfrwt>
<totfact> 0.85973953E+03</totfact>
</mgrwt>
</event>
<event>
 5    1  0.3234540E-002  0.1250012E+03  0.7818608E-02  0.1235067E+00
         -4   -1    0    0    0  501 -0.00000000000E+00  0.00000000000E+00  0.28149454443E+01  0.30881738705E+01  0.12700000000E+01 0. -1.
          4   -1    0    0  501    0  0.00000000000E+00 -0.00000000000E+00 -0.13232037024E+04  0.13232043119E+04  0.12700000000E+01 0. -1.
         25    2    1    2    0    0  0.00000000000E+00  0.00000000000E+00 -0.13203887569E+04  0.13262924857E+04  0.12500115292E+03 0.  0.
    9000005    1    3    3    0    0  0.48447802425E+02 -0.23547522424E+02 -0.32405784434E+03  0.32850595406E+03  0.10000000000E+01 0.  0.
    9000005    1    3    3    0    0 -0.48447802425E+02  0.23547522424E+02 -0.99633091260E+03  0.99778653167E+03  0.10000000000E+01 0.  0.
<mgrwt>
<rscale>  0 0.12500115E+03</rscale>
<asrwt>0</asrwt>
<pdfrwt beam="2">  1        4 0.20359039E+00 0.12500115E+03</pdfrwt>
<pdfrwt beam="1">  1       -4 0.45413404E-03 0.12500115E+03</pdfrwt>
<totfact> 0.21615879E+03</totfact>
</mgrwt>
</event>
<event>
 5    1  0.3234540E-002  0.1249938E+03  0.7818608E-02  0.1235079E+00
         -4   -1    0    0    0  501 -0.00000000000E+00  0.00000000000E+00  0.23322177123E+03  0.23322522907E+03  0.12700000000E+01 0. -1.
          4   -1    0    0  501    0  0.00000000000E+00 -0.00000000000E+00 -0.16719754034E+02  0.16767918027E+02  0.12700000000E+01 0. -1.
         25    2    1    2    0    0  0.00000000000E+00  0.00000000000E+00  0.21650201720E+03  0.24999314710E+03  0.12499380043E+03 0.  0.
    9000005    1    3    3    0    0  0.34081164524E+02  0.49035704795E+02  0.71435172245E+02  0.93112888226E+02  0.10000000000E+01 0.  0.
    9000005    1    3    3    0    0 -0.34081164524E+02 -0.49035704795E+02  0.14506684495E+03  0.15688025887E+03  0.10000000000E+01 0.  0.
<mgrwt>
<rscale>  0 0.12499380E+03</rscale>
<asrwt>0</asrwt>
<pdfrwt beam="2">  1        4 0.25762407E-02 0.12499380E+03</pdfrwt>
<pdfrwt beam="1">  1       -4 0.35884244E-01 0.12499380E+03</pdfrwt>
<totfact> 0.82342588E+03</totfact>
</mgrwt>
</event>
<event>
 5    1  0.3234540E-002  0.1250053E+03  0.7818608E-02  0.1235061E+00
         -4   -1    0    0    0  501 -0.00000000000E+00  0.00000000000E+00  0.35404285138E+02  0.35427056131E+02  0.12700000000E+01 0. -1.
          4   -1    0    0  501    0  0.00000000000E+00 -0.00000000000E+00 -0.11028021233E+03  0.11028752482E+03  0.12700000000E+01 0. -1.
         25    2    1    2    0    0  0.00000000000E+00  0.00000000000E+00 -0.74875927192E+02  0.14571458095E+03  0.12500533841E+03 0.  0.
    9000005    1    3    3    0    0  0.13656310582E+02 -0.56173193879E+02 -0.97632271077E+01  0.58636534114E+02  0.10000000000E+01 0.  0.
    9000005    1    3    3    0    0 -0.13656310582E+02  0.56173193879E+02 -0.65112700084E+02  0.87078046840E+02  0.10000000000E+01 0.  0.
<mgrwt>
<rscale>  0 0.12500534E+03</rscale>
<asrwt>0</asrwt>
<pdfrwt beam="2">  1        4 0.16968500E-01 0.12500534E+03</pdfrwt>
<pdfrwt beam="1">  1       -4 0.54491273E-02 0.12500534E+03</pdfrwt>
<totfact> 0.10015286E+04</totfact>
</mgrwt>
</event>
<event>
 5    1  0.3234540E-002  0.1250010E+03  0.7818608E-02  0.1235068E+00
          4   -1    0    0  501    0  0.00000000000E+00  0.00000000000E+00  0.51935822372E+03  0.51935977650E+03  0.12700000000E+01 0. -1.
         -4   -1    0    0    0  501 -0.00000000000E+00 -0.00000000000E+00 -0.74662319479E+01  0.75734747309E+01  0.12700000000E+01 0. -1.
         25    2    1    2    0    0  0.00000000000E+00  0.00000000000E+00  0.51189199177E+03  0.52693325123E+03  0.12500096004E+03 0.  0.
    9000005    1    3    3    0    0  0.38819864170E+02  0.48922294196E+02  0.26531268506E+03  0.27256594354E+03  0.10000000000E+01 0.  0.
    9000005    1    3    3    0    0 -0.38819864170E+02 -0.48922294196E+02  0.24657930671E+03  0.25436730769E+03  0.10000000000E+01 0.  0.
<mgrwt>
<rscale>  0 0.12500096E+03</rscale>
<asrwt>0</asrwt>
<pdfrwt beam="1">  1        4 0.79909649E-01 0.12500096E+03</pdfrwt>
<pdfrwt beam="2">  1       -4 0.11570197E-02 0.12500096E+03</pdfrwt>
<totfact> 0.53832456E+03</totfact>
</mgrwt>
</event>
<event>
 5    1  0.3234540E-002  0.1249989E+03  0.7818608E-02  0.1235071E+00
         -4   -1    0    0    0  501 -0.00000000000E+00  0.00000000000E+00  0.42040453164E+03  0.42040644990E+03  0.12700000000E+01 0.  1.
          4   -1    0    0  501    0  0.00000000000E+00 -0.00000000000E+00 -0.92461380792E+01  0.93329507328E+01  0.12700000000E+01 0.  1.
         25    2    1    2    0    0  0.00000000000E+00  0.00000000000E+00  0.41115839356E+03  0.42973940064E+03  0.12499891146E+03 0.  0.
    9000005    1    3    3    0    0 -0.31334095301E+02  0.19519689455E+02  0.32232487757E+02  0.49018130031E+02  0.10000000000E+01 0.  0.
    9000005    1    3    3    0    0  0.31334095301E+02 -0.19519689455E+02  0.37892590580E+03  0.38072127060E+03  0.10000000000E+01 0.  0.
<mgrwt>
<rscale>  0 0.12499891E+03</rscale>
<asrwt>0</asrwt>
<pdfrwt beam="2">  1        4 0.14293080E-02 0.12499891E+03</pdfrwt>
<pdfrwt beam="1">  1       -4 0.64684459E-01 0.12499891E+03</pdfrwt>
<totfact> 0.61761093E+03</totfact>
</mgrwt>
</event>
<event>
 5    1  0.3234540E-002  0.1250033E+03  0.7818608E-02  0.1235064E+00
         -4   -1    0    0    0  501 -0.00000000000E+00  0.00000000000E+00  0.15984566840E+03  0.15985071350E+03  0.12700000000E+01 0. -1.
          4   -1    0    0  501    0  0.00000000000E+00 -0.00000000000E+00 -0.24416977286E+02  0.24449983227E+02  0.12700000000E+01 0. -1.
         25    2    1    2    0    0  0.00000000000E+00  0.00000000000E+00  0.13542869112E+03  0.18430069673E+03  0.12500326571E+03 0.  0.
    9000005    1    3    3    0    0 -0.45352805847E+02  0.42299944996E+02  0.79067140810E+02  0.10049266192E+03  0.10000000000E+01 0.  0.
    9000005    1    3    3    0    0  0.45352805847E+02 -0.42299944996E+02  0.56361550308E+02  0.83808034806E+02  0.10000000000E+01 0.  0.
<mgrwt>
<rscale>  0 0.12500327E+03</rscale>
<asrwt>0</asrwt>
<pdfrwt beam="2">  1        4 0.37593849E-02 0.12500327E+03</pdfrwt>
<pdfrwt beam="1">  1       -4 0.24594569E-01 0.12500327E+03</pdfrwt>
<totfact> 0.92841746E+03</totfact>
</mgrwt>
</event>
<event>
 5    1  0.3234540E-002  0.1249603E+03  0.7818608E-02  0.1235131E+00
         -4   -1    0    0    0  501 -0.00000000000E+00  0.00000000000E+00  0.14888489870E+02  0.14942557700E+02  0.12700000000E+01 0. -1.
          4   -1    0    0  501    0  0.00000000000E+00 -0.00000000000E+00 -0.26166953423E+03  0.26167261615E+03  0.12700000000E+01 0. -1.
         25    2    1    2    0    0  0.00000000000E+00  0.00000000000E+00 -0.24678104436E+03  0.27661517385E+03  0.12496027589E+03 0.  0.
    9000005    1    3    3    0    0 -0.15735222722E+02  0.50801950294E+02 -0.50834522391E+02  0.73577062014E+02  0.10000000000E+01 0.  0.
    9000005    1    3    3    0    0  0.15735222722E+02 -0.50801950294E+02 -0.19594652196E+03  0.20303811184E+03  0.10000000000E+01 0.  0.
<mgrwt>
<rscale>  0 0.12496028E+03</rscale>
<asrwt>0</asrwt>
<pdfrwt beam="2">  1        4 0.40261244E-01 0.12496028E+03</pdfrwt>
<pdfrwt beam="1">  1       -4 0.22949332E-02 0.12496028E+03</pdfrwt>
<totfact> 0.78698547E+03</totfact>
</mgrwt>
</event>
<event>
 4    1  0.3234540E-002  0.1250796E+03  0.7818608E-02  0.1234945E+00
         -4   -1    0    0    0  501 -0.00000000000E+00  0.00000000000E+00  0.13268482565E+03  0.13269090345E+03  0.12700000000E+01 0.  1.
          4   -1    0    0  501    0  0.00000000000E+00 -0.00000000000E+00 -0.29457156558E+02  0.29484520896E+02  0.12700000000E+01 0.  1.
    9000005    1    1    2    0    0  0.54177740524E+01  0.18799651783E+02 -0.25392924898E+02  0.32071479818E+02  0.10000000000E+01 0.  0.
    9000005    1    1    2    0    0 -0.54177740524E+01 -0.18799651783E+02  0.12862059399E+03  0.13010394453E+03  0.10000000000E+01 0.  0.
<mgrwt>
<rscale>  0 0.12507964E+03</rscale>
<asrwt>0</asrwt>
<pdfrwt beam="2">  1        4 0.45344427E-02 0.12507964E+03</pdfrwt>
<pdfrwt beam="1">  1       -4 0.20415623E-01 0.12507964E+03</pdfrwt>
<totfact> 0.96751751E+03</totfact>
</mgrwt>
</event>
<event>
 5    1  0.3234540E-002  0.1250031E+03  0.7818608E-02  0.1235064E+00
          4   -1    0    0  501    0  0.00000000000E+00  0.00000000000E+00  0.23777443373E+02  0.23811335817E+02  0.12700000000E+01 0. -1.
         -4   -1    0    0    0  501 -0.00000000000E+00 -0.00000000000E+00 -0.16413857230E+03  0.16414348545E+03  0.12700000000E+01 0. -1.
         25    2    1    2    0    0  0.00000000000E+00  0.00000000000E+00 -0.14036112892E+03  0.18795482127E+03  0.12500307326E+03 0.  0.
    9000005    1    3    3    0    0  0.12966253832E+02 -0.39019238028E+02 -0.14094283244E+03  0.14682134277E+03  0.10000000000E+01 0.  0.
    9000005    1    3    3    0    0 -0.12966253832E+02  0.39019238028E+02  0.58170351734E+00  0.41133478502E+02  0.10000000000E+01 0.  0.
<mgrwt>
<rscale>  0 0.12500307E+03</rscale>
<asrwt>0</asrwt>
<pdfrwt beam="1">  1        4 0.36610534E-02 0.12500307E+03</pdfrwt>
<pdfrwt beam="2">  1       -4 0.25255072E-01 0.12500307E+03</pdfrwt>
<totfact> 0.92198043E+03</totfact>
</mgrwt>
</event>
<event>
 5    1  0.3234540E-002  0.1249993E+03  0.7818608E-02  0.1235070E+00
         -4   -1    0    0    0  501 -0.00000000000E+00  0.00000000000E+00  0.25616835129E+03  0.25617149940E+03  0.12700000000E+01 0. -1.
          4   -1    0    0  501    0  0.00000000000E+00 -0.00000000000E+00 -0.15218905456E+02  0.15271803538E+02  0.12700000000E+01 0. -1.
         25    2    1    2    0    0  0.00000000000E+00  0.00000000000E+00  0.24094944584E+03  0.27144330293E+03  0.12499932504E+03 0.  0.
    9000005    1    3    3    0    0  0.13997513959E+02 -0.57913626306E+02  0.16140668198E+03  0.17205532685E+03  0.10000000000E+01 0.  0.
    9000005    1    3    3    0    0 -0.13997513959E+02  0.57913626306E+02  0.79542763854E+02  0.99387976085E+02  0.10000000000E+01 0.  0.
<mgrwt>
<rscale>  0 0.12499933E+03</rscale>
<asrwt>0</asrwt>
<pdfrwt beam="2">  1        4 0.23456815E-02 0.12499933E+03</pdfrwt>
<pdfrwt beam="1">  1       -4 0.39414824E-01 0.12499933E+03</pdfrwt>
<totfact> 0.79327693E+03</totfact>
</mgrwt>
</event>
<event>
 5    1  0.3234540E-002  0.1249995E+03  0.7818608E-02  0.1235070E+00
         -4   -1    0    0    0  501 -0.00000000000E+00  0.00000000000E+00  0.44840343081E+02  0.44858324396E+02  0.12700000000E+01 0. -1.
          4   -1    0    0  501    0  0.00000000000E+00 -0.00000000000E+00 -0.87073799125E+02  0.87083060316E+02  0.12700000000E+01 0. -1.
         25    2    1    2    0    0  0.00000000000E+00  0.00000000000E+00 -0.42233456044E+02  0.13194138471E+03  0.12499945676E+03 0.  0.
    9000005    1    3    3    0    0 -0.61297978497E+02 -0.82766504504E+00 -0.83151711830E+01  0.61873009213E+02  0.10000000000E+01 0.  0.
    9000005    1    3    3    0    0  0.61297978497E+02  0.82766504504E+00 -0.33918284861E+02  0.70068375499E+02  0.10000000000E+01 0.  0.
<mgrwt>
<rscale>  0 0.12499946E+03</rscale>
<asrwt>0</asrwt>
<pdfrwt beam="2">  1        4 0.13398065E-01 0.12499946E+03</pdfrwt>
<pdfrwt beam="1">  1       -4 0.69006099E-02 0.12499946E+03</pdfrwt>
<totfact> 0.10303076E+04</totfact>
</mgrwt>
</event>
<event>
 5    1  0.3234540E-002  0.1249886E+03  0.7818608E-02  0.1235087E+00
          4   -1    0    0  501    0  0.00000000000E+00  0.00000000000E+00  0.87234480869E+01  0.88154096062E+01  0.12700000000E+01 0. -1.
         -4   -1    0    0    0  501 -0.00000000000E+00 -0.00000000000E+00 -0.44526545817E+03  0.44526726934E+03  0.12700000000E+01 0. -1.
         25    2    1    2    0    0  0.00000000000E+00  0.00000000000E+00 -0.43654201009E+03  0.45408267894E+03  0.12498861046E+03 0.  0.
    9000005    1    3    3    0    0  0.24736489483E+02 -0.55704635715E+02 -0.16824140977E+03  0.17894432742E+03  0.10000000000E+01 0.  0.
    9000005    1    3    3    0    0 -0.24736489483E+02  0.55704635715E+02 -0.26830060031E+03  0.27513835153E+03  0.10000000000E+01 0.  0.
<mgrwt>
<rscale>  0 0.12498861E+03</rscale>
<asrwt>0</asrwt>
<pdfrwt beam="1">  1        4 0.13492826E-02 0.12498861E+03</pdfrwt>
<pdfrwt beam="2">  1       -4 0.68509574E-01 0.12498861E+03</pdfrwt>
<totfact> 0.59626700E+03</totfact>
</mgrwt>
</event>
<event>
 5    1  0.3234540E-002  0.1249994E+03  0.7818608E-02  0.1235070E+00
         -4   -1    0    0    0  501 -0.00000000000E+00  0.00000000000E+00  0.12722926211E+02  0.12786154675E+02  0.12700000000E+01 0.  1.
          4   -1    0    0  501    0  0.00000000000E+00 -0.00000000000E+00 -0.30619621772E+03  0.30619885148E+03  0.12700000000E+01 0.  1.
         25    2    1    2    0    0  0.00000000000E+00  0.00000000000E+00 -0.29347329151E+03  0.31898500616E+03  0.12499944529E+03 0.  0.
    9000005    1    3    3    0    0 -0.59370907111E+02  0.14108218518E+02 -0.11237896652E+03  0.12788267496E+03  0.10000000000E+01 0.  0.
    9000005    1    3    3    0    0  0.59370907111E+02 -0.14108218518E+02 -0.18109432500E+03  0.19110233119E+03  0.10000000000E+01 0.  0.
<mgrwt>
<rscale>  0 0.12499945E+03</rscale>
<asrwt>0</asrwt>
<pdfrwt beam="2">  1        4 0.47112171E-01 0.12499945E+03</pdfrwt>
<pdfrwt beam="1">  1       -4 0.19624398E-02 0.12499945E+03</pdfrwt>
<totfact> 0.73277911E+03</totfact>
</mgrwt>
</event>
<event>
 5    1  0.3234540E-002  0.1249978E+03  0.7818608E-02  0.1235073E+00
         -4   -1    0    0    0  501 -0.00000000000E+00  0.00000000000E+00  0.23929654773E+03  0.23929991779E+03  0.12700000000E+01 0. -1.
          4   -1    0    0  501    0  0.00000000000E+00 -0.00000000000E+00 -0.16295111415E+02  0.16344526791E+02  0.12700000000E+01 0. -1.
         25    2    1    2    0    0  0.00000000000E+00  0.00000000000E+00  0.22300143631E+03  0.25564444458E+03  0.12499776577E+03 0.  0.
    9000005    1    3    3    0    0  0.35136517709E+02  0.42687247018E+02  0.51932082254E+02  0.75859851713E+02  0.10000000000E+01 0.  0.
    9000005    1    3    3    0    0 -0.35136517709E+02 -0.42687247018E+02  0.17106935406E+03  0.17978459287E+03  0.10000000000E+01 0.  0.
<mgrwt>
<rscale>  0 0.12499777E+03</rscale>
<asrwt>0</asrwt>
<pdfrwt beam="2">  1        4 0.25110009E-02 0.12499777E+03</pdfrwt>
<pdfrwt beam="1">  1       -4 0.36818910E-01 0.12499777E+03</pdfrwt>
<totfact> 0.81525271E+03</totfact>
</mgrwt>
</event>
<event>
 5    1  0.3234540E-002  0.1249975E+03  0.7818608E-02  0.1235073E+00
         -4   -1    0    0    0  501 -0.00000000000E+00  0.00000000000E+00  0.11348987424E+03  0.11349697993E+03  0.12700000000E+01 0.  1.
          4   -1    0    0  501    0  0.00000000000E+00 -0.00000000000E+00 -0.34398087943E+02  0.34421524576E+02  0.12700000000E+01 0.  1.
         25    2    1    2    0    0  0.00000000000E+00  0.00000000000E+00  0.79091786294E+02  0.14791850451E+03  0.12499749324E+03 0.  0.
    9000005    1    3    3    0    0  0.30296020332E+02 -0.34972624482E+02  0.89249761628E+02  0.10053583074E+03  0.10000000000E+01 0.  0.
    9000005    1    3    3    0    0 -0.30296020332E+02  0.34972624482E+02 -0.10157975335E+02  0.47382673774E+02  0.10000000000E+01 0.  0.
<mgrwt>
<rscale>  0 0.12499749E+03</rscale>
<asrwt>0</asrwt>
<pdfrwt beam="2">  1        4 0.52943630E-02 0.12499749E+03</pdfrwt>
<pdfrwt beam="1">  1       -4 0.17462330E-01 0.12499749E+03</pdfrwt>
<totfact> 0.99725870E+03</totfact>
</mgrwt>
</event>
<event>
 5    1  0.3234540E-002  0.1250041E+03  0.7818608E-02  0.1235063E+00
         -4   -1    0    0    0  501 -0.00000000000E+00  0.00000000000E+00  0.22984468795E+02  0.23019528791E+02  0.12700000000E+01 0.  1.
          4   -1    0    0  501    0  0.00000000000E+00 -0.00000000000E+00 -0.16979596199E+03  0.16980071145E+03  0.12700000000E+01 0.  1.
         25    2    1    2    0    0  0.00000000000E+00  0.00000000000E+00 -0.14681149320E+03  0.19282024024E+03  0.12500412198E+03 0.  0.
    9000005    1    3    3    0    0  0.37733082153E+02 -0.38520803135E+02 -0.24679244131E+02  0.59310225542E+02  0.10000000000E+01 0.  0.
    9000005    1    3    3    0    0 -0.37733082153E+02  0.38520803135E+02 -0.12213224907E+03  0.13351001470E+03  0.10000000000E+01 0.  0.
<mgrwt>
<rscale>  0 0.12500412E+03</rscale>
<asrwt>0</asrwt>
<pdfrwt beam="2">  1        4 0.26125517E-01 0.12500412E+03</pdfrwt>
<pdfrwt beam="1">  1       -4 0.35391345E-02 0.12500412E+03</pdfrwt>
<totfact> 0.91350473E+03</totfact>
</mgrwt>
</event>
<event>
 5    1  0.3234540E-002  0.1250006E+03  0.7818608E-02  0.1235068E+00
          4   -1    0    0  501    0  0.00000000000E+00  0.00000000000E+00  0.24450814136E+02  0.24483774462E+02  0.12700000000E+01 0. -1.
         -4   -1    0    0    0  501 -0.00000000000E+00 -0.00000000000E+00 -0.15961794825E+03  0.15962300054E+03  0.12700000000E+01 0. -1.
         25    2    1    2    0    0  0.00000000000E+00  0.00000000000E+00 -0.13516713411E+03  0.18410677501E+03  0.12500060184E+03 0.  0.
    9000005    1    3    3    0    0 -0.22170469602E+02 -0.43691890665E+02 -0.10449692280E+02  0.50106956613E+02  0.10000000000E+01 0.  0.
    9000005    1    3    3    0    0  0.22170469602E+02  0.43691890665E+02 -0.12471744183E+03  0.13399981839E+03  0.10000000000E+01 0.  0.
<mgrwt>
<rscale>  0 0.12500060E+03</rscale>
<asrwt>0</asrwt>
<pdfrwt beam="1">  1        4 0.37645879E-02 0.12500060E+03</pdfrwt>
<pdfrwt beam="2">  1       -4 0.24559531E-01 0.12500060E+03</pdfrwt>
<totfact> 0.92881698E+03</totfact>
</mgrwt>
</event>
<event>
 5    1  0.3234540E-002  0.1249986E+03  0.7818608E-02  0.1235072E+00
         -4   -1    0    0    0  501 -0.00000000000E+00  0.00000000000E+00  0.85773470159E+03  0.85773564180E+03  0.12700000000E+01 0. -1.
          4   -1    0    0  501    0  0.00000000000E+00 -0.00000000000E+00 -0.44645402088E+01  0.46416612625E+01  0.12700000000E+01 0. -1.
         25    2    1    2    0    0  0.00000000000E+00  0.00000000000E+00  0.85327016138E+03  0.86237730306E+03  0.12499857812E+03 0.  0.
    9000005    1    3    3    0    0  0.43438554553E+02  0.42232871878E+02  0.32095549800E+03  0.32662509883E+03  0.10000000000E+01 0.  0.
    9000005    1    3    3    0    0 -0.43438554553E+02 -0.42232871878E+02  0.53231466338E+03  0.53575220423E+03  0.10000000000E+01 0.  0.
<mgrwt>
<rscale>  0 0.12499858E+03</rscale>
<asrwt>0</asrwt>
<pdfrwt beam="2">  1        4 0.70054978E-03 0.12499858E+03</pdfrwt>
<pdfrwt beam="1">  1       -4 0.13197280E+00 0.12499858E+03</pdfrwt>
<totfact> 0.35627245E+03</totfact>
</mgrwt>
</event>
<event>
 5    1  0.3234540E-002  0.1250007E+03  0.7818608E-02  0.1235068E+00
          4   -1    0    0  501    0  0.00000000000E+00  0.00000000000E+00  0.50190255382E+02  0.50206320671E+02  0.12700000000E+01 0. -1.
         -4   -1    0    0    0  501 -0.00000000000E+00 -0.00000000000E+00 -0.77796074544E+02  0.77806440057E+02  0.12700000000E+01 0. -1.
         25    2    1    2    0    0  0.00000000000E+00  0.00000000000E+00 -0.27605819162E+02  0.12801276073E+03  0.12500074263E+03 0.  0.
    9000005    1    3    3    0    0 -0.33019156936E+02 -0.16676376557E+02 -0.65384523422E+02  0.75129901923E+02  0.10000000000E+01 0.  0.
    9000005    1    3    3    0    0  0.33019156936E+02  0.16676376557E+02  0.37778704260E+02  0.52882858805E+02  0.10000000000E+01 0.  0.
<mgrwt>
<rscale>  0 0.12500074E+03</rscale>
<asrwt>0</asrwt>
<pdfrwt beam="1">  1        4 0.77236109E-02 0.12500074E+03</pdfrwt>
<pdfrwt beam="2">  1       -4 0.11970660E-01 0.12500074E+03</pdfrwt>
<totfact> 0.10387038E+04</totfact>
</mgrwt>
</event>
<event>
 5    1  0.3234540E-002  0.1249957E+03  0.7818608E-02  0.1235076E+00
          4   -1    0    0  501    0  0.00000000000E+00  0.00000000000E+00  0.20157472749E+01  0.23824644964E+01  0.12700000000E+01 0.  1.
         -4   -1    0    0    0  501 -0.00000000000E+00 -0.00000000000E+00 -0.17757999078E+04  0.17758003619E+04  0.12700000000E+01 0.  1.
         25    2    1    2    0    0  0.00000000000E+00  0.00000000000E+00 -0.17737841605E+04  0.17781828264E+04  0.12499566424E+03 0.  0.
    9000005    1    3    3    0    0 -0.34304987831E+02 -0.35617827578E+02 -0.34340894796E+03  0.34695268751E+03  0.10000000000E+01 0.  0.
    9000005    1    3    3    0    0  0.34304987831E+02  0.35617827578E+02 -0.14303752126E+04  0.14312301389E+04  0.10000000000E+01 0.  0.
<mgrwt>
<rscale>  0 0.12499566E+03</rscale>
<asrwt>0</asrwt>
<pdfrwt beam="1">  1        4 0.33836034E-03 0.12499566E+03</pdfrwt>
<pdfrwt beam="2">  1       -4 0.27322708E+00 0.12499566E+03</pdfrwt>
<totfact> 0.13043987E+03</totfact>
</mgrwt>
</event>
<event>
 5    1  0.3234540E-002  0.1250000E+03  0.7818608E-02  0.1235069E+00
         -4   -1    0    0    0  501 -0.00000000000E+00  0.00000000000E+00  0.69751007232E+02  0.69762568114E+02  0.12700000000E+01 0.  1.
          4   -1    0    0  501    0  0.00000000000E+00 -0.00000000000E+00 -0.55979367524E+02  0.55993771872E+02  0.12700000000E+01 0.  1.
         25    2    1    2    0    0  0.00000000000E+00  0.00000000000E+00  0.13771639708E+02  0.12575633999E+03  0.12499999595E+03 0.  0.
    9000005    1    3    3    0    0 -0.97348883196E+01  0.61614335333E+02  0.10670948262E+02  0.63292681299E+02  0.10000000000E+01 0.  0.
    9000005    1    3    3    0    0  0.97348883196E+01 -0.61614335333E+02  0.31006914456E+01  0.62463658687E+02  0.10000000000E+01 0.  0.
<mgrwt>
<rscale>  0 0.12500000E+03</rscale>
<asrwt>0</asrwt>
<pdfrwt beam="2">  1        4 0.86142077E-02 0.12500000E+03</pdfrwt>
<pdfrwt beam="1">  1       -4 0.10732922E-01 0.12500000E+03</pdfrwt>
<totfact> 0.10436306E+04</totfact>
</mgrwt>
</event>
<event>
 5    1  0.3234540E-002  0.1250016E+03  0.7818608E-02  0.1235067E+00
         -4   -1    0    0    0  501 -0.00000000000E+00  0.00000000000E+00  0.19758217729E+03  0.19758625884E+03  0.12700000000E+01 0.  1.
          4   -1    0    0  501    0  0.00000000000E+00 -0.00000000000E+00 -0.19746085052E+02  0.19786883910E+02  0.12700000000E+01 0.  1.
         25    2    1    2    0    0  0.00000000000E+00  0.00000000000E+00  0.17783609224E+03  0.21737314275E+03  0.12500162994E+03 0.  0.
    9000005    1    3    3    0    0  0.41369979997E+02  0.71402743795E+01  0.16941704188E+03  0.17454395676E+03  0.10000000000E+01 0.  0.
    9000005    1    3    3    0    0 -0.41369979997E+02 -0.71402743795E+01  0.84190503555E+01  0.42829185985E+02  0.10000000000E+01 0.  0.
<mgrwt>
<rscale>  0 0.12500163E+03</rscale>
<asrwt>0</asrwt>
<pdfrwt beam="2">  1        4 0.30413115E-02 0.12500163E+03</pdfrwt>
<pdfrwt beam="1">  1       -4 0.30400711E-01 0.12500163E+03</pdfrwt>
<totfact> 0.87282550E+03</totfact>
</mgrwt>
</event>
<event>
 5    1  0.3234540E-002  0.1250007E+03  0.7818608E-02  0.1235068E+00
          4   -1    0    0  501    0  0.00000000000E+00  0.00000000000E+00  0.20381192158E+02  0.20420722166E+02  0.12700000000E+01 0.  1.
         -4   -1    0    0    0  501 -0.00000000000E+00 -0.00000000000E+00 -0.19143432710E+03  0.19143853973E+03  0.12700000000E+01 0.  1.
         25    2    1    2    0    0  0.00000000000E+00  0.00000000000E+00 -0.17105313494E+03  0.21185926189E+03  0.12500068750E+03 0.  0.
    9000005    1    3    3    0    0  0.15583198873E+02 -0.52290394375E+02 -0.33890973556E+02  0.64239547940E+02  0.10000000000E+01 0.  0.
    9000005    1    3    3    0    0 -0.15583198873E+02  0.52290394375E+02 -0.13716216139E+03  0.14761971395E+03  0.10000000000E+01 0.  0.
<mgrwt>
<rscale>  0 0.12500069E+03</rscale>
<asrwt>0</asrwt>
<pdfrwt beam="1">  1        4 0.31389330E-02 0.12500069E+03</pdfrwt>
<pdfrwt beam="2">  1       -4 0.29454799E-01 0.12500069E+03</pdfrwt>
<totfact> 0.88171782E+03</totfact>
</mgrwt>
</event>
<event>
 5    1  0.3234540E-002  0.1250006E+03  0.7818608E-02  0.1235068E+00
          4   -1    0    0  501    0  0.00000000000E+00  0.00000000000E+00  0.14626813717E+02  0.14681845235E+02  0.12700000000E+01 0. -1.
         -4   -1    0    0    0  501 -0.00000000000E+00 -0.00000000000E+00 -0.26650557343E+03  0.26650859943E+03  0.12700000000E+01 0. -1.
         25    2    1    2    0    0  0.00000000000E+00  0.00000000000E+00 -0.25187875971E+03  0.28119044466E+03  0.12500062630E+03 0.  0.
    9000005    1    3    3    0    0 -0.43379110631E+02 -0.23645278196E+02 -0.39854958453E+02  0.63484361329E+02  0.10000000000E+01 0.  0.
    9000005    1    3    3    0    0  0.43379110631E+02  0.23645278196E+02 -0.21202380126E+03  0.21770608333E+03  0.10000000000E+01 0.  0.
<mgrwt>
<rscale>  0 0.12500063E+03</rscale>
<asrwt>0</asrwt>
<pdfrwt beam="1">  1        4 0.22547452E-02 0.12500063E+03</pdfrwt>
<pdfrwt beam="2">  1       -4 0.41005320E-01 0.12500063E+03</pdfrwt>
<totfact> 0.78019441E+03</totfact>
</mgrwt>
</event>
<event>
 5    1  0.3234540E-002  0.1250011E+03  0.7818608E-02  0.1235068E+00
          4   -1    0    0  501    0  0.00000000000E+00  0.00000000000E+00  0.14826323570E+02  0.14880617279E+02  0.12700000000E+01 0. -1.
         -4   -1    0    0    0  501 -0.00000000000E+00 -0.00000000000E+00 -0.26293434827E+03  0.26293741537E+03  0.12700000000E+01 0. -1.
         25    2    1    2    0    0  0.00000000000E+00  0.00000000000E+00 -0.24810802470E+03  0.27781803264E+03  0.12500106937E+03 0.  0.
    9000005    1    3    3    0    0  0.31923711556E+02 -0.43560097628E+02 -0.19393860976E+03  0.20132011777E+03  0.10000000000E+01 0.  0.
    9000005    1    3    3    0    0 -0.31923711556E+02  0.43560097628E+02 -0.54169414941E+02  0.76497914873E+02  0.10000000000E+01 0.  0.
<mgrwt>
<rscale>  0 0.12500107E+03</rscale>
<asrwt>0</asrwt>
<pdfrwt beam="1">  1        4 0.22853854E-02 0.12500107E+03</pdfrwt>
<pdfrwt beam="2">  1       -4 0.40455847E-01 0.12500107E+03</pdfrwt>
<totfact> 0.78466446E+03</totfact>
</mgrwt>
</event>
<event>
 5    1  0.3234540E-002  0.1250027E+03  0.7818608E-02  0.1235065E+00
         -4   -1    0    0    0  501 -0.00000000000E+00  0.00000000000E+00  0.11941283604E+03  0.11941958931E+03  0.12700000000E+01 0.  1.
          4   -1    0    0  501    0  0.00000000000E+00 -0.00000000000E+00 -0.32693528593E+02  0.32718186255E+02  0.12700000000E+01 0.  1.
         25    2    1    2    0    0  0.00000000000E+00  0.00000000000E+00  0.86719307446E+02  0.15213777556E+03  0.12500265785E+03 0.  0.
    9000005    1    3    3    0    0  0.28533607403E+02 -0.38506131275E+02  0.92172262851E+02  0.10389232376E+03  0.10000000000E+01 0.  0.
    9000005    1    3    3    0    0 -0.28533607403E+02  0.38506131275E+02 -0.54529554051E+01  0.48245451805E+02  0.10000000000E+01 0.  0.
<mgrwt>
<rscale>  0 0.12500266E+03</rscale>
<asrwt>0</asrwt>
<pdfrwt beam="2">  1        4 0.50321899E-02 0.12500266E+03</pdfrwt>
<pdfrwt beam="1">  1       -4 0.18373622E-01 0.12500266E+03</pdfrwt>
<totfact> 0.98873346E+03</totfact>
</mgrwt>
</event>
<event>
 5    1  0.3234540E-002  0.1249987E+03  0.7818608E-02  0.1235071E+00
         -4   -1    0    0    0  501 -0.00000000000E+00  0.00000000000E+00  0.87327387413E+03  0.87327479760E+03  0.12700000000E+01 0. -1.
          4   -1    0    0  501    0  0.00000000000E+00 -0.00000000000E+00 -0.43819258132E+01  0.45622553449E+01  0.12700000000E+01 0. -1.
         25    2    1    2    0    0  0.00000000000E+00  0.00000000000E+00  0.86889194831E+03  0.87783705295E+03  0.12499869475E+03 0.  0.
    9000005    1    3    3    0    0  0.44817415352E+02  0.16072670150E+02  0.71869356488E+03  0.72026965204E+03  0.10000000000E+01 0.  0.
    9000005    1    3    3    0    0 -0.44817415352E+02 -0.16072670150E+02  0.15019838343E+03  0.15756740091E+03  0.10000000000E+01 0.  0.
<mgrwt>
<rscale>  0 0.12499869E+03</rscale>
<asrwt>0</asrwt>
<pdfrwt beam="2">  1        4 0.68808522E-03 0.12499869E+03</pdfrwt>
<pdfrwt beam="1">  1       -4 0.13436372E+00 0.12499869E+03</pdfrwt>
<totfact> 0.35015495E+03</totfact>
</mgrwt>
</event>
<event>
 5    1  0.3234540E-002  0.1250054E+03  0.7818608E-02  0.1235061E+00
          4   -1    0    0  501    0  0.00000000000E+00  0.00000000000E+00  0.20765283008E+03  0.20765671369E+03  0.12700000000E+01 0. -1.
         -4   -1    0    0    0  501 -0.00000000000E+00 -0.00000000000E+00 -0.18787585580E+02  0.18830461277E+02  0.12700000000E+01 0. -1.
         25    2    1    2    0    0  0.00000000000E+00  0.00000000000E+00  0.18886524450E+03  0.22648717497E+03  0.12500543926E+03 0.  0.
    9000005    1    3    3    0    0  0.33322850779E+02 -0.51047054642E+02  0.69499484732E+02  0.92452109493E+02  0.10000000000E+01 0.  0.
    9000005    1    3    3    0    0 -0.33322850779E+02  0.51047054642E+02  0.11936575977E+03  0.13403506548E+03  0.10000000000E+01 0.  0.
<mgrwt>
<rscale>  0 0.12500544E+03</rscale>
<asrwt>0</asrwt>
<pdfrwt beam="1">  1        4 0.31950186E-01 0.12500544E+03</pdfrwt>
<pdfrwt beam="2">  1       -4 0.28939946E-02 0.12500544E+03</pdfrwt>
<totfact> 0.85841507E+03</totfact>
</mgrwt>
</event>
<event>
 5    1  0.3234540E-002  0.1249975E+03  0.7818608E-02  0.1235073E+00
         -4   -1    0    0    0  501 -0.00000000000E+00  0.00000000000E+00  0.27818023048E+03  0.27818312949E+03  0.12700000000E+01 0.  1.
          4   -1    0    0  501    0  0.00000000000E+00 -0.00000000000E+00 -0.14009892309E+02  0.14067337435E+02  0.12700000000E+01 0.  1.
         25    2    1    2    0    0  0.00000000000E+00  0.00000000000E+00  0.26417033817E+03  0.29225046692E+03  0.12499747136E+03 0.  0.
    9000005    1    3    3    0    0  0.52801120544E+02  0.21624836076E+02  0.72499256416E+02  0.92264478793E+02  0.10000000000E+01 0.  0.
    9000005    1    3    3    0    0 -0.52801120544E+02 -0.21624836076E+02  0.19167108176E+03  0.19998598813E+03  0.10000000000E+01 0.  0.
<mgrwt>
<rscale>  0 0.12499747E+03</rscale>
<asrwt>0</asrwt>
<pdfrwt beam="2">  1        4 0.21600100E-02 0.12499747E+03</pdfrwt>
<pdfrwt beam="1">  1       -4 0.42801599E-01 0.12499747E+03</pdfrwt>
<totfact> 0.76585624E+03</totfact>
</mgrwt>
</event>
<event>
 5    1  0.3234540E-002  0.1249550E+03  0.7818608E-02  0.1235140E+00
          4   -1    0    0  501    0  0.00000000000E+00  0.00000000000E+00  0.25544062858E+02  0.25575614310E+02  0.12700000000E+01 0. -1.
         -4   -1    0    0    0  501 -0.00000000000E+00 -0.00000000000E+00 -0.15268348846E+03  0.15268877021E+03  0.12700000000E+01 0. -1.
         25    2    1    2    0    0  0.00000000000E+00  0.00000000000E+00 -0.12713942560E+03  0.17826438452E+03  0.12495502089E+03 0.  0.
    9000005    1    3    3    0    0  0.34527515390E+02 -0.52043730584E+02 -0.61687806987E+02  0.87790003662E+02  0.10000000000E+01 0.  0.
    9000005    1    3    3    0    0 -0.34527515390E+02  0.52043730584E+02 -0.65451618611E+02  0.90474380854E+02  0.10000000000E+01 0.  0.
<mgrwt>
<rscale>  0 0.12495502E+03</rscale>
<asrwt>0</asrwt>
<pdfrwt beam="1">  1        4 0.39326892E-02 0.12495502E+03</pdfrwt>
<pdfrwt beam="2">  1       -4 0.23492600E-01 0.12495502E+03</pdfrwt>
<totfact> 0.94025166E+03</totfact>
</mgrwt>
</event>
<event>
 5    1  0.3234540E-002  0.1249979E+03  0.7818608E-02  0.1235073E+00
          4   -1    0    0  501    0  0.00000000000E+00  0.00000000000E+00  0.74979139459E+01  0.76047099576E+01  0.12700000000E+01 0. -1.
         -4   -1    0    0    0  501 -0.00000000000E+00 -0.00000000000E+00 -0.51716949613E+03  0.51717105548E+03  0.12700000000E+01 0. -1.
         25    2    1    2    0    0  0.00000000000E+00  0.00000000000E+00 -0.50967158219E+03  0.52477576544E+03  0.12499792921E+03 0.  0.
    9000005    1    3    3    0    0 -0.41765717655E+02 -0.35812803879E+02 -0.37924852147E+03  0.38321974522E+03  0.10000000000E+01 0.  0.
    9000005    1    3    3    0    0  0.41765717655E+02  0.35812803879E+02 -0.13042306072E+03  0.14155602022E+03  0.10000000000E+01 0.  0.
<mgrwt>
<rscale>  0 0.12499793E+03</rscale>
<asrwt>0</asrwt>
<pdfrwt beam="1">  1        4 0.11618607E-02 0.12499793E+03</pdfrwt>
<pdfrwt beam="2">  1       -4 0.79572845E-01 0.12499793E+03</pdfrwt>
<totfact> 0.53994508E+03</totfact>
</mgrwt>
</event>
<event>
 4    1  0.3234540E-002  0.1245717E+03  0.7818608E-02  0.1235740E+00
          4   -1    0    0  501    0  0.00000000000E+00  0.00000000000E+00  0.15435763390E+03  0.15436285837E+03  0.12700000000E+01 0. -1.
         -4   -1    0    0    0  501 -0.00000000000E+00 -0.00000000000E+00 -0.25111688381E+02  0.25143782399E+02  0.12700000000E+01 0. -1.
    9000005    1    1    2    0    0 -0.44372970480E+02  0.39655704645E+02  0.91075816874E+02  0.10879953970E+03  0.10000000000E+01 0.  0.
    9000005    1    1    2    0    0  0.44372970480E+02 -0.39655704645E+02  0.38170128646E+02  0.70707101064E+02  0.10000000000E+01 0.  0.
<mgrwt>
<rscale>  0 0.12457174E+03</rscale>
<asrwt>0</asrwt>
<pdfrwt beam="1">  1        4 0.23750199E-01 0.12457174E+03</pdfrwt>
<pdfrwt beam="2">  1       -4 0.38662073E-02 0.12457174E+03</pdfrwt>
<totfact> 0.94611431E+03</totfact>
</mgrwt>
</event>
<event>
 5    1  0.3234540E-002  0.1249432E+03  0.7818608E-02  0.1235158E+00
          4   -1    0    0  501    0  0.00000000000E+00  0.00000000000E+00  0.13945039600E+03  0.13945617894E+03  0.12700000000E+01 0. -1.
         -4   -1    0    0    0  501 -0.00000000000E+00 -0.00000000000E+00 -0.27965532912E+02  0.27994355342E+02  0.12700000000E+01 0. -1.
         25    2    1    2    0    0  0.00000000000E+00  0.00000000000E+00  0.11148486309E+03  0.16745053428E+03  0.12494321404E+03 0.  0.
    9000005    1    3    3    0    0 -0.50537165734E+02  0.34196484403E+02  0.73638016679E+02  0.95639752020E+02  0.10000000000E+01 0.  0.
    9000005    1    3    3    0    0  0.50537165734E+02 -0.34196484403E+02  0.37846846409E+02  0.71810782262E+02  0.10000000000E+01 0.  0.
<mgrwt>
<rscale>  0 0.12494321E+03</rscale>
<asrwt>0</asrwt>
<pdfrwt beam="1">  1        4 0.21456569E-01 0.12494321E+03</pdfrwt>
<pdfrwt beam="2">  1       -4 0.43050517E-02 0.12494321E+03</pdfrwt>
<totfact> 0.96047742E+03</totfact>
</mgrwt>
</event>
<event>
 5    1  0.3234540E-002  0.1250007E+03  0.7818608E-02  0.1235068E+00
          4   -1    0    0  501    0  0.00000000000E+00  0.00000000000E+00  0.27543310931E+03  0.27543603723E+03  0.12700000000E+01 0. -1.
         -4   -1    0    0    0  501 -0.00000000000E+00 -0.00000000000E+00 -0.14150936444E+02  0.14207811311E+02  0.12700000000E+01 0. -1.
         25    2    1    2    0    0  0.00000000000E+00  0.00000000000E+00  0.26128217287E+03  0.28964384854E+03  0.12500074055E+03 0.  0.
    9000005    1    3    3    0    0 -0.12827153523E+01 -0.74783942334E+01  0.27437316640E+03  0.27447988301E+03  0.10000000000E+01 0.  0.
    9000005    1    3    3    0    0  0.12827153523E+01  0.74783942334E+01 -0.13090993530E+02  0.15163965529E+02  0.10000000000E+01 0.  0.
<mgrwt>
<rscale>  0 0.12500074E+03</rscale>
<asrwt>0</asrwt>
<pdfrwt beam="1">  1        4 0.42378921E-01 0.12500074E+03</pdfrwt>
<pdfrwt beam="2">  1       -4 0.21816675E-02 0.12500074E+03</pdfrwt>
<totfact> 0.76915270E+03</totfact>
</mgrwt>
</event>
<event>
 5    1  0.3234540E-002  0.1250259E+03  0.7818608E-02  0.1235029E+00
         -4   -1    0    0    0  501 -0.00000000000E+00  0.00000000000E+00  0.19066776771E+03  0.19067199727E+03  0.12700000000E+01 0.  1.
          4   -1    0    0  501    0  0.00000000000E+00 -0.00000000000E+00 -0.20471556101E+02  0.20510911954E+02  0.12700000000E+01 0.  1.
         25    2    1    2    0    0  0.00000000000E+00  0.00000000000E+00  0.17019621161E+03  0.21118290923E+03  0.12502588013E+03 0.  0.
    9000005    1    3    3    0    0  0.60346900302E+01  0.46165516987E+02  0.14655888771E+02  0.48820769331E+02  0.10000000000E+01 0.  0.
    9000005    1    3    3    0    0 -0.60346900302E+01 -0.46165516987E+02  0.15554032284E+03  0.16236213989E+03  0.10000000000E+01 0.  0.
<mgrwt>
<rscale>  0 0.12502588E+03</rscale>
<asrwt>0</asrwt>
<pdfrwt beam="2">  1        4 0.31528230E-02 0.12502588E+03</pdfrwt>
<pdfrwt beam="1">  1       -4 0.29336854E-01 0.12502588E+03</pdfrwt>
<totfact> 0.88232006E+03</totfact>
</mgrwt>
</event>
<event>
 5    1  0.3234540E-002  0.1249999E+03  0.7818608E-02  0.1235069E+00
         -4   -1    0    0    0  501 -0.00000000000E+00  0.00000000000E+00  0.30210587873E+02  0.30237270374E+02  0.12700000000E+01 0.  1.
          4   -1    0    0  501    0  0.00000000000E+00 -0.00000000000E+00 -0.12921357099E+03  0.12921981206E+03  0.12700000000E+01 0.  1.
         25    2    1    2    0    0  0.00000000000E+00  0.00000000000E+00 -0.99002983120E+02  0.15945708243E+03  0.12499988189E+03 0.  0.
    9000005    1    3    3    0    0 -0.22914283804E+02  0.34920703448E+01 -0.12353344327E+03  0.12569316037E+03  0.10000000000E+01 0.  0.
    9000005    1    3    3    0    0  0.22914283804E+02 -0.34920703448E+01  0.24530460154E+02  0.33763922060E+02  0.10000000000E+01 0.  0.
<mgrwt>
<rscale>  0 0.12499988E+03</rscale>
<asrwt>0</asrwt>
<pdfrwt beam="2">  1        4 0.19881543E-01 0.12499988E+03</pdfrwt>
<pdfrwt beam="1">  1       -4 0.46503154E-02 0.12499988E+03</pdfrwt>
<totfact> 0.97447816E+03</totfact>
</mgrwt>
</event>
<event>
 5    1  0.3234540E-002  0.1250045E+03  0.7818608E-02  0.1235062E+00
         -4   -1    0    0    0  501 -0.00000000000E+00  0.00000000000E+00  0.13357424286E+03  0.13358028019E+03  0.12700000000E+01 0.  1.
          4   -1    0    0  501    0  0.00000000000E+00 -0.00000000000E+00 -0.29225629774E+02  0.29253210691E+02  0.12700000000E+01 0.  1.
         25    2    1    2    0    0  0.00000000000E+00  0.00000000000E+00  0.10434861309E+03  0.16283349088E+03  0.12500445072E+03 0.  0.
    9000005    1    3    3    0    0 -0.41932161452E+02 -0.41032199625E+02  0.80220949529E+02  0.99389880337E+02  0.10000000000E+01 0.  0.
    9000005    1    3    3    0    0  0.41932161452E+02  0.41032199625E+02  0.24127663558E+02  0.63443610544E+02  0.10000000000E+01 0.  0.
<mgrwt>
<rscale>  0 0.12500445E+03</rscale>
<asrwt>0</asrwt>
<pdfrwt beam="2">  1        4 0.44988368E-02 0.12500445E+03</pdfrwt>
<pdfrwt beam="1">  1       -4 0.20552469E-01 0.12500445E+03</pdfrwt>
<totfact> 0.96789595E+03</totfact>
</mgrwt>
</event>
<event>
 5    1  0.3234540E-002  0.1250575E+03  0.7818608E-02  0.1234980E+00
         -4   -1    0    0    0  501 -0.00000000000E+00  0.00000000000E+00  0.84674771728E+03  0.84674866969E+03  0.12700000000E+01 0. -1.
          4   -1    0    0  501    0  0.00000000000E+00 -0.00000000000E+00 -0.45291823581E+01  0.47038699847E+01  0.12700000000E+01 0. -1.
         25    2    1    2    0    0  0.00000000000E+00  0.00000000000E+00  0.84221853492E+03  0.85145253967E+03  0.12505745379E+03 0.  0.
    9000005    1    3    3    0    0  0.55491300863E+02 -0.12099610873E+02  0.59906460052E+03  0.60175167690E+03  0.10000000000E+01 0.  0.
    9000005    1    3    3    0    0 -0.55491300863E+02  0.12099610873E+02  0.24315393440E+03  0.24970086277E+03  0.10000000000E+01 0.  0.
<mgrwt>
<rscale>  0 0.12505745E+03</rscale>
<asrwt>0</asrwt>
<pdfrwt beam="2">  1        4 0.71030856E-03 0.12505745E+03</pdfrwt>
<pdfrwt beam="1">  1       -4 0.13028230E+00 0.12505745E+03</pdfrwt>
<totfact> 0.36022768E+03</totfact>
</mgrwt>
</event>
<event>
 5    1  0.3234540E-002  0.1250034E+03  0.7818608E-02  0.1235064E+00
          4   -1    0    0  501    0  0.00000000000E+00  0.00000000000E+00  0.11198252344E+03  0.11198972477E+03  0.12700000000E+01 0.  1.
         -4   -1    0    0    0  501 -0.00000000000E+00 -0.00000000000E+00 -0.34864672079E+02  0.34887795275E+02  0.12700000000E+01 0.  1.
         25    2    1    2    0    0  0.00000000000E+00  0.00000000000E+00  0.77117851356E+02  0.14687752005E+03  0.12500337155E+03 0.  0.
    9000005    1    3    3    0    0  0.47059486908E+02  0.25057994263E+01 -0.96669639141E+01  0.48117819258E+02  0.10000000000E+01 0.  0.
    9000005    1    3    3    0    0 -0.47059486908E+02 -0.25057994263E+01  0.86784815270E+02  0.98759700791E+02  0.10000000000E+01 0.  0.
<mgrwt>
<rscale>  0 0.12500337E+03</rscale>
<asrwt>0</asrwt>
<pdfrwt beam="1">  1        4 0.17230413E-01 0.12500337E+03</pdfrwt>
<pdfrwt beam="2">  1       -4 0.53661283E-02 0.12500337E+03</pdfrwt>
<totfact> 0.99922215E+03</totfact>
</mgrwt>
</event>
<event>
 5    1  0.3234540E-002  0.1249990E+03  0.7818608E-02  0.1235071E+00
          4   -1    0    0  501    0  0.00000000000E+00  0.00000000000E+00  0.70641458330E+02  0.70652873508E+02  0.12700000000E+01 0. -1.
         -4   -1    0    0    0  501 -0.00000000000E+00 -0.00000000000E+00 -0.55272824868E+02  0.55287413295E+02  0.12700000000E+01 0. -1.
         25    2    1    2    0    0  0.00000000000E+00  0.00000000000E+00  0.15368633462E+02  0.12594028680E+03  0.12499904378E+03 0.  0.
    9000005    1    3    3    0    0 -0.27875740394E+02 -0.50820065261E+02  0.31215142730E+02  0.65841636305E+02  0.10000000000E+01 0.  0.
    9000005    1    3    3    0    0  0.27875740394E+02  0.50820065261E+02 -0.15846509268E+02  0.60098650498E+02  0.10000000000E+01 0.  0.
<mgrwt>
<rscale>  0 0.12499904E+03</rscale>
<asrwt>0</asrwt>
<pdfrwt beam="1">  1        4 0.10869917E-01 0.12499904E+03</pdfrwt>
<pdfrwt beam="2">  1       -4 0.85055118E-02 0.12499904E+03</pdfrwt>
<totfact> 0.10432491E+04</totfact>
</mgrwt>
</event>
<event>
 5    1  0.3234540E-002  0.1249993E+03  0.7818608E-02  0.1235070E+00
         -4   -1    0    0    0  501 -0.00000000000E+00  0.00000000000E+00  0.48363732581E+01  0.50003406176E+01  0.12700000000E+01 0.  1.
          4   -1    0    0  501    0  0.00000000000E+00 -0.00000000000E+00 -0.79404510180E+03  0.79404611742E+03  0.12700000000E+01 0.  1.
         25    2    1    2    0    0  0.00000000000E+00  0.00000000000E+00 -0.78920872854E+03  0.79904645804E+03  0.12499929959E+03 0.  0.
    9000005    1    3    3    0    0 -0.18271289812E+02 -0.51899278607E+02 -0.20520874649E+03  0.21245941915E+03  0.10000000000E+01 0.  0.
    9000005    1    3    3    0    0  0.18271289812E+02  0.51899278607E+02 -0.58399998205E+03  0.58658703889E+03  0.10000000000E+01 0.  0.
<mgrwt>
<rscale>  0 0.12499930E+03</rscale>
<asrwt>0</asrwt>
<pdfrwt beam="2">  1        4 0.12217337E+00 0.12499930E+03</pdfrwt>
<pdfrwt beam="1">  1       -4 0.75674905E-03 0.12499930E+03</pdfrwt>
<totfact> 0.38307943E+03</totfact>
</mgrwt>
</event>
<event>
 5    1  0.3234540E-002  0.1249991E+03  0.7818608E-02  0.1235071E+00
         -4   -1    0    0    0  501 -0.00000000000E+00  0.00000000000E+00  0.81490970147E+02  0.81500865735E+02  0.12700000000E+01 0. -1.
          4   -1    0    0  501    0  0.00000000000E+00 -0.00000000000E+00 -0.47912877205E+02  0.47929705842E+02  0.12700000000E+01 0. -1.
         25    2    1    2    0    0  0.00000000000E+00  0.00000000000E+00  0.33578092942E+02  0.12943057158E+03  0.12499913813E+03 0.  0.
    9000005    1    3    3    0    0  0.16610510189E+02  0.35260940064E+02  0.67366948405E+02  0.77836679530E+02  0.10000000000E+01 0.  0.
    9000005    1    3    3    0    0 -0.16610510189E+02 -0.35260940064E+02 -0.33788855463E+02  0.51593892046E+02  0.10000000000E+01 0.  0.
<mgrwt>
<rscale>  0 0.12499914E+03</rscale>
<asrwt>0</asrwt>
<pdfrwt beam="2">  1        4 0.73732675E-02 0.12499914E+03</pdfrwt>
<pdfrwt beam="1">  1       -4 0.12539128E-01 0.12499914E+03</pdfrwt>
<totfact> 0.10356905E+04</totfact>
</mgrwt>
</event>
<event>
 5    1  0.3234540E-002  0.1250014E+03  0.7818608E-02  0.1235067E+00
          4   -1    0    0  501    0  0.00000000000E+00  0.00000000000E+00  0.97262649213E+02  0.97270940326E+02  0.12700000000E+01 0.  1.
         -4   -1    0    0    0  501 -0.00000000000E+00 -0.00000000000E+00 -0.40142723060E+02  0.40162807604E+02  0.12700000000E+01 0.  1.
         25    2    1    2    0    0  0.00000000000E+00  0.00000000000E+00  0.57119926153E+02  0.13743374793E+03  0.12500139642E+03 0.  0.
    9000005    1    3    3    0    0  0.70667854910E+01  0.54617718131E+02  0.61032194269E+02  0.82212914608E+02  0.10000000000E+01 0.  0.
    9000005    1    3    3    0    0 -0.70667854910E+01 -0.54617718131E+02 -0.39122681168E+01  0.55220833322E+02  0.10000000000E+01 0.  0.
<mgrwt>
<rscale>  0 0.12500140E+03</rscale>
<asrwt>0</asrwt>
<pdfrwt beam="1">  1        4 0.14965667E-01 0.12500140E+03</pdfrwt>
<pdfrwt beam="2">  1       -4 0.61779864E-02 0.12500140E+03</pdfrwt>
<totfact> 0.10186704E+04</totfact>
</mgrwt>
</event>
<event>
 5    1  0.3234540E-002  0.1249985E+03  0.7818608E-02  0.1235072E+00
          4   -1    0    0  501    0  0.00000000000E+00  0.00000000000E+00  0.76539469837E+01  0.77585955191E+01  0.12700000000E+01 0. -1.
         -4   -1    0    0    0  501 -0.00000000000E+00 -0.00000000000E+00 -0.50677477141E+03  0.50677636275E+03  0.12700000000E+01 0. -1.
         25    2    1    2    0    0  0.00000000000E+00  0.00000000000E+00 -0.49912082443E+03  0.51453495827E+03  0.12499850359E+03 0.  0.
    9000005    1    3    3    0    0 -0.31960426773E+00 -0.48854524385E+02 -0.40995414935E+03  0.41285623559E+03  0.10000000000E+01 0.  0.
    9000005    1    3    3    0    0  0.31960426773E+00  0.48854524385E+02 -0.89166675080E+02  0.10167872267E+03  0.10000000000E+01 0.  0.
<mgrwt>
<rscale>  0 0.12499850E+03</rscale>
<asrwt>0</asrwt>
<pdfrwt beam="1">  1        4 0.11857030E-02 0.12499850E+03</pdfrwt>
<pdfrwt beam="2">  1       -4 0.77973496E-01 0.12499850E+03</pdfrwt>
<totfact> 0.54755820E+03</totfact>
</mgrwt>
</event>
<event>
 5    1  0.3234540E-002  0.1250004E+03  0.7818608E-02  0.1235069E+00
          4   -1    0    0  501    0  0.00000000000E+00  0.00000000000E+00  0.83784869780E+02  0.83794494473E+02  0.12700000000E+01 0.  1.
         -4   -1    0    0    0  501 -0.00000000000E+00 -0.00000000000E+00 -0.46601734135E+02  0.46619036073E+02  0.12700000000E+01 0.  1.
         25    2    1    2    0    0  0.00000000000E+00  0.00000000000E+00  0.37183135645E+02  0.13041353055E+03  0.12500041349E+03 0.  0.
    9000005    1    3    3    0    0  0.41025325470E+02  0.27913658379E+02  0.58223779533E+02  0.76506588978E+02  0.10000000000E+01 0.  0.
    9000005    1    3    3    0    0 -0.41025325470E+02 -0.27913658379E+02 -0.21040643888E+02  0.53906941568E+02  0.10000000000E+01 0.  0.
<mgrwt>
<rscale>  0 0.12500041E+03</rscale>
<asrwt>0</asrwt>
<pdfrwt beam="1">  1        4 0.12892051E-01 0.12500041E+03</pdfrwt>
<pdfrwt beam="2">  1       -4 0.71715689E-02 0.12500041E+03</pdfrwt>
<totfact> 0.10335573E+04</totfact>
</mgrwt>
</event>
<event>
 5    1  0.3234540E-002  0.1249999E+03  0.7818608E-02  0.1235069E+00
         -4   -1    0    0    0  501 -0.00000000000E+00  0.00000000000E+00  0.22851355132E+03  0.22851708040E+03  0.12700000000E+01 0. -1.
          4   -1    0    0  501    0  0.00000000000E+00 -0.00000000000E+00 -0.17066898752E+02  0.17114085807E+02  0.12700000000E+01 0. -1.
         25    2    1    2    0    0  0.00000000000E+00  0.00000000000E+00  0.21144665256E+03  0.24563116621E+03  0.12499993173E+03 0.  0.
    9000005    1    3    3    0    0 -0.33448321753E+02  0.51729787192E+02  0.12637829832E+03  0.14059600065E+03  0.10000000000E+01 0.  0.
    9000005    1    3    3    0    0  0.33448321753E+02 -0.51729787192E+02  0.85068354239E+02  0.10503516556E+03  0.10000000000E+01 0.  0.
<mgrwt>
<rscale>  0 0.12499993E+03</rscale>
<asrwt>0</asrwt>
<pdfrwt beam="2">  1        4 0.26295781E-02 0.12499993E+03</pdfrwt>
<pdfrwt beam="1">  1       -4 0.35159831E-01 0.12499993E+03</pdfrwt>
<totfact> 0.82965915E+03</totfact>
</mgrwt>
</event>
<event>
 5    1  0.3234540E-002  0.1250105E+03  0.7818608E-02  0.1235053E+00
         -4   -1    0    0    0  501 -0.00000000000E+00  0.00000000000E+00  0.15873121725E+02  0.15923846686E+02  0.12700000000E+01 0. -1.
          4   -1    0    0  501    0  0.00000000000E+00 -0.00000000000E+00 -0.24568835465E+03  0.24569163704E+03  0.12700000000E+01 0. -1.
         25    2    1    2    0    0  0.00000000000E+00  0.00000000000E+00 -0.22981523293E+03  0.26161548372E+03  0.12501047972E+03 0.  0.
    9000005    1    3    3    0    0  0.46408057746E+01  0.27288852307E+02 -0.23217039032E+03  0.23381682720E+03  0.10000000000E+01 0.  0.
    9000005    1    3    3    0    0 -0.46408057746E+01 -0.27288852307E+02  0.23551573949E+01  0.27798656529E+02  0.10000000000E+01 0.  0.
<mgrwt>
<rscale>  0 0.12501048E+03</rscale>
<asrwt>0</asrwt>
<pdfrwt beam="2">  1        4 0.37802360E-01 0.12501048E+03</pdfrwt>
<pdfrwt beam="1">  1       -4 0.24461733E-02 0.12501048E+03</pdfrwt>
<totfact> 0.80661069E+03</totfact>
</mgrwt>
</event>
<event>
 5    1  0.3234540E-002  0.1250009E+03  0.7818608E-02  0.1235068E+00
         -4   -1    0    0    0  501 -0.00000000000E+00  0.00000000000E+00  0.57109468992E+01  0.58504542119E+01  0.12700000000E+01 0. -1.
          4   -1    0    0  501    0  0.00000000000E+00 -0.00000000000E+00 -0.67560899175E+03  0.67561018541E+03  0.12700000000E+01 0. -1.
         25    2    1    2    0    0  0.00000000000E+00  0.00000000000E+00 -0.66989804485E+03  0.68146063963E+03  0.12500085145E+03 0.  0.
    9000005    1    3    3    0    0  0.54433945781E+02  0.28064743193E+02 -0.40273801314E+03  0.40736910964E+03  0.10000000000E+01 0.  0.
    9000005    1    3    3    0    0 -0.54433945781E+02 -0.28064743193E+02 -0.26716003172E+03  0.27409152999E+03  0.10000000000E+01 0.  0.
<mgrwt>
<rscale>  0 0.12500085E+03</rscale>
<asrwt>0</asrwt>
<pdfrwt beam="2">  1        4 0.10395061E+00 0.12500085E+03</pdfrwt>
<pdfrwt beam="1">  1       -4 0.88943090E-03 0.12500085E+03</pdfrwt>
<totfact> 0.44082801E+03</totfact>
</mgrwt>
</event>
<event>
 5    1  0.3234540E-002  0.1249991E+03  0.7818608E-02  0.1235071E+00
          4   -1    0    0  501    0  0.00000000000E+00  0.00000000000E+00  0.34513839382E+03  0.34514073041E+03  0.12700000000E+01 0.  1.
         -4   -1    0    0    0  501 -0.00000000000E+00 -0.00000000000E+00 -0.11279748899E+02  0.11351019128E+02  0.12700000000E+01 0.  1.
         25    2    1    2    0    0  0.00000000000E+00  0.00000000000E+00  0.33385864492E+03  0.35649174954E+03  0.12499909080E+03 0.  0.
    9000005    1    3    3    0    0  0.93586595617E+01  0.28226814781E+02  0.32367934490E+03  0.32504408300E+03  0.10000000000E+01 0.  0.
    9000005    1    3    3    0    0 -0.93586595617E+01 -0.28226814781E+02  0.10179300020E+02  0.31447666533E+02  0.10000000000E+01 0.  0.
<mgrwt>
<rscale>  0 0.12499909E+03</rscale>
<asrwt>0</asrwt>
<pdfrwt beam="1">  1        4 0.53103871E-01 0.12499909E+03</pdfrwt>
<pdfrwt beam="2">  1       -4 0.17410082E-02 0.12499909E+03</pdfrwt>
<totfact> 0.69017630E+03</totfact>
</mgrwt>
</event>
<event>
 5    1  0.3234540E-002  0.1249947E+03  0.7818608E-02  0.1235078E+00
          4   -1    0    0  501    0  0.00000000000E+00  0.00000000000E+00  0.36949578956E+02  0.36971398202E+02  0.12700000000E+01 0. -1.
         -4   -1    0    0    0  501 -0.00000000000E+00 -0.00000000000E+00 -0.10565260471E+03  0.10566023746E+03  0.12700000000E+01 0. -1.
         25    2    1    2    0    0  0.00000000000E+00  0.00000000000E+00 -0.68703025750E+02  0.14263163567E+03  0.12499471087E+03 0.  0.
    9000005    1    3    3    0    0  0.13418980130E+02  0.60815938383E+02 -0.40200372318E+02  0.74133105450E+02  0.10000000000E+01 0.  0.
    9000005    1    3    3    0    0 -0.13418980130E+02 -0.60815938383E+02 -0.28502653432E+02  0.68498530217E+02  0.10000000000E+01 0.  0.
<mgrwt>
<rscale>  0 0.12499471E+03</rscale>
<asrwt>0</asrwt>
<pdfrwt beam="1">  1        4 0.56868162E-02 0.12499471E+03</pdfrwt>
<pdfrwt beam="2">  1       -4 0.16256512E-01 0.12499471E+03</pdfrwt>
<totfact> 0.10080533E+04</totfact>
</mgrwt>
</event>
<event>
 5    1  0.3234540E-002  0.1250016E+03  0.7818608E-02  0.1235067E+00
         -4   -1    0    0    0  501 -0.00000000000E+00  0.00000000000E+00  0.46148806182E+02  0.46166277867E+02  0.12700000000E+01 0. -1.
          4   -1    0    0  501    0  0.00000000000E+00 -0.00000000000E+00 -0.84608574768E+02  0.84618105771E+02  0.12700000000E+01 0. -1.
         25    2    1    2    0    0  0.00000000000E+00  0.00000000000E+00 -0.38459768585E+02  0.13078438364E+03  0.12500160480E+03 0.  0.
    9000005    1    3    3    0    0 -0.56669541160E+02  0.67762551708E+01 -0.45863270532E+02  0.73224272706E+02  0.10000000000E+01 0.  0.
    9000005    1    3    3    0    0  0.56669541160E+02 -0.67762551708E+01  0.74035019464E+01  0.57560110932E+02  0.10000000000E+01 0.  0.
<mgrwt>
<rscale>  0 0.12500160E+03</rscale>
<asrwt>0</asrwt>
<pdfrwt beam="2">  1        4 0.13018781E-01 0.12500160E+03</pdfrwt>
<pdfrwt beam="1">  1       -4 0.71018935E-02 0.12500160E+03</pdfrwt>
<totfact> 0.10327340E+04</totfact>
</mgrwt>
</event>
<event>
 5    1  0.3234540E-002  0.1249998E+03  0.7818608E-02  0.1235070E+00
         -4   -1    0    0    0  501 -0.00000000000E+00  0.00000000000E+00  0.14302227460E+03  0.14302791312E+03  0.12700000000E+01 0. -1.
          4   -1    0    0  501    0  0.00000000000E+00 -0.00000000000E+00 -0.27291144020E+02  0.27320677918E+02  0.12700000000E+01 0. -1.
         25    2    1    2    0    0  0.00000000000E+00  0.00000000000E+00  0.11573113058E+03  0.17034859104E+03  0.12499979153E+03 0.  0.
    9000005    1    3    3    0    0  0.18747836027E+02 -0.24941958055E+02  0.13165354826E+03  0.13530424752E+03  0.10000000000E+01 0.  0.
    9000005    1    3    3    0    0 -0.18747836027E+02  0.24941958055E+02 -0.15922417686E+02  0.35044343514E+02  0.10000000000E+01 0.  0.
<mgrwt>
<rscale>  0 0.12499979E+03</rscale>
<asrwt>0</asrwt>
<pdfrwt beam="2">  1        4 0.42013431E-02 0.12499979E+03</pdfrwt>
<pdfrwt beam="1">  1       -4 0.22006133E-01 0.12499979E+03</pdfrwt>
<totfact> 0.95384150E+03</totfact>
</mgrwt>
</event>
<event>
 5    1  0.3234540E-002  0.1250033E+03  0.7818608E-02  0.1235064E+00
         -4   -1    0    0    0  501 -0.00000000000E+00  0.00000000000E+00  0.52664071286E+02  0.52679382157E+02  0.12700000000E+01 0.  1.
          4   -1    0    0  501    0  0.00000000000E+00 -0.00000000000E+00 -0.74145393344E+02  0.74156269149E+02  0.12700000000E+01 0.  1.
         25    2    1    2    0    0  0.00000000000E+00  0.00000000000E+00 -0.21481322058E+02  0.12683565131E+03  0.12500334093E+03 0.  0.
    9000005    1    3    3    0    0 -0.61420904668E+02 -0.11062946965E+02 -0.14035174042E+02  0.63975795706E+02  0.10000000000E+01 0.  0.
    9000005    1    3    3    0    0  0.61420904668E+02  0.11062946965E+02 -0.74461480162E+01  0.62859855600E+02  0.10000000000E+01 0.  0.
<mgrwt>
<rscale>  0 0.12500334E+03</rscale>
<asrwt>0</asrwt>
<pdfrwt beam="2">  1        4 0.11408998E-01 0.12500334E+03</pdfrwt>
<pdfrwt beam="1">  1       -4 0.81041792E-02 0.12500334E+03</pdfrwt>
<totfact> 0.10411933E+04</totfact>
</mgrwt>
</event>
<event>
 5    1  0.3234540E-002  0.1249995E+03  0.7818608E-02  0.1235070E+00
          4   -1    0    0  501    0  0.00000000000E+00  0.00000000000E+00  0.36179752472E+03  0.36179975372E+03  0.12700000000E+01 0.  1.
         -4   -1    0    0    0  501 -0.00000000000E+00 -0.00000000000E+00 -0.10757086474E+02  0.10831796223E+02  0.12700000000E+01 0.  1.
         25    2    1    2    0    0  0.00000000000E+00  0.00000000000E+00  0.35104043825E+03  0.37263154995E+03  0.12499953092E+03 0.  0.
    9000005    1    3    3    0    0 -0.53424017471E+02 -0.12051745488E+02  0.26524233294E+03  0.27083918733E+03  0.10000000000E+01 0.  0.
    9000005    1    3    3    0    0  0.53424017471E+02  0.12051745488E+02  0.85798105306E+02  0.10179236261E+03  0.10000000000E+01 0.  0.
<mgrwt>
<rscale>  0 0.12499953E+03</rscale>
<asrwt>0</asrwt>
<pdfrwt beam="1">  1        4 0.55667081E-01 0.12499953E+03</pdfrwt>
<pdfrwt beam="2">  1       -4 0.16608546E-02 0.12499953E+03</pdfrwt>
<totfact> 0.67305216E+03</totfact>
</mgrwt>
</event>
<event>
 5    1  0.3234540E-002  0.1250075E+03  0.7818608E-02  0.1235058E+00
          4   -1    0    0  501    0  0.00000000000E+00  0.00000000000E+00  0.54325368410E+01  0.55790103539E+01  0.12700000000E+01 0.  1.
         -4   -1    0    0    0  501 -0.00000000000E+00 -0.00000000000E+00 -0.70942045861E+03  0.70942159539E+03  0.12700000000E+01 0.  1.
         25    2    1    2    0    0  0.00000000000E+00  0.00000000000E+00 -0.70398792177E+03  0.71500060574E+03  0.12500748860E+03 0.  0.
    9000005    1    3    3    0    0 -0.58743465541E+02 -0.11390214562E+02 -0.24885173179E+03  0.25594670567E+03  0.10000000000E+01 0.  0.
    9000005    1    3    3    0    0  0.58743465541E+02  0.11390214562E+02 -0.45513618998E+03  0.45905390007E+03  0.10000000000E+01 0.  0.
<mgrwt>
<rscale>  0 0.12500749E+03</rscale>
<asrwt>0</asrwt>
<pdfrwt beam="1">  1        4 0.84713010E-03 0.12500749E+03</pdfrwt>
<pdfrwt beam="2">  1       -4 0.10915289E+00 0.12500749E+03</pdfrwt>
<totfact> 0.42299669E+03</totfact>
</mgrwt>
</event>
<event>
 5    1  0.3234540E-002  0.1250004E+03  0.7818608E-02  0.1235069E+00
          4   -1    0    0  501    0  0.00000000000E+00  0.00000000000E+00  0.11842396706E+02  0.11910300574E+02  0.12700000000E+01 0. -1.
         -4   -1    0    0    0  501 -0.00000000000E+00 -0.00000000000E+00 -0.32884318780E+03  0.32884564018E+03  0.12700000000E+01 0. -1.
         25    2    1    2    0    0  0.00000000000E+00  0.00000000000E+00 -0.31700079109E+03  0.34075594075E+03  0.12500043841E+03 0.  0.
    9000005    1    3    3    0    0  0.20298205018E+01 -0.51580771638E+02 -0.62484198155E+02  0.81055358818E+02  0.10000000000E+01 0.  0.
    9000005    1    3    3    0    0 -0.20298205018E+01  0.51580771638E+02 -0.25451659294E+03  0.25970058193E+03  0.10000000000E+01 0.  0.
<mgrwt>
<rscale>  0 0.12500044E+03</rscale>
<asrwt>0</asrwt>
<pdfrwt beam="1">  1        4 0.18273195E-02 0.12500044E+03</pdfrwt>
<pdfrwt beam="2">  1       -4 0.50596665E-01 0.12500044E+03</pdfrwt>
<totfact> 0.70752948E+03</totfact>
</mgrwt>
</event>
<event>
 5    1  0.3234540E-002  0.1249997E+03  0.7818608E-02  0.1235070E+00
          4   -1    0    0  501    0  0.00000000000E+00  0.00000000000E+00  0.32275166094E+01  0.34683949406E+01  0.12700000000E+01 0. -1.
         -4   -1    0    0    0  501 -0.00000000000E+00 -0.00000000000E+00 -0.11665092611E+04  0.11665099524E+04  0.12700000000E+01 0. -1.
         25    2    1    2    0    0  0.00000000000E+00  0.00000000000E+00 -0.11632817445E+04  0.11699783473E+04  0.12499966506E+03 0.  0.
    9000005    1    3    3    0    0 -0.34693650096E+02  0.51851783963E+02 -0.61535220651E+03  0.61850755445E+03  0.10000000000E+01 0.  0.
    9000005    1    3    3    0    0  0.34693650096E+02 -0.51851783963E+02 -0.54792953794E+03  0.55147079289E+03  0.10000000000E+01 0.  0.
<mgrwt>
<rscale>  0 0.12499967E+03</rscale>
<asrwt>0</asrwt>
<pdfrwt beam="1">  1        4 0.51512423E-03 0.12499967E+03</pdfrwt>
<pdfrwt beam="2">  1       -4 0.17948122E+00 0.12499967E+03</pdfrwt>
<totfact> 0.25512607E+03</totfact>
</mgrwt>
</event>
<event>
 5    1  0.3234540E-002  0.1249996E+03  0.7818608E-02  0.1235070E+00
         -4   -1    0    0    0  501 -0.00000000000E+00  0.00000000000E+00  0.40189787657E+02  0.40209848693E+02  0.12700000000E+01 0.  1.
          4   -1    0    0  501    0  0.00000000000E+00 -0.00000000000E+00 -0.97145927168E+02  0.97154228242E+02  0.12700000000E+01 0.  1.
         25    2    1    2    0    0  0.00000000000E+00  0.00000000000E+00 -0.56956139510E+02  0.13736407693E+03  0.12499955122E+03 0.  0.
    9000005    1    3    3    0    0  0.22234389240E+02 -0.58350360524E+02 -0.25766324660E+02  0.67557650378E+02  0.10000000000E+01 0.  0.
    9000005    1    3    3    0    0 -0.22234389240E+02  0.58350360524E+02 -0.31189814851E+02  0.69806426557E+02  0.10000000000E+01 0.  0.
<mgrwt>
<rscale>  0 0.12499955E+03</rscale>
<asrwt>0</asrwt>
<pdfrwt beam="2">  1        4 0.14947709E-01 0.12499955E+03</pdfrwt>
<pdfrwt beam="1">  1       -4 0.61852260E-02 0.12499955E+03</pdfrwt>
<totfact> 0.10188582E+04</totfact>
</mgrwt>
</event>
<event>
 5    1  0.3234540E-002  0.1249997E+03  0.7818608E-02  0.1235070E+00
          4   -1    0    0  501    0  0.00000000000E+00  0.00000000000E+00  0.22554918557E+03  0.22555276103E+03  0.12700000000E+01 0.  1.
         -4   -1    0    0    0  501 -0.00000000000E+00 -0.00000000000E+00 -0.17291747861E+02  0.17338322990E+02  0.12700000000E+01 0.  1.
         25    2    1    2    0    0  0.00000000000E+00  0.00000000000E+00  0.20825743771E+03  0.24289108402E+03  0.12499967335E+03 0.  0.
    9000005    1    3    3    0    0 -0.34514664658E+02 -0.23857258839E+02  0.19411907380E+03  0.19860424388E+03  0.10000000000E+01 0.  0.
    9000005    1    3    3    0    0  0.34514664658E+02  0.23857258839E+02  0.14138363907E+02  0.44286840141E+02  0.10000000000E+01 0.  0.
<mgrwt>
<rscale>  0 0.12499967E+03</rscale>
<asrwt>0</asrwt>
<pdfrwt beam="1">  1        4 0.34703733E-01 0.12499967E+03</pdfrwt>
<pdfrwt beam="2">  1       -4 0.26641266E-02 0.12499967E+03</pdfrwt>
<totfact> 0.83369273E+03</totfact>
</mgrwt>
</event>
<event>
 5    1  0.3234540E-002  0.1249950E+03  0.7818608E-02  0.1235077E+00
         -4   -1    0    0    0  501 -0.00000000000E+00  0.00000000000E+00  0.16697964429E+02  0.16746191091E+02  0.12700000000E+01 0. -1.
          4   -1    0    0  501    0  0.00000000000E+00 -0.00000000000E+00 -0.23352980331E+03  0.23353325660E+03  0.12700000000E+01 0. -1.
         25    2    1    2    0    0  0.00000000000E+00  0.00000000000E+00 -0.21683183889E+03  0.25027944769E+03  0.12499502222E+03 0.  0.
    9000005    1    3    3    0    0  0.28620088649E+02 -0.54876082515E+02 -0.91139640674E+02  0.11017226515E+03  0.10000000000E+01 0.  0.
    9000005    1    3    3    0    0 -0.28620088649E+02  0.54876082515E+02 -0.12569219821E+03  0.14010718253E+03  0.10000000000E+01 0.  0.
<mgrwt>
<rscale>  0 0.12499502E+03</rscale>
<asrwt>0</asrwt>
<pdfrwt beam="2">  1        4 0.35931635E-01 0.12499502E+03</pdfrwt>
<pdfrwt beam="1">  1       -4 0.25728932E-02 0.12499502E+03</pdfrwt>
<totfact> 0.82298982E+03</totfact>
</mgrwt>
</event>
<event>
 5    1  0.3234540E-002  0.1250040E+03  0.7818608E-02  0.1235063E+00
         -4   -1    0    0    0  501 -0.00000000000E+00  0.00000000000E+00  0.80161390571E+03  0.80161491174E+03  0.12700000000E+01 0.  1.
          4   -1    0    0  501    0  0.00000000000E+00 -0.00000000000E+00 -0.47895249546E+01  0.49550428142E+01  0.12700000000E+01 0.  1.
         25    2    1    2    0    0  0.00000000000E+00  0.00000000000E+00  0.79682438075E+03  0.80656995455E+03  0.12500399124E+03 0.  0.
    9000005    1    3    3    0    0 -0.24346550991E+02 -0.56975681215E+02  0.45103613302E+03  0.45527307858E+03  0.10000000000E+01 0.  0.
    9000005    1    3    3    0    0  0.24346550991E+02  0.56975681215E+02  0.34578824774E+03  0.35129687597E+03  0.10000000000E+01 0.  0.
<mgrwt>
<rscale>  0 0.12500399E+03</rscale>
<asrwt>0</asrwt>
<pdfrwt beam="2">  1        4 0.74965987E-03 0.12500399E+03</pdfrwt>
<pdfrwt beam="1">  1       -4 0.12333797E+00 0.12500399E+03</pdfrwt>
<totfact> 0.37969807E+03</totfact>
</mgrwt>
</event>
<event>
 5    1  0.3234540E-002  0.1249953E+03  0.7818608E-02  0.1235077E+00
          4   -1    0    0  501    0  0.00000000000E+00  0.00000000000E+00  0.59080141321E+03  0.59080277821E+03  0.12700000000E+01 0. -1.
         -4   -1    0    0    0  501 -0.00000000000E+00 -0.00000000000E+00 -0.65489093881E+01  0.66709155424E+01  0.12700000000E+01 0. -1.
         25    2    1    2    0    0  0.00000000000E+00  0.00000000000E+00  0.58425250382E+03  0.59747369376E+03  0.12499530597E+03 0.  0.
    9000005    1    3    3    0    0 -0.14348348488E+02  0.26381133381E+02  0.55407192815E+03  0.55488606116E+03  0.10000000000E+01 0.  0.
    9000005    1    3    3    0    0  0.14348348488E+02 -0.26381133381E+02  0.30180575667E+02  0.42587632599E+02  0.10000000000E+01 0.  0.
<mgrwt>
<rscale>  0 0.12499531E+03</rscale>
<asrwt>0</asrwt>
<pdfrwt beam="1">  1        4 0.90902031E-01 0.12499531E+03</pdfrwt>
<pdfrwt beam="2">  1       -4 0.10170144E-02 0.12499531E+03</pdfrwt>
<totfact> 0.49032508E+03</totfact>
</mgrwt>
</event>
<event>
 5    1  0.3234540E-002  0.1249989E+03  0.7818608E-02  0.1235071E+00
          4   -1    0    0  501    0  0.00000000000E+00  0.00000000000E+00  0.90835318436E+02  0.90844196156E+02  0.12700000000E+01 0.  1.
         -4   -1    0    0    0  501 -0.00000000000E+00 -0.00000000000E+00 -0.42982503822E+02  0.43001262014E+02  0.12700000000E+01 0.  1.
         25    2    1    2    0    0  0.00000000000E+00  0.00000000000E+00  0.47852814614E+02  0.13384545817E+03  0.12499885922E+03 0.  0.
    9000005    1    3    3    0    0  0.54670699510E+02 -0.25990457549E+02  0.40542017743E+02  0.72863190097E+02  0.10000000000E+01 0.  0.
    9000005    1    3    3    0    0 -0.54670699510E+02  0.25990457549E+02  0.73107968702E+01  0.60982268073E+02  0.10000000000E+01 0.  0.
<mgrwt>
<rscale>  0 0.12499886E+03</rscale>
<asrwt>0</asrwt>
<pdfrwt beam="1">  1        4 0.13976790E-01 0.12499886E+03</pdfrwt>
<pdfrwt beam="2">  1       -4 0.66148188E-02 0.12499886E+03</pdfrwt>
<totfact> 0.10262727E+04</totfact>
</mgrwt>
</event>
<event>
 5    1  0.3234540E-002  0.1250007E+03  0.7818608E-02  0.1235068E+00
         -4   -1    0    0    0  501 -0.00000000000E+00  0.00000000000E+00  0.24222721930E+02  0.24255992202E+02  0.12700000000E+01 0.  1.
          4   -1    0    0  501    0  0.00000000000E+00 -0.00000000000E+00 -0.16111912622E+03  0.16112413145E+03  0.12700000000E+01 0.  1.
         25    2    1    2    0    0  0.00000000000E+00  0.00000000000E+00 -0.13689640429E+03  0.18538012365E+03  0.12500065894E+03 0.  0.
    9000005    1    3    3    0    0 -0.30842039870E+02 -0.32902392106E+02 -0.42910772151E+01  0.45312384326E+02  0.10000000000E+01 0.  0.
    9000005    1    3    3    0    0  0.30842039870E+02  0.32902392106E+02 -0.13260532708E+03  0.14006773932E+03  0.10000000000E+01 0.  0.
<mgrwt>
<rscale>  0 0.12500066E+03</rscale>
<asrwt>0</asrwt>
<pdfrwt beam="2">  1        4 0.24790501E-01 0.12500066E+03</pdfrwt>
<pdfrwt beam="1">  1       -4 0.37295170E-02 0.12500066E+03</pdfrwt>
<totfact> 0.92656062E+03</totfact>
</mgrwt>
</event>
<event>
 5    1  0.3234540E-002  0.1250009E+03  0.7818608E-02  0.1235068E+00
          4   -1    0    0  501    0  0.00000000000E+00  0.00000000000E+00  0.71749938091E+01  0.72865242853E+01  0.12700000000E+01 0. -1.
         -4   -1    0    0    0  501 -0.00000000000E+00 -0.00000000000E+00 -0.54012262748E+03  0.54012412056E+03  0.12700000000E+01 0. -1.
         25    2    1    2    0    0  0.00000000000E+00  0.00000000000E+00 -0.53294763367E+03  0.54741064485E+03  0.12500093544E+03 0.  0.
    9000005    1    3    3    0    0 -0.61678856774E+02 -0.39633639471E+01 -0.22602345211E+03  0.23432368751E+03  0.10000000000E+01 0.  0.
    9000005    1    3    3    0    0  0.61678856774E+02  0.39633639471E+01 -0.30692418156E+03  0.31308695733E+03  0.10000000000E+01 0.  0.
<mgrwt>
<rscale>  0 0.12500094E+03</rscale>
<asrwt>0</asrwt>
<pdfrwt beam="1">  1        4 0.11125397E-02 0.12500094E+03</pdfrwt>
<pdfrwt beam="2">  1       -4 0.83104451E-01 0.12500094E+03</pdfrwt>
<totfact> 0.52363824E+03</totfact>
</mgrwt>
</event>
<event>
 5    1  0.3234540E-002  0.1249989E+03  0.7818608E-02  0.1235071E+00
         -4   -1    0    0    0  501 -0.00000000000E+00  0.00000000000E+00  0.47111340656E+02  0.47128455506E+02  0.12700000000E+01 0.  1.
          4   -1    0    0  501    0  0.00000000000E+00 -0.00000000000E+00 -0.82876836189E+02  0.82886566322E+02  0.12700000000E+01 0.  1.
         25    2    1    2    0    0  0.00000000000E+00  0.00000000000E+00 -0.35765495533E+02  0.13001502183E+03  0.12499894092E+03 0.  0.
    9000005    1    3    3    0    0 -0.55522395289E+02  0.26250897426E+02 -0.29893324553E+02  0.68311469367E+02  0.10000000000E+01 0.  0.
    9000005    1    3    3    0    0  0.55522395289E+02 -0.26250897426E+02 -0.58721709797E+01  0.61703552461E+02  0.10000000000E+01 0.  0.
<mgrwt>
<rscale>  0 0.12499894E+03</rscale>
<asrwt>0</asrwt>
<pdfrwt beam="2">  1        4 0.12752347E-01 0.12499894E+03</pdfrwt>
<pdfrwt beam="1">  1       -4 0.72499636E-02 0.12499894E+03</pdfrwt>
<totfact> 0.10344433E+04</totfact>
</mgrwt>
</event>
<event>
 5    1  0.3234540E-002  0.1250052E+03  0.7818608E-02  0.1235061E+00
          4   -1    0    0  501    0  0.00000000000E+00  0.00000000000E+00  0.24104819974E+02  0.24138252753E+02  0.12700000000E+01 0.  1.
         -4   -1    0    0    0  501 -0.00000000000E+00 -0.00000000000E+00 -0.16191794791E+03  0.16192292844E+03  0.12700000000E+01 0.  1.
         25    2    1    2    0    0  0.00000000000E+00  0.00000000000E+00 -0.13781312794E+03  0.18606118120E+03  0.12500521956E+03 0.  0.
    9000005    1    3    3    0    0 -0.57849539306E+02 -0.13187083135E+02 -0.98115707525E+02  0.11466542819E+03  0.10000000000E+01 0.  0.
    9000005    1    3    3    0    0  0.57849539306E+02  0.13187083135E+02 -0.39697420411E+02  0.71395753003E+02  0.10000000000E+01 0.  0.
<mgrwt>
<rscale>  0 0.12500522E+03</rscale>
<asrwt>0</asrwt>
<pdfrwt beam="1">  1        4 0.37113888E-02 0.12500522E+03</pdfrwt>
<pdfrwt beam="2">  1       -4 0.24913408E-01 0.12500522E+03</pdfrwt>
<totfact> 0.92526387E+03</totfact>
</mgrwt>
</event>
<event>
 4    1  0.3234540E-002  0.1251962E+03  0.7818608E-02  0.1234763E+00
         -4   -1    0    0    0  501 -0.00000000000E+00  0.00000000000E+00  0.54590236945E+02  0.54605007734E+02  0.12700000000E+01 0. -1.
          4   -1    0    0  501    0  0.00000000000E+00 -0.00000000000E+00 -0.71750587847E+02  0.71761826595E+02  0.12700000000E+01 0. -1.
    9000005    1    1    2    0    0 -0.24301189504E+01 -0.42371145415E+02 -0.55013627907E+02  0.69488982561E+02  0.10000000000E+01 0.  0.
    9000005    1    1    2    0    0  0.24301189504E+01  0.42371145415E+02  0.37853277005E+02  0.56877851769E+02  0.10000000000E+01 0.  0.
<mgrwt>
<rscale>  0 0.12519624E+03</rscale>
<asrwt>0</asrwt>
<pdfrwt beam="2">  1        4 0.11040553E-01 0.12519624E+03</pdfrwt>
<pdfrwt beam="1">  1       -4 0.84004987E-02 0.12519624E+03</pdfrwt>
<totfact> 0.10376904E+04</totfact>
</mgrwt>
</event>
<event>
 5    1  0.3234540E-002  0.1250013E+03  0.7818608E-02  0.1235067E+00
         -4   -1    0    0    0  501 -0.00000000000E+00  0.00000000000E+00  0.49592765022E+02  0.49609023802E+02  0.12700000000E+01 0. -1.
          4   -1    0    0  501    0  0.00000000000E+00 -0.00000000000E+00 -0.78733816457E+02  0.78744058531E+02  0.12700000000E+01 0. -1.
         25    2    1    2    0    0  0.00000000000E+00  0.00000000000E+00 -0.29141051435E+02  0.12835308233E+03  0.12500125146E+03 0.  0.
    9000005    1    3    3    0    0  0.27458655129E+01  0.52009914594E+02  0.20891861620E+02  0.56125224948E+02  0.10000000000E+01 0.  0.
    9000005    1    3    3    0    0 -0.27458655129E+01 -0.52009914594E+02 -0.50032913055E+02  0.72227857384E+02  0.10000000000E+01 0.  0.
<mgrwt>
<rscale>  0 0.12500125E+03</rscale>
<asrwt>0</asrwt>
<pdfrwt beam="2">  1        4 0.12114933E-01 0.12500125E+03</pdfrwt>
<pdfrwt beam="1">  1       -4 0.76316947E-02 0.12500125E+03</pdfrwt>
<totfact> 0.10379576E+04</totfact>
</mgrwt>
</event>
<event>
 5    1  0.3234540E-002  0.1249977E+03  0.7818608E-02  0.1235073E+00
         -4   -1    0    0    0  501 -0.00000000000E+00  0.00000000000E+00  0.22338111271E+03  0.22338472287E+03  0.12700000000E+01 0. -1.
          4   -1    0    0  501    0  0.00000000000E+00 -0.00000000000E+00 -0.17459482754E+02  0.17505611615E+02  0.12700000000E+01 0. -1.
         25    2    1    2    0    0  0.00000000000E+00  0.00000000000E+00  0.20592162995E+03  0.24089033449E+03  0.12499774225E+03 0.  0.
    9000005    1    3    3    0    0  0.10471482216E+02 -0.39896156412E+02  0.12492036002E+02  0.43109235666E+02  0.10000000000E+01 0.  0.
    9000005    1    3    3    0    0 -0.10471482216E+02  0.39896156412E+02  0.19342959395E+03  0.19778109882E+03  0.10000000000E+01 0.  0.
<mgrwt>
<rscale>  0 0.12499774E+03</rscale>
<asrwt>0</asrwt>
<pdfrwt beam="2">  1        4 0.26899004E-02 0.12499774E+03</pdfrwt>
<pdfrwt beam="1">  1       -4 0.34370150E-01 0.12499774E+03</pdfrwt>
<totfact> 0.83669157E+03</totfact>
</mgrwt>
</event>
<event>
 5    1  0.3234540E-002  0.1249896E+03  0.7818608E-02  0.1235086E+00
         -4   -1    0    0    0  501 -0.00000000000E+00  0.00000000000E+00  0.34492579793E+03  0.34492813596E+03  0.12700000000E+01 0.  1.
          4   -1    0    0  501    0  0.00000000000E+00 -0.00000000000E+00 -0.11285015935E+02  0.11356253108E+02  0.12700000000E+01 0.  1.
         25    2    1    2    0    0  0.00000000000E+00  0.00000000000E+00  0.33364078199E+03  0.35628438907E+03  0.12498957750E+03 0.  0.
    9000005    1    3    3    0    0  0.27764870900E+02 -0.78464727118E+01  0.88252474887E+01  0.30188411408E+02  0.10000000000E+01 0.  0.
    9000005    1    3    3    0    0 -0.27764870900E+02  0.78464727118E+01  0.32481553451E+03  0.32609597766E+03  0.10000000000E+01 0.  0.
<mgrwt>
<rscale>  0 0.12498958E+03</rscale>
<asrwt>0</asrwt>
<pdfrwt beam="2">  1        4 0.17418163E-02 0.12498958E+03</pdfrwt>
<pdfrwt beam="1">  1       -4 0.53071156E-01 0.12498958E+03</pdfrwt>
<totfact> 0.69054612E+03</totfact>
</mgrwt>
</event>
<event>
 5    1  0.3234540E-002  0.1250008E+03  0.7818608E-02  0.1235068E+00
          4   -1    0    0  501    0  0.00000000000E+00  0.00000000000E+00  0.33082024088E+01  0.35436003129E+01  0.12700000000E+01 0. -1.
         -4   -1    0    0    0  501 -0.00000000000E+00 -0.00000000000E+00 -0.11399897063E+04  0.11399904138E+04  0.12700000000E+01 0. -1.
         25    2    1    2    0    0  0.00000000000E+00  0.00000000000E+00 -0.11366815039E+04  0.11435340141E+04  0.12500079983E+03 0.  0.
    9000005    1    3    3    0    0 -0.52724655467E+02 -0.21478409297E+02 -0.33259204607E+03  0.33743100105E+03  0.10000000000E+01 0.  0.
    9000005    1    3    3    0    0  0.52724655467E+02  0.21478409297E+02 -0.80408945787E+03  0.80610301303E+03  0.10000000000E+01 0.  0.
<mgrwt>
<rscale>  0 0.12500080E+03</rscale>
<asrwt>0</asrwt>
<pdfrwt beam="1">  1        4 0.52711707E-03 0.12500080E+03</pdfrwt>
<pdfrwt beam="2">  1       -4 0.17540089E+00 0.12500080E+03</pdfrwt>
<totfact> 0.26239919E+03</totfact>
</mgrwt>
</event>
<event>
 5    1  0.3234540E-002  0.1249956E+03  0.7818608E-02  0.1235076E+00
          4   -1    0    0  501    0  0.00000000000E+00  0.00000000000E+00  0.32015284162E+03  0.32015536056E+03  0.12700000000E+01 0.  1.
         -4   -1    0    0    0  501 -0.00000000000E+00 -0.00000000000E+00 -0.12164726710E+02  0.12230841178E+02  0.12700000000E+01 0.  1.
         25    2    1    2    0    0  0.00000000000E+00  0.00000000000E+00  0.30798811491E+03  0.33238620174E+03  0.12499563265E+03 0.  0.
    9000005    1    3    3    0    0  0.55731157090E+02 -0.88969533778E+01  0.22534044465E+03  0.23230246156E+03  0.10000000000E+01 0.  0.
    9000005    1    3    3    0    0 -0.55731157090E+02  0.88969533778E+01  0.82647670257E+02  0.10008374018E+03  0.10000000000E+01 0.  0.
<mgrwt>
<rscale>  0 0.12499563E+03</rscale>
<asrwt>0</asrwt>
<pdfrwt beam="1">  1        4 0.49259564E-01 0.12499563E+03</pdfrwt>
<pdfrwt beam="2">  1       -4 0.18767759E-02 0.12499563E+03</pdfrwt>
<totfact> 0.71713706E+03</totfact>
</mgrwt>
</event>
<event>
 5    1  0.3234540E-002  0.1249980E+03  0.7818608E-02  0.1235072E+00
          4   -1    0    0  501    0  0.00000000000E+00  0.00000000000E+00  0.63780673732E+02  0.63793316592E+02  0.12700000000E+01 0.  1.
         -4   -1    0    0    0  501 -0.00000000000E+00 -0.00000000000E+00 -0.61217770024E+02  0.61230942069E+02  0.12700000000E+01 0.  1.
         25    2    1    2    0    0  0.00000000000E+00  0.00000000000E+00  0.25629037086E+01  0.12502425866E+03  0.12499798710E+03 0.  0.
    9000005    1    3    3    0    0  0.45763583155E+02 -0.40874026637E+02 -0.10558797682E+02  0.62269413079E+02  0.10000000000E+01 0.  0.
    9000005    1    3    3    0    0 -0.45763583155E+02  0.40874026637E+02  0.13121701391E+02  0.62754845582E+02  0.10000000000E+01 0.  0.
<mgrwt>
<rscale>  0 0.12499799E+03</rscale>
<asrwt>0</asrwt>
<pdfrwt beam="1">  1        4 0.98143972E-02 0.12499799E+03</pdfrwt>
<pdfrwt beam="2">  1       -4 0.94201042E-02 0.12499799E+03</pdfrwt>
<totfact> 0.10452811E+04</totfact>
</mgrwt>
</event>
<event>
 5    1  0.3234540E-002  0.1249977E+03  0.7818608E-02  0.1235073E+00
          4   -1    0    0  501    0  0.00000000000E+00  0.00000000000E+00  0.67037882184E+01  0.68230254636E+01  0.12700000000E+01 0.  1.
         -4   -1    0    0    0  501 -0.00000000000E+00 -0.00000000000E+00 -0.57741565079E+03  0.57741704744E+03  0.12700000000E+01 0.  1.
         25    2    1    2    0    0  0.00000000000E+00  0.00000000000E+00 -0.57071186257E+03  0.58424007290E+03  0.12499773082E+03 0.  0.
    9000005    1    3    3    0    0 -0.26767399918E+02 -0.30347884536E+02 -0.50792990980E+03  0.50954026442E+03  0.10000000000E+01 0.  0.
    9000005    1    3    3    0    0  0.26767399918E+02  0.30347884536E+02 -0.62781952765E+02  0.74699808481E+02  0.10000000000E+01 0.  0.
<mgrwt>
<rscale>  0 0.12499773E+03</rscale>
<asrwt>0</asrwt>
<pdfrwt beam="1">  1        4 0.10406320E-02 0.12499773E+03</pdfrwt>
<pdfrwt beam="2">  1       -4 0.88842418E-01 0.12499773E+03</pdfrwt>
<totfact> 0.49880276E+03</totfact>
</mgrwt>
</event>
<event>
 5    1  0.3234540E-002  0.1250011E+03  0.7818608E-02  0.1235068E+00
          4   -1    0    0  501    0  0.00000000000E+00  0.00000000000E+00  0.34338657236E+03  0.34338892087E+03  0.12700000000E+01 0.  1.
         -4   -1    0    0    0  501 -0.00000000000E+00 -0.00000000000E+00 -0.11338026819E+02  0.11408932998E+02  0.12700000000E+01 0.  1.
         25    2    1    2    0    0  0.00000000000E+00  0.00000000000E+00  0.33204854554E+03  0.35479785386E+03  0.12500112205E+03 0.  0.
    9000005    1    3    3    0    0  0.32691651603E+01 -0.47277151153E+02  0.28165045357E+03  0.28561126459E+03  0.10000000000E+01 0.  0.
    9000005    1    3    3    0    0 -0.32691651603E+01  0.47277151153E+02  0.50398091963E+02  0.69186589275E+02  0.10000000000E+01 0.  0.
<mgrwt>
<rscale>  0 0.12500112E+03</rscale>
<asrwt>0</asrwt>
<pdfrwt beam="1">  1        4 0.52834342E-01 0.12500112E+03</pdfrwt>
<pdfrwt beam="2">  1       -4 0.17499467E-02 0.12500112E+03</pdfrwt>
<totfact> 0.69198216E+03</totfact>
</mgrwt>
</event>
<event>
 5    1  0.3234540E-002  0.1250161E+03  0.7818608E-02  0.1235044E+00
         -4   -1    0    0    0  501 -0.00000000000E+00  0.00000000000E+00  0.17983153653E+03  0.17983602095E+03  0.12700000000E+01 0. -1.
          4   -1    0    0  501    0  0.00000000000E+00 -0.00000000000E+00 -0.21703985571E+02  0.21741110589E+02  0.12700000000E+01 0. -1.
         25    2    1    2    0    0  0.00000000000E+00  0.00000000000E+00  0.15812755096E+03  0.20157713154E+03  0.12501606931E+03 0.  0.
    9000005    1    3    3    0    0 -0.29465103992E+02 -0.47568141380E+02  0.12396103437E+03  0.13600830294E+03  0.10000000000E+01 0.  0.
    9000005    1    3    3    0    0  0.29465103992E+02  0.47568141380E+02  0.34166516594E+02  0.65568828598E+02  0.10000000000E+01 0.  0.
<mgrwt>
<rscale>  0 0.12501607E+03</rscale>
<asrwt>0</asrwt>
<pdfrwt beam="2">  1        4 0.33422753E-02 0.12501607E+03</pdfrwt>
<pdfrwt beam="1">  1       -4 0.27669592E-01 0.12501607E+03</pdfrwt>
<totfact> 0.89837885E+03</totfact>
</mgrwt>
</event>
<event>
 5    1  0.3234540E-002  0.1250010E+03  0.7818608E-02  0.1235068E+00
          4   -1    0    0  501    0  0.00000000000E+00  0.00000000000E+00  0.31052939591E+02  0.31078898907E+02  0.12700000000E+01 0. -1.
         -4   -1    0    0    0  501 -0.00000000000E+00 -0.00000000000E+00 -0.12571359261E+03  0.12572000743E+03  0.12700000000E+01 0. -1.
         25    2    1    2    0    0  0.00000000000E+00  0.00000000000E+00 -0.94660653021E+02  0.15679890633E+03  0.12500103118E+03 0.  0.
    9000005    1    3    3    0    0 -0.38875885198E+02  0.21855136840E+02  0.75813776277E+01  0.45248853499E+02  0.10000000000E+01 0.  0.
    9000005    1    3    3    0    0  0.38875885198E+02 -0.21855136840E+02 -0.10224203065E+03  0.11155005283E+03  0.10000000000E+01 0.  0.
<mgrwt>
<rscale>  0 0.12500103E+03</rscale>
<asrwt>0</asrwt>
<pdfrwt beam="1">  1        4 0.47798657E-02 0.12500103E+03</pdfrwt>
<pdfrwt beam="2">  1       -4 0.19343043E-01 0.12500103E+03</pdfrwt>
<totfact> 0.97961233E+03</totfact>
</mgrwt>
</event>
<event>
 4    1  0.3234540E-002  0.1251678E+03  0.7818608E-02  0.1234807E+00
         -4   -1    0    0    0  501 -0.00000000000E+00  0.00000000000E+00  0.62468700883E+02  0.62481609215E+02  0.12700000000E+01 0. -1.
          4   -1    0    0  501    0  0.00000000000E+00 -0.00000000000E+00 -0.62673493081E+02  0.62686359241E+02  0.12700000000E+01 0. -1.
    9000005    1    1    2    0    0 -0.49565239241E+02  0.25159234969E+02 -0.28843425358E+02  0.62631008547E+02  0.10000000000E+01 0.  0.
    9000005    1    1    2    0    0  0.49565239241E+02 -0.25159234969E+02  0.28638633161E+02  0.62536959909E+02  0.10000000000E+01 0.  0.
<mgrwt>
<rscale>  0 0.12516780E+03</rscale>
<asrwt>0</asrwt>
<pdfrwt beam="2">  1        4 0.96440585E-02 0.12516780E+03</pdfrwt>
<pdfrwt beam="1">  1       -4 0.96125520E-02 0.12516780E+03</pdfrwt>
<totfact> 0.10409687E+04</totfact>
</mgrwt>
</event>
<event>
 5    1  0.3234540E-002  0.1249999E+03  0.7818608E-02  0.1235069E+00
         -4   -1    0    0    0  501 -0.00000000000E+00  0.00000000000E+00  0.32789012632E+03  0.32789258582E+03  0.12700000000E+01 0.  1.
          4   -1    0    0  501    0  0.00000000000E+00 -0.00000000000E+00 -0.11876911292E+02  0.11944618949E+02  0.12700000000E+01 0.  1.
         25    2    1    2    0    0  0.00000000000E+00  0.00000000000E+00  0.31601321502E+03  0.33983720477E+03  0.12499989470E+03 0.  0.
    9000005    1    3    3    0    0  0.37895458476E+02 -0.20775085763E+02  0.28072733272E+03  0.28403609859E+03  0.10000000000E+01 0.  0.
    9000005    1    3    3    0    0 -0.37895458476E+02  0.20775085763E+02  0.35285882299E+02  0.55801106182E+02  0.10000000000E+01 0.  0.
<mgrwt>
<rscale>  0 0.12499989E+03</rscale>
<asrwt>0</asrwt>
<pdfrwt beam="2">  1        4 0.18326147E-02 0.12499989E+03</pdfrwt>
<pdfrwt beam="1">  1       -4 0.50450030E-01 0.12499989E+03</pdfrwt>
<totfact> 0.70857415E+03</totfact>
</mgrwt>
</event>
<event>
 5    1  0.3234540E-002  0.1250013E+03  0.7818608E-02  0.1235067E+00
         -4   -1    0    0    0  501 -0.00000000000E+00  0.00000000000E+00  0.83822033431E+02  0.83831653858E+02  0.12700000000E+01 0. -1.
          4   -1    0    0  501    0  0.00000000000E+00 -0.00000000000E+00 -0.46581729413E+02  0.46599038779E+02  0.12700000000E+01 0. -1.
         25    2    1    2    0    0  0.00000000000E+00  0.00000000000E+00  0.37240304018E+02  0.13043069264E+03  0.12500130135E+03 0.  0.
    9000005    1    3    3    0    0  0.72947230345E+01 -0.16713472016E+02  0.80989082150E+02  0.83022795415E+02  0.10000000000E+01 0.  0.
    9000005    1    3    3    0    0 -0.72947230345E+01  0.16713472016E+02 -0.43748778132E+02  0.47407897222E+02  0.10000000000E+01 0.  0.
<mgrwt>
<rscale>  0 0.12500130E+03</rscale>
<asrwt>0</asrwt>
<pdfrwt beam="2">  1        4 0.71684915E-02 0.12500130E+03</pdfrwt>
<pdfrwt beam="1">  1       -4 0.12897769E-01 0.12500130E+03</pdfrwt>
<totfact> 0.10334999E+04</totfact>
</mgrwt>
</event>
<event>
 5    1  0.3234540E-002  0.1249983E+03  0.7818608E-02  0.1235072E+00
         -4   -1    0    0    0  501 -0.00000000000E+00  0.00000000000E+00  0.93995261521E+01  0.94849349963E+01  0.12700000000E+01 0. -1.
          4   -1    0    0  501    0  0.00000000000E+00 -0.00000000000E+00 -0.41360236507E+03  0.41360431488E+03  0.12700000000E+01 0. -1.
         25    2    1    2    0    0  0.00000000000E+00  0.00000000000E+00 -0.40420283892E+03  0.42308924988E+03  0.12499831349E+03 0.  0.
    9000005    1    3    3    0    0 -0.60815731906E+02  0.40070325121E+01 -0.24882275639E+03  0.25618035376E+03  0.10000000000E+01 0.  0.
    9000005    1    3    3    0    0  0.60815731906E+02 -0.40070325121E+01 -0.15538008253E+03  0.16690889612E+03  0.10000000000E+01 0.  0.
<mgrwt>
<rscale>  0 0.12499831E+03</rscale>
<asrwt>0</asrwt>
<pdfrwt beam="2">  1        4 0.63637839E-01 0.12499831E+03</pdfrwt>
<pdfrwt beam="1">  1       -4 0.14528012E-02 0.12499831E+03</pdfrwt>
<totfact> 0.62369769E+03</totfact>
</mgrwt>
</event>
<event>
 5    1  0.3234540E-002  0.1249997E+03  0.7818608E-02  0.1235070E+00
          4   -1    0    0  501    0  0.00000000000E+00  0.00000000000E+00  0.12290799849E+04  0.12290806411E+04  0.12700000000E+01 0. -1.
         -4   -1    0    0    0  501 -0.00000000000E+00 -0.00000000000E+00 -0.30506207358E+01  0.33044192945E+01  0.12700000000E+01 0. -1.
         25    2    1    2    0    0  0.00000000000E+00  0.00000000000E+00  0.12260293642E+04  0.12323850604E+04  0.12499974058E+03 0.  0.
    9000005    1    3    3    0    0 -0.43776886927E+02  0.39524952636E+02  0.81664654838E+03  0.81877421961E+03  0.10000000000E+01 0.  0.
    9000005    1    3    3    0    0  0.43776886927E+02 -0.39524952636E+02  0.40938281580E+03  0.41361084075E+03  0.10000000000E+01 0.  0.
<mgrwt>
<rscale>  0 0.12499974E+03</rscale>
<asrwt>0</asrwt>
<pdfrwt beam="1">  1        4 0.18910882E+00 0.12499974E+03</pdfrwt>
<pdfrwt beam="2">  1       -4 0.48889966E-03 0.12499974E+03</pdfrwt>
<totfact> 0.23880600E+03</totfact>
</mgrwt>
</event>
<event>
 5    1  0.3234540E-002  0.1249998E+03  0.7818608E-02  0.1235070E+00
          4   -1    0    0  501    0  0.00000000000E+00  0.00000000000E+00  0.41821850087E+03  0.41822042916E+03  0.12700000000E+01 0.  1.
         -4   -1    0    0    0  501 -0.00000000000E+00 -0.00000000000E+00 -0.92950474068E+01  0.93814074794E+01  0.12700000000E+01 0.  1.
         25    2    1    2    0    0  0.00000000000E+00  0.00000000000E+00  0.40892345346E+03  0.42760183664E+03  0.12499975963E+03 0.  0.
    9000005    1    3    3    0    0  0.36049682019E+02 -0.34502099955E+02  0.33315284573E+03  0.33687058805E+03  0.10000000000E+01 0.  0.
    9000005    1    3    3    0    0 -0.36049682019E+02  0.34502099955E+02  0.75770607730E+02  0.90731248590E+02  0.10000000000E+01 0.  0.
<mgrwt>
<rscale>  0 0.12499976E+03</rscale>
<asrwt>0</asrwt>
<pdfrwt beam="1">  1        4 0.64348073E-01 0.12499976E+03</pdfrwt>
<pdfrwt beam="2">  1       -4 0.14367993E-02 0.12499976E+03</pdfrwt>
<totfact> 0.61954315E+03</totfact>
</mgrwt>
</event>
<event>
 5    1  0.3234540E-002  0.1249869E+03  0.7818608E-02  0.1235090E+00
         -4   -1    0    0    0  501 -0.00000000000E+00  0.00000000000E+00  0.10937675475E+03  0.10938412764E+03  0.12700000000E+01 0. -1.
          4   -1    0    0  501    0  0.00000000000E+00 -0.00000000000E+00 -0.35686360210E+02  0.35708951330E+02  0.12700000000E+01 0. -1.
         25    2    1    2    0    0  0.00000000000E+00  0.00000000000E+00  0.73690394544E+02  0.14509307897E+03  0.12498690859E+03 0.  0.
    9000005    1    3    3    0    0  0.49537889132E+02 -0.34083276351E+02  0.17118679932E+02  0.62527764945E+02  0.10000000000E+01 0.  0.
    9000005    1    3    3    0    0 -0.49537889132E+02  0.34083276351E+02  0.56571714612E+02  0.82565314029E+02  0.10000000000E+01 0.  0.
<mgrwt>
<rscale>  0 0.12498691E+03</rscale>
<asrwt>0</asrwt>
<pdfrwt beam="2">  1        4 0.54925142E-02 0.12498691E+03</pdfrwt>
<pdfrwt beam="1">  1       -4 0.16829498E-01 0.12498691E+03</pdfrwt>
<totfact> 0.10032055E+04</totfact>
</mgrwt>
</event>
<event>
 5    1  0.3234540E-002  0.1250108E+03  0.7818608E-02  0.1235052E+00
         -4   -1    0    0    0  501 -0.00000000000E+00  0.00000000000E+00  0.27041872249E+01  0.29875623086E+01  0.12700000000E+01 0. -1.
          4   -1    0    0  501    0  0.00000000000E+00 -0.00000000000E+00 -0.13725538238E+04  0.13725544114E+04  0.12700000000E+01 0. -1.
         25    2    1    2    0    0  0.00000000000E+00  0.00000000000E+00 -0.13698496366E+04  0.13755419737E+04  0.12501077747E+03 0.  0.
    9000005    1    3    3    0    0 -0.29364082806E+02 -0.54718974817E+02 -0.76234680854E+03  0.76487258550E+03  0.10000000000E+01 0.  0.
    9000005    1    3    3    0    0  0.29364082806E+02  0.54718974817E+02 -0.60750282805E+03  0.61066938817E+03  0.10000000000E+01 0.  0.
<mgrwt>
<rscale>  0 0.12501078E+03</rscale>
<asrwt>0</asrwt>
<pdfrwt beam="2">  1        4 0.21118344E+00 0.12501078E+03</pdfrwt>
<pdfrwt beam="1">  1       -4 0.43787318E-03 0.12501078E+03</pdfrwt>
<totfact> 0.20507175E+03</totfact>
</mgrwt>
</event>
<event>
 5    1  0.3234540E-002  0.1249944E+03  0.7818608E-02  0.1235078E+00
          4   -1    0    0  501    0  0.00000000000E+00  0.00000000000E+00  0.18173841841E+02  0.18218162016E+02  0.12700000000E+01 0.  1.
         -4   -1    0    0    0  501 -0.00000000000E+00 -0.00000000000E+00 -0.21461093951E+03  0.21461469721E+03  0.12700000000E+01 0.  1.
         25    2    1    2    0    0  0.00000000000E+00  0.00000000000E+00 -0.19643709767E+03  0.23283285922E+03  0.12499442785E+03 0.  0.
    9000005    1    3    3    0    0 -0.34553593435E+01  0.14831086732E+02  0.14673706157E+02  0.21171166577E+02  0.10000000000E+01 0.  0.
    9000005    1    3    3    0    0  0.34553593435E+01 -0.14831086732E+02 -0.21111080383E+03  0.21166169265E+03  0.10000000000E+01 0.  0.
<mgrwt>
<rscale>  0 0.12499443E+03</rscale>
<asrwt>0</asrwt>
<pdfrwt beam="1">  1        4 0.27996741E-02 0.12499443E+03</pdfrwt>
<pdfrwt beam="2">  1       -4 0.33020764E-01 0.12499443E+03</pdfrwt>
<totfact> 0.84887050E+03</totfact>
</mgrwt>
</event>
<event>
 5    1  0.3234540E-002  0.1249971E+03  0.7818608E-02  0.1235074E+00
         -4   -1    0    0    0  501 -0.00000000000E+00  0.00000000000E+00  0.15032554359E+04  0.15032559723E+04  0.12700000000E+01 0. -1.
          4   -1    0    0  501    0  0.00000000000E+00 -0.00000000000E+00 -0.24426578678E+01  0.27530850803E+01  0.12700000000E+01 0. -1.
         25    2    1    2    0    0  0.00000000000E+00  0.00000000000E+00  0.15008127780E+04  0.15060090574E+04  0.12499714562E+03 0.  0.
    9000005    1    3    3    0    0 -0.37830046945E+02 -0.25934274685E+02  0.23904343975E+03  0.24340596776E+03  0.10000000000E+01 0.  0.
    9000005    1    3    3    0    0  0.37830046945E+02  0.25934274685E+02  0.12617693383E+04  0.12626030897E+04  0.10000000000E+01 0.  0.
<mgrwt>
<rscale>  0 0.12499715E+03</rscale>
<asrwt>0</asrwt>
<pdfrwt beam="2">  1        4 0.39971387E-03 0.12499715E+03</pdfrwt>
<pdfrwt beam="1">  1       -4 0.23129395E+00 0.12499715E+03</pdfrwt>
<totfact> 0.17813716E+03</totfact>
</mgrwt>
</event>
<event>
 5    1  0.3234540E-002  0.1250002E+03  0.7818608E-02  0.1235069E+00
          4   -1    0    0  501    0  0.00000000000E+00  0.00000000000E+00  0.66581945200E+02  0.66594056241E+02  0.12700000000E+01 0.  1.
         -4   -1    0    0    0  501 -0.00000000000E+00 -0.00000000000E+00 -0.58644149503E+02  0.58657899476E+02  0.12700000000E+01 0.  1.
         25    2    1    2    0    0  0.00000000000E+00  0.00000000000E+00  0.79377956972E+01  0.12525195572E+03  0.12500017524E+03 0.  0.
    9000005    1    3    3    0    0  0.40075211722E+02  0.45986454808E+02  0.17578757237E+02  0.63488497591E+02  0.10000000000E+01 0.  0.
    9000005    1    3    3    0    0 -0.40075211722E+02 -0.45986454808E+02 -0.96409615398E+01  0.61763458127E+02  0.10000000000E+01 0.  0.
<mgrwt>
<rscale>  0 0.12500018E+03</rscale>
<asrwt>0</asrwt>
<pdfrwt beam="1">  1        4 0.10245366E-01 0.12500018E+03</pdfrwt>
<pdfrwt beam="2">  1       -4 0.90241661E-02 0.12500018E+03</pdfrwt>
<totfact> 0.10447351E+04</totfact>
</mgrwt>
</event>
<event>
 5    1  0.3234540E-002  0.1250002E+03  0.7818608E-02  0.1235069E+00
         -4   -1    0    0    0  501 -0.00000000000E+00  0.00000000000E+00  0.48375760463E+03  0.48375927169E+03  0.12700000000E+01 0. -1.
          4   -1    0    0  501    0  0.00000000000E+00 -0.00000000000E+00 -0.80232024252E+01  0.81230952940E+01  0.12700000000E+01 0. -1.
         25    2    1    2    0    0  0.00000000000E+00  0.00000000000E+00  0.47573440221E+03  0.49188236698E+03  0.12500016600E+03 0.  0.
    9000005    1    3    3    0    0  0.14882176505E+02 -0.60532048512E+02  0.25531165435E+03  0.26281295425E+03  0.10000000000E+01 0.  0.
    9000005    1    3    3    0    0 -0.14882176505E+02  0.60532048512E+02  0.22042274786E+03  0.22906941273E+03  0.10000000000E+01 0.  0.
<mgrwt>
<rscale>  0 0.12500017E+03</rscale>
<asrwt>0</asrwt>
<pdfrwt beam="2">  1        4 0.12421507E-02 0.12500017E+03</pdfrwt>
<pdfrwt beam="1">  1       -4 0.74432084E-01 0.12500017E+03</pdfrwt>
<totfact> 0.56499521E+03</totfact>
</mgrwt>
</event>
<event>
 5    1  0.3234540E-002  0.1250015E+03  0.7818608E-02  0.1235067E+00
         -4   -1    0    0    0  501 -0.00000000000E+00  0.00000000000E+00  0.42675567094E+02  0.42694460142E+02  0.12700000000E+01 0.  1.
          4   -1    0    0  501    0  0.00000000000E+00 -0.00000000000E+00 -0.91492241601E+02  0.91501055585E+02  0.12700000000E+01 0.  1.
         25    2    1    2    0    0  0.00000000000E+00  0.00000000000E+00 -0.48816674507E+02  0.13419551573E+03  0.12500147492E+03 0.  0.
    9000005    1    3    3    0    0 -0.41837817663E+02  0.44571331280E+02 -0.10479627687E+02  0.62030872599E+02  0.10000000000E+01 0.  0.
    9000005    1    3    3    0    0  0.41837817663E+02 -0.44571331280E+02 -0.38337046820E+02  0.72164643128E+02  0.10000000000E+01 0.  0.
<mgrwt>
<rscale>  0 0.12500147E+03</rscale>
<asrwt>0</asrwt>
<pdfrwt beam="2">  1        4 0.14077861E-01 0.12500147E+03</pdfrwt>
<pdfrwt beam="1">  1       -4 0.65676032E-02 0.12500147E+03</pdfrwt>
<totfact> 0.10254714E+04</totfact>
</mgrwt>
</event>
<event>
 5    1  0.3234540E-002  0.1249861E+03  0.7818608E-02  0.1235091E+00
          4   -1    0    0  501    0  0.00000000000E+00  0.00000000000E+00  0.16853658690E+03  0.16854137185E+03  0.12700000000E+01 0. -1.
         -4   -1    0    0    0  501 -0.00000000000E+00 -0.00000000000E+00 -0.23149796112E+02  0.23184606101E+02  0.12700000000E+01 0. -1.
         25    2    1    2    0    0  0.00000000000E+00  0.00000000000E+00  0.14538679079E+03  0.19172597795E+03  0.12498612597E+03 0.  0.
    9000005    1    3    3    0    0 -0.46330426423E+02  0.14248969369E+02  0.13318041694E+03  0.14173060713E+03  0.10000000000E+01 0.  0.
    9000005    1    3    3    0    0  0.46330426423E+02 -0.14248969369E+02  0.12206373844E+02  0.49995370816E+02  0.10000000000E+01 0.  0.
<mgrwt>
<rscale>  0 0.12498613E+03</rscale>
<asrwt>0</asrwt>
<pdfrwt beam="1">  1        4 0.25931751E-01 0.12498613E+03</pdfrwt>
<pdfrwt beam="2">  1       -4 0.35645529E-02 0.12498613E+03</pdfrwt>
<totfact> 0.91576316E+03</totfact>
</mgrwt>
</event>
<event>
 5    1  0.3234540E-002  0.1249961E+03  0.7818608E-02  0.1235075E+00
          4   -1    0    0  501    0  0.00000000000E+00  0.00000000000E+00  0.80055085291E+03  0.80055186028E+03  0.12700000000E+01 0.  1.
         -4   -1    0    0    0  501 -0.00000000000E+00 -0.00000000000E+00 -0.47954805215E+01  0.49607996766E+01  0.12700000000E+01 0.  1.
         25    2    1    2    0    0  0.00000000000E+00  0.00000000000E+00  0.79575537239E+03  0.80551265995E+03  0.12499613059E+03 0.  0.
    9000005    1    3    3    0    0  0.59920278731E+02 -0.43320438166E+00  0.28361518219E+03  0.28987790367E+03  0.10000000000E+01 0.  0.
    9000005    1    3    3    0    0 -0.59920278731E+02  0.43320438166E+00  0.51214019020E+03  0.51563475628E+03  0.10000000000E+01 0.  0.
<mgrwt>
<rscale>  0 0.12499613E+03</rscale>
<asrwt>0</asrwt>
<pdfrwt beam="1">  1        4 0.12317444E+00 0.12499613E+03</pdfrwt>
<pdfrwt beam="2">  1       -4 0.75056074E-03 0.12499613E+03</pdfrwt>
<totfact> 0.38023027E+03</totfact>
</mgrwt>
</event>
<event>
 5    1  0.3234540E-002  0.1250000E+03  0.7818608E-02  0.1235069E+00
          4   -1    0    0  501    0  0.00000000000E+00  0.00000000000E+00  0.20647902616E+04  0.20647906522E+04  0.12700000000E+01 0. -1.
         -4   -1    0    0    0  501 -0.00000000000E+00 -0.00000000000E+00 -0.16782645764E+01  0.21046310813E+01  0.12700000000E+01 0. -1.
         25    2    1    2    0    0  0.00000000000E+00  0.00000000000E+00  0.20631119971E+04  0.20668952833E+04  0.12499999870E+03 0.  0.
    9000005    1    3    3    0    0  0.34463789458E+02  0.31155961290E+02  0.17226393910E+04  0.17232660613E+04  0.10000000000E+01 0.  0.
    9000005    1    3    3    0    0 -0.34463789458E+02 -0.31155961290E+02  0.34047260610E+03  0.34362922200E+03  0.10000000000E+01 0.  0.
<mgrwt>
<rscale>  0 0.12500000E+03</rscale>
<asrwt>0</asrwt>
<pdfrwt beam="1">  1        4 0.31769089E+00 0.12500000E+03</pdfrwt>
<pdfrwt beam="2">  1       -4 0.29102383E-03 0.12500000E+03</pdfrwt>
<totfact> 0.90133875E+02</totfact>
</mgrwt>
</event>
<event>
 5    1  0.3234540E-002  0.1250037E+03  0.7818608E-02  0.1235063E+00
          4   -1    0    0  501    0  0.00000000000E+00  0.00000000000E+00  0.75591775466E+02  0.75602443202E+02  0.12700000000E+01 0. -1.
         -4   -1    0    0    0  501 -0.00000000000E+00 -0.00000000000E+00 -0.51656545464E+02  0.51672154873E+02  0.12700000000E+01 0. -1.
         25    2    1    2    0    0  0.00000000000E+00  0.00000000000E+00  0.23935230003E+02  0.12727459808E+03  0.12500371226E+03 0.  0.
    9000005    1    3    3    0    0 -0.31857440556E+02  0.53685235305E+02  0.14932737550E+02  0.64194919264E+02  0.10000000000E+01 0.  0.
    9000005    1    3    3    0    0  0.31857440556E+02 -0.53685235305E+02  0.90024924533E+01  0.63079678811E+02  0.10000000000E+01 0.  0.
<mgrwt>
<rscale>  0 0.12500371E+03</rscale>
<asrwt>0</asrwt>
<pdfrwt beam="1">  1        4 0.11631525E-01 0.12500371E+03</pdfrwt>
<pdfrwt beam="2">  1       -4 0.79491822E-02 0.12500371E+03</pdfrwt>
<totfact> 0.10402314E+04</totfact>
</mgrwt>
</event>
<event>
 5    1  0.3234540E-002  0.1249944E+03  0.7818608E-02  0.1235078E+00
         -4   -1    0    0    0  501 -0.00000000000E+00  0.00000000000E+00  0.15159051240E+02  0.15212157457E+02  0.12700000000E+01 0. -1.
          4   -1    0    0  501    0  0.00000000000E+00 -0.00000000000E+00 -0.25715588659E+03  0.25715902260E+03  0.12700000000E+01 0. -1.
         25    2    1    2    0    0  0.00000000000E+00  0.00000000000E+00 -0.24199683535E+03  0.27237118006E+03  0.12499436551E+03 0.  0.
    9000005    1    3    3    0    0  0.37134718365E+02  0.32910617014E+02 -0.20376862797E+03  0.20972541516E+03  0.10000000000E+01 0.  0.
    9000005    1    3    3    0    0 -0.37134718365E+02 -0.32910617014E+02 -0.38228207375E+02  0.62645764896E+02  0.10000000000E+01 0.  0.
<mgrwt>
<rscale>  0 0.12499437E+03</rscale>
<asrwt>0</asrwt>
<pdfrwt beam="2">  1        4 0.39566767E-01 0.12499437E+03</pdfrwt>
<pdfrwt beam="1">  1       -4 0.23364882E-02 0.12499437E+03</pdfrwt>
<totfact> 0.79210555E+03</totfact>
</mgrwt>
</event>
<event>
 5    1  0.3234540E-002  0.1249942E+03  0.7818608E-02  0.1235078E+00
          4   -1    0    0  501    0  0.00000000000E+00  0.00000000000E+00  0.49706007621E+02  0.49722229371E+02  0.12700000000E+01 0.  1.
         -4   -1    0    0    0  501 -0.00000000000E+00 -0.00000000000E+00 -0.78545604344E+02  0.78555870957E+02  0.12700000000E+01 0.  1.
         25    2    1    2    0    0  0.00000000000E+00  0.00000000000E+00 -0.28839596723E+02  0.12827810033E+03  0.12499419460E+03 0.  0.
    9000005    1    3    3    0    0 -0.25336110291E+02 -0.12516412062E+02  0.42778741566E+02  0.51279623492E+02  0.10000000000E+01 0.  0.
    9000005    1    3    3    0    0  0.25336110291E+02  0.12516412062E+02 -0.71618338289E+02  0.76998476835E+02  0.10000000000E+01 0.  0.
<mgrwt>
<rscale>  0 0.12499419E+03</rscale>
<asrwt>0</asrwt>
<pdfrwt beam="1">  1        4 0.76491156E-02 0.12499419E+03</pdfrwt>
<pdfrwt beam="2">  1       -4 0.12085977E-01 0.12499419E+03</pdfrwt>
<totfact> 0.10382847E+04</totfact>
</mgrwt>
</event>
<event>
 5    1  0.3234540E-002  0.1249995E+03  0.7818608E-02  0.1235070E+00
          4   -1    0    0  501    0  0.00000000000E+00  0.00000000000E+00  0.34070553857E+01  0.36360591856E+01  0.12700000000E+01 0. -1.
         -4   -1    0    0    0  501 -0.00000000000E+00 -0.00000000000E+00 -0.11090002602E+04  0.11090009874E+04  0.12700000000E+01 0. -1.
         25    2    1    2    0    0  0.00000000000E+00  0.00000000000E+00 -0.11055932049E+04  0.11126370466E+04  0.12499945149E+03 0.  0.
    9000005    1    3    3    0    0 -0.56550443246E+01  0.60740393658E+02 -0.43210798161E+03  0.43639395358E+03  0.10000000000E+01 0.  0.
    9000005    1    3    3    0    0  0.56550443246E+01 -0.60740393658E+02 -0.67348522325E+03  0.67624309304E+03  0.10000000000E+01 0.  0.
<mgrwt>
<rscale>  0 0.12499945E+03</rscale>
<asrwt>0</asrwt>
<pdfrwt beam="1">  1        4 0.54183487E-03 0.12499945E+03</pdfrwt>
<pdfrwt beam="2">  1       -4 0.17063282E+00 0.12499945E+03</pdfrwt>
<totfact> 0.27116835E+03</totfact>
</mgrwt>
</event>
<event>
 5    1  0.3234540E-002  0.1250008E+03  0.7818608E-02  0.1235068E+00
         -4   -1    0    0    0  501 -0.00000000000E+00  0.00000000000E+00  0.10148668907E+03  0.10149463512E+03  0.12700000000E+01 0. -1.
          4   -1    0    0  501    0  0.00000000000E+00 -0.00000000000E+00 -0.38470841444E+02  0.38491798366E+02  0.12700000000E+01 0. -1.
         25    2    1    2    0    0  0.00000000000E+00  0.00000000000E+00  0.63015847626E+02  0.13998643349E+03  0.12500081803E+03 0.  0.
    9000005    1    3    3    0    0 -0.18981738320E+02  0.15381252662E+01 -0.35147566111E+02  0.39987793419E+02  0.10000000000E+01 0.  0.
    9000005    1    3    3    0    0  0.18981738320E+02 -0.15381252662E+01  0.98163413737E+02  0.99998640068E+02  0.10000000000E+01 0.  0.
<mgrwt>
<rscale>  0 0.12500082E+03</rscale>
<asrwt>0</asrwt>
<pdfrwt beam="2">  1        4 0.59208143E-02 0.12500082E+03</pdfrwt>
<pdfrwt beam="1">  1       -4 0.15615560E-01 0.12500082E+03</pdfrwt>
<totfact> 0.10133680E+04</totfact>
</mgrwt>
</event>
<event>
 5    1  0.3234540E-002  0.1250004E+03  0.7818608E-02  0.1235069E+00
         -4   -1    0    0    0  501 -0.00000000000E+00  0.00000000000E+00  0.26629798907E+02  0.26660065450E+02  0.12700000000E+01 0. -1.
          4   -1    0    0  501    0  0.00000000000E+00 -0.00000000000E+00 -0.14657169191E+03  0.14657719389E+03  0.12700000000E+01 0. -1.
         25    2    1    2    0    0  0.00000000000E+00  0.00000000000E+00 -0.11994189300E+03  0.17323725934E+03  0.12500036131E+03 0.  0.
    9000005    1    3    3    0    0 -0.14573007852E+02 -0.53555236404E+02 -0.20170523243E+02  0.59062559308E+02  0.10000000000E+01 0.  0.
    9000005    1    3    3    0    0  0.14573007852E+02  0.53555236404E+02 -0.99771369755E+02  0.11417470003E+03  0.10000000000E+01 0.  0.
<mgrwt>
<rscale>  0 0.12500036E+03</rscale>
<asrwt>0</asrwt>
<pdfrwt beam="2">  1        4 0.22552242E-01 0.12500036E+03</pdfrwt>
<pdfrwt beam="1">  1       -4 0.40996436E-02 0.12500036E+03</pdfrwt>
<totfact> 0.94847909E+03</totfact>
</mgrwt>
</event>
<event>
 5    1  0.3234540E-002  0.1249983E+03  0.7818608E-02  0.1235072E+00
          4   -1    0    0  501    0  0.00000000000E+00  0.00000000000E+00  0.13248278128E+04  0.13248284215E+04  0.12700000000E+01 0. -1.
         -4   -1    0    0    0  501 -0.00000000000E+00 -0.00000000000E+00 -0.28110201266E+01  0.30845962706E+01  0.12700000000E+01 0. -1.
         25    2    1    2    0    0  0.00000000000E+00  0.00000000000E+00  0.13220167927E+04  0.13279130178E+04  0.12499833082E+03 0.  0.
    9000005    1    3    3    0    0 -0.16153685990E+02 -0.18311445148E+02  0.12721008395E+04  0.12723355675E+04  0.10000000000E+01 0.  0.
    9000005    1    3    3    0    0  0.16153685990E+02  0.18311445148E+02  0.49915953201E+02  0.55577450269E+02  0.10000000000E+01 0.  0.
<mgrwt>
<rscale>  0 0.12499833E+03</rscale>
<asrwt>0</asrwt>
<pdfrwt beam="1">  1        4 0.20384121E+00 0.12499833E+03</pdfrwt>
<pdfrwt beam="2">  1       -4 0.45355476E-03 0.12499833E+03</pdfrwt>
<totfact> 0.21579880E+03</totfact>
</mgrwt>
</event>
<event>
 5    1  0.3234540E-002  0.1250005E+03  0.7818608E-02  0.1235069E+00
         -4   -1    0    0    0  501 -0.00000000000E+00  0.00000000000E+00  0.52517579625E+03  0.52517733183E+03  0.12700000000E+01 0. -1.
          4   -1    0    0  501    0  0.00000000000E+00 -0.00000000000E+00 -0.73822725710E+01  0.74907174765E+01  0.12700000000E+01 0. -1.
         25    2    1    2    0    0  0.00000000000E+00  0.00000000000E+00  0.51779352368E+03  0.53266804930E+03  0.12500047035E+03 0.  0.
    9000005    1    3    3    0    0  0.49202102902E+02 -0.32791370528E+02  0.34509349007E+03  0.35012374641E+03  0.10000000000E+01 0.  0.
    9000005    1    3    3    0    0 -0.49202102902E+02  0.32791370528E+02  0.17270003361E+03  0.18254430289E+03  0.10000000000E+01 0.  0.
<mgrwt>
<rscale>  0 0.12500047E+03</rscale>
<asrwt>0</asrwt>
<pdfrwt beam="2">  1        4 0.11441943E-02 0.12500047E+03</pdfrwt>
<pdfrwt beam="1">  1       -4 0.80804737E-01 0.12500047E+03</pdfrwt>
<totfact> 0.53415367E+03</totfact>
</mgrwt>
</event>
<event>
 5    1  0.3234540E-002  0.1250011E+03  0.7818608E-02  0.1235068E+00
         -4   -1    0    0    0  501 -0.00000000000E+00  0.00000000000E+00  0.31803160140E+02  0.31828507581E+02  0.12700000000E+01 0.  1.
          4   -1    0    0  501    0  0.00000000000E+00 -0.00000000000E+00 -0.12275051505E+03  0.12275708471E+03  0.12700000000E+01 0.  1.
         25    2    1    2    0    0  0.00000000000E+00  0.00000000000E+00 -0.90947354915E+02  0.15458559229E+03  0.12500113591E+03 0.  0.
    9000005    1    3    3    0    0  0.42626098972E+02  0.45559252795E+02 -0.41068069885E+02  0.74700844660E+02  0.10000000000E+01 0.  0.
    9000005    1    3    3    0    0 -0.42626098972E+02 -0.45559252795E+02 -0.49879285030E+02  0.79884747630E+02  0.10000000000E+01 0.  0.
<mgrwt>
<rscale>  0 0.12500114E+03</rscale>
<asrwt>0</asrwt>
<pdfrwt beam="2">  1        4 0.18887150E-01 0.12500114E+03</pdfrwt>
<pdfrwt beam="1">  1       -4 0.48952491E-02 0.12500114E+03</pdfrwt>
<totfact> 0.98394400E+03</totfact>
</mgrwt>
</event>
<event>
 5    1  0.3234540E-002  0.1250059E+03  0.7818608E-02  0.1235060E+00
          4   -1    0    0  501    0  0.00000000000E+00  0.00000000000E+00  0.46568715765E+03  0.46568888939E+03  0.12700000000E+01 0. -1.
         -4   -1    0    0    0  501 -0.00000000000E+00 -0.00000000000E+00 -0.83391109181E+01  0.84352635350E+01  0.12700000000E+01 0. -1.
         25    2    1    2    0    0  0.00000000000E+00  0.00000000000E+00  0.45734804673E+03  0.47412415292E+03  0.12500590600E+03 0.  0.
    9000005    1    3    3    0    0 -0.10048895200E+02 -0.55650858767E+02  0.32956720785E+03  0.33438532095E+03  0.10000000000E+01 0.  0.
    9000005    1    3    3    0    0  0.10048895200E+02  0.55650858767E+02  0.12778083888E+03  0.13973883197E+03  0.10000000000E+01 0.  0.
<mgrwt>
<rscale>  0 0.12500591E+03</rscale>
<asrwt>0</asrwt>
<pdfrwt beam="1">  1        4 0.71651711E-01 0.12500591E+03</pdfrwt>
<pdfrwt beam="2">  1       -4 0.12904697E-02 0.12500591E+03</pdfrwt>
<totfact> 0.57921903E+03</totfact>
</mgrwt>
</event>
<event>
 5    1  0.3234540E-002  0.1250009E+03  0.7818608E-02  0.1235068E+00
          4   -1    0    0  501    0  0.00000000000E+00  0.00000000000E+00  0.27802318515E+04  0.27802321416E+04  0.12700000000E+01 0.  1.
         -4   -1    0    0    0  501 -0.00000000000E+00 -0.00000000000E+00 -0.11176925070E+01  0.16917850159E+01  0.12700000000E+01 0.  1.
         25    2    1    2    0    0  0.00000000000E+00  0.00000000000E+00  0.27791141590E+04  0.27819239266E+04  0.12500089829E+03 0.  0.
    9000005    1    3    3    0    0  0.17034479965E+02 -0.44804983421E+02  0.22818908740E+04  0.22823944928E+04  0.10000000000E+01 0.  0.
    9000005    1    3    3    0    0 -0.17034479965E+02  0.44804983421E+02  0.49722328499E+03  0.49952943375E+03  0.10000000000E+01 0.  0.
<mgrwt>
<rscale>  0 0.12500090E+03</rscale>
<asrwt>0</asrwt>
<pdfrwt beam="1">  1        4 0.42776580E+00 0.12500090E+03</pdfrwt>
<pdfrwt beam="2">  1       -4 0.21613918E-03 0.12500090E+03</pdfrwt>
<totfact> 0.28138823E+02</totfact>
</mgrwt>
</event>
<event>
 5    1  0.3234540E-002  0.1249970E+03  0.7818608E-02  0.1235074E+00
         -4   -1    0    0    0  501 -0.00000000000E+00  0.00000000000E+00  0.18237449554E+03  0.18237891743E+03  0.12700000000E+01 0. -1.
          4   -1    0    0  501    0  0.00000000000E+00 -0.00000000000E+00 -0.21394307543E+02  0.21431969001E+02  0.12700000000E+01 0. -1.
         25    2    1    2    0    0  0.00000000000E+00  0.00000000000E+00  0.16098018799E+03  0.20381088643E+03  0.12499702597E+03 0.  0.
    9000005    1    3    3    0    0 -0.61210428398E+02  0.51374201826E+01  0.99220180843E+02  0.11669941695E+03  0.10000000000E+01 0.  0.
    9000005    1    3    3    0    0  0.61210428398E+02 -0.51374201826E+01  0.61760007149E+02  0.87111469474E+02  0.10000000000E+01 0.  0.
<mgrwt>
<rscale>  0 0.12499703E+03</rscale>
<asrwt>0</asrwt>
<pdfrwt beam="2">  1        4 0.32946691E-02 0.12499703E+03</pdfrwt>
<pdfrwt beam="1">  1       -4 0.28060852E-01 0.12499703E+03</pdfrwt>
<totfact> 0.89502679E+03</totfact>
</mgrwt>
</event>
<event>
 5    1  0.3234540E-002  0.1250005E+03  0.7818608E-02  0.1235069E+00
         -4   -1    0    0    0  501 -0.00000000000E+00  0.00000000000E+00  0.46649931822E+02  0.46667215890E+02  0.12700000000E+01 0. -1.
          4   -1    0    0  501    0  0.00000000000E+00 -0.00000000000E+00 -0.83698411802E+02  0.83708046436E+02  0.12700000000E+01 0. -1.
         25    2    1    2    0    0  0.00000000000E+00  0.00000000000E+00 -0.37048479980E+02  0.13037526233E+03  0.12500047663E+03 0.  0.
    9000005    1    3    3    0    0  0.34328896790E+02  0.16591523494E+02 -0.70166109231E+02  0.79862598827E+02  0.10000000000E+01 0.  0.
    9000005    1    3    3    0    0 -0.34328896790E+02 -0.16591523494E+02  0.33117629251E+02  0.50512663500E+02  0.10000000000E+01 0.  0.
<mgrwt>
<rscale>  0 0.12500048E+03</rscale>
<asrwt>0</asrwt>
<pdfrwt beam="2">  1        4 0.12878749E-01 0.12500048E+03</pdfrwt>
<pdfrwt beam="1">  1       -4 0.71789833E-02 0.12500048E+03</pdfrwt>
<totfact> 0.10336375E+04</totfact>
</mgrwt>
</event>
<event>
 5    1  0.3234540E-002  0.1250015E+03  0.7818608E-02  0.1235067E+00
          4   -1    0    0  501    0  0.00000000000E+00  0.00000000000E+00  0.79312051205E+03  0.79312152886E+03  0.12700000000E+01 0.  1.
         -4   -1    0    0    0  501 -0.00000000000E+00 -0.00000000000E+00 -0.48423817592E+01  0.50061523251E+01  0.12700000000E+01 0.  1.
         25    2    1    2    0    0  0.00000000000E+00  0.00000000000E+00  0.78827813029E+03  0.79812768118E+03  0.12500153908E+03 0.  0.
    9000005    1    3    3    0    0 -0.34431619638E+02  0.29118675384E+02  0.11789065571E+03  0.12622456334E+03  0.10000000000E+01 0.  0.
    9000005    1    3    3    0    0  0.34431619638E+02 -0.29118675384E+02  0.67038747459E+03  0.67190311784E+03  0.10000000000E+01 0.  0.
<mgrwt>
<rscale>  0 0.12500154E+03</rscale>
<asrwt>0</asrwt>
<pdfrwt beam="1">  1        4 0.12203125E+00 0.12500154E+03</pdfrwt>
<pdfrwt beam="2">  1       -4 0.75765755E-03 0.12500154E+03</pdfrwt>
<totfact> 0.38347146E+03</totfact>
</mgrwt>
</event>
<event>
 5    1  0.3234540E-002  0.1249999E+03  0.7818608E-02  0.1235069E+00
          4   -1    0    0  501    0  0.00000000000E+00  0.00000000000E+00  0.75895954671E+02  0.75906579658E+02  0.12700000000E+01 0. -1.
         -4   -1    0    0    0  501 -0.00000000000E+00 -0.00000000000E+00 -0.51446353124E+02  0.51462026289E+02  0.12700000000E+01 0. -1.
         25    2    1    2    0    0  0.00000000000E+00  0.00000000000E+00  0.24449601547E+02  0.12736860595E+03  0.12499991506E+03 0.  0.
    9000005    1    3    3    0    0  0.42971581351E+02 -0.18157917739E+02  0.54593721376E+02  0.71817415674E+02  0.10000000000E+01 0.  0.
    9000005    1    3    3    0    0 -0.42971581351E+02  0.18157917739E+02 -0.30144119829E+02  0.55551190273E+02  0.10000000000E+01 0.  0.
<mgrwt>
<rscale>  0 0.12499992E+03</rscale>
<asrwt>0</asrwt>
<pdfrwt beam="1">  1        4 0.11678324E-01 0.12499992E+03</pdfrwt>
<pdfrwt beam="2">  1       -4 0.79168465E-02 0.12499992E+03</pdfrwt>
<totfact> 0.10401167E+04</totfact>
</mgrwt>
</event>
<event>
 5    1  0.3234540E-002  0.1249954E+03  0.7818608E-02  0.1235077E+00
          4   -1    0    0  501    0  0.00000000000E+00  0.00000000000E+00  0.14880615112E+03  0.14881157049E+03  0.12700000000E+01 0.  1.
         -4   -1    0    0    0  501 -0.00000000000E+00 -0.00000000000E+00 -0.26227388729E+02  0.26258119117E+02  0.12700000000E+01 0.  1.
         25    2    1    2    0    0  0.00000000000E+00  0.00000000000E+00  0.12257876239E+03  0.17506968961E+03  0.12499537283E+03 0.  0.
    9000005    1    3    3    0    0  0.24681227105E+02  0.55164024639E+02  0.83555467907E+02  0.10312491844E+03  0.10000000000E+01 0.  0.
    9000005    1    3    3    0    0 -0.24681227105E+02 -0.55164024639E+02  0.39023294485E+02  0.71944771167E+02  0.10000000000E+01 0.  0.
<mgrwt>
<rscale>  0 0.12499537E+03</rscale>
<asrwt>0</asrwt>
<pdfrwt beam="1">  1        4 0.22896035E-01 0.12499537E+03</pdfrwt>
<pdfrwt beam="2">  1       -4 0.40377636E-02 0.12499537E+03</pdfrwt>
<totfact> 0.94521889E+03</totfact>
</mgrwt>
</event>
<event>
 5    1  0.3234540E-002  0.1249990E+03  0.7818608E-02  0.1235071E+00
          4   -1    0    0  501    0  0.00000000000E+00  0.00000000000E+00  0.12801264165E+02  0.12864107596E+02  0.12700000000E+01 0.  1.
         -4   -1    0    0    0  501 -0.00000000000E+00 -0.00000000000E+00 -0.30432937340E+03  0.30433202332E+03  0.12700000000E+01 0.  1.
         25    2    1    2    0    0  0.00000000000E+00  0.00000000000E+00 -0.29152810924E+03  0.31719613091E+03  0.12499898795E+03 0.  0.
    9000005    1    3    3    0    0 -0.41477731391E+01  0.62212813285E+02 -0.13513382904E+03  0.14882805484E+03  0.10000000000E+01 0.  0.
    9000005    1    3    3    0    0  0.41477731391E+01 -0.62212813285E+02 -0.15639428020E+03  0.16836807607E+03  0.10000000000E+01 0.  0.
<mgrwt>
<rscale>  0 0.12499899E+03</rscale>
<asrwt>0</asrwt>
<pdfrwt beam="1">  1        4 0.19744634E-02 0.12499899E+03</pdfrwt>
<pdfrwt beam="2">  1       -4 0.46824936E-01 0.12499899E+03</pdfrwt>
<totfact> 0.73492505E+03</totfact>
</mgrwt>
</event>
<event>
 5    1  0.3234540E-002  0.1249996E+03  0.7818608E-02  0.1235070E+00
         -4   -1    0    0    0  501 -0.00000000000E+00  0.00000000000E+00  0.73663299780E+03  0.73663409257E+03  0.12700000000E+01 0. -1.
          4   -1    0    0  501    0  0.00000000000E+00 -0.00000000000E+00 -0.52256538876E+01  0.53777652006E+01  0.12700000000E+01 0. -1.
         25    2    1    2    0    0  0.00000000000E+00  0.00000000000E+00  0.73140734391E+03  0.74201185777E+03  0.12499957742E+03 0.  0.
    9000005    1    3    3    0    0  0.19197761755E+02  0.46008738934E+02  0.14202431774E+03  0.15052330366E+03  0.10000000000E+01 0.  0.
    9000005    1    3    3    0    0 -0.19197761755E+02 -0.46008738934E+02  0.58938302617E+03  0.59148855412E+03  0.10000000000E+01 0.  0.
<mgrwt>
<rscale>  0 0.12499958E+03</rscale>
<asrwt>0</asrwt>
<pdfrwt beam="2">  1        4 0.81573204E-03 0.12499958E+03</pdfrwt>
<pdfrwt beam="1">  1       -4 0.11333991E+00 0.12499958E+03</pdfrwt>
<totfact> 0.40959541E+03</totfact>
</mgrwt>
</event>
<event>
 5    1  0.3234540E-002  0.1249999E+03  0.7818608E-02  0.1235069E+00
         -4   -1    0    0    0  501 -0.00000000000E+00  0.00000000000E+00  0.54130909731E+03  0.54131058713E+03  0.12700000000E+01 0.  1.
          4   -1    0    0  501    0  0.00000000000E+00 -0.00000000000E+00 -0.71589051461E+01  0.72706824227E+01  0.12700000000E+01 0.  1.
         25    2    1    2    0    0  0.00000000000E+00  0.00000000000E+00  0.53415019217E+03  0.54858126955E+03  0.12499992603E+03 0.  0.
    9000005    1    3    3    0    0 -0.37763748319E+02 -0.41451275604E+02  0.38813641762E+03  0.39216729545E+03  0.10000000000E+01 0.  0.
    9000005    1    3    3    0    0  0.37763748319E+02  0.41451275604E+02  0.14601377455E+03  0.15641397410E+03  0.10000000000E+01 0.  0.
<mgrwt>
<rscale>  0 0.12499993E+03</rscale>
<asrwt>0</asrwt>
<pdfrwt beam="2">  1        4 0.11100832E-02 0.12499993E+03</pdfrwt>
<pdfrwt beam="1">  1       -4 0.83287010E-01 0.12499993E+03</pdfrwt>
<totfact> 0.52283054E+03</totfact>
</mgrwt>
</event>
<event>
 5    1  0.3234540E-002  0.1249985E+03  0.7818608E-02  0.1235072E+00
          4   -1    0    0  501    0  0.00000000000E+00  0.00000000000E+00  0.11496757697E+02  0.11566690864E+02  0.12700000000E+01 0.  1.
         -4   -1    0    0    0  501 -0.00000000000E+00 -0.00000000000E+00 -0.33865994417E+03  0.33866232546E+03  0.12700000000E+01 0.  1.
         25    2    1    2    0    0  0.00000000000E+00  0.00000000000E+00 -0.32716318647E+03  0.35022901632E+03  0.12499845315E+03 0.  0.
    9000005    1    3    3    0    0 -0.20880132557E+02 -0.12022240772E+02 -0.20268398576E+01  0.24199634059E+02  0.10000000000E+01 0.  0.
    9000005    1    3    3    0    0  0.20880132557E+02  0.12022240772E+02 -0.32513634661E+03  0.32602938226E+03  0.10000000000E+01 0.  0.
<mgrwt>
<rscale>  0 0.12499845E+03</rscale>
<asrwt>0</asrwt>
<pdfrwt beam="1">  1        4 0.17742949E-02 0.12499845E+03</pdfrwt>
<pdfrwt beam="2">  1       -4 0.52107085E-01 0.12499845E+03</pdfrwt>
<totfact> 0.69701758E+03</totfact>
</mgrwt>
</event>
<event>
 5    1  0.3234540E-002  0.1249991E+03  0.7818608E-02  0.1235071E+00
         -4   -1    0    0    0  501 -0.00000000000E+00  0.00000000000E+00  0.24406920508E+03  0.24407250925E+03  0.12700000000E+01 0. -1.
          4   -1    0    0  501    0  0.00000000000E+00 -0.00000000000E+00 -0.15975847857E+02  0.16026247681E+02  0.12700000000E+01 0. -1.
         25    2    1    2    0    0  0.00000000000E+00  0.00000000000E+00  0.22809335723E+03  0.26009875693E+03  0.12499913497E+03 0.  0.
    9000005    1    3    3    0    0 -0.38393965158E+02  0.20827520818E+02  0.21052788569E+02  0.48498475136E+02  0.10000000000E+01 0.  0.
    9000005    1    3    3    0    0  0.38393965158E+02 -0.20827520818E+02  0.20704056866E+03  0.21160028179E+03  0.10000000000E+01 0.  0.
<mgrwt>
<rscale>  0 0.12499913E+03</rscale>
<asrwt>0</asrwt>
<pdfrwt beam="2">  1        4 0.24619539E-02 0.12499913E+03</pdfrwt>
<pdfrwt beam="1">  1       -4 0.37553239E-01 0.12499913E+03</pdfrwt>
<totfact> 0.80893761E+03</totfact>
</mgrwt>
</event>
<event>
 5    1  0.3234540E-002  0.1249982E+03  0.7818608E-02  0.1235072E+00
          4   -1    0    0  501    0  0.00000000000E+00  0.00000000000E+00  0.13858976297E+03  0.13859558182E+03  0.12700000000E+01 0.  1.
         -4   -1    0    0    0  501 -0.00000000000E+00 -0.00000000000E+00 -0.28164171496E+02  0.28192790852E+02  0.12700000000E+01 0.  1.
         25    2    1    2    0    0  0.00000000000E+00  0.00000000000E+00  0.11042559148E+03  0.16678837268E+03  0.12499820001E+03 0.  0.
    9000005    1    3    3    0    0  0.14078855823E+02 -0.91542104633E+01 -0.25103486316E+02  0.30219178939E+02  0.10000000000E+01 0.  0.
    9000005    1    3    3    0    0 -0.14078855823E+02  0.91542104633E+01  0.13552907779E+03  0.13656919374E+03  0.10000000000E+01 0.  0.
<mgrwt>
<rscale>  0 0.12499820E+03</rscale>
<asrwt>0</asrwt>
<pdfrwt beam="1">  1        4 0.21324151E-01 0.12499820E+03</pdfrwt>
<pdfrwt beam="2">  1       -4 0.43355986E-02 0.12499820E+03</pdfrwt>
<totfact> 0.96053654E+03</totfact>
</mgrwt>
</event>
<event>
 5    1  0.3234540E-002  0.1249974E+03  0.7818608E-02  0.1235073E+00
         -4   -1    0    0    0  501 -0.00000000000E+00  0.00000000000E+00  0.19850703551E+03  0.19851109804E+03  0.12700000000E+01 0. -1.
          4   -1    0    0  501    0  0.00000000000E+00 -0.00000000000E+00 -0.19652567398E+02  0.19693559996E+02  0.12700000000E+01 0. -1.
         25    2    1    2    0    0  0.00000000000E+00  0.00000000000E+00  0.17885446811E+03  0.21820465804E+03  0.12499740808E+03 0.  0.
    9000005    1    3    3    0    0  0.55880759003E+02  0.21232894707E+02  0.57639054175E+02  0.83046707404E+02  0.10000000000E+01 0.  0.
    9000005    1    3    3    0    0 -0.55880759003E+02 -0.21232894707E+02  0.12121541393E+03  0.13515795063E+03  0.10000000000E+01 0.  0.
<mgrwt>
<rscale>  0 0.12499741E+03</rscale>
<asrwt>0</asrwt>
<pdfrwt beam="2">  1        4 0.30269376E-02 0.12499741E+03</pdfrwt>
<pdfrwt beam="1">  1       -4 0.30543010E-01 0.12499741E+03</pdfrwt>
<totfact> 0.87158284E+03</totfact>
</mgrwt>
</event>
<event>
 5    1  0.3234540E-002  0.1249993E+03  0.7818608E-02  0.1235070E+00
          4   -1    0    0  501    0  0.00000000000E+00  0.00000000000E+00  0.82204023557E+02  0.82213833319E+02  0.12700000000E+01 0.  1.
         -4   -1    0    0    0  501 -0.00000000000E+00 -0.00000000000E+00 -0.47497293040E+02  0.47514268868E+02  0.12700000000E+01 0.  1.
         25    2    1    2    0    0  0.00000000000E+00  0.00000000000E+00  0.34706730517E+02  0.12972810219E+03  0.12499929341E+03 0.  0.
    9000005    1    3    3    0    0  0.43934483391E+02 -0.43849864624E+02  0.98582170055E+01  0.62858841072E+02  0.10000000000E+01 0.  0.
    9000005    1    3    3    0    0 -0.43934483391E+02  0.43849864624E+02  0.24848513512E+02  0.66869261115E+02  0.10000000000E+01 0.  0.
<mgrwt>
<rscale>  0 0.12499929E+03</rscale>
<asrwt>0</asrwt>
<pdfrwt beam="1">  1        4 0.12648833E-01 0.12499929E+03</pdfrwt>
<pdfrwt beam="2">  1       -4 0.73093363E-02 0.12499929E+03</pdfrwt>
<totfact> 0.10350492E+04</totfact>
</mgrwt>
</event>
<event>
 5    1  0.3234540E-002  0.1250031E+03  0.7818608E-02  0.1235064E+00
         -4   -1    0    0    0  501 -0.00000000000E+00  0.00000000000E+00  0.13083497524E+03  0.13084113897E+03  0.12700000000E+01 0. -1.
          4   -1    0    0  501    0  0.00000000000E+00 -0.00000000000E+00 -0.29837421694E+02  0.29864437603E+02  0.12700000000E+01 0. -1.
         25    2    1    2    0    0  0.00000000000E+00  0.00000000000E+00  0.10099755354E+03  0.16070557657E+03  0.12500310603E+03 0.  0.
    9000005    1    3    3    0    0  0.90492486514E+00  0.52229775985E+02  0.63987815010E+01  0.52637560668E+02  0.10000000000E+01 0.  0.
    9000005    1    3    3    0    0 -0.90492486514E+00 -0.52229775985E+02  0.94598772044E+02  0.10806801590E+03  0.10000000000E+01 0.  0.
<mgrwt>
<rscale>  0 0.12500311E+03</rscale>
<asrwt>0</asrwt>
<pdfrwt beam="2">  1        4 0.45929248E-02 0.12500311E+03</pdfrwt>
<pdfrwt beam="1">  1       -4 0.20131010E-01 0.12500311E+03</pdfrwt>
<totfact> 0.97200141E+03</totfact>
</mgrwt>
</event>
<event>
 5    1  0.3234540E-002  0.1249476E+03  0.7818608E-02  0.1235151E+00
         -4   -1    0    0    0  501 -0.00000000000E+00  0.00000000000E+00  0.24430680900E+02  0.24463668352E+02  0.12700000000E+01 0.  1.
          4   -1    0    0  501    0  0.00000000000E+00 -0.00000000000E+00 -0.15961390563E+03  0.15961895805E+03  0.12700000000E+01 0.  1.
         25    2    1    2    0    0  0.00000000000E+00  0.00000000000E+00 -0.13518322473E+03  0.18408262640E+03  0.12494762541E+03 0.  0.
    9000005    1    3    3    0    0  0.45388846581E+02 -0.25763381528E+02 -0.17024072248E+02  0.54906450054E+02  0.10000000000E+01 0.  0.
    9000005    1    3    3    0    0 -0.45388846581E+02  0.25763381528E+02 -0.11815915248E+03  0.12917617635E+03  0.10000000000E+01 0.  0.
<mgrwt>
<rscale>  0 0.12494763E+03</rscale>
<asrwt>0</asrwt>
<pdfrwt beam="2">  1        4 0.24558911E-01 0.12494763E+03</pdfrwt>
<pdfrwt beam="1">  1       -4 0.37614925E-02 0.12494763E+03</pdfrwt>
<totfact> 0.92996358E+03</totfact>
</mgrwt>
</event>
<event>
 5    1  0.3234540E-002  0.1250243E+03  0.7818608E-02  0.1235031E+00
          4   -1    0    0  501    0  0.00000000000E+00  0.00000000000E+00  0.18008142595E+03  0.18008590414E+03  0.12700000000E+01 0.  1.
         -4   -1    0    0    0  501 -0.00000000000E+00 -0.00000000000E+00 -0.21676676245E+02  0.21713847955E+02  0.12700000000E+01 0.  1.
         25    2    1    2    0    0  0.00000000000E+00  0.00000000000E+00  0.15840474970E+03  0.20179975210E+03  0.12502429851E+03 0.  0.
    9000005    1    3    3    0    0  0.55866980850E+02  0.61464082124E+01  0.35061643391E+02  0.66251163918E+02  0.10000000000E+01 0.  0.
    9000005    1    3    3    0    0 -0.55866980850E+02 -0.61464082124E+01  0.12334310631E+03  0.13554858818E+03  0.10000000000E+01 0.  0.
<mgrwt>
<rscale>  0 0.12502430E+03</rscale>
<asrwt>0</asrwt>
<pdfrwt beam="1">  1        4 0.27708039E-01 0.12502430E+03</pdfrwt>
<pdfrwt beam="2">  1       -4 0.33380770E-02 0.12502430E+03</pdfrwt>
<totfact> 0.89784029E+03</totfact>
</mgrwt>
</event>
<event>
 5    1  0.3234540E-002  0.1250166E+03  0.7818608E-02  0.1235043E+00
          4   -1    0    0  501    0  0.00000000000E+00  0.00000000000E+00  0.15911578893E+03  0.15912085717E+03  0.12700000000E+01 0.  1.
         -4   -1    0    0    0  501 -0.00000000000E+00 -0.00000000000E+00 -0.24534376725E+02  0.24567224941E+02  0.12700000000E+01 0.  1.
         25    2    1    2    0    0  0.00000000000E+00  0.00000000000E+00  0.13458141220E+03  0.18368808211E+03  0.12501661889E+03 0.  0.
    9000005    1    3    3    0    0 -0.36479984489E+01  0.39452855010E+01 -0.24201564558E+02  0.24811064013E+02  0.10000000000E+01 0.  0.
    9000005    1    3    3    0    0  0.36479984489E+01 -0.39452855010E+01  0.15878297676E+03  0.15887701810E+03  0.10000000000E+01 0.  0.
<mgrwt>
<rscale>  0 0.12501662E+03</rscale>
<asrwt>0</asrwt>
<pdfrwt beam="1">  1        4 0.24482269E-01 0.12501662E+03</pdfrwt>
<pdfrwt beam="2">  1       -4 0.37774361E-02 0.12501662E+03</pdfrwt>
<totfact> 0.92922699E+03</totfact>
</mgrwt>
</event>
<event>
 5    1  0.3234540E-002  0.1250030E+03  0.7818608E-02  0.1235065E+00
         -4   -1    0    0    0  501 -0.00000000000E+00  0.00000000000E+00  0.34176913773E+03  0.34177149736E+03  0.12700000000E+01 0.  1.
          4   -1    0    0  501    0  0.00000000000E+00 -0.00000000000E+00 -0.11392362284E+02  0.11462932365E+02  0.12700000000E+01 0.  1.
         25    2    1    2    0    0  0.00000000000E+00  0.00000000000E+00  0.33037677545E+03  0.35323442972E+03  0.12500299431E+03 0.  0.
    9000005    1    3    3    0    0 -0.54844427016E+02  0.29681977677E+02  0.15370775548E+03  0.16587948960E+03  0.10000000000E+01 0.  0.
    9000005    1    3    3    0    0  0.54844427016E+02 -0.29681977677E+02  0.17666901997E+03  0.18735494013E+03  0.10000000000E+01 0.  0.
<mgrwt>
<rscale>  0 0.12500299E+03</rscale>
<asrwt>0</asrwt>
<pdfrwt beam="2">  1        4 0.17582810E-02 0.12500299E+03</pdfrwt>
<pdfrwt beam="1">  1       -4 0.52585479E-01 0.12500299E+03</pdfrwt>
<totfact> 0.69365590E+03</totfact>
</mgrwt>
</event>
<event>
 5    1  0.3234540E-002  0.1250020E+03  0.7818608E-02  0.1235066E+00
         -4   -1    0    0    0  501 -0.00000000000E+00  0.00000000000E+00  0.13532181237E+02  0.13591645560E+02  0.12700000000E+01 0. -1.
          4   -1    0    0  501    0  0.00000000000E+00 -0.00000000000E+00 -0.28797936473E+03  0.28798216510E+03  0.12700000000E+01 0. -1.
         25    2    1    2    0    0  0.00000000000E+00  0.00000000000E+00 -0.27444718350E+03  0.30157381066E+03  0.12500202696E+03 0.  0.
    9000005    1    3    3    0    0 -0.62456824977E+02  0.18570717548E+01 -0.13472455175E+03  0.14851265449E+03  0.10000000000E+01 0.  0.
    9000005    1    3    3    0    0  0.62456824977E+02 -0.18570717548E+01 -0.13972263175E+03  0.15306115616E+03  0.10000000000E+01 0.  0.
<mgrwt>
<rscale>  0 0.12500203E+03</rscale>
<asrwt>0</asrwt>
<pdfrwt beam="2">  1        4 0.44309303E-01 0.12500203E+03</pdfrwt>
<pdfrwt beam="1">  1       -4 0.20866638E-02 0.12500203E+03</pdfrwt>
<totfact> 0.75398456E+03</totfact>
</mgrwt>
</event>
<event>
 5    1  0.3234540E-002  0.1249986E+03  0.7818608E-02  0.1235071E+00
         -4   -1    0    0    0  501 -0.00000000000E+00  0.00000000000E+00  0.75714823247E+01  0.76772550168E+01  0.12700000000E+01 0. -1.
          4   -1    0    0  501    0  0.00000000000E+00 -0.00000000000E+00 -0.51221969041E+03  0.51222126483E+03  0.12700000000E+01 0. -1.
         25    2    1    2    0    0  0.00000000000E+00  0.00000000000E+00 -0.50464820809E+03  0.51989851985E+03  0.12499862805E+03 0.  0.
    9000005    1    3    3    0    0  0.18499705589E+02 -0.56005306712E+02 -0.16644516462E+03  0.17658942865E+03  0.10000000000E+01 0.  0.
    9000005    1    3    3    0    0 -0.18499705589E+02  0.56005306712E+02 -0.33820304347E+03  0.34330909119E+03  0.10000000000E+01 0.  0.
<mgrwt>
<rscale>  0 0.12499863E+03</rscale>
<asrwt>0</asrwt>
<pdfrwt beam="2">  1        4 0.78811260E-01 0.12499863E+03</pdfrwt>
<pdfrwt beam="1">  1       -4 0.11731013E-02 0.12499863E+03</pdfrwt>
<totfact> 0.54354526E+03</totfact>
</mgrwt>
</event>
<event>
 5    1  0.3234540E-002  0.1249846E+03  0.7818608E-02  0.1235093E+00
         -4   -1    0    0    0  501 -0.00000000000E+00  0.00000000000E+00  0.25086729244E+02  0.25118855152E+02  0.12700000000E+01 0. -1.
          4   -1    0    0  501    0  0.00000000000E+00 -0.00000000000E+00 -0.15553702449E+03  0.15554220934E+03  0.12700000000E+01 0. -1.
         25    2    1    2    0    0  0.00000000000E+00  0.00000000000E+00 -0.13045029524E+03  0.18066106449E+03  0.12498456182E+03 0.  0.
    9000005    1    3    3    0    0  0.12863869218E+02 -0.60366323978E+02 -0.79292518076E+02  0.10048818649E+03  0.10000000000E+01 0.  0.
    9000005    1    3    3    0    0 -0.12863869218E+02  0.60366323978E+02 -0.51157777169E+02  0.80172878000E+02  0.10000000000E+01 0.  0.
<mgrwt>
<rscale>  0 0.12498456E+03</rscale>
<asrwt>0</asrwt>
<pdfrwt beam="2">  1        4 0.23931643E-01 0.12498456E+03</pdfrwt>
<pdfrwt beam="1">  1       -4 0.38623670E-02 0.12498456E+03</pdfrwt>
<totfact> 0.93530515E+03</totfact>
</mgrwt>
</event>
<event>
 5    1  0.3234540E-002  0.1250041E+03  0.7818608E-02  0.1235063E+00
         -4   -1    0    0    0  501 -0.00000000000E+00  0.00000000000E+00  0.20696049582E+02  0.20734979341E+02  0.12700000000E+01 0.  1.
          4   -1    0    0  501    0  0.00000000000E+00 -0.00000000000E+00 -0.18853775653E+03  0.18854203388E+03  0.12700000000E+01 0.  1.
         25    2    1    2    0    0  0.00000000000E+00  0.00000000000E+00 -0.16784170695E+03  0.20927701322E+03  0.12500411861E+03 0.  0.
    9000005    1    3    3    0    0  0.51496569307E+02 -0.30435238617E+02 -0.11420915111E+03  0.12892994454E+03  0.10000000000E+01 0.  0.
    9000005    1    3    3    0    0 -0.51496569307E+02  0.30435238617E+02 -0.53632555836E+02  0.80347068681E+02  0.10000000000E+01 0.  0.
<mgrwt>
<rscale>  0 0.12500412E+03</rscale>
<asrwt>0</asrwt>
<pdfrwt beam="2">  1        4 0.29009131E-01 0.12500412E+03</pdfrwt>
<pdfrwt beam="1">  1       -4 0.31873314E-02 0.12500412E+03</pdfrwt>
<totfact> 0.88585933E+03</totfact>
</mgrwt>
</event>
<event>
 5    1  0.3234540E-002  0.1249930E+03  0.7818608E-02  0.1235080E+00
         -4   -1    0    0    0  501 -0.00000000000E+00  0.00000000000E+00  0.31020998243E+02  0.31046984266E+02  0.12700000000E+01 0. -1.
          4   -1    0    0  501    0  0.00000000000E+00 -0.00000000000E+00 -0.12582681799E+03  0.12583322703E+03  0.12700000000E+01 0. -1.
         25    2    1    2    0    0  0.00000000000E+00  0.00000000000E+00 -0.94805819743E+02  0.15688021129E+03  0.12499302876E+03 0.  0.
    9000005    1    3    3    0    0 -0.44349324998E+02 -0.12630622882E+02  0.55267891469E+01  0.46453639905E+02  0.10000000000E+01 0.  0.
    9000005    1    3    3    0    0  0.44349324998E+02  0.12630622882E+02 -0.10033260889E+03  0.11042657139E+03  0.10000000000E+01 0.  0.
<mgrwt>
<rscale>  0 0.12499303E+03</rscale>
<asrwt>0</asrwt>
<pdfrwt beam="2">  1        4 0.19360464E-01 0.12499303E+03</pdfrwt>
<pdfrwt beam="1">  1       -4 0.47749533E-02 0.12499303E+03</pdfrwt>
<totfact> 0.97963004E+03</totfact>
</mgrwt>
</event>
<event>
 5    1  0.3234540E-002  0.1250027E+03  0.7818608E-02  0.1235065E+00
          4   -1    0    0  501    0  0.00000000000E+00  0.00000000000E+00  0.15598590520E+03  0.15599107513E+03  0.12700000000E+01 0.  1.
         -4   -1    0    0    0  501 -0.00000000000E+00 -0.00000000000E+00 -0.25021734740E+02  0.25053943989E+02  0.12700000000E+01 0.  1.
         25    2    1    2    0    0  0.00000000000E+00  0.00000000000E+00  0.13096417046E+03  0.18104501912E+03  0.12500273999E+03 0.  0.
    9000005    1    3    3    0    0 -0.40208248428E+02  0.42008903723E+02  0.32329281175E+02  0.66540466296E+02  0.10000000000E+01 0.  0.
    9000005    1    3    3    0    0  0.40208248428E+02 -0.42008903723E+02  0.98634889286E+02  0.11450455283E+03  0.10000000000E+01 0.  0.
<mgrwt>
<rscale>  0 0.12500274E+03</rscale>
<asrwt>0</asrwt>
<pdfrwt beam="1">  1        4 0.24000707E-01 0.12500274E+03</pdfrwt>
<pdfrwt beam="2">  1       -4 0.38523730E-02 0.12500274E+03</pdfrwt>
<totfact> 0.93423495E+03</totfact>
</mgrwt>
</event>
<event>
 5    1  0.3234540E-002  0.1249916E+03  0.7818608E-02  0.1235082E+00
         -4   -1    0    0    0  501 -0.00000000000E+00  0.00000000000E+00  0.63147151929E+01  0.64411588994E+01  0.12700000000E+01 0. -1.
          4   -1    0    0  501    0  0.00000000000E+00 -0.00000000000E+00 -0.61225310570E+03  0.61225442288E+03  0.12700000000E+01 0. -1.
         25    2    1    2    0    0  0.00000000000E+00  0.00000000000E+00 -0.60593839051E+03  0.61869558178E+03  0.12499155902E+03 0.  0.
    9000005    1    3    3    0    0  0.18533808552E+02 -0.28862026186E+01 -0.79248981671E+01  0.20387158604E+02  0.10000000000E+01 0.  0.
    9000005    1    3    3    0    0 -0.18533808552E+02  0.28862026186E+01 -0.59801349234E+03  0.59830842318E+03  0.10000000000E+01 0.  0.
<mgrwt>
<rscale>  0 0.12499156E+03</rscale>
<asrwt>0</asrwt>
<pdfrwt beam="2">  1        4 0.94202566E-01 0.12499156E+03</pdfrwt>
<pdfrwt beam="1">  1       -4 0.98132289E-03 0.12499156E+03</pdfrwt>
<totfact> 0.47717209E+03</totfact>
</mgrwt>
</event>
<event>
 5    1  0.3234540E-002  0.1249975E+03  0.7818608E-02  0.1235073E+00
          4   -1    0    0  501    0  0.00000000000E+00  0.00000000000E+00  0.45327240286E+03  0.45327418202E+03  0.12700000000E+01 0.  1.
         -4   -1    0    0    0  501 -0.00000000000E+00 -0.00000000000E+00 -0.85689425344E+01  0.86625444390E+01  0.12700000000E+01 0.  1.
         25    2    1    2    0    0  0.00000000000E+00  0.00000000000E+00  0.44470346032E+03  0.46193672646E+03  0.12499748651E+03 0.  0.
    9000005    1    3    3    0    0 -0.57609270436E+02 -0.11663920716E+02  0.30076553971E+03  0.30645682398E+03  0.10000000000E+01 0.  0.
    9000005    1    3    3    0    0  0.57609270436E+02  0.11663920716E+02  0.14393792061E+03  0.15547990248E+03  0.10000000000E+01 0.  0.
<mgrwt>
<rscale>  0 0.12499749E+03</rscale>
<asrwt>0</asrwt>
<pdfrwt beam="1">  1        4 0.69741561E-01 0.12499749E+03</pdfrwt>
<pdfrwt beam="2">  1       -4 0.13256357E-02 0.12499749E+03</pdfrwt>
<totfact> 0.58946744E+03</totfact>
</mgrwt>
</event>
<event>
 5    1  0.3234540E-002  0.1249879E+03  0.7818608E-02  0.1235088E+00
          4   -1    0    0  501    0  0.00000000000E+00  0.00000000000E+00  0.21152345785E+02  0.21190437282E+02  0.12700000000E+01 0.  1.
         -4   -1    0    0    0  501 -0.00000000000E+00 -0.00000000000E+00 -0.18443009309E+03  0.18443446570E+03  0.12700000000E+01 0.  1.
         25    2    1    2    0    0  0.00000000000E+00  0.00000000000E+00 -0.16327774730E+03  0.20562490298E+03  0.12498791126E+03 0.  0.
    9000005    1    3    3    0    0 -0.22632224994E+02  0.33334776344E+02 -0.16021253040E+03  0.16520435775E+03  0.10000000000E+01 0.  0.
    9000005    1    3    3    0    0  0.22632224994E+02 -0.33334776344E+02 -0.30652169052E+01  0.40420545231E+02  0.10000000000E+01 0.  0.
<mgrwt>
<rscale>  0 0.12498791E+03</rscale>
<asrwt>0</asrwt>
<pdfrwt beam="1">  1        4 0.32574736E-02 0.12498791E+03</pdfrwt>
<pdfrwt beam="2">  1       -4 0.28377126E-01 0.12498791E+03</pdfrwt>
<totfact> 0.89219534E+03</totfact>
</mgrwt>
</event>
<event>
 5    1  0.3234540E-002  0.1250003E+03  0.7818608E-02  0.1235069E+00
          4   -1    0    0  501    0  0.00000000000E+00  0.00000000000E+00  0.12885972941E+03  0.12886598761E+03  0.12700000000E+01 0. -1.
         -4   -1    0    0    0  501 -0.00000000000E+00 -0.00000000000E+00 -0.30293795383E+02  0.30320404660E+02  0.12700000000E+01 0. -1.
         25    2    1    2    0    0  0.00000000000E+00  0.00000000000E+00  0.98565934024E+02  0.15918639227E+03  0.12500025654E+03 0.  0.
    9000005    1    3    3    0    0 -0.25316390530E+02 -0.79841701006E+01  0.12132910371E+03  0.12420313205E+03  0.10000000000E+01 0.  0.
    9000005    1    3    3    0    0  0.25316390530E+02  0.79841701006E+01 -0.22763169690E+02  0.34983260225E+02  0.10000000000E+01 0.  0.
<mgrwt>
<rscale>  0 0.12500026E+03</rscale>
<asrwt>0</asrwt>
<pdfrwt beam="1">  1        4 0.19827102E-01 0.12500026E+03</pdfrwt>
<pdfrwt beam="2">  1       -4 0.46631122E-02 0.12500026E+03</pdfrwt>
<totfact> 0.97499309E+03</totfact>
</mgrwt>
</event>
<event>
 5    1  0.3234540E-002  0.1249976E+03  0.7818608E-02  0.1235073E+00
          4   -1    0    0  501    0  0.00000000000E+00  0.00000000000E+00  0.33856550183E+01  0.36160143671E+01  0.12700000000E+01 0.  1.
         -4   -1    0    0    0  501 -0.00000000000E+00 -0.00000000000E+00 -0.11155317000E+04  0.11155324229E+04  0.12700000000E+01 0.  1.
         25    2    1    2    0    0  0.00000000000E+00  0.00000000000E+00 -0.11121460450E+04  0.11191484373E+04  0.12499759731E+03 0.  0.
    9000005    1    3    3    0    0  0.20165746914E+02 -0.59119782129E+02 -0.57232243421E+03  0.57572195953E+03  0.10000000000E+01 0.  0.
    9000005    1    3    3    0    0 -0.20165746914E+02  0.59119782129E+02 -0.53982361075E+03  0.54342647774E+03  0.10000000000E+01 0.  0.
<mgrwt>
<rscale>  0 0.12499760E+03</rscale>
<asrwt>0</asrwt>
<pdfrwt beam="1">  1        4 0.53864645E-03 0.12499760E+03</pdfrwt>
<pdfrwt beam="2">  1       -4 0.17163775E+00 0.12499760E+03</pdfrwt>
<totfact> 0.26931091E+03</totfact>
</mgrwt>
</event>
<event>
 5    1  0.3234540E-002  0.1250020E+03  0.7818608E-02  0.1235066E+00
         -4   -1    0    0    0  501 -0.00000000000E+00  0.00000000000E+00  0.15769149369E+02  0.15820207705E+02  0.12700000000E+01 0.  1.
          4   -1    0    0  501    0  0.00000000000E+00 -0.00000000000E+00 -0.24726952312E+03  0.24727278452E+03  0.12700000000E+01 0.  1.
         25    2    1    2    0    0  0.00000000000E+00  0.00000000000E+00 -0.23150037375E+03  0.26309299223E+03  0.12500199803E+03 0.  0.
    9000005    1    3    3    0    0  0.72877246408E+01  0.66065622072E+01  0.14139895563E+02  0.17253818162E+02  0.10000000000E+01 0.  0.
    9000005    1    3    3    0    0 -0.72877246408E+01 -0.66065622072E+01 -0.24564026932E+03  0.24583917406E+03  0.10000000000E+01 0.  0.
<mgrwt>
<rscale>  0 0.12500200E+03</rscale>
<asrwt>0</asrwt>
<pdfrwt beam="2">  1        4 0.38045641E-01 0.12500200E+03</pdfrwt>
<pdfrwt beam="1">  1       -4 0.24302016E-02 0.12500200E+03</pdfrwt>
<totfact> 0.80470376E+03</totfact>
</mgrwt>
</event>
<event>
 5    1  0.3234540E-002  0.1250004E+03  0.7818608E-02  0.1235069E+00
         -4   -1    0    0    0  501 -0.00000000000E+00  0.00000000000E+00  0.12148384449E+04  0.12148391087E+04  0.12700000000E+01 0. -1.
          4   -1    0    0  501    0  0.00000000000E+00 -0.00000000000E+00 -0.30893783179E+01  0.33402332840E+01  0.12700000000E+01 0. -1.
         25    2    1    2    0    0  0.00000000000E+00  0.00000000000E+00  0.12117490666E+04  0.12181793420E+04  0.12500043582E+03 0.  0.
    9000005    1    3    3    0    0 -0.53780243937E+02  0.48833511045E+00  0.29574346003E+03  0.30059565409E+03  0.10000000000E+01 0.  0.
    9000005    1    3    3    0    0  0.53780243937E+02 -0.48833511045E+00  0.91600560657E+03  0.91758368794E+03  0.10000000000E+01 0.  0.
<mgrwt>
<rscale>  0 0.12500044E+03</rscale>
<asrwt>0</asrwt>
<pdfrwt beam="2">  1        4 0.49463582E-03 0.12500044E+03</pdfrwt>
<pdfrwt beam="1">  1       -4 0.18691785E+00 0.12500044E+03</pdfrwt>
<totfact> 0.24241531E+03</totfact>
</mgrwt>
</event>
<event>
 5    1  0.3234540E-002  0.1249939E+03  0.7818608E-02  0.1235079E+00
          4   -1    0    0  501    0  0.00000000000E+00  0.00000000000E+00  0.75677892516E+01  0.76736128491E+01  0.12700000000E+01 0.  1.
         -4   -1    0    0    0  501 -0.00000000000E+00 -0.00000000000E+00 -0.51242741364E+03  0.51242898742E+03  0.12700000000E+01 0.  1.
         25    2    1    2    0    0  0.00000000000E+00  0.00000000000E+00 -0.50485962438E+03  0.52010260027E+03  0.12499389773E+03 0.  0.
    9000005    1    3    3    0    0 -0.20345857217E+02  0.40258806136E+02 -0.72485696318E+02  0.85380920282E+02  0.10000000000E+01 0.  0.
    9000005    1    3    3    0    0  0.20345857217E+02 -0.40258806136E+02 -0.43237392807E+03  0.43472167998E+03  0.10000000000E+01 0.  0.
<mgrwt>
<rscale>  0 0.12499390E+03</rscale>
<asrwt>0</asrwt>
<pdfrwt beam="1">  1        4 0.11725370E-02 0.12499390E+03</pdfrwt>
<pdfrwt beam="2">  1       -4 0.78843221E-01 0.12499390E+03</pdfrwt>
<totfact> 0.54345001E+03</totfact>
</mgrwt>
</event>
<event>
 5    1  0.3234540E-002  0.1250026E+03  0.7818608E-02  0.1235065E+00
         -4   -1    0    0    0  501 -0.00000000000E+00  0.00000000000E+00  0.43897838302E+01  0.45698032863E+01  0.12700000000E+01 0.  1.
          4   -1    0    0  501    0  0.00000000000E+00 -0.00000000000E+00 -0.87182650188E+03  0.87182742689E+03  0.12700000000E+01 0.  1.
         25    2    1    2    0    0  0.00000000000E+00  0.00000000000E+00 -0.86743671805E+03  0.87639723018E+03  0.12500258094E+03 0.  0.
    9000005    1    3    3    0    0  0.23743959487E+02 -0.54547221948E+02 -0.29954611107E+03  0.30539817893E+03  0.10000000000E+01 0.  0.
    9000005    1    3    3    0    0 -0.23743959487E+02  0.54547221948E+02 -0.56789060698E+03  0.57099905125E+03  0.10000000000E+01 0.  0.
<mgrwt>
<rscale>  0 0.12500258E+03</rscale>
<asrwt>0</asrwt>
<pdfrwt beam="2">  1        4 0.13414094E+00 0.12500258E+03</pdfrwt>
<pdfrwt beam="1">  1       -4 0.68927086E-03 0.12500258E+03</pdfrwt>
<totfact> 0.35068854E+03</totfact>
</mgrwt>
</event>
<event>
 5    1  0.3234540E-002  0.1250058E+03  0.7818608E-02  0.1235060E+00
          4   -1    0    0  501    0  0.00000000000E+00  0.00000000000E+00  0.11154189321E+03  0.11154912299E+03  0.12700000000E+01 0.  1.
         -4   -1    0    0    0  501 -0.00000000000E+00 -0.00000000000E+00 -0.35003839242E+02  0.35026870566E+02  0.12700000000E+01 0.  1.
         25    2    1    2    0    0  0.00000000000E+00  0.00000000000E+00  0.76538053968E+02  0.14657599356E+03  0.12500579260E+03 0.  0.
    9000005    1    3    3    0    0 -0.16706692924E+02  0.23022023272E+02 -0.26978971200E+02  0.39217241502E+02  0.10000000000E+01 0.  0.
    9000005    1    3    3    0    0  0.16706692924E+02 -0.23022023272E+02  0.10351702517E+03  0.10735875206E+03  0.10000000000E+01 0.  0.
<mgrwt>
<rscale>  0 0.12500579E+03</rscale>
<asrwt>0</asrwt>
<pdfrwt beam="1">  1        4 0.17162619E-01 0.12500579E+03</pdfrwt>
<pdfrwt beam="2">  1       -4 0.53875339E-02 0.12500579E+03</pdfrwt>
<totfact> 0.99977616E+03</totfact>
</mgrwt>
</event>
<event>
 5    1  0.3234540E-002  0.1249869E+03  0.7818608E-02  0.1235090E+00
         -4   -1    0    0    0  501 -0.00000000000E+00  0.00000000000E+00  0.28656831556E+03  0.28657112971E+03  0.12700000000E+01 0.  1.
          4   -1    0    0  501    0  0.00000000000E+00 -0.00000000000E+00 -0.13595799848E+02  0.13654987129E+02  0.12700000000E+01 0.  1.
         25    2    1    2    0    0  0.00000000000E+00  0.00000000000E+00  0.27297251571E+03  0.30022611683E+03  0.12498690690E+03 0.  0.
    9000005    1    3    3    0    0  0.35386692812E+02 -0.51335348649E+02  0.12661274432E+03  0.14113583199E+03  0.10000000000E+01 0.  0.
    9000005    1    3    3    0    0 -0.35386692812E+02  0.51335348649E+02  0.14635977139E+03  0.15909028484E+03  0.10000000000E+01 0.  0.
<mgrwt>
<rscale>  0 0.12498691E+03</rscale>
<asrwt>0</asrwt>
<pdfrwt beam="2">  1        4 0.20964309E-02 0.12498691E+03</pdfrwt>
<pdfrwt beam="1">  1       -4 0.44092203E-01 0.12498691E+03</pdfrwt>
<totfact> 0.75592451E+03</totfact>
</mgrwt>
</event>
<event>
 5    1  0.3234540E-002  0.1249966E+03  0.7818608E-02  0.1235075E+00
         -4   -1    0    0    0  501 -0.00000000000E+00  0.00000000000E+00  0.37349525775E+02  0.37371111512E+02  0.12700000000E+01 0. -1.
          4   -1    0    0  501    0  0.00000000000E+00 -0.00000000000E+00 -0.10452497633E+03  0.10453269142E+03  0.12700000000E+01 0. -1.
         25    2    1    2    0    0  0.00000000000E+00  0.00000000000E+00 -0.67175450550E+02  0.14190380293E+03  0.12499659248E+03 0.  0.
    9000005    1    3    3    0    0  0.32833244810E+02  0.21384591198E+02 -0.88851921469E+02  0.97113267137E+02  0.10000000000E+01 0.  0.
    9000005    1    3    3    0    0 -0.32833244810E+02 -0.21384591198E+02  0.21676470918E+02  0.44790535796E+02  0.10000000000E+01 0.  0.
<mgrwt>
<rscale>  0 0.12499659E+03</rscale>
<asrwt>0</asrwt>
<pdfrwt beam="2">  1        4 0.16083019E-01 0.12499659E+03</pdfrwt>
<pdfrwt beam="1">  1       -4 0.57483348E-02 0.12499659E+03</pdfrwt>
<totfact> 0.10095055E+04</totfact>
</mgrwt>
</event>
<event>
 5    1  0.3234540E-002  0.1249956E+03  0.7818608E-02  0.1235076E+00
          4   -1    0    0  501    0  0.00000000000E+00  0.00000000000E+00  0.19894559405E+03  0.19894964763E+03  0.12700000000E+01 0. -1.
         -4   -1    0    0    0  501 -0.00000000000E+00 -0.00000000000E+00 -0.19608579935E+02  0.19649664299E+02  0.12700000000E+01 0. -1.
         25    2    1    2    0    0  0.00000000000E+00  0.00000000000E+00  0.17933701411E+03  0.21859931193E+03  0.12499557810E+03 0.  0.
    9000005    1    3    3    0    0 -0.35243288670E+02  0.37252805245E+02  0.15211793059E+03  0.16053263127E+03  0.10000000000E+01 0.  0.
    9000005    1    3    3    0    0  0.35243288670E+02 -0.37252805245E+02  0.27219083522E+02  0.58066680658E+02  0.10000000000E+01 0.  0.
<mgrwt>
<rscale>  0 0.12499558E+03</rscale>
<asrwt>0</asrwt>
<pdfrwt beam="1">  1        4 0.30610487E-01 0.12499558E+03</pdfrwt>
<pdfrwt beam="2">  1       -4 0.30201767E-02 0.12499558E+03</pdfrwt>
<totfact> 0.87099079E+03</totfact>
</mgrwt>
</event>
<event>
 5    1  0.3234540E-002  0.1250070E+03  0.7818608E-02  0.1235058E+00
         -4   -1    0    0    0  501 -0.00000000000E+00  0.00000000000E+00  0.48489189456E+02  0.48505818147E+02  0.12700000000E+01 0. -1.
          4   -1    0    0  501    0  0.00000000000E+00 -0.00000000000E+00 -0.80532815787E+02  0.80542829095E+02  0.12700000000E+01 0. -1.
         25    2    1    2    0    0  0.00000000000E+00  0.00000000000E+00 -0.32043626331E+02  0.12904864724E+03  0.12500703727E+03 0.  0.
    9000005    1    3    3    0    0 -0.25343401361E+02  0.34112673575E+02 -0.63326094267E+02  0.76270287177E+02  0.10000000000E+01 0.  0.
    9000005    1    3    3    0    0  0.25343401361E+02 -0.34112673575E+02  0.31282467936E+02  0.52778360065E+02  0.10000000000E+01 0.  0.
<mgrwt>
<rscale>  0 0.12500704E+03</rscale>
<asrwt>0</asrwt>
<pdfrwt beam="2">  1        4 0.12391713E-01 0.12500704E+03</pdfrwt>
<pdfrwt beam="1">  1       -4 0.74619247E-02 0.12500704E+03</pdfrwt>
<totfact> 0.10363255E+04</totfact>
</mgrwt>
</event>
<event>
 5    1  0.3234540E-002  0.1249992E+03  0.7818608E-02  0.1235070E+00
         -4   -1    0    0    0  501 -0.00000000000E+00  0.00000000000E+00  0.95943905968E+02  0.95952311032E+02  0.12700000000E+01 0. -1.
          4   -1    0    0  501    0  0.00000000000E+00 -0.00000000000E+00 -0.40693296845E+02  0.40713109782E+02  0.12700000000E+01 0. -1.
         25    2    1    2    0    0  0.00000000000E+00  0.00000000000E+00  0.55250609123E+02  0.13666542081E+03  0.12499922975E+03 0.  0.
    9000005    1    3    3    0    0 -0.39490411981E+02 -0.42197303932E+02  0.16349194044E+01  0.57825410150E+02  0.10000000000E+01 0.  0.
    9000005    1    3    3    0    0  0.39490411981E+02  0.42197303932E+02  0.53615689718E+02  0.78840010664E+02  0.10000000000E+01 0.  0.
<mgrwt>
<rscale>  0 0.12499923E+03</rscale>
<asrwt>0</asrwt>
<pdfrwt beam="2">  1        4 0.62626780E-02 0.12499923E+03</pdfrwt>
<pdfrwt beam="1">  1       -4 0.14762771E-01 0.12499923E+03</pdfrwt>
<totfact> 0.10203263E+04</totfact>
</mgrwt>
</event>
<event>
 5    1  0.3234540E-002  0.1249989E+03  0.7818608E-02  0.1235071E+00
         -4   -1    0    0    0  501 -0.00000000000E+00  0.00000000000E+00  0.26675904851E+02  0.26706119142E+02  0.12700000000E+01 0.  1.
          4   -1    0    0  501    0  0.00000000000E+00 -0.00000000000E+00 -0.14631532287E+03  0.14632083449E+03  0.12700000000E+01 0.  1.
         25    2    1    2    0    0  0.00000000000E+00  0.00000000000E+00 -0.11963941801E+03  0.17302695363E+03  0.12499894535E+03 0.  0.
    9000005    1    3    3    0    0  0.15104792651E+02 -0.29069718335E+02 -0.13348324552E+03  0.13744809973E+03  0.10000000000E+01 0.  0.
    9000005    1    3    3    0    0 -0.15104792651E+02  0.29069718335E+02  0.13843827502E+02  0.35578853902E+02  0.10000000000E+01 0.  0.
<mgrwt>
<rscale>  0 0.12499895E+03</rscale>
<asrwt>0</asrwt>
<pdfrwt beam="2">  1        4 0.22512797E-01 0.12499895E+03</pdfrwt>
<pdfrwt beam="1">  1       -4 0.41067336E-02 0.12499895E+03</pdfrwt>
<totfact> 0.94889692E+03</totfact>
</mgrwt>
</event>
<event>
 5    1  0.3234540E-002  0.1250032E+03  0.7818608E-02  0.1235064E+00
         -4   -1    0    0    0  501 -0.00000000000E+00  0.00000000000E+00  0.39660242480E+02  0.39680571235E+02  0.12700000000E+01 0.  1.
          4   -1    0    0  501    0  0.00000000000E+00 -0.00000000000E+00 -0.98448207832E+02  0.98456399108E+02  0.12700000000E+01 0.  1.
         25    2    1    2    0    0  0.00000000000E+00  0.00000000000E+00 -0.58787965353E+02  0.13813697034E+03  0.12500319078E+03 0.  0.
    9000005    1    3    3    0    0 -0.19799944443E+01  0.35430185322E+02  0.27452383164E+02  0.44875959615E+02  0.10000000000E+01 0.  0.
    9000005    1    3    3    0    0  0.19799944443E+01 -0.35430185322E+02 -0.86240348516E+02  0.93261010729E+02  0.10000000000E+01 0.  0.
<mgrwt>
<rscale>  0 0.12500319E+03</rscale>
<asrwt>0</asrwt>
<pdfrwt beam="2">  1        4 0.15148072E-01 0.12500319E+03</pdfrwt>
<pdfrwt beam="1">  1       -4 0.61037697E-02 0.12500319E+03</pdfrwt>
<totfact> 0.10171613E+04</totfact>
</mgrwt>
</event>
<event>
 5    1  0.3234540E-002  0.1249993E+03  0.7818608E-02  0.1235070E+00
         -4   -1    0    0    0  501 -0.00000000000E+00  0.00000000000E+00  0.20646188248E+03  0.20646578849E+03  0.12700000000E+01 0. -1.
          4   -1    0    0  501    0  0.00000000000E+00 -0.00000000000E+00 -0.18894330929E+02  0.18936964943E+02  0.12700000000E+01 0. -1.
         25    2    1    2    0    0  0.00000000000E+00  0.00000000000E+00  0.18756755155E+03  0.22540275344E+03  0.12499925944E+03 0.  0.
    9000005    1    3    3    0    0 -0.44143242159E+02  0.43273455914E+02  0.11030928945E+03  0.12645298396E+03  0.10000000000E+01 0.  0.
    9000005    1    3    3    0    0  0.44143242159E+02 -0.43273455914E+02  0.77258262104E+02  0.98949769471E+02  0.10000000000E+01 0.  0.
<mgrwt>
<rscale>  0 0.12499926E+03</rscale>
<asrwt>0</asrwt>
<pdfrwt beam="2">  1        4 0.29103999E-02 0.12499926E+03</pdfrwt>
<pdfrwt beam="1">  1       -4 0.31766950E-01 0.12499926E+03</pdfrwt>
<totfact> 0.86021963E+03</totfact>
</mgrwt>
</event>
<event>
 5    1  0.3234540E-002  0.1249981E+03  0.7818608E-02  0.1235072E+00
         -4   -1    0    0    0  501 -0.00000000000E+00  0.00000000000E+00  0.43632529269E+01  0.45443235034E+01  0.12700000000E+01 0.  1.
          4   -1    0    0  501    0  0.00000000000E+00 -0.00000000000E+00 -0.87685416491E+03  0.87685508461E+03  0.12700000000E+01 0.  1.
         25    2    1    2    0    0  0.00000000000E+00  0.00000000000E+00 -0.87249091198E+03  0.88139940812E+03  0.12499810056E+03 0.  0.
    9000005    1    3    3    0    0  0.10507497502E+02 -0.65555268059E+01 -0.43424566779E+01  0.13162042602E+02  0.10000000000E+01 0.  0.
    9000005    1    3    3    0    0 -0.10507497502E+02  0.65555268059E+01 -0.86814845530E+03  0.86823736552E+03  0.10000000000E+01 0.  0.
<mgrwt>
<rscale>  0 0.12499810E+03</rscale>
<asrwt>0</asrwt>
<pdfrwt beam="2">  1        4 0.13491450E+00 0.12499810E+03</pdfrwt>
<pdfrwt beam="1">  1       -4 0.68526963E-03 0.12499810E+03</pdfrwt>
<totfact> 0.34877207E+03</totfact>
</mgrwt>
</event>
<event>
 5    1  0.3234540E-002  0.1249974E+03  0.7818608E-02  0.1235073E+00
          4   -1    0    0  501    0  0.00000000000E+00  0.00000000000E+00  0.47368084125E+03  0.47368254376E+03  0.12700000000E+01 0. -1.
         -4   -1    0    0    0  501 -0.00000000000E+00 -0.00000000000E+00 -0.81956227100E+01  0.82934390698E+01  0.12700000000E+01 0. -1.
         25    2    1    2    0    0  0.00000000000E+00  0.00000000000E+00  0.46548521854E+03  0.48197598283E+03  0.12499743737E+03 0.  0.
    9000005    1    3    3    0    0  0.23194720864E+02  0.51657632750E+01  0.98867006658E+01  0.25757077400E+02  0.10000000000E+01 0.  0.
    9000005    1    3    3    0    0 -0.23194720864E+02 -0.51657632750E+01  0.45559851787E+03  0.45621890543E+03  0.10000000000E+01 0.  0.
<mgrwt>
<rscale>  0 0.12499744E+03</rscale>
<asrwt>0</asrwt>
<pdfrwt beam="1">  1        4 0.72881622E-01 0.12499744E+03</pdfrwt>
<pdfrwt beam="2">  1       -4 0.12685205E-02 0.12499744E+03</pdfrwt>
<totfact> 0.57293671E+03</totfact>
</mgrwt>
</event>
<event>
 5    1  0.3234540E-002  0.1250013E+03  0.7818608E-02  0.1235067E+00
         -4   -1    0    0    0  501 -0.00000000000E+00  0.00000000000E+00  0.66135131838E+03  0.66135253778E+03  0.12700000000E+01 0. -1.
          4   -1    0    0  501    0  0.00000000000E+00 -0.00000000000E+00 -0.58370800223E+01  0.59736423718E+01  0.12700000000E+01 0. -1.
         25    2    1    2    0    0  0.00000000000E+00  0.00000000000E+00  0.65551423836E+03  0.66732618015E+03  0.12500125608E+03 0.  0.
    9000005    1    3    3    0    0  0.82765201216E+01 -0.49349479001E+02  0.12790276284E+03  0.13734623622E+03  0.10000000000E+01 0.  0.
    9000005    1    3    3    0    0 -0.82765201216E+01  0.49349479001E+02  0.52761147552E+03  0.52997994393E+03  0.10000000000E+01 0.  0.
<mgrwt>
<rscale>  0 0.12500126E+03</rscale>
<asrwt>0</asrwt>
<pdfrwt beam="2">  1        4 0.90861092E-03 0.12500126E+03</pdfrwt>
<pdfrwt beam="1">  1       -4 0.10175695E+00 0.12500126E+03</pdfrwt>
<totfact> 0.44867257E+03</totfact>
</mgrwt>
</event>
<event>
 5    1  0.3234540E-002  0.1250015E+03  0.7818608E-02  0.1235067E+00
          4   -1    0    0  501    0  0.00000000000E+00  0.00000000000E+00  0.63922619416E+02  0.63935234207E+02  0.12700000000E+01 0. -1.
         -4   -1    0    0    0  501 -0.00000000000E+00 -0.00000000000E+00 -0.61085300490E+02  0.61098501094E+02  0.12700000000E+01 0. -1.
         25    2    1    2    0    0  0.00000000000E+00  0.00000000000E+00  0.28373189267E+01  0.12503373530E+03  0.12500153833E+03 0.  0.
    9000005    1    3    3    0    0  0.39105729942E+01 -0.61809680278E+02  0.97644881491E+01  0.62706254760E+02  0.10000000000E+01 0.  0.
    9000005    1    3    3    0    0 -0.39105729942E+01  0.61809680278E+02 -0.69271692225E+01  0.62327480541E+02  0.10000000000E+01 0.  0.
<mgrwt>
<rscale>  0 0.12500154E+03</rscale>
<asrwt>0</asrwt>
<pdfrwt beam="1">  1        4 0.98362349E-02 0.12500154E+03</pdfrwt>
<pdfrwt beam="2">  1       -4 0.93997244E-02 0.12500154E+03</pdfrwt>
<totfact> 0.10451766E+04</totfact>
</mgrwt>
</event>
<event>
 5    1  0.3234540E-002  0.1249982E+03  0.7818608E-02  0.1235072E+00
         -4   -1    0    0    0  501 -0.00000000000E+00  0.00000000000E+00  0.20381433243E+03  0.20381828918E+03  0.12700000000E+01 0.  1.
          4   -1    0    0  501    0  0.00000000000E+00 -0.00000000000E+00 -0.19140001254E+02  0.19182089250E+02  0.12700000000E+01 0.  1.
         25    2    1    2    0    0  0.00000000000E+00  0.00000000000E+00  0.18467433117E+03  0.22300037843E+03  0.12499824073E+03 0.  0.
    9000005    1    3    3    0    0  0.74162883096E+01 -0.87994000167E+01  0.20191642708E+03  0.20224656807E+03  0.10000000000E+01 0.  0.
    9000005    1    3    3    0    0 -0.74162883096E+01  0.87994000167E+01 -0.17242095906E+02  0.20753810354E+02  0.10000000000E+01 0.  0.
<mgrwt>
<rscale>  0 0.12499824E+03</rscale>
<asrwt>0</asrwt>
<pdfrwt beam="2">  1        4 0.29481575E-02 0.12499824E+03</pdfrwt>
<pdfrwt beam="1">  1       -4 0.31359593E-01 0.12499824E+03</pdfrwt>
<totfact> 0.86399188E+03</totfact>
</mgrwt>
</event>
<event>
 5    1  0.3234540E-002  0.1250012E+03  0.7818608E-02  0.1235067E+00
         -4   -1    0    0    0  501 -0.00000000000E+00  0.00000000000E+00  0.13127162160E+02  0.13188452766E+02  0.12700000000E+01 0.  1.
          4   -1    0    0  501    0  0.00000000000E+00 -0.00000000000E+00 -0.29681986632E+03  0.29682258328E+03  0.12700000000E+01 0.  1.
         25    2    1    2    0    0  0.00000000000E+00  0.00000000000E+00 -0.28369270416E+03  0.31001103604E+03  0.12500116829E+03 0.  0.
    9000005    1    3    3    0    0 -0.30450752582E+02 -0.17498615816E+02 -0.27004132611E+03  0.27231740248E+03  0.10000000000E+01 0.  0.
    9000005    1    3    3    0    0  0.30450752582E+02  0.17498615816E+02 -0.13651378054E+02  0.37693633561E+02  0.10000000000E+01 0.  0.
<mgrwt>
<rscale>  0 0.12500117E+03</rscale>
<asrwt>0</asrwt>
<pdfrwt beam="2">  1        4 0.45669514E-01 0.12500117E+03</pdfrwt>
<pdfrwt beam="1">  1       -4 0.20244873E-02 0.12500117E+03</pdfrwt>
<totfact> 0.74358065E+03</totfact>
</mgrwt>
</event>
<event>
 5    1  0.3234540E-002  0.1250011E+03  0.7818608E-02  0.1235068E+00
          4   -1    0    0  501    0  0.00000000000E+00  0.00000000000E+00  0.69778275231E+02  0.69789831596E+02  0.12700000000E+01 0.  1.
         -4   -1    0    0    0  501 -0.00000000000E+00 -0.00000000000E+00 -0.55958450075E+02  0.55972859805E+02  0.12700000000E+01 0.  1.
         25    2    1    2    0    0  0.00000000000E+00  0.00000000000E+00  0.13819825156E+02  0.12576269140E+03  0.12500106792E+03 0.  0.
    9000005    1    3    3    0    0  0.61876624514E+02  0.87466316539E+01  0.72224802092E+01  0.62915693169E+02  0.10000000000E+01 0.  0.
    9000005    1    3    3    0    0 -0.61876624514E+02 -0.87466316539E+01  0.65973449468E+01  0.62846998233E+02  0.10000000000E+01 0.  0.
<mgrwt>
<rscale>  0 0.12500107E+03</rscale>
<asrwt>0</asrwt>
<pdfrwt beam="1">  1        4 0.10737117E-01 0.12500107E+03</pdfrwt>
<pdfrwt beam="2">  1       -4 0.86109897E-02 0.12500107E+03</pdfrwt>
<totfact> 0.10435914E+04</totfact>
</mgrwt>
</event>
<event>
 5    1  0.3234540E-002  0.1250395E+03  0.7818608E-02  0.1235008E+00
         -4   -1    0    0    0  501 -0.00000000000E+00  0.00000000000E+00  0.12182706485E+02  0.12248723905E+02  0.12700000000E+01 0. -1.
          4   -1    0    0  501    0  0.00000000000E+00 -0.00000000000E+00 -0.31990719078E+03  0.31990971165E+03  0.12700000000E+01 0. -1.
         25    2    1    2    0    0  0.00000000000E+00  0.00000000000E+00 -0.30772448429E+03  0.33215843556E+03  0.12503946609E+03 0.  0.
    9000005    1    3    3    0    0  0.48336444636E+02 -0.36322202334E+02 -0.11169251194E+03  0.12701154076E+03  0.10000000000E+01 0.  0.
    9000005    1    3    3    0    0 -0.48336444636E+02  0.36322202334E+02 -0.19603197236E+03  0.20514689480E+03  0.10000000000E+01 0.  0.
<mgrwt>
<rscale>  0 0.12503947E+03</rscale>
<asrwt>0</asrwt>
<pdfrwt beam="2">  1        4 0.49221757E-01 0.12503947E+03</pdfrwt>
<pdfrwt beam="1">  1       -4 0.18795350E-02 0.12503947E+03</pdfrwt>
<totfact> 0.71670326E+03</totfact>
</mgrwt>
</event>
<event>
 5    1  0.3234540E-002  0.1249985E+03  0.7818608E-02  0.1235072E+00
         -4   -1    0    0    0  501 -0.00000000000E+00  0.00000000000E+00  0.37567652592E+03  0.37567867257E+03  0.12700000000E+01 0.  1.
          4   -1    0    0  501    0  0.00000000000E+00 -0.00000000000E+00 -0.10356693015E+02  0.10434269989E+02  0.12700000000E+01 0.  1.
         25    2    1    2    0    0  0.00000000000E+00  0.00000000000E+00  0.36531983290E+03  0.38611294256E+03  0.12499849640E+03 0.  0.
    9000005    1    3    3    0    0  0.43301195805E+02 -0.19534062807E+02  0.57240446694E+02  0.74391141312E+02  0.10000000000E+01 0.  0.
    9000005    1    3    3    0    0 -0.43301195805E+02  0.19534062807E+02  0.30807938621E+03  0.31172180125E+03  0.10000000000E+01 0.  0.
<mgrwt>
<rscale>  0 0.12499850E+03</rscale>
<asrwt>0</asrwt>
<pdfrwt beam="2">  1        4 0.15994698E-02 0.12499850E+03</pdfrwt>
<pdfrwt beam="1">  1       -4 0.57802529E-01 0.12499850E+03</pdfrwt>
<totfact> 0.65928398E+03</totfact>
</mgrwt>
</event>
<event>
 5    1  0.3234540E-002  0.1250013E+03  0.7818608E-02  0.1235067E+00
         -4   -1    0    0    0  501 -0.00000000000E+00  0.00000000000E+00  0.11100105785E+03  0.11100832285E+03  0.12700000000E+01 0.  1.
          4   -1    0    0  501    0  0.00000000000E+00 -0.00000000000E+00 -0.35171958932E+02  0.35194880240E+02  0.12700000000E+01 0.  1.
         25    2    1    2    0    0  0.00000000000E+00  0.00000000000E+00  0.75829098915E+02  0.14620320309E+03  0.12500129740E+03 0.  0.
    9000005    1    3    3    0    0  0.45838862340E+02 -0.31044051249E+02  0.40079271826E+01  0.55515744603E+02  0.10000000000E+01 0.  0.
    9000005    1    3    3    0    0 -0.45838862340E+02  0.31044051249E+02  0.71821171732E+02  0.90687458491E+02  0.10000000000E+01 0.  0.
<mgrwt>
<rscale>  0 0.12500130E+03</rscale>
<asrwt>0</asrwt>
<pdfrwt beam="2">  1        4 0.54133928E-02 0.12500130E+03</pdfrwt>
<pdfrwt beam="1">  1       -4 0.17079407E-01 0.12500130E+03</pdfrwt>
<totfact> 0.10006307E+04</totfact>
</mgrwt>
</event>
<event>
 5    1  0.3234540E-002  0.1249994E+03  0.7818608E-02  0.1235070E+00
          4   -1    0    0  501    0  0.00000000000E+00  0.00000000000E+00  0.34631888241E+03  0.34632121103E+03  0.12700000000E+01 0. -1.
         -4   -1    0    0    0  501 -0.00000000000E+00 -0.00000000000E+00 -0.11241110041E+02  0.11312623699E+02  0.12700000000E+01 0. -1.
         25    2    1    2    0    0  0.00000000000E+00  0.00000000000E+00  0.33507777236E+03  0.35763383473E+03  0.12499938485E+03 0.  0.
    9000005    1    3    3    0    0  0.47749106282E+02 -0.28190051316E+02  0.85084259602E+02  0.10156272631E+03  0.10000000000E+01 0.  0.
    9000005    1    3    3    0    0 -0.47749106282E+02  0.28190051316E+02  0.24999351276E+03  0.25607110842E+03  0.10000000000E+01 0.  0.
<mgrwt>
<rscale>  0 0.12499938E+03</rscale>
<asrwt>0</asrwt>
<pdfrwt beam="1">  1        4 0.53285508E-01 0.12499938E+03</pdfrwt>
<pdfrwt beam="2">  1       -4 0.17350817E-02 0.12499938E+03</pdfrwt>
<totfact> 0.68893761E+03</totfact>
</mgrwt>
</event>
<event>
 5    1  0.3234540E-002  0.1249993E+03  0.7818608E-02  0.1235070E+00
         -4   -1    0    0    0  501 -0.00000000000E+00  0.00000000000E+00  0.83220067731E+02  0.83229757738E+02  0.12700000000E+01 0.  1.
          4   -1    0    0  501    0  0.00000000000E+00 -0.00000000000E+00 -0.46917222633E+02  0.46934408269E+02  0.12700000000E+01 0.  1.
         25    2    1    2    0    0  0.00000000000E+00  0.00000000000E+00  0.36302845098E+02  0.13016416601E+03  0.12499925420E+03 0.  0.
    9000005    1    3    3    0    0  0.25308101995E+02 -0.16434204041E+02 -0.38832835800E+02  0.49189147434E+02  0.10000000000E+01 0.  0.
    9000005    1    3    3    0    0 -0.25308101995E+02  0.16434204041E+02  0.75135680897E+02  0.80975018573E+02  0.10000000000E+01 0.  0.
<mgrwt>
<rscale>  0 0.12499925E+03</rscale>
<asrwt>0</asrwt>
<pdfrwt beam="2">  1        4 0.72201016E-02 0.12499925E+03</pdfrwt>
<pdfrwt beam="1">  1       -4 0.12805155E-01 0.12499925E+03</pdfrwt>
<totfact> 0.10341171E+04</totfact>
</mgrwt>
</event>
<event>
 5    1  0.3234540E-002  0.1249981E+03  0.7818608E-02  0.1235072E+00
          4   -1    0    0  501    0  0.00000000000E+00  0.00000000000E+00  0.29804388974E+02  0.29831434798E+02  0.12700000000E+01 0. -1.
         -4   -1    0    0    0  501 -0.00000000000E+00 -0.00000000000E+00 -0.13096943138E+03  0.13097558878E+03  0.12700000000E+01 0. -1.
         25    2    1    2    0    0  0.00000000000E+00  0.00000000000E+00 -0.10116504241E+03  0.16080702358E+03  0.12499813210E+03 0.  0.
    9000005    1    3    3    0    0  0.50280431315E+01 -0.61313933531E+02 -0.36463279540E+02  0.71520978864E+02  0.10000000000E+01 0.  0.
    9000005    1    3    3    0    0 -0.50280431315E+01  0.61313933531E+02 -0.64701762870E+02  0.89286044718E+02  0.10000000000E+01 0.  0.
<mgrwt>
<rscale>  0 0.12499813E+03</rscale>
<asrwt>0</asrwt>
<pdfrwt beam="1">  1        4 0.45878448E-02 0.12499813E+03</pdfrwt>
<pdfrwt beam="2">  1       -4 0.20151697E-01 0.12499813E+03</pdfrwt>
<totfact> 0.97191503E+03</totfact>
</mgrwt>
</event>
<event>
 5    1  0.3234540E-002  0.1249771E+03  0.7818608E-02  0.1235105E+00
         -4   -1    0    0    0  501 -0.00000000000E+00  0.00000000000E+00  0.99952215428E+01  0.10075582052E+02  0.12700000000E+01 0.  1.
          4   -1    0    0  501    0  0.00000000000E+00 -0.00000000000E+00 -0.38902291367E+03  0.38902498668E+03  0.12700000000E+01 0.  1.
         25    2    1    2    0    0  0.00000000000E+00  0.00000000000E+00 -0.37902769213E+03  0.39910056873E+03  0.12497708815E+03 0.  0.
    9000005    1    3    3    0    0 -0.38063713074E+02  0.23979910181E+02 -0.51054124641E+02  0.68054434008E+02  0.10000000000E+01 0.  0.
    9000005    1    3    3    0    0  0.38063713074E+02 -0.23979910181E+02 -0.32797356749E+03  0.33104613472E+03  0.10000000000E+01 0.  0.
<mgrwt>
<rscale>  0 0.12497709E+03</rscale>
<asrwt>0</asrwt>
<pdfrwt beam="2">  1        4 0.59856009E-01 0.12497709E+03</pdfrwt>
<pdfrwt beam="1">  1       -4 0.15440677E-02 0.12497709E+03</pdfrwt>
<totfact> 0.64673075E+03</totfact>
</mgrwt>
</event>
<event>
 5    1  0.3234540E-002  0.1250046E+03  0.7818608E-02  0.1235062E+00
          4   -1    0    0  501    0  0.00000000000E+00  0.00000000000E+00  0.47844701139E+02  0.47861553747E+02  0.12700000000E+01 0.  1.
         -4   -1    0    0    0  501 -0.00000000000E+00 -0.00000000000E+00 -0.81614249973E+02  0.81624130615E+02  0.12700000000E+01 0.  1.
         25    2    1    2    0    0  0.00000000000E+00  0.00000000000E+00 -0.33769548833E+02  0.12948568436E+03  0.12500464002E+03 0.  0.
    9000005    1    3    3    0    0  0.27637752533E+02 -0.19852877170E+02  0.37411377342E+02  0.50582538999E+02  0.10000000000E+01 0.  0.
    9000005    1    3    3    0    0 -0.27637752533E+02  0.19852877170E+02 -0.71180926175E+02  0.78903145363E+02  0.10000000000E+01 0.  0.
<mgrwt>
<rscale>  0 0.12500464E+03</rscale>
<asrwt>0</asrwt>
<pdfrwt beam="1">  1        4 0.73627797E-02 0.12500464E+03</pdfrwt>
<pdfrwt beam="2">  1       -4 0.12558095E-01 0.12500464E+03</pdfrwt>
<totfact> 0.10354437E+04</totfact>
</mgrwt>
</event>
<event>
 5    1  0.3234540E-002  0.1250037E+03  0.7818608E-02  0.1235063E+00
         -4   -1    0    0    0  501 -0.00000000000E+00  0.00000000000E+00  0.11351398368E+02  0.11422221540E+02  0.12700000000E+01 0. -1.
          4   -1    0    0  501    0  0.00000000000E+00 -0.00000000000E+00 -0.34299890420E+03  0.34300125536E+03  0.12700000000E+01 0. -1.
         25    2    1    2    0    0  0.00000000000E+00  0.00000000000E+00 -0.33164750583E+03  0.35442347690E+03  0.12500373137E+03 0.  0.
    9000005    1    3    3    0    0 -0.52101655996E+02  0.17486333081E+02 -0.25017718233E+03  0.25614444550E+03  0.10000000000E+01 0.  0.
    9000005    1    3    3    0    0  0.52101655996E+02 -0.17486333081E+02 -0.81470323497E+02  0.98279031399E+02  0.10000000000E+01 0.  0.
<mgrwt>
<rscale>  0 0.12500373E+03</rscale>
<asrwt>0</asrwt>
<pdfrwt beam="2">  1        4 0.52774683E-01 0.12500373E+03</pdfrwt>
<pdfrwt beam="1">  1       -4 0.17519980E-02 0.12500373E+03</pdfrwt>
<totfact> 0.69234933E+03</totfact>
</mgrwt>
</event>
<event>
 5    1  0.3234540E-002  0.1249947E+03  0.7818608E-02  0.1235078E+00
         -4   -1    0    0    0  501 -0.00000000000E+00  0.00000000000E+00  0.11164965131E+03  0.11165687412E+03  0.12700000000E+01 0.  1.
          4   -1    0    0  501    0  0.00000000000E+00 -0.00000000000E+00 -0.34963797905E+02  0.34986855588E+02  0.12700000000E+01 0.  1.
         25    2    1    2    0    0  0.00000000000E+00  0.00000000000E+00  0.76685853404E+02  0.14664372970E+03  0.12499465328E+03 0.  0.
    9000005    1    3    3    0    0  0.18761041246E+02 -0.39110670334E+02  0.91114692526E+02  0.10091832538E+03  0.10000000000E+01 0.  0.
    9000005    1    3    3    0    0 -0.18761041246E+02  0.39110670334E+02 -0.14428839122E+02  0.45725404329E+02  0.10000000000E+01 0.  0.
<mgrwt>
<rscale>  0 0.12499465E+03</rscale>
<asrwt>0</asrwt>
<pdfrwt beam="2">  1        4 0.53813752E-02 0.12499465E+03</pdfrwt>
<pdfrwt beam="1">  1       -4 0.17179198E-01 0.12499465E+03</pdfrwt>
<totfact> 0.99989014E+03</totfact>
</mgrwt>
</event>
<event>
 5    1  0.3234540E-002  0.1249997E+03  0.7818608E-02  0.1235070E+00
          4   -1    0    0  501    0  0.00000000000E+00  0.00000000000E+00  0.15586134492E+02  0.15637790394E+02  0.12700000000E+01 0. -1.
         -4   -1    0    0    0  501 -0.00000000000E+00 -0.00000000000E+00 -0.25015434437E+03  0.25015756816E+03  0.12700000000E+01 0. -1.
         25    2    1    2    0    0  0.00000000000E+00  0.00000000000E+00 -0.23456820987E+03  0.26579535855E+03  0.12499971017E+03 0.  0.
    9000005    1    3    3    0    0  0.13879151950E+02 -0.57984447576E+02 -0.77480404322E+02  0.97770343527E+02  0.10000000000E+01 0.  0.
    9000005    1    3    3    0    0 -0.13879151950E+02  0.57984447576E+02 -0.15708780555E+03  0.16802501502E+03  0.10000000000E+01 0.  0.
<mgrwt>
<rscale>  0 0.12499971E+03</rscale>
<asrwt>0</asrwt>
<pdfrwt beam="1">  1        4 0.24020885E-02 0.12499971E+03</pdfrwt>
<pdfrwt beam="2">  1       -4 0.38489502E-01 0.12499971E+03</pdfrwt>
<totfact> 0.80100099E+03</totfact>
</mgrwt>
</event>
<event>
 5    1  0.3234540E-002  0.1249965E+03  0.7818608E-02  0.1235075E+00
          4   -1    0    0  501    0  0.00000000000E+00  0.00000000000E+00  0.87153380179E+02  0.87162632915E+02  0.12700000000E+01 0. -1.
         -4   -1    0    0    0  501 -0.00000000000E+00 -0.00000000000E+00 -0.44797242215E+02  0.44815240823E+02  0.12700000000E+01 0. -1.
         25    2    1    2    0    0  0.00000000000E+00  0.00000000000E+00  0.42356137965E+02  0.13197787374E+03  0.12499646688E+03 0.  0.
    9000005    1    3    3    0    0 -0.38333531316E+02  0.31927826512E+02 -0.18556009732E+02  0.53236934793E+02  0.10000000000E+01 0.  0.
    9000005    1    3    3    0    0  0.38333531316E+02 -0.31927826512E+02  0.60912147697E+02  0.78740938946E+02  0.10000000000E+01 0.  0.
<mgrwt>
<rscale>  0 0.12499647E+03</rscale>
<asrwt>0</asrwt>
<pdfrwt beam="1">  1        4 0.13410308E-01 0.12499647E+03</pdfrwt>
<pdfrwt beam="2">  1       -4 0.68939797E-02 0.12499647E+03</pdfrwt>
<totfact> 0.10302992E+04</totfact>
</mgrwt>
</event>
<event>
 5    1  0.3234540E-002  0.1250011E+03  0.7818608E-02  0.1235068E+00
         -4   -1    0    0    0  501 -0.00000000000E+00  0.00000000000E+00  0.37291748090E+02  0.37313367251E+02  0.12700000000E+01 0.  1.
          4   -1    0    0  501    0  0.00000000000E+00 -0.00000000000E+00 -0.10469444153E+03  0.10470214414E+03  0.12700000000E+01 0.  1.
         25    2    1    2    0    0  0.00000000000E+00  0.00000000000E+00 -0.67402693443E+02  0.14201551139E+03  0.12500112957E+03 0.  0.
    9000005    1    3    3    0    0  0.43601611604E+02 -0.44745112655E+02 -0.35345754138E+02  0.71788216140E+02  0.10000000000E+01 0.  0.
    9000005    1    3    3    0    0 -0.43601611604E+02  0.44745112655E+02 -0.32056939305E+02  0.70227295253E+02  0.10000000000E+01 0.  0.
<mgrwt>
<rscale>  0 0.12500113E+03</rscale>
<asrwt>0</asrwt>
<pdfrwt beam="2">  1        4 0.16109093E-01 0.12500113E+03</pdfrwt>
<pdfrwt beam="1">  1       -4 0.57394476E-02 0.12500113E+03</pdfrwt>
<totfact> 0.10091726E+04</totfact>
</mgrwt>
</event>
<event>
 4    1  0.3234540E-002  0.1247928E+03  0.7818608E-02  0.1235393E+00
          4   -1    0    0  501    0  0.00000000000E+00  0.00000000000E+00  0.20063871502E+03  0.20064273440E+03  0.12700000000E+01 0. -1.
         -4   -1    0    0    0  501 -0.00000000000E+00 -0.00000000000E+00 -0.19379576674E+02  0.19421145488E+02  0.12700000000E+01 0. -1.
    9000005    1    1    2    0    0 -0.30079727306E+02  0.53132635863E+02  0.68016176629E+02  0.91406057085E+02  0.10000000000E+01 0.  0.
    9000005    1    1    2    0    0  0.30079727306E+02 -0.53132635863E+02  0.11324296172E+03  0.12865782280E+03  0.10000000000E+01 0.  0.
<mgrwt>
<rscale>  0 0.12479277E+03</rscale>
<asrwt>0</asrwt>
<pdfrwt beam="1">  1        4 0.30871000E-01 0.12479277E+03</pdfrwt>
<pdfrwt beam="2">  1       -4 0.29849803E-02 0.12479277E+03</pdfrwt>
<totfact> 0.87261515E+03</totfact>
</mgrwt>
</event>
<event>
 5    1  0.3234540E-002  0.1249948E+03  0.7818608E-02  0.1235077E+00
          4   -1    0    0  501    0  0.00000000000E+00  0.00000000000E+00  0.18357210740E+04  0.18357215133E+04  0.12700000000E+01 0.  1.
         -4   -1    0    0    0  501 -0.00000000000E+00 -0.00000000000E+00 -0.19377459925E+01  0.23168425780E+01  0.12700000000E+01 0.  1.
         25    2    1    2    0    0  0.00000000000E+00  0.00000000000E+00  0.18337833280E+04  0.18380383559E+04  0.12499481444E+03 0.  0.
    9000005    1    3    3    0    0  0.50495865867E+02  0.76940467461E+01  0.14462472435E+04  0.14471493082E+04  0.10000000000E+01 0.  0.
    9000005    1    3    3    0    0 -0.50495865867E+02 -0.76940467461E+01  0.38753608453E+03  0.39088904773E+03  0.10000000000E+01 0.  0.
<mgrwt>
<rscale>  0 0.12499481E+03</rscale>
<asrwt>0</asrwt>
<pdfrwt beam="1">  1        4 0.28244787E+00 0.12499481E+03</pdfrwt>
<pdfrwt beam="2">  1       -4 0.32730978E-03 0.12499481E+03</pdfrwt>
<totfact> 0.12127897E+03</totfact>
</mgrwt>
</event>
<event>
 5    1  0.3234540E-002  0.1249935E+03  0.7818608E-02  0.1235079E+00
          4   -1    0    0  501    0  0.00000000000E+00  0.00000000000E+00  0.25670036185E+03  0.25670350343E+03  0.12700000000E+01 0. -1.
         -4   -1    0    0    0  501 -0.00000000000E+00 -0.00000000000E+00 -0.15185827320E+02  0.15238840225E+02  0.12700000000E+01 0. -1.
         25    2    1    2    0    0  0.00000000000E+00  0.00000000000E+00  0.24151453452E+03  0.27194234365E+03  0.12499347137E+03 0.  0.
    9000005    1    3    3    0    0  0.12420988238E+00 -0.57127224049E+02  0.65660967338E+02  0.87039633429E+02  0.10000000000E+01 0.  0.
    9000005    1    3    3    0    0 -0.12420988238E+00  0.57127224049E+02  0.17585356719E+03  0.18490271022E+03  0.10000000000E+01 0.  0.
<mgrwt>
<rscale>  0 0.12499347E+03</rscale>
<asrwt>0</asrwt>
<pdfrwt beam="1">  1        4 0.39496684E-01 0.12499347E+03</pdfrwt>
<pdfrwt beam="2">  1       -4 0.23406006E-02 0.12499347E+03</pdfrwt>
<totfact> 0.79270275E+03</totfact>
</mgrwt>
</event>
<event>
 5    1  0.3234540E-002  0.1249970E+03  0.7818608E-02  0.1235074E+00
         -4   -1    0    0    0  501 -0.00000000000E+00  0.00000000000E+00  0.17676919011E+03  0.17677375222E+03  0.12700000000E+01 0. -1.
          4   -1    0    0  501    0  0.00000000000E+00 -0.00000000000E+00 -0.22073867053E+02  0.22110371020E+02  0.12700000000E+01 0. -1.
         25    2    1    2    0    0  0.00000000000E+00  0.00000000000E+00  0.15469532306E+03  0.19888412324E+03  0.12499700596E+03 0.  0.
    9000005    1    3    3    0    0  0.57506946129E+02 -0.21358429634E+02  0.58398636880E+02  0.84703200406E+02  0.10000000000E+01 0.  0.
    9000005    1    3    3    0    0 -0.57506946129E+02  0.21358429634E+02  0.96296686178E+02  0.11418092283E+03  0.10000000000E+01 0.  0.
<mgrwt>
<rscale>  0 0.12499701E+03</rscale>
<asrwt>0</asrwt>
<pdfrwt beam="2">  1        4 0.33991384E-02 0.12499701E+03</pdfrwt>
<pdfrwt beam="1">  1       -4 0.27198419E-01 0.12499701E+03</pdfrwt>
<totfact> 0.90330102E+03</totfact>
</mgrwt>
</event>
<event>
 5    1  0.3234540E-002  0.1249998E+03  0.7818608E-02  0.1235070E+00
          4   -1    0    0  501    0  0.00000000000E+00  0.00000000000E+00  0.10273206863E+02  0.10351409530E+02  0.12700000000E+01 0.  1.
         -4   -1    0    0    0  501 -0.00000000000E+00 -0.00000000000E+00 -0.37871426979E+03  0.37871639922E+03  0.12700000000E+01 0.  1.
         25    2    1    2    0    0  0.00000000000E+00  0.00000000000E+00 -0.36844106292E+03  0.38906780875E+03  0.12499977184E+03 0.  0.
    9000005    1    3    3    0    0 -0.60315980703E+02 -0.14403746773E+02 -0.20828000332E+03  0.21731784380E+03  0.10000000000E+01 0.  0.
    9000005    1    3    3    0    0  0.60315980703E+02  0.14403746773E+02 -0.16016105960E+03  0.17174996496E+03  0.10000000000E+01 0.  0.
<mgrwt>
<rscale>  0 0.12499977E+03</rscale>
<asrwt>0</asrwt>
<pdfrwt beam="1">  1        4 0.15866731E-02 0.12499977E+03</pdfrwt>
<pdfrwt beam="2">  1       -4 0.58269902E-01 0.12499977E+03</pdfrwt>
<totfact> 0.65630448E+03</totfact>
</mgrwt>
</event>
<event>
 5    1  0.3234540E-002  0.1250029E+03  0.7818608E-02  0.1235065E+00
          4   -1    0    0  501    0  0.00000000000E+00  0.00000000000E+00  0.51762474042E+03  0.51762629840E+03  0.12700000000E+01 0. -1.
         -4   -1    0    0    0  501 -0.00000000000E+00 -0.00000000000E+00 -0.74918296947E+01  0.75987112179E+01  0.12700000000E+01 0. -1.
         25    2    1    2    0    0  0.00000000000E+00  0.00000000000E+00  0.51013291072E+03  0.52522500962E+03  0.12500289646E+03 0.  0.
    9000005    1    3    3    0    0 -0.60475330870E+02 -0.13273151655E+02  0.29071631998E+03  0.29723798698E+03  0.10000000000E+01 0.  0.
    9000005    1    3    3    0    0  0.60475330870E+02  0.13273151655E+02  0.21941659074E+03  0.22798702264E+03  0.10000000000E+01 0.  0.
<mgrwt>
<rscale>  0 0.12500290E+03</rscale>
<asrwt>0</asrwt>
<pdfrwt beam="1">  1        4 0.79642932E-01 0.12500290E+03</pdfrwt>
<pdfrwt beam="2">  1       -4 0.11609305E-02 0.12500290E+03</pdfrwt>
<totfact> 0.53955548E+03</totfact>
</mgrwt>
</event>
<event>
 5    1  0.3234540E-002  0.1250057E+03  0.7818608E-02  0.1235060E+00
          4   -1    0    0  501    0  0.00000000000E+00  0.00000000000E+00  0.13903389946E+03  0.13903969972E+03  0.12700000000E+01 0. -1.
         -4   -1    0    0    0  501 -0.00000000000E+00 -0.00000000000E+00 -0.28077505951E+02  0.28106213555E+02  0.12700000000E+01 0. -1.
         25    2    1    2    0    0  0.00000000000E+00  0.00000000000E+00  0.11095639351E+03  0.16714591327E+03  0.12500574013E+03 0.  0.
    9000005    1    3    3    0    0  0.32666963054E+02  0.51398803484E+02  0.36728115006E+02  0.71126098633E+02  0.10000000000E+01 0.  0.
    9000005    1    3    3    0    0 -0.32666963054E+02 -0.51398803484E+02  0.74228278499E+02  0.96019814641E+02  0.10000000000E+01 0.  0.
<mgrwt>
<rscale>  0 0.12500574E+03</rscale>
<asrwt>0</asrwt>
<pdfrwt beam="1">  1        4 0.21392485E-01 0.12500574E+03</pdfrwt>
<pdfrwt beam="2">  1       -4 0.43222707E-02 0.12500574E+03</pdfrwt>
<totfact> 0.95970154E+03</totfact>
</mgrwt>
</event>
<event>
 5    1  0.3234540E-002  0.1250038E+03  0.7818608E-02  0.1235063E+00
          4   -1    0    0  501    0  0.00000000000E+00  0.00000000000E+00  0.18599753903E+03  0.18600187478E+03  0.12700000000E+01 0.  1.
         -4   -1    0    0    0  501 -0.00000000000E+00 -0.00000000000E+00 -0.20979123687E+02  0.21017529128E+02  0.12700000000E+01 0.  1.
         25    2    1    2    0    0  0.00000000000E+00  0.00000000000E+00  0.16501841534E+03  0.20701940391E+03  0.12500382472E+03 0.  0.
    9000005    1    3    3    0    0  0.16564535581E+02  0.51348882605E+02  0.13473292196E+03  0.14513804409E+03  0.10000000000E+01 0.  0.
    9000005    1    3    3    0    0 -0.16564535581E+02 -0.51348882605E+02  0.30285493378E+02  0.61881359818E+02  0.10000000000E+01 0.  0.
<mgrwt>
<rscale>  0 0.12500382E+03</rscale>
<asrwt>0</asrwt>
<pdfrwt beam="1">  1        4 0.28618295E-01 0.12500382E+03</pdfrwt>
<pdfrwt beam="2">  1       -4 0.32308452E-02 0.12500382E+03</pdfrwt>
<totfact> 0.88957366E+03</totfact>
</mgrwt>
</event>
<event>
 5    1  0.3234540E-002  0.1250001E+03  0.7818608E-02  0.1235069E+00
          4   -1    0    0  501    0  0.00000000000E+00  0.00000000000E+00  0.34665586308E+02  0.34688842213E+02  0.12700000000E+01 0. -1.
         -4   -1    0    0    0  501 -0.00000000000E+00 -0.00000000000E+00 -0.11261927186E+03  0.11262643249E+03  0.12700000000E+01 0. -1.
         25    2    1    2    0    0  0.00000000000E+00  0.00000000000E+00 -0.77953685555E+02  0.14731527470E+03  0.12500005227E+03 0.  0.
    9000005    1    3    3    0    0  0.66023998658E+01  0.32082106275E+02 -0.10169811823E+03  0.10684737001E+03  0.10000000000E+01 0.  0.
    9000005    1    3    3    0    0 -0.66023998658E+01 -0.32082106275E+02  0.23744432673E+02  0.40467904690E+02  0.10000000000E+01 0.  0.
<mgrwt>
<rscale>  0 0.12500005E+03</rscale>
<asrwt>0</asrwt>
<pdfrwt beam="1">  1        4 0.53355069E-02 0.12500005E+03</pdfrwt>
<pdfrwt beam="2">  1       -4 0.17328381E-01 0.12500005E+03</pdfrwt>
<totfact> 0.99841458E+03</totfact>
</mgrwt>
</event>
<event>
 5    1  0.3234540E-002  0.1249993E+03  0.7818608E-02  0.1235070E+00
         -4   -1    0    0    0  501 -0.00000000000E+00  0.00000000000E+00  0.42731638247E+02  0.42750506515E+02  0.12700000000E+01 0. -1.
          4   -1    0    0  501    0  0.00000000000E+00 -0.00000000000E+00 -0.91369077725E+02  0.91377903589E+02  0.12700000000E+01 0. -1.
         25    2    1    2    0    0  0.00000000000E+00  0.00000000000E+00 -0.48637439479E+02  0.13412841010E+03  0.12499931951E+03 0.  0.
    9000005    1    3    3    0    0 -0.40932933918E+02 -0.43384821106E+02 -0.43170919780E+01  0.59811245303E+02  0.10000000000E+01 0.  0.
    9000005    1    3    3    0    0  0.40932933918E+02  0.43384821106E+02 -0.44320347501E+02  0.74317164801E+02  0.10000000000E+01 0.  0.
<mgrwt>
<rscale>  0 0.12499932E+03</rscale>
<asrwt>0</asrwt>
<pdfrwt beam="2">  1        4 0.14058911E-01 0.12499932E+03</pdfrwt>
<pdfrwt beam="1">  1       -4 0.65762286E-02 0.12499932E+03</pdfrwt>
<totfact> 0.10256632E+04</totfact>
</mgrwt>
</event>
<event>
 5    1  0.3234540E-002  0.1249996E+03  0.7818608E-02  0.1235070E+00
         -4   -1    0    0    0  501 -0.00000000000E+00  0.00000000000E+00  0.54206920427E+02  0.54221795638E+02  0.12700000000E+01 0. -1.
          4   -1    0    0  501    0  0.00000000000E+00 -0.00000000000E+00 -0.72031061395E+02  0.72042256390E+02  0.12700000000E+01 0. -1.
         25    2    1    2    0    0  0.00000000000E+00  0.00000000000E+00 -0.17824140968E+02  0.12626405203E+03  0.12499964333E+03 0.  0.
    9000005    1    3    3    0    0  0.29048713472E+02  0.52916966245E+02 -0.25237066227E+02  0.65436553872E+02  0.10000000000E+01 0.  0.
    9000005    1    3    3    0    0 -0.29048713472E+02 -0.52916966245E+02  0.74129252587E+01  0.60827498155E+02  0.10000000000E+01 0.  0.
<mgrwt>
<rscale>  0 0.12499964E+03</rscale>
<asrwt>0</asrwt>
<pdfrwt beam="2">  1        4 0.11083707E-01 0.12499964E+03</pdfrwt>
<pdfrwt beam="1">  1       -4 0.83415316E-02 0.12499964E+03</pdfrwt>
<totfact> 0.10425263E+04</totfact>
</mgrwt>
</event>
<event>
 5    1  0.3234540E-002  0.1249826E+03  0.7818608E-02  0.1235096E+00
          4   -1    0    0  501    0  0.00000000000E+00  0.00000000000E+00  0.16677950311E+02  0.16726234680E+02  0.12700000000E+01 0.  1.
         -4   -1    0    0    0  501 -0.00000000000E+00 -0.00000000000E+00 -0.23376279083E+03  0.23376624067E+03  0.12700000000E+01 0.  1.
         25    2    1    2    0    0  0.00000000000E+00  0.00000000000E+00 -0.21708484052E+03  0.25049247535E+03  0.12498260768E+03 0.  0.
    9000005    1    3    3    0    0  0.38410180461E+02 -0.37114069455E+00 -0.97711702082E+01  0.39647893710E+02  0.10000000000E+01 0.  0.
    9000005    1    3    3    0    0 -0.38410180461E+02  0.37114069455E+00 -0.20731367031E+03  0.21084458163E+03  0.10000000000E+01 0.  0.
<mgrwt>
<rscale>  0 0.12498261E+03</rscale>
<asrwt>0</asrwt>
<pdfrwt beam="1">  1        4 0.25698182E-02 0.12498261E+03</pdfrwt>
<pdfrwt beam="2">  1       -4 0.35967483E-01 0.12498261E+03</pdfrwt>
<totfact> 0.82290980E+03</totfact>
</mgrwt>
</event>
<event>
 5    1  0.3234540E-002  0.1250008E+03  0.7818608E-02  0.1235068E+00
         -4   -1    0    0    0  501 -0.00000000000E+00  0.00000000000E+00  0.60193303944E+02  0.60206700123E+02  0.12700000000E+01 0.  1.
          4   -1    0    0  501    0  0.00000000000E+00 -0.00000000000E+00 -0.64869125010E+02  0.64881555773E+02  0.12700000000E+01 0.  1.
         25    2    1    2    0    0  0.00000000000E+00  0.00000000000E+00 -0.46758210651E+01  0.12508825590E+03  0.12500083384E+03 0.  0.
    9000005    1    3    3    0    0 -0.59900195860E+02  0.15715149816E+02  0.60526250435E+01  0.62230488249E+02  0.10000000000E+01 0.  0.
    9000005    1    3    3    0    0  0.59900195860E+02 -0.15715149816E+02 -0.10728446109E+02  0.62857767648E+02  0.10000000000E+01 0.  0.
<mgrwt>
<rscale>  0 0.12500083E+03</rscale>
<asrwt>0</asrwt>
<pdfrwt beam="2">  1        4 0.99818521E-02 0.12500083E+03</pdfrwt>
<pdfrwt beam="1">  1       -4 0.92624949E-02 0.12500083E+03</pdfrwt>
<totfact> 0.10450749E+04</totfact>
</mgrwt>
</event>
<event>
 5    1  0.3234540E-002  0.1250301E+03  0.7818608E-02  0.1235022E+00
          4   -1    0    0  501    0  0.00000000000E+00  0.00000000000E+00  0.37195035825E+03  0.37195252640E+03  0.12700000000E+01 0.  1.
         -4   -1    0    0    0  501 -0.00000000000E+00 -0.00000000000E+00 -0.10466546920E+02  0.10543315628E+02  0.12700000000E+01 0.  1.
         25    2    1    2    0    0  0.00000000000E+00  0.00000000000E+00  0.36148381133E+03  0.38249584203E+03  0.12503008966E+03 0.  0.
    9000005    1    3    3    0    0  0.39613221989E+02  0.46064665681E+02  0.22570010825E+03  0.23373638922E+03  0.10000000000E+01 0.  0.
    9000005    1    3    3    0    0 -0.39613221989E+02 -0.46064665681E+02  0.13578370307E+03  0.14875945281E+03  0.10000000000E+01 0.  0.
<mgrwt>
<rscale>  0 0.12503009E+03</rscale>
<asrwt>0</asrwt>
<pdfrwt beam="1">  1        4 0.57229204E-01 0.12503009E+03</pdfrwt>
<pdfrwt beam="2">  1       -4 0.16163101E-02 0.12503009E+03</pdfrwt>
<totfact> 0.66247533E+03</totfact>
</mgrwt>
</event>
<event>
 5    1  0.3234540E-002  0.1249993E+03  0.7818608E-02  0.1235070E+00
         -4   -1    0    0    0  501 -0.00000000000E+00  0.00000000000E+00  0.23574328669E+02  0.23608512706E+02  0.12700000000E+01 0. -1.
          4   -1    0    0  501    0  0.00000000000E+00 -0.00000000000E+00 -0.16554068039E+03  0.16554555193E+03  0.12700000000E+01 0. -1.
         25    2    1    2    0    0  0.00000000000E+00  0.00000000000E+00 -0.14196635172E+03  0.18915406463E+03  0.12499926059E+03 0.  0.
    9000005    1    3    3    0    0 -0.26082852137E+02 -0.44344237334E+02 -0.12466545110E+03  0.13486734690E+03  0.10000000000E+01 0.  0.
    9000005    1    3    3    0    0  0.26082852137E+02  0.44344237334E+02 -0.17300900614E+02  0.54286717735E+02  0.10000000000E+01 0.  0.
<mgrwt>
<rscale>  0 0.12499926E+03</rscale>
<asrwt>0</asrwt>
<pdfrwt beam="2">  1        4 0.25470800E-01 0.12499926E+03</pdfrwt>
<pdfrwt beam="1">  1       -4 0.36298242E-02 0.12499926E+03</pdfrwt>
<totfact> 0.91996237E+03</totfact>
</mgrwt>
</event>
<event>
 5    1  0.3234540E-002  0.1249987E+03  0.7818608E-02  0.1235071E+00
          4   -1    0    0  501    0  0.00000000000E+00  0.00000000000E+00  0.48221277818E+01  0.49865635806E+01  0.12700000000E+01 0.  1.
         -4   -1    0    0    0  501 -0.00000000000E+00 -0.00000000000E+00 -0.79630540718E+03  0.79630641992E+03  0.12700000000E+01 0.  1.
         25    2    1    2    0    0  0.00000000000E+00  0.00000000000E+00 -0.79148327940E+03  0.80129298350E+03  0.12499865535E+03 0.  0.
    9000005    1    3    3    0    0  0.48885499461E+02  0.28423078453E+02 -0.22523158560E+03  0.23222388034E+03  0.10000000000E+01 0.  0.
    9000005    1    3    3    0    0 -0.48885499461E+02 -0.28423078453E+02 -0.56625169379E+03  0.56906910316E+03  0.10000000000E+01 0.  0.
<mgrwt>
<rscale>  0 0.12499866E+03</rscale>
<asrwt>0</asrwt>
<pdfrwt beam="1">  1        4 0.75459326E-03 0.12499866E+03</pdfrwt>
<pdfrwt beam="2">  1       -4 0.12252115E+00 0.12499866E+03</pdfrwt>
<totfact> 0.38208218E+03</totfact>
</mgrwt>
</event>
<event>
 5    1  0.3234540E-002  0.1250001E+03  0.7818608E-02  0.1235069E+00
          4   -1    0    0  501    0  0.00000000000E+00  0.00000000000E+00  0.66061366697E+02  0.66073573158E+02  0.12700000000E+01 0. -1.
         -4   -1    0    0    0  501 -0.00000000000E+00 -0.00000000000E+00 -0.59106265340E+02  0.59119907835E+02  0.12700000000E+01 0. -1.
         25    2    1    2    0    0  0.00000000000E+00  0.00000000000E+00  0.69551013569E+01  0.12519348099E+03  0.12500013699E+03 0.  0.
    9000005    1    3    3    0    0  0.11225012615E+02 -0.49938816367E+02 -0.32429992385E+02  0.60601903389E+02  0.10000000000E+01 0.  0.
    9000005    1    3    3    0    0 -0.11225012615E+02  0.49938816367E+02  0.39385093742E+02  0.64591577604E+02  0.10000000000E+01 0.  0.
<mgrwt>
<rscale>  0 0.12500014E+03</rscale>
<asrwt>0</asrwt>
<pdfrwt beam="1">  1        4 0.10165276E-01 0.12500014E+03</pdfrwt>
<pdfrwt beam="2">  1       -4 0.90952600E-02 0.12500014E+03</pdfrwt>
<totfact> 0.10448629E+04</totfact>
</mgrwt>
</event>
<event>
 5    1  0.3234540E-002  0.1249980E+03  0.7818608E-02  0.1235072E+00
         -4   -1    0    0    0  501 -0.00000000000E+00  0.00000000000E+00  0.79474209347E+02  0.79484356016E+02  0.12700000000E+01 0. -1.
          4   -1    0    0  501    0  0.00000000000E+00 -0.00000000000E+00 -0.49128116747E+02  0.49144529249E+02  0.12700000000E+01 0. -1.
         25    2    1    2    0    0  0.00000000000E+00  0.00000000000E+00  0.30346092599E+02  0.12862888527E+03  0.12499801914E+03 0.  0.
    9000005    1    3    3    0    0 -0.97920663167E+00 -0.57825219744E+02 -0.91876008951E+01  0.58567285188E+02  0.10000000000E+01 0.  0.
    9000005    1    3    3    0    0  0.97920663167E+00  0.57825219744E+02  0.39533693495E+02  0.70061600077E+02  0.10000000000E+01 0.  0.
<mgrwt>
<rscale>  0 0.12499802E+03</rscale>
<asrwt>0</asrwt>
<pdfrwt beam="2">  1        4 0.75602148E-02 0.12499802E+03</pdfrwt>
<pdfrwt beam="1">  1       -4 0.12228844E-01 0.12499802E+03</pdfrwt>
<totfact> 0.10374392E+04</totfact>
</mgrwt>
</event>
<event>
 5    1  0.3234540E-002  0.1250001E+03  0.7818608E-02  0.1235069E+00
          4   -1    0    0  501    0  0.00000000000E+00  0.00000000000E+00  0.49913733330E+02  0.49929887592E+02  0.12700000000E+01 0.  1.
         -4   -1    0    0    0  501 -0.00000000000E+00 -0.00000000000E+00 -0.78226183780E+02  0.78236492309E+02  0.12700000000E+01 0.  1.
         25    2    1    2    0    0  0.00000000000E+00  0.00000000000E+00 -0.28312450450E+02  0.12816637990E+03  0.12500010435E+03 0.  0.
    9000005    1    3    3    0    0  0.50915830014E+02 -0.12945986035E+02 -0.48854771482E+02  0.71748233407E+02  0.10000000000E+01 0.  0.
    9000005    1    3    3    0    0 -0.50915830014E+02  0.12945986035E+02  0.20542321032E+02  0.56418146494E+02  0.10000000000E+01 0.  0.
<mgrwt>
<rscale>  0 0.12500010E+03</rscale>
<asrwt>0</asrwt>
<pdfrwt beam="1">  1        4 0.76810715E-02 0.12500010E+03</pdfrwt>
<pdfrwt beam="2">  1       -4 0.12036833E-01 0.12500010E+03</pdfrwt>
<totfact> 0.10383872E+04</totfact>
</mgrwt>
</event>
<event>
 5    1  0.3234540E-002  0.1249999E+03  0.7818608E-02  0.1235069E+00
          4   -1    0    0  501    0  0.00000000000E+00  0.00000000000E+00  0.15071865778E+03  0.15072400838E+03  0.12700000000E+01 0. -1.
         -4   -1    0    0    0  501 -0.00000000000E+00 -0.00000000000E+00 -0.25896082474E+02  0.25927205548E+02  0.12700000000E+01 0. -1.
         25    2    1    2    0    0  0.00000000000E+00  0.00000000000E+00  0.12482257530E+03  0.17665121393E+03  0.12499990431E+03 0.  0.
    9000005    1    3    3    0    0  0.15707103233E+02 -0.64064327496E+01  0.14740964408E+03  0.14838584380E+03  0.10000000000E+01 0.  0.
    9000005    1    3    3    0    0 -0.15707103233E+02  0.64064327496E+01 -0.22587068777E+02  0.28265370128E+02  0.10000000000E+01 0.  0.
<mgrwt>
<rscale>  0 0.12499990E+03</rscale>
<asrwt>0</asrwt>
<pdfrwt beam="1">  1        4 0.23190291E-01 0.12499990E+03</pdfrwt>
<pdfrwt beam="2">  1       -4 0.39868184E-02 0.12499990E+03</pdfrwt>
<totfact> 0.94223494E+03</totfact>
</mgrwt>
</event>
<event>
 5    1  0.3234540E-002  0.1249995E+03  0.7818608E-02  0.1235070E+00
          4   -1    0    0  501    0  0.00000000000E+00  0.00000000000E+00  0.20407546277E+04  0.20407550229E+04  0.12700000000E+01 0. -1.
         -4   -1    0    0    0  501 -0.00000000000E+00 -0.00000000000E+00 -0.17030069228E+01  0.21244134670E+01  0.12700000000E+01 0. -1.
         25    2    1    2    0    0  0.00000000000E+00  0.00000000000E+00  0.20390516208E+04  0.20428794363E+04  0.12499951690E+03 0.  0.
    9000005    1    3    3    0    0  0.29754336406E+02 -0.54847472051E+02  0.96373361991E+03  0.96575206749E+03  0.10000000000E+01 0.  0.
    9000005    1    3    3    0    0 -0.29754336406E+02  0.54847472051E+02  0.10753180009E+04  0.10771273688E+04  0.10000000000E+01 0.  0.
<mgrwt>
<rscale>  0 0.12499952E+03</rscale>
<asrwt>0</asrwt>
<pdfrwt beam="1">  1        4 0.31399537E+00 0.12499952E+03</pdfrwt>
<pdfrwt beam="2">  1       -4 0.29444672E-03 0.12499952E+03</pdfrwt>
<totfact> 0.93119127E+02</totfact>
</mgrwt>
</event>
<event>
 5    1  0.3234540E-002  0.1250000E+03  0.7818608E-02  0.1235069E+00
         -4   -1    0    0    0  501 -0.00000000000E+00  0.00000000000E+00  0.22726728621E+03  0.22727083465E+03  0.12700000000E+01 0. -1.
          4   -1    0    0  501    0  0.00000000000E+00 -0.00000000000E+00 -0.17160772778E+02  0.17207702413E+02  0.12700000000E+01 0. -1.
         25    2    1    2    0    0  0.00000000000E+00  0.00000000000E+00  0.21010651344E+03  0.24447853706E+03  0.12500003239E+03 0.  0.
    9000005    1    3    3    0    0  0.44397555808E+02  0.38265297094E+02  0.62657509831E+02  0.85804076020E+02  0.10000000000E+01 0.  0.
    9000005    1    3    3    0    0 -0.44397555808E+02 -0.38265297094E+02  0.14744900360E+03  0.15867446104E+03  0.10000000000E+01 0.  0.
<mgrwt>
<rscale>  0 0.12500003E+03</rscale>
<asrwt>0</asrwt>
<pdfrwt beam="2">  1        4 0.26440018E-02 0.12500003E+03</pdfrwt>
<pdfrwt beam="1">  1       -4 0.34968080E-01 0.12500003E+03</pdfrwt>
<totfact> 0.83134797E+03</totfact>
</mgrwt>
</event>
<event>
 5    1  0.3234540E-002  0.1249998E+03  0.7818608E-02  0.1235070E+00
         -4   -1    0    0    0  501 -0.00000000000E+00  0.00000000000E+00  0.33300193469E+02  0.33324402246E+02  0.12700000000E+01 0.  1.
          4   -1    0    0  501    0  0.00000000000E+00 -0.00000000000E+00 -0.11723339661E+03  0.11724027542E+03  0.12700000000E+01 0.  1.
         25    2    1    2    0    0  0.00000000000E+00  0.00000000000E+00 -0.83933203143E+02  0.15056467767E+03  0.12499975829E+03 0.  0.
    9000005    1    3    3    0    0 -0.15435305017E+02  0.37070475409E+02  0.15709221630E+02  0.43130597402E+02  0.10000000000E+01 0.  0.
    9000005    1    3    3    0    0  0.15435305017E+02 -0.37070475409E+02 -0.99642424773E+02  0.10743408027E+03  0.10000000000E+01 0.  0.
<mgrwt>
<rscale>  0 0.12499976E+03</rscale>
<asrwt>0</asrwt>
<pdfrwt beam="2">  1        4 0.18038298E-01 0.12499976E+03</pdfrwt>
<pdfrwt beam="1">  1       -4 0.51254981E-02 0.12499976E+03</pdfrwt>
<totfact> 0.99191797E+03</totfact>
</mgrwt>
</event>
<event>
 5    1  0.3234540E-002  0.1250009E+03  0.7818608E-02  0.1235068E+00
         -4   -1    0    0    0  501 -0.00000000000E+00  0.00000000000E+00  0.17410398090E+03  0.17410861284E+03  0.12700000000E+01 0.  1.
          4   -1    0    0  501    0  0.00000000000E+00 -0.00000000000E+00 -0.22413721689E+02  0.22449673048E+02  0.12700000000E+01 0.  1.
         25    2    1    2    0    0  0.00000000000E+00  0.00000000000E+00  0.15169025921E+03  0.19655828589E+03  0.12500090005E+03 0.  0.
    9000005    1    3    3    0    0 -0.50093469129E+02 -0.37362286501E+02  0.75686700385E+02  0.98156878094E+02  0.10000000000E+01 0.  0.
    9000005    1    3    3    0    0  0.50093469129E+02  0.37362286501E+02  0.76003558829E+02  0.98401407799E+02  0.10000000000E+01 0.  0.
<mgrwt>
<rscale>  0 0.12500090E+03</rscale>
<asrwt>0</asrwt>
<pdfrwt beam="2">  1        4 0.34513866E-02 0.12500090E+03</pdfrwt>
<pdfrwt beam="1">  1       -4 0.26788350E-01 0.12500090E+03</pdfrwt>
<totfact> 0.90716721E+03</totfact>
</mgrwt>
</event>
<event>
 5    1  0.3234540E-002  0.1249950E+03  0.7818608E-02  0.1235077E+00
          4   -1    0    0  501    0  0.00000000000E+00  0.00000000000E+00  0.26241284976E+02  0.26271999109E+02  0.12700000000E+01 0. -1.
         -4   -1    0    0    0  501 -0.00000000000E+00 -0.00000000000E+00 -0.14872652132E+03  0.14873194359E+03  0.12700000000E+01 0. -1.
         25    2    1    2    0    0  0.00000000000E+00  0.00000000000E+00 -0.12248523635E+03  0.17500394270E+03  0.12499498725E+03 0.  0.
    9000005    1    3    3    0    0 -0.13276408994E+02 -0.58170699071E+02 -0.35243044723E+02  0.69304873332E+02  0.10000000000E+01 0.  0.
    9000005    1    3    3    0    0  0.13276408994E+02  0.58170699071E+02 -0.87242191623E+02  0.10569906937E+03  0.10000000000E+01 0.  0.
<mgrwt>
<rscale>  0 0.12499499E+03</rscale>
<asrwt>0</asrwt>
<pdfrwt beam="1">  1        4 0.40399006E-02 0.12499499E+03</pdfrwt>
<pdfrwt beam="2">  1       -4 0.22883783E-01 0.12499499E+03</pdfrwt>
<totfact> 0.94534749E+03</totfact>
</mgrwt>
</event>
<event>
 5    1  0.3234540E-002  0.1249976E+03  0.7818608E-02  0.1235073E+00
          4   -1    0    0  501    0  0.00000000000E+00  0.00000000000E+00  0.91643098879E+03  0.91643186878E+03  0.12700000000E+01 0.  1.
         -4   -1    0    0    0  501 -0.00000000000E+00 -0.00000000000E+00 -0.41667930736E+01  0.43560377086E+01  0.12700000000E+01 0.  1.
         25    2    1    2    0    0  0.00000000000E+00  0.00000000000E+00  0.91226419571E+03  0.92078790649E+03  0.12499762377E+03 0.  0.
    9000005    1    3    3    0    0 -0.11000078948E+02 -0.45344604863E+02  0.14991776375E+03  0.15701423762E+03  0.10000000000E+01 0.  0.
    9000005    1    3    3    0    0  0.11000078948E+02  0.45344604863E+02  0.76234643196E+03  0.76377366886E+03  0.10000000000E+01 0.  0.
<mgrwt>
<rscale>  0 0.12499762E+03</rscale>
<asrwt>0</asrwt>
<pdfrwt beam="1">  1        4 0.14100404E+00 0.12499762E+03</pdfrwt>
<pdfrwt beam="2">  1       -4 0.65566993E-03 0.12499762E+03</pdfrwt>
<totfact> 0.33378045E+03</totfact>
</mgrwt>
</event>
<event>
 5    1  0.3234540E-002  0.1249991E+03  0.7818608E-02  0.1235071E+00
         -4   -1    0    0    0  501 -0.00000000000E+00  0.00000000000E+00  0.30866351430E+03  0.30866612700E+03  0.12700000000E+01 0.  1.
          4   -1    0    0  501    0  0.00000000000E+00 -0.00000000000E+00 -0.12620654569E+02  0.12684392841E+02  0.12700000000E+01 0.  1.
         25    2    1    2    0    0  0.00000000000E+00  0.00000000000E+00  0.29604285973E+03  0.32135051984E+03  0.12499912723E+03 0.  0.
    9000005    1    3    3    0    0  0.16868006320E+02 -0.39973756801E+02  0.32398306630E+02  0.54157927790E+02  0.10000000000E+01 0.  0.
    9000005    1    3    3    0    0 -0.16868006320E+02  0.39973756801E+02  0.26364455310E+03  0.26719259205E+03  0.10000000000E+01 0.  0.
<mgrwt>
<rscale>  0 0.12499913E+03</rscale>
<asrwt>0</asrwt>
<pdfrwt beam="2">  1        4 0.19467432E-02 0.12499913E+03</pdfrwt>
<pdfrwt beam="1">  1       -4 0.47491795E-01 0.12499913E+03</pdfrwt>
<totfact> 0.72997199E+03</totfact>
</mgrwt>
</event>
<event>
 5    1  0.3234540E-002  0.1250014E+03  0.7818608E-02  0.1235067E+00
          4   -1    0    0  501    0  0.00000000000E+00  0.00000000000E+00  0.34762491632E+02  0.34785682752E+02  0.12700000000E+01 0. -1.
         -4   -1    0    0    0  501 -0.00000000000E+00 -0.00000000000E+00 -0.11230788560E+03  0.11231506608E+03  0.12700000000E+01 0. -1.
         25    2    1    2    0    0  0.00000000000E+00  0.00000000000E+00 -0.77545393968E+02  0.14710074883E+03  0.12500136871E+03 0.  0.
    9000005    1    3    3    0    0 -0.40295084990E+02 -0.17655557547E-01  0.17438625814E+02  0.43918103971E+02  0.10000000000E+01 0.  0.
    9000005    1    3    3    0    0  0.40295084990E+02  0.17655557547E-01 -0.94984019782E+02  0.10318264486E+03  0.10000000000E+01 0.  0.
<mgrwt>
<rscale>  0 0.12500137E+03</rscale>
<asrwt>0</asrwt>
<pdfrwt beam="1">  1        4 0.53504119E-02 0.12500137E+03</pdfrwt>
<pdfrwt beam="2">  1       -4 0.17280472E-01 0.12500137E+03</pdfrwt>
<totfact> 0.99881714E+03</totfact>
</mgrwt>
</event>
<event>
 5    1  0.3234540E-002  0.1249990E+03  0.7818608E-02  0.1235071E+00
          4   -1    0    0  501    0  0.00000000000E+00  0.00000000000E+00  0.83731148828E+03  0.83731245143E+03  0.12700000000E+01 0. -1.
         -4   -1    0    0    0  501 -0.00000000000E+00 -0.00000000000E+00 -0.45777378189E+01  0.47506403294E+01  0.12700000000E+01 0. -1.
         25    2    1    2    0    0  0.00000000000E+00  0.00000000000E+00  0.83273375047E+03  0.84206309176E+03  0.12499900533E+03 0.  0.
    9000005    1    3    3    0    0 -0.16402038927E+02  0.17667786375E+02  0.27975788991E+02  0.36943501810E+02  0.10000000000E+01 0.  0.
    9000005    1    3    3    0    0  0.16402038927E+02 -0.17667786375E+02  0.80475796147E+03  0.80511958994E+03  0.10000000000E+01 0.  0.
<mgrwt>
<rscale>  0 0.12499901E+03</rscale>
<asrwt>0</asrwt>
<pdfrwt beam="1">  1        4 0.12883042E+00 0.12499901E+03</pdfrwt>
<pdfrwt beam="2">  1       -4 0.71764221E-03 0.12499901E+03</pdfrwt>
<totfact> 0.36455147E+03</totfact>
</mgrwt>
</event>
<event>
 5    1  0.3234540E-002  0.1250056E+03  0.7818608E-02  0.1235061E+00
         -4   -1    0    0    0  501 -0.00000000000E+00  0.00000000000E+00  0.96478001417E+02  0.96486359955E+02  0.12700000000E+01 0. -1.
          4   -1    0    0  501    0  0.00000000000E+00 -0.00000000000E+00 -0.40472070194E+02  0.40491991378E+02  0.12700000000E+01 0. -1.
         25    2    1    2    0    0  0.00000000000E+00  0.00000000000E+00  0.56005931223E+02  0.13697835133E+03  0.12500561748E+03 0.  0.
    9000005    1    3    3    0    0 -0.60446683060E+02 -0.51463940599E+01  0.44451102853E+02  0.75214276634E+02  0.10000000000E+01 0.  0.
    9000005    1    3    3    0    0  0.60446683060E+02  0.51463940599E+01  0.11554828369E+02  0.61764074699E+02  0.10000000000E+01 0.  0.
<mgrwt>
<rscale>  0 0.12500562E+03</rscale>
<asrwt>0</asrwt>
<pdfrwt beam="2">  1        4 0.62286477E-02 0.12500562E+03</pdfrwt>
<pdfrwt beam="1">  1       -4 0.14844945E-01 0.12500562E+03</pdfrwt>
<totfact> 0.10195247E+04</totfact>
</mgrwt>
</event>
<event>
 5    1  0.3234540E-002  0.1250074E+03  0.7818608E-02  0.1235058E+00
          4   -1    0    0  501    0  0.00000000000E+00  0.00000000000E+00  0.14255475671E+03  0.14256041372E+03  0.12700000000E+01 0. -1.
         -4   -1    0    0    0  501 -0.00000000000E+00 -0.00000000000E+00 -0.27384056704E+02  0.27413490503E+02  0.12700000000E+01 0. -1.
         25    2    1    2    0    0  0.00000000000E+00  0.00000000000E+00  0.11517070000E+03  0.16997390422E+03  0.12500735169E+03 0.  0.
    9000005    1    3    3    0    0 -0.19017885208E+02  0.57460939076E+02  0.36421409578E+02  0.70646716506E+02  0.10000000000E+01 0.  0.
    9000005    1    3    3    0    0  0.19017885208E+02 -0.57460939076E+02  0.78749290425E+02  0.99327187717E+02  0.10000000000E+01 0.  0.
<mgrwt>
<rscale>  0 0.12500735E+03</rscale>
<asrwt>0</asrwt>
<pdfrwt beam="1">  1        4 0.21934201E-01 0.12500735E+03</pdfrwt>
<pdfrwt beam="2">  1       -4 0.42156311E-02 0.12500735E+03</pdfrwt>
<totfact> 0.95437751E+03</totfact>
</mgrwt>
</event>
<event>
 5    1  0.3234540E-002  0.1250062E+03  0.7818608E-02  0.1235060E+00
          4   -1    0    0  501    0  0.00000000000E+00  0.00000000000E+00  0.18840057067E+03  0.18840485113E+03  0.12700000000E+01 0. -1.
         -4   -1    0    0    0  501 -0.00000000000E+00 -0.00000000000E+00 -0.20711845129E+02  0.20750745255E+02  0.12700000000E+01 0. -1.
         25    2    1    2    0    0  0.00000000000E+00  0.00000000000E+00  0.16768872554E+03  0.20915559638E+03  0.12500621914E+03 0.  0.
    9000005    1    3    3    0    0 -0.44341611672E+02 -0.13089421781E+02  0.13489418347E+02  0.48171318183E+02  0.10000000000E+01 0.  0.
    9000005    1    3    3    0    0  0.44341611672E+02  0.13089421781E+02  0.15419930719E+03  0.16098427820E+03  0.10000000000E+01 0.  0.
<mgrwt>
<rscale>  0 0.12500622E+03</rscale>
<asrwt>0</asrwt>
<pdfrwt beam="1">  1        4 0.28988025E-01 0.12500622E+03</pdfrwt>
<pdfrwt beam="2">  1       -4 0.31897592E-02 0.12500622E+03</pdfrwt>
<totfact> 0.88601647E+03</totfact>
</mgrwt>
</event>
<event>
 5    1  0.3234540E-002  0.1249998E+03  0.7818608E-02  0.1235070E+00
          4   -1    0    0  501    0  0.00000000000E+00  0.00000000000E+00  0.39448006713E+01  0.41441950166E+01  0.12700000000E+01 0.  1.
         -4   -1    0    0    0  501 -0.00000000000E+00 -0.00000000000E+00 -0.96561522126E+03  0.96561605642E+03  0.12700000000E+01 0.  1.
         25    2    1    2    0    0  0.00000000000E+00  0.00000000000E+00 -0.96167042059E+03  0.96976025144E+03  0.12499978978E+03 0.  0.
    9000005    1    3    3    0    0  0.14505163662E+02 -0.60683349498E+02 -0.45355121108E+03  0.45782373218E+03  0.10000000000E+01 0.  0.
    9000005    1    3    3    0    0 -0.14505163662E+02  0.60683349498E+02 -0.50811920951E+03  0.51193651926E+03  0.10000000000E+01 0.  0.
<mgrwt>
<rscale>  0 0.12499979E+03</rscale>
<asrwt>0</asrwt>
<pdfrwt beam="1">  1        4 0.62229545E-03 0.12499979E+03</pdfrwt>
<pdfrwt beam="2">  1       -4 0.14857141E+00 0.12499979E+03</pdfrwt>
<totfact> 0.31624816E+03</totfact>
</mgrwt>
</event>
<event>
 5    1  0.3234540E-002  0.1249976E+03  0.7818608E-02  0.1235073E+00
         -4   -1    0    0    0  501 -0.00000000000E+00  0.00000000000E+00  0.88760754539E+03  0.88760845396E+03  0.12700000000E+01 0. -1.
          4   -1    0    0  501    0  0.00000000000E+00 -0.00000000000E+00 -0.43081500332E+01  0.44914426088E+01  0.12700000000E+01 0. -1.
         25    2    1    2    0    0  0.00000000000E+00  0.00000000000E+00  0.88329939536E+03  0.89209989657E+03  0.12499761443E+03 0.  0.
    9000005    1    3    3    0    0  0.49743957657E+02 -0.25123952923E+02  0.23985904108E+03  0.24624994198E+03  0.10000000000E+01 0.  0.
    9000005    1    3    3    0    0 -0.49743957657E+02  0.25123952923E+02  0.64344035427E+03  0.64584995459E+03  0.10000000000E+01 0.  0.
<mgrwt>
<rscale>  0 0.12499761E+03</rscale>
<asrwt>0</asrwt>
<pdfrwt beam="2">  1        4 0.67696219E-03 0.12499761E+03</pdfrwt>
<pdfrwt beam="1">  1       -4 0.13656906E+00 0.12499761E+03</pdfrwt>
<totfact> 0.34465452E+03</totfact>
</mgrwt>
</event>
<event>
 5    1  0.3234540E-002  0.1250022E+03  0.7818608E-02  0.1235066E+00
         -4   -1    0    0    0  501 -0.00000000000E+00  0.00000000000E+00  0.15211710824E+03  0.15212240966E+03  0.12700000000E+01 0.  1.
          4   -1    0    0  501    0  0.00000000000E+00 -0.00000000000E+00 -0.25658696824E+02  0.25690107487E+02  0.12700000000E+01 0.  1.
         25    2    1    2    0    0  0.00000000000E+00  0.00000000000E+00  0.12645841142E+03  0.17781251715E+03  0.12500224572E+03 0.  0.
    9000005    1    3    3    0    0  0.50068933010E+02  0.36134858664E+02  0.76929659095E+02  0.98649878418E+02  0.10000000000E+01 0.  0.
    9000005    1    3    3    0    0 -0.50068933010E+02 -0.36134858664E+02  0.49528752325E+02  0.79162638727E+02  0.10000000000E+01 0.  0.
<mgrwt>
<rscale>  0 0.12500225E+03</rscale>
<asrwt>0</asrwt>
<pdfrwt beam="2">  1        4 0.39503158E-02 0.12500225E+03</pdfrwt>
<pdfrwt beam="1">  1       -4 0.23405456E-01 0.12500225E+03</pdfrwt>
<totfact> 0.94007510E+03</totfact>
</mgrwt>
</event>
<event>
 5    1  0.3234540E-002  0.1249983E+03  0.7818608E-02  0.1235072E+00
         -4   -1    0    0    0  501 -0.00000000000E+00  0.00000000000E+00  0.67586249067E+01  0.68769114164E+01  0.12700000000E+01 0.  1.
          4   -1    0    0  501    0  0.00000000000E+00 -0.00000000000E+00 -0.57281682823E+03  0.57281823609E+03  0.12700000000E+01 0.  1.
         25    2    1    2    0    0  0.00000000000E+00  0.00000000000E+00 -0.56605820332E+03  0.57969514751E+03  0.12499829798E+03 0.  0.
    9000005    1    3    3    0    0  0.25542843919E+02  0.20898615608E+02 -0.36930927891E+02  0.49538696437E+02  0.10000000000E+01 0.  0.
    9000005    1    3    3    0    0 -0.25542843919E+02 -0.20898615608E+02 -0.52912727543E+03  0.53015645107E+03  0.10000000000E+01 0.  0.
<mgrwt>
<rscale>  0 0.12499830E+03</rscale>
<asrwt>0</asrwt>
<pdfrwt beam="2">  1        4 0.88134835E-01 0.12499830E+03</pdfrwt>
<pdfrwt beam="1">  1       -4 0.10489962E-02 0.12499830E+03</pdfrwt>
<totfact> 0.50176807E+03</totfact>
</mgrwt>
</event>
<event>
 5    1  0.3234540E-002  0.1249995E+03  0.7818608E-02  0.1235070E+00
          4   -1    0    0  501    0  0.00000000000E+00  0.00000000000E+00  0.17907708684E+03  0.17908159015E+03  0.12700000000E+01 0. -1.
         -4   -1    0    0    0  501 -0.00000000000E+00 -0.00000000000E+00 -0.21789776673E+02  0.21826755770E+02  0.12700000000E+01 0. -1.
         25    2    1    2    0    0  0.00000000000E+00  0.00000000000E+00  0.15728731016E+03  0.20090834592E+03  0.12499946208E+03 0.  0.
    9000005    1    3    3    0    0 -0.28777512546E+02  0.99970571826E+01  0.16634146211E+03  0.16911111258E+03  0.10000000000E+01 0.  0.
    9000005    1    3    3    0    0  0.28777512546E+02 -0.99970571826E+01 -0.90541519451E+01  0.31797233340E+02  0.10000000000E+01 0.  0.
<mgrwt>
<rscale>  0 0.12499946E+03</rscale>
<asrwt>0</asrwt>
<pdfrwt beam="1">  1        4 0.27553514E-01 0.12499946E+03</pdfrwt>
<pdfrwt beam="2">  1       -4 0.33554641E-02 0.12499946E+03</pdfrwt>
<totfact> 0.89983613E+03</totfact>
</mgrwt>
</event>
<event>
 5    1  0.3234540E-002  0.1249996E+03  0.7818608E-02  0.1235070E+00
         -4   -1    0    0    0  501 -0.00000000000E+00  0.00000000000E+00  0.13232567381E+03  0.13233176810E+03  0.12700000000E+01 0. -1.
          4   -1    0    0  501    0  0.00000000000E+00 -0.00000000000E+00 -0.29499365027E+02  0.29526690248E+02  0.12700000000E+01 0. -1.
         25    2    1    2    0    0  0.00000000000E+00  0.00000000000E+00  0.10282630878E+03  0.16185845835E+03  0.12499964305E+03 0.  0.
    9000005    1    3    3    0    0  0.11794783291E+02 -0.61128969474E+02  0.58429382176E+02  0.85386535961E+02  0.10000000000E+01 0.  0.
    9000005    1    3    3    0    0 -0.11794783291E+02  0.61128969474E+02  0.44396926604E+02  0.76471922388E+02  0.10000000000E+01 0.  0.
<mgrwt>
<rscale>  0 0.12499964E+03</rscale>
<asrwt>0</asrwt>
<pdfrwt beam="2">  1        4 0.45409346E-02 0.12499964E+03</pdfrwt>
<pdfrwt beam="1">  1       -4 0.20360367E-01 0.12499964E+03</pdfrwt>
<totfact> 0.96986459E+03</totfact>
</mgrwt>
</event>
<event>
 5    1  0.3234540E-002  0.1249961E+03  0.7818608E-02  0.1235075E+00
          4   -1    0    0  501    0  0.00000000000E+00  0.00000000000E+00  0.89100371370E+02  0.89109421939E+02  0.12700000000E+01 0.  1.
         -4   -1    0    0    0  501 -0.00000000000E+00 -0.00000000000E+00 -0.43817828491E+02  0.43836229236E+02  0.12700000000E+01 0.  1.
         25    2    1    2    0    0  0.00000000000E+00  0.00000000000E+00  0.45282542879E+02  0.13294565118E+03  0.12499614985E+03 0.  0.
    9000005    1    3    3    0    0 -0.74548676028E+01 -0.47453465933E+02  0.65153308748E+02  0.80952826515E+02  0.10000000000E+01 0.  0.
    9000005    1    3    3    0    0  0.74548676028E+01  0.47453465933E+02 -0.19870765869E+02  0.51992824661E+02  0.10000000000E+01 0.  0.
<mgrwt>
<rscale>  0 0.12499615E+03</rscale>
<asrwt>0</asrwt>
<pdfrwt beam="1">  1        4 0.13709861E-01 0.12499615E+03</pdfrwt>
<pdfrwt beam="2">  1       -4 0.67433160E-02 0.12499615E+03</pdfrwt>
<totfact> 0.10282448E+04</totfact>
</mgrwt>
</event>
<event>
 5    1  0.3234540E-002  0.1249987E+03  0.7818608E-02  0.1235071E+00
          4   -1    0    0  501    0  0.00000000000E+00  0.00000000000E+00  0.50667815953E+02  0.50683729869E+02  0.12700000000E+01 0.  1.
         -4   -1    0    0    0  501 -0.00000000000E+00 -0.00000000000E+00 -0.77060470278E+02  0.77070934725E+02  0.12700000000E+01 0.  1.
         25    2    1    2    0    0  0.00000000000E+00  0.00000000000E+00 -0.26392654325E+02  0.12775466459E+03  0.12499872849E+03 0.  0.
    9000005    1    3    3    0    0 -0.22490774516E+02  0.34339285456E+02  0.34960984894E+02  0.53928581742E+02  0.10000000000E+01 0.  0.
    9000005    1    3    3    0    0  0.22490774516E+02 -0.34339285456E+02 -0.61353639219E+02  0.73826082853E+02  0.10000000000E+01 0.  0.
<mgrwt>
<rscale>  0 0.12499873E+03</rscale>
<asrwt>0</asrwt>
<pdfrwt beam="1">  1        4 0.77970777E-02 0.12499873E+03</pdfrwt>
<pdfrwt beam="2">  1       -4 0.11857486E-01 0.12499873E+03</pdfrwt>
<totfact> 0.10393088E+04</totfact>
</mgrwt>
</event>
<event>
 5    1  0.3234540E-002  0.1250044E+03  0.7818608E-02  0.1235062E+00
         -4   -1    0    0    0  501 -0.00000000000E+00  0.00000000000E+00  0.77587546238E+02  0.77597939606E+02  0.12700000000E+01 0.  1.
          4   -1    0    0  501    0  0.00000000000E+00 -0.00000000000E+00 -0.50328084800E+02  0.50344106106E+02  0.12700000000E+01 0.  1.
         25    2    1    2    0    0  0.00000000000E+00  0.00000000000E+00  0.27259461437E+02  0.12794204571E+03  0.12500435522E+03 0.  0.
    9000005    1    3    3    0    0 -0.14404478581E+02  0.57578819094E+01  0.75590674696E+02  0.77172484140E+02  0.10000000000E+01 0.  0.
    9000005    1    3    3    0    0  0.14404478581E+02 -0.57578819094E+01 -0.48331213259E+02  0.50769561573E+02  0.10000000000E+01 0.  0.
<mgrwt>
<rscale>  0 0.12500436E+03</rscale>
<asrwt>0</asrwt>
<pdfrwt beam="2">  1        4 0.77448142E-02 0.12500436E+03</pdfrwt>
<pdfrwt beam="1">  1       -4 0.11938577E-01 0.12500436E+03</pdfrwt>
<totfact> 0.10387718E+04</totfact>
</mgrwt>
</event>
<event>
 5    1  0.3234540E-002  0.1249985E+03  0.7818608E-02  0.1235072E+00
         -4   -1    0    0    0  501 -0.00000000000E+00  0.00000000000E+00  0.51011745714E+02  0.51027552369E+02  0.12700000000E+01 0.  1.
          4   -1    0    0  501    0  0.00000000000E+00 -0.00000000000E+00 -0.76540703150E+02  0.76551238649E+02  0.12700000000E+01 0.  1.
         25    2    1    2    0    0  0.00000000000E+00  0.00000000000E+00 -0.25528957436E+02  0.12757879102E+03  0.12499848099E+03 0.  0.
    9000005    1    3    3    0    0 -0.45112856427E+01  0.33022731998E+02  0.41187882881E+02  0.52993341308E+02  0.10000000000E+01 0.  0.
    9000005    1    3    3    0    0  0.45112856427E+01 -0.33022731998E+02 -0.66716840317E+02  0.74585449711E+02  0.10000000000E+01 0.  0.
<mgrwt>
<rscale>  0 0.12499848E+03</rscale>
<asrwt>0</asrwt>
<pdfrwt beam="2">  1        4 0.11777519E-01 0.12499848E+03</pdfrwt>
<pdfrwt beam="1">  1       -4 0.78499872E-02 0.12499848E+03</pdfrwt>
<totfact> 0.10396951E+04</totfact>
</mgrwt>
</event>
<event>
 5    1  0.3234540E-002  0.1250004E+03  0.7818608E-02  0.1235069E+00
          4   -1    0    0  501    0  0.00000000000E+00  0.00000000000E+00  0.47993687072E+01  0.49645583880E+01  0.12700000000E+01 0. -1.
         -4   -1    0    0    0  501 -0.00000000000E+00 -0.00000000000E+00 -0.79997898259E+03  0.79997999067E+03  0.12700000000E+01 0. -1.
         25    2    1    2    0    0  0.00000000000E+00  0.00000000000E+00 -0.79517961388E+03  0.80494454906E+03  0.12500043495E+03 0.  0.
    9000005    1    3    3    0    0 -0.54900010499E+02  0.16318810096E+02 -0.23660629109E+03  0.24344168028E+03  0.10000000000E+01 0.  0.
    9000005    1    3    3    0    0  0.54900010499E+02 -0.16318810096E+02 -0.55857332279E+03  0.56150286878E+03  0.10000000000E+01 0.  0.
<mgrwt>
<rscale>  0 0.12500043E+03</rscale>
<asrwt>0</asrwt>
<pdfrwt beam="1">  1        4 0.75114950E-03 0.12500043E+03</pdfrwt>
<pdfrwt beam="2">  1       -4 0.12308637E+00 0.12500043E+03</pdfrwt>
<totfact> 0.38044605E+03</totfact>
</mgrwt>
</event>
<event>
 4    1  0.3234540E-002  0.1244231E+03  0.7818608E-02  0.1235974E+00
          4   -1    0    0  501    0  0.00000000000E+00  0.00000000000E+00  0.13026350001E+03  0.13026969077E+03  0.12700000000E+01 0.  1.
         -4   -1    0    0    0  501 -0.00000000000E+00 -0.00000000000E+00 -0.29690675680E+02  0.29717824993E+02  0.12700000000E+01 0.  1.
    9000005    1    1    2    0    0  0.23475603770E+02 -0.57519864072E+02  0.54278574007E+02  0.82503347396E+02  0.10000000000E+01 0.  0.
    9000005    1    1    2    0    0 -0.23475603770E+02  0.57519864072E+02  0.46294250321E+02  0.77484168370E+02  0.10000000000E+01 0.  0.
<mgrwt>
<rscale>  0 0.12442312E+03</rscale>
<asrwt>0</asrwt>
<pdfrwt beam="1">  1        4 0.20043103E-01 0.12442312E+03</pdfrwt>
<pdfrwt beam="2">  1       -4 0.45703609E-02 0.12442312E+03</pdfrwt>
<totfact> 0.98618274E+03</totfact>
</mgrwt>
</event>
<event>
 5    1  0.3234540E-002  0.1249994E+03  0.7818608E-02  0.1235070E+00
         -4   -1    0    0    0  501 -0.00000000000E+00  0.00000000000E+00  0.25009492761E+01  0.28049326697E+01  0.12700000000E+01 0. -1.
          4   -1    0    0  501    0  0.00000000000E+00 -0.00000000000E+00 -0.14721037351E+04  0.14721042830E+04  0.12700000000E+01 0. -1.
         25    2    1    2    0    0  0.00000000000E+00  0.00000000000E+00 -0.14696027859E+04  0.14749092156E+04  0.12499938454E+03 0.  0.
    9000005    1    3    3    0    0  0.39919836119E+02  0.18721649045E+02 -0.21227373173E+03  0.21680689712E+03  0.10000000000E+01 0.  0.
    9000005    1    3    3    0    0 -0.39919836119E+02 -0.18721649045E+02 -0.12573290541E+04  0.12581023185E+04  0.10000000000E+01 0.  0.
<mgrwt>
<rscale>  0 0.12499938E+03</rscale>
<asrwt>0</asrwt>
<pdfrwt beam="2">  1        4 0.22650027E+00 0.12499938E+03</pdfrwt>
<pdfrwt beam="1">  1       -4 0.40818808E-03 0.12499938E+03</pdfrwt>
<totfact> 0.18428586E+03</totfact>
</mgrwt>
</event>
<event>
 5    1  0.3234540E-002  0.1249931E+03  0.7818608E-02  0.1235080E+00
          4   -1    0    0  501    0  0.00000000000E+00  0.00000000000E+00  0.14025517380E+03  0.14026092356E+03  0.12700000000E+01 0. -1.
         -4   -1    0    0    0  501 -0.00000000000E+00 -0.00000000000E+00 -0.27827134745E+02  0.27856100375E+02  0.12700000000E+01 0. -1.
         25    2    1    2    0    0  0.00000000000E+00  0.00000000000E+00  0.11242803906E+03  0.16811702394E+03  0.12499307889E+03 0.  0.
    9000005    1    3    3    0    0  0.19781253243E+01  0.60545931994E+02  0.76836791401E+02  0.97849963585E+02  0.10000000000E+01 0.  0.
    9000005    1    3    3    0    0 -0.19781253243E+01 -0.60545931994E+02  0.35591247657E+02  0.70267060352E+02  0.10000000000E+01 0.  0.
<mgrwt>
<rscale>  0 0.12499308E+03</rscale>
<asrwt>0</asrwt>
<pdfrwt beam="1">  1        4 0.21580390E-01 0.12499308E+03</pdfrwt>
<pdfrwt beam="2">  1       -4 0.42837679E-02 0.12499308E+03</pdfrwt>
<totfact> 0.95815203E+03</totfact>
</mgrwt>
</event>
<event>
 5    1  0.3234540E-002  0.1249986E+03  0.7818608E-02  0.1235072E+00
          4   -1    0    0  501    0  0.00000000000E+00  0.00000000000E+00  0.52441627489E+01  0.53957523050E+01  0.12700000000E+01 0.  1.
         -4   -1    0    0    0  501 -0.00000000000E+00 -0.00000000000E+00 -0.73409448800E+03  0.73409558656E+03  0.12700000000E+01 0.  1.
         25    2    1    2    0    0  0.00000000000E+00  0.00000000000E+00 -0.72885032525E+03  0.73949133887E+03  0.12499857456E+03 0.  0.
    9000005    1    3    3    0    0 -0.50866489920E+02 -0.24307145172E+02 -0.52392949279E+03  0.52695478982E+03  0.10000000000E+01 0.  0.
    9000005    1    3    3    0    0  0.50866489920E+02  0.24307145172E+02 -0.20492083246E+03  0.21253654905E+03  0.10000000000E+01 0.  0.
<mgrwt>
<rscale>  0 0.12499857E+03</rscale>
<asrwt>0</asrwt>
<pdfrwt beam="1">  1        4 0.81854009E-03 0.12499857E+03</pdfrwt>
<pdfrwt beam="2">  1       -4 0.11294928E+00 0.12499857E+03</pdfrwt>
<totfact> 0.41083186E+03</totfact>
</mgrwt>
</event>
<event>
 5    1  0.3234540E-002  0.1249954E+03  0.7818608E-02  0.1235076E+00
         -4   -1    0    0    0  501 -0.00000000000E+00  0.00000000000E+00  0.51312773155E+01  0.52861050773E+01  0.12700000000E+01 0. -1.
          4   -1    0    0  501    0  0.00000000000E+00 -0.00000000000E+00 -0.74973789349E+03  0.74973896913E+03  0.12700000000E+01 0. -1.
         25    2    1    2    0    0  0.00000000000E+00  0.00000000000E+00 -0.74460661617E+03  0.75502507421E+03  0.12499539925E+03 0.  0.
    9000005    1    3    3    0    0  0.92522661019E+01  0.58208211757E+02 -0.49772932856E+03  0.50120782601E+03  0.10000000000E+01 0.  0.
    9000005    1    3    3    0    0 -0.92522661019E+01 -0.58208211757E+02 -0.24687728761E+03  0.25381724820E+03  0.10000000000E+01 0.  0.
<mgrwt>
<rscale>  0 0.12499540E+03</rscale>
<asrwt>0</asrwt>
<pdfrwt beam="2">  1        4 0.11535620E+00 0.12499540E+03</pdfrwt>
<pdfrwt beam="1">  1       -4 0.80142045E-03 0.12499540E+03</pdfrwt>
<totfact> 0.40339016E+03</totfact>
</mgrwt>
</event>
<event>
 5    1  0.3234540E-002  0.1250034E+03  0.7818608E-02  0.1235064E+00
         -4   -1    0    0    0  501 -0.00000000000E+00  0.00000000000E+00  0.62207356818E+01  0.63490513010E+01  0.12700000000E+01 0.  1.
          4   -1    0    0  501    0  0.00000000000E+00 -0.00000000000E+00 -0.62143491181E+03  0.62143620953E+03  0.12700000000E+01 0.  1.
         25    2    1    2    0    0  0.00000000000E+00  0.00000000000E+00 -0.61521417613E+03  0.62778526083E+03  0.12500340479E+03 0.  0.
    9000005    1    3    3    0    0  0.26352728687E+01  0.49744265036E+02 -0.11809004659E+03  0.12817057256E+03  0.10000000000E+01 0.  0.
    9000005    1    3    3    0    0 -0.26352728687E+01 -0.49744265036E+02 -0.49712412954E+03  0.49961468827E+03  0.10000000000E+01 0.  0.
<mgrwt>
<rscale>  0 0.12500340E+03</rscale>
<asrwt>0</asrwt>
<pdfrwt beam="2">  1        4 0.95615293E-01 0.12500340E+03</pdfrwt>
<pdfrwt beam="1">  1       -4 0.96700700E-03 0.12500340E+03</pdfrwt>
<totfact> 0.47155917E+03</totfact>
</mgrwt>
</event>
<event>
 5    1  0.3234540E-002  0.1249980E+03  0.7818608E-02  0.1235072E+00
          4   -1    0    0  501    0  0.00000000000E+00  0.00000000000E+00  0.33377994218E+02  0.33402146608E+02  0.12700000000E+01 0.  1.
         -4   -1    0    0    0  501 -0.00000000000E+00 -0.00000000000E+00 -0.11695710709E+03  0.11696400215E+03  0.12700000000E+01 0.  1.
         25    2    1    2    0    0  0.00000000000E+00  0.00000000000E+00 -0.83579112871E+02  0.15036614876E+03  0.12499804232E+03 0.  0.
    9000005    1    3    3    0    0 -0.10478395045E+02  0.56560481788E+02 -0.12415871455E+02  0.58856084875E+02  0.10000000000E+01 0.  0.
    9000005    1    3    3    0    0  0.10478395045E+02 -0.56560481788E+02 -0.71163241416E+02  0.91510063882E+02  0.10000000000E+01 0.  0.
<mgrwt>
<rscale>  0 0.12499804E+03</rscale>
<asrwt>0</asrwt>
<pdfrwt beam="1">  1        4 0.51374643E-02 0.12499804E+03</pdfrwt>
<pdfrwt beam="2">  1       -4 0.17995789E-01 0.12499804E+03</pdfrwt>
<totfact> 0.99235134E+03</totfact>
</mgrwt>
</event>
<event>
 5    1  0.3234540E-002  0.1250022E+03  0.7818608E-02  0.1235066E+00
          4   -1    0    0  501    0  0.00000000000E+00  0.00000000000E+00  0.16805313129E+03  0.16805793000E+03  0.12700000000E+01 0. -1.
         -4   -1    0    0    0  501 -0.00000000000E+00 -0.00000000000E+00 -0.23222471159E+02  0.23257172371E+02  0.12700000000E+01 0. -1.
         25    2    1    2    0    0  0.00000000000E+00  0.00000000000E+00  0.14483066013E+03  0.19131510237E+03  0.12500219311E+03 0.  0.
    9000005    1    3    3    0    0 -0.13492640924E+02 -0.45558502015E+02  0.13454204873E+03  0.14268914234E+03  0.10000000000E+01 0.  0.
    9000005    1    3    3    0    0  0.13492640924E+02  0.45558502015E+02  0.10288611406E+02  0.48625960038E+02  0.10000000000E+01 0.  0.
<mgrwt>
<rscale>  0 0.12500219E+03</rscale>
<asrwt>0</asrwt>
<pdfrwt beam="1">  1        4 0.25857367E-01 0.12500219E+03</pdfrwt>
<pdfrwt beam="2">  1       -4 0.35757262E-02 0.12500219E+03</pdfrwt>
<totfact> 0.91614492E+03</totfact>
</mgrwt>
</event>
<event>
 5    1  0.3234540E-002  0.1249962E+03  0.7818608E-02  0.1235075E+00
         -4   -1    0    0    0  501 -0.00000000000E+00  0.00000000000E+00  0.51945114142E+01  0.53475086566E+01  0.12700000000E+01 0. -1.
          4   -1    0    0  501    0  0.00000000000E+00 -0.00000000000E+00 -0.74088368807E+03  0.74088477657E+03  0.12700000000E+01 0. -1.
         25    2    1    2    0    0  0.00000000000E+00  0.00000000000E+00 -0.73568917666E+03  0.74623228522E+03  0.12499623539E+03 0.  0.
    9000005    1    3    3    0    0  0.12700197854E+02 -0.53398754492E+02 -0.54617720145E+03  0.54892919160E+03  0.10000000000E+01 0.  0.
    9000005    1    3    3    0    0 -0.12700197854E+02  0.53398754492E+02 -0.18951197521E+03  0.19730309362E+03  0.10000000000E+01 0.  0.
<mgrwt>
<rscale>  0 0.12499624E+03</rscale>
<asrwt>0</asrwt>
<pdfrwt beam="2">  1        4 0.11399388E+00 0.12499624E+03</pdfrwt>
<pdfrwt beam="1">  1       -4 0.81100894E-03 0.12499624E+03</pdfrwt>
<totfact> 0.40758376E+03</totfact>
</mgrwt>
</event>
<event>
 5    1  0.3234540E-002  0.1250005E+03  0.7818608E-02  0.1235069E+00
          4   -1    0    0  501    0  0.00000000000E+00  0.00000000000E+00  0.59282702232E+01  0.60627788876E+01  0.12700000000E+01 0. -1.
         -4   -1    0    0    0  501 -0.00000000000E+00 -0.00000000000E+00 -0.65139729039E+03  0.65139852842E+03  0.12700000000E+01 0. -1.
         25    2    1    2    0    0  0.00000000000E+00  0.00000000000E+00 -0.64546902016E+03  0.65746130730E+03  0.12500045844E+03 0.  0.
    9000005    1    3    3    0    0 -0.30888418854E+02 -0.14022291731E+02 -0.59878255614E+03  0.59974350235E+03  0.10000000000E+01 0.  0.
    9000005    1    3    3    0    0  0.30888418854E+02  0.14022291731E+02 -0.46686464027E+02  0.57717804949E+02  0.10000000000E+01 0.  0.
<mgrwt>
<rscale>  0 0.12500046E+03</rscale>
<asrwt>0</asrwt>
<pdfrwt beam="1">  1        4 0.92248414E-03 0.12500046E+03</pdfrwt>
<pdfrwt beam="2">  1       -4 0.10022535E+00 0.12500046E+03</pdfrwt>
<totfact> 0.45428714E+03</totfact>
</mgrwt>
</event>
<event>
 5    1  0.3234540E-002  0.1249997E+03  0.7818608E-02  0.1235070E+00
         -4   -1    0    0    0  501 -0.00000000000E+00  0.00000000000E+00  0.24470613155E+02  0.24503546849E+02  0.12700000000E+01 0. -1.
          4   -1    0    0  501    0  0.00000000000E+00 -0.00000000000E+00 -0.15948667243E+03  0.15949172889E+03  0.12700000000E+01 0. -1.
         25    2    1    2    0    0  0.00000000000E+00  0.00000000000E+00 -0.13501605928E+03  0.18399527574E+03  0.12499970092E+03 0.  0.
    9000005    1    3    3    0    0  0.78405203936E+01 -0.21863941274E+02  0.17887876772E+02  0.29333970469E+02  0.10000000000E+01 0.  0.
    9000005    1    3    3    0    0 -0.78405203936E+01  0.21863941274E+02 -0.15290393605E+03  0.15466130527E+03  0.10000000000E+01 0.  0.
<mgrwt>
<rscale>  0 0.12499970E+03</rscale>
<asrwt>0</asrwt>
<pdfrwt beam="2">  1        4 0.24539333E-01 0.12499970E+03</pdfrwt>
<pdfrwt beam="1">  1       -4 0.37676321E-02 0.12499970E+03</pdfrwt>
<totfact> 0.92903367E+03</totfact>
</mgrwt>
</event>
<event>
 5    1  0.3234540E-002  0.1249966E+03  0.7818608E-02  0.1235075E+00
         -4   -1    0    0    0  501 -0.00000000000E+00  0.00000000000E+00  0.11309746713E+03  0.11310459748E+03  0.12700000000E+01 0. -1.
          4   -1    0    0  501    0  0.00000000000E+00 -0.00000000000E+00 -0.34517021843E+02  0.34540377776E+02  0.12700000000E+01 0. -1.
         25    2    1    2    0    0  0.00000000000E+00  0.00000000000E+00  0.78580445292E+02  0.14764497526E+03  0.12499660930E+03 0.  0.
    9000005    1    3    3    0    0  0.62441137538E+02  0.80518344243E+00  0.42058878609E+02  0.75296037394E+02  0.10000000000E+01 0.  0.
    9000005    1    3    3    0    0 -0.62441137538E+02 -0.80518344243E+00  0.36521566682E+02  0.72348937866E+02  0.10000000000E+01 0.  0.
<mgrwt>
<rscale>  0 0.12499661E+03</rscale>
<asrwt>0</asrwt>
<pdfrwt beam="2">  1        4 0.53126561E-02 0.12499661E+03</pdfrwt>
<pdfrwt beam="1">  1       -4 0.17401956E-01 0.12499661E+03</pdfrwt>
<totfact> 0.99782841E+03</totfact>
</mgrwt>
</event>
<event>
 5    1  0.3234540E-002  0.1249954E+03  0.7818608E-02  0.1235076E+00
          4   -1    0    0  501    0  0.00000000000E+00  0.00000000000E+00  0.28191617877E+02  0.28220209399E+02  0.12700000000E+01 0. -1.
         -4   -1    0    0    0  501 -0.00000000000E+00 -0.00000000000E+00 -0.13844874953E+03  0.13845457431E+03  0.12700000000E+01 0. -1.
         25    2    1    2    0    0  0.00000000000E+00  0.00000000000E+00 -0.11025713166E+03  0.16667478371E+03  0.12499539369E+03 0.  0.
    9000005    1    3    3    0    0  0.15240799422E+02  0.60234067016E+02 -0.46229633490E+02  0.77450654025E+02  0.10000000000E+01 0.  0.
    9000005    1    3    3    0    0 -0.15240799422E+02 -0.60234067016E+02 -0.64027498168E+02  0.89224129685E+02  0.10000000000E+01 0.  0.
<mgrwt>
<rscale>  0 0.12499539E+03</rscale>
<asrwt>0</asrwt>
<pdfrwt beam="1">  1        4 0.43398195E-02 0.12499539E+03</pdfrwt>
<pdfrwt beam="2">  1       -4 0.21302455E-01 0.12499539E+03</pdfrwt>
<totfact> 0.96081092E+03</totfact>
</mgrwt>
</event>
<event>
 5    1  0.3234540E-002  0.1249993E+03  0.7818608E-02  0.1235070E+00
         -4   -1    0    0    0  501 -0.00000000000E+00  0.00000000000E+00  0.31295400266E+02  0.31321158628E+02  0.12700000000E+01 0. -1.
          4   -1    0    0  501    0  0.00000000000E+00 -0.00000000000E+00 -0.12473685236E+03  0.12474331740E+03  0.12700000000E+01 0. -1.
         25    2    1    2    0    0  0.00000000000E+00  0.00000000000E+00 -0.93441452094E+02  0.15606447603E+03  0.12499926284E+03 0.  0.
    9000005    1    3    3    0    0  0.25652202810E+01  0.94687515944E+01 -0.12377561037E+03  0.12416778702E+03  0.10000000000E+01 0.  0.
    9000005    1    3    3    0    0 -0.25652202810E+01 -0.94687515944E+01  0.30334158272E+02  0.31896689012E+02  0.10000000000E+01 0.  0.
<mgrwt>
<rscale>  0 0.12499926E+03</rscale>
<asrwt>0</asrwt>
<pdfrwt beam="2">  1        4 0.19192763E-01 0.12499926E+03</pdfrwt>
<pdfrwt beam="1">  1       -4 0.48171558E-02 0.12499926E+03</pdfrwt>
<totfact> 0.98108560E+03</totfact>
</mgrwt>
</event>
<event>
 5    1  0.3234540E-002  0.1249975E+03  0.7818608E-02  0.1235073E+00
          4   -1    0    0  501    0  0.00000000000E+00  0.00000000000E+00  0.48793706470E+02  0.48810231418E+02  0.12700000000E+01 0. -1.
         -4   -1    0    0    0  501 -0.00000000000E+00 -0.00000000000E+00 -0.80018074894E+02  0.80028152608E+02  0.12700000000E+01 0. -1.
         25    2    1    2    0    0  0.00000000000E+00  0.00000000000E+00 -0.31224368424E+02  0.12883838403E+03  0.12499747203E+03 0.  0.
    9000005    1    3    3    0    0 -0.58887348571E+02 -0.11816007361E+02  0.21735972708E+01  0.60108754577E+02  0.10000000000E+01 0.  0.
    9000005    1    3    3    0    0  0.58887348571E+02  0.11816007361E+02 -0.33397965695E+02  0.68729629449E+02  0.10000000000E+01 0.  0.
<mgrwt>
<rscale>  0 0.12499747E+03</rscale>
<asrwt>0</asrwt>
<pdfrwt beam="1">  1        4 0.75087704E-02 0.12499747E+03</pdfrwt>
<pdfrwt beam="2">  1       -4 0.12312519E-01 0.12499747E+03</pdfrwt>
<totfact> 0.10370013E+04</totfact>
</mgrwt>
</event>
<event>
 5    1  0.3234540E-002  0.1249994E+03  0.7818608E-02  0.1235070E+00
         -4   -1    0    0    0  501 -0.00000000000E+00  0.00000000000E+00  0.25119120164E+03  0.25119441212E+03  0.12700000000E+01 0.  1.
          4   -1    0    0  501    0  0.00000000000E+00 -0.00000000000E+00 -0.15521498111E+02  0.15573368409E+02  0.12700000000E+01 0.  1.
         25    2    1    2    0    0  0.00000000000E+00  0.00000000000E+00  0.23566970353E+03  0.26676778053E+03  0.12499935827E+03 0.  0.
    9000005    1    3    3    0    0  0.10390046077E+02  0.60782328558E+02  0.96200245970E+02  0.11427130807E+03  0.10000000000E+01 0.  0.
    9000005    1    3    3    0    0 -0.10390046077E+02 -0.60782328558E+02  0.13946945756E+03  0.15249647246E+03  0.10000000000E+01 0.  0.
<mgrwt>
<rscale>  0 0.12499936E+03</rscale>
<asrwt>0</asrwt>
<pdfrwt beam="2">  1        4 0.23921600E-02 0.12499936E+03</pdfrwt>
<pdfrwt beam="1">  1       -4 0.38649033E-01 0.12499936E+03</pdfrwt>
<totfact> 0.79966725E+03</totfact>
</mgrwt>
</event>
<event>
 5    1  0.3234540E-002  0.1249998E+03  0.7818608E-02  0.1235070E+00
         -4   -1    0    0    0  501 -0.00000000000E+00  0.00000000000E+00  0.44136860890E+01  0.45927687610E+01  0.12700000000E+01 0.  1.
          4   -1    0    0  501    0  0.00000000000E+00 -0.00000000000E+00 -0.86725074314E+03  0.86725167303E+03  0.12700000000E+01 0.  1.
         25    2    1    2    0    0  0.00000000000E+00  0.00000000000E+00 -0.86283705705E+03  0.87184444179E+03  0.12499977466E+03 0.  0.
    9000005    1    3    3    0    0 -0.43050434388E+02 -0.39677772977E+02 -0.58384080704E+03  0.58676976195E+03  0.10000000000E+01 0.  0.
    9000005    1    3    3    0    0  0.43050434388E+02  0.39677772977E+02 -0.27899625001E+03  0.28507467984E+03  0.10000000000E+01 0.  0.
<mgrwt>
<rscale>  0 0.12499977E+03</rscale>
<asrwt>0</asrwt>
<pdfrwt beam="2">  1        4 0.13343691E+00 0.12499977E+03</pdfrwt>
<pdfrwt beam="1">  1       -4 0.69287644E-03 0.12499977E+03</pdfrwt>
<totfact> 0.35249931E+03</totfact>
</mgrwt>
</event>
<event>
 5    1  0.3234540E-002  0.1249992E+03  0.7818608E-02  0.1235070E+00
         -4   -1    0    0    0  501 -0.00000000000E+00  0.00000000000E+00  0.24338872081E+03  0.24339203421E+03  0.12700000000E+01 0. -1.
          4   -1    0    0  501    0  0.00000000000E+00 -0.00000000000E+00 -0.16020680012E+02  0.16070939239E+02  0.12700000000E+01 0. -1.
         25    2    1    2    0    0  0.00000000000E+00  0.00000000000E+00  0.22736804080E+03  0.25946297345E+03  0.12499923446E+03 0.  0.
    9000005    1    3    3    0    0 -0.55819069712E+01  0.36352108923E+02  0.21855534481E+03  0.22163048584E+03  0.10000000000E+01 0.  0.
    9000005    1    3    3    0    0  0.55819069712E+01 -0.36352108923E+02  0.88126959944E+01  0.37832487617E+02  0.10000000000E+01 0.  0.
<mgrwt>
<rscale>  0 0.12499923E+03</rscale>
<asrwt>0</asrwt>
<pdfrwt beam="2">  1        4 0.24688411E-02 0.12499923E+03</pdfrwt>
<pdfrwt beam="1">  1       -4 0.37448538E-01 0.12499923E+03</pdfrwt>
<totfact> 0.80982864E+03</totfact>
</mgrwt>
</event>
<event>
 5    1  0.3234540E-002  0.1249971E+03  0.7818608E-02  0.1235074E+00
         -4   -1    0    0    0  501 -0.00000000000E+00  0.00000000000E+00  0.17010015285E+03  0.17010489382E+03  0.12700000000E+01 0.  1.
          4   -1    0    0  501    0  0.00000000000E+00 -0.00000000000E+00 -0.22940730316E+02  0.22975857055E+02  0.12700000000E+01 0.  1.
         25    2    1    2    0    0  0.00000000000E+00  0.00000000000E+00  0.14715942254E+03  0.19308075087E+03  0.12499712283E+03 0.  0.
    9000005    1    3    3    0    0  0.33563236610E+02 -0.44918197971E+02  0.11618982475E+03  0.12901631965E+03  0.10000000000E+01 0.  0.
    9000005    1    3    3    0    0 -0.33563236610E+02  0.44918197971E+02  0.30969597786E+02  0.64064431221E+02  0.10000000000E+01 0.  0.
<mgrwt>
<rscale>  0 0.12499712E+03</rscale>
<asrwt>0</asrwt>
<pdfrwt beam="2">  1        4 0.35324098E-02 0.12499712E+03</pdfrwt>
<pdfrwt beam="1">  1       -4 0.26172321E-01 0.12499712E+03</pdfrwt>
<totfact> 0.91319903E+03</totfact>
</mgrwt>
</event>
<event>
 5    1  0.3234540E-002  0.1250006E+03  0.7818608E-02  0.1235068E+00
         -4   -1    0    0    0  501 -0.00000000000E+00  0.00000000000E+00  0.20434117233E+03  0.20434511888E+03  0.12700000000E+01 0.  1.
          4   -1    0    0  501    0  0.00000000000E+00 -0.00000000000E+00 -0.19091282342E+02  0.19133477506E+02  0.12700000000E+01 0.  1.
         25    2    1    2    0    0  0.00000000000E+00  0.00000000000E+00  0.18524988999E+03  0.22347859639E+03  0.12500064520E+03 0.  0.
    9000005    1    3    3    0    0 -0.33557948379E+02  0.33107058053E+02  0.16597081934E+03  0.17253847705E+03  0.10000000000E+01 0.  0.
    9000005    1    3    3    0    0  0.33557948379E+02 -0.33107058053E+02  0.19279070653E+02  0.50940119333E+02  0.10000000000E+01 0.  0.
<mgrwt>
<rscale>  0 0.12500065E+03</rscale>
<asrwt>0</asrwt>
<pdfrwt beam="2">  1        4 0.29406697E-02 0.12500065E+03</pdfrwt>
<pdfrwt beam="1">  1       -4 0.31440653E-01 0.12500065E+03</pdfrwt>
<totfact> 0.86319638E+03</totfact>
</mgrwt>
</event>
<event>
 5    1  0.3234540E-002  0.1249985E+03  0.7818608E-02  0.1235072E+00
          4   -1    0    0  501    0  0.00000000000E+00  0.00000000000E+00  0.64373760207E+02  0.64386286609E+02  0.12700000000E+01 0.  1.
         -4   -1    0    0    0  501 -0.00000000000E+00 -0.00000000000E+00 -0.60654258689E+02  0.60667553084E+02  0.12700000000E+01 0.  1.
         25    2    1    2    0    0  0.00000000000E+00  0.00000000000E+00  0.37195015181E+01  0.12505383969E+03  0.12499851251E+03 0.  0.
    9000005    1    3    3    0    0  0.52150863566E+02  0.38512286585E+01 -0.32369608108E+02  0.61508829137E+02  0.10000000000E+01 0.  0.
    9000005    1    3    3    0    0 -0.52150863566E+02 -0.38512286585E+01  0.36089109626E+02  0.63545010555E+02  0.10000000000E+01 0.  0.
<mgrwt>
<rscale>  0 0.12499851E+03</rscale>
<asrwt>0</asrwt>
<pdfrwt beam="1">  1        4 0.99056417E-02 0.12499851E+03</pdfrwt>
<pdfrwt beam="2">  1       -4 0.93334106E-02 0.12499851E+03</pdfrwt>
<totfact> 0.10452045E+04</totfact>
</mgrwt>
</event>
<event>
 5    1  0.3234540E-002  0.1249930E+03  0.7818608E-02  0.1235080E+00
          4   -1    0    0  501    0  0.00000000000E+00  0.00000000000E+00  0.44243205177E+03  0.44243387454E+03  0.12700000000E+01 0.  1.
         -4   -1    0    0    0  501 -0.00000000000E+00 -0.00000000000E+00 -0.87805236078E+01  0.88718935311E+01  0.12700000000E+01 0.  1.
         25    2    1    2    0    0  0.00000000000E+00  0.00000000000E+00  0.43365152817E+03  0.45130576807E+03  0.12499299344E+03 0.  0.
    9000005    1    3    3    0    0  0.93354294195E+01  0.39869252636E+02  0.38725849319E+03  0.38941860266E+03  0.10000000000E+01 0.  0.
    9000005    1    3    3    0    0 -0.93354294195E+01 -0.39869252636E+02  0.46393034979E+02  0.61887165412E+02  0.10000000000E+01 0.  0.
<mgrwt>
<rscale>  0 0.12499299E+03</rscale>
<asrwt>0</asrwt>
<pdfrwt beam="1">  1        4 0.68073647E-01 0.12499299E+03</pdfrwt>
<pdfrwt beam="2">  1       -4 0.13580183E-02 0.12499299E+03</pdfrwt>
<totfact> 0.59860074E+03</totfact>
</mgrwt>
</event>
<event>
 5    1  0.3234540E-002  0.1249813E+03  0.7818608E-02  0.1235099E+00
         -4   -1    0    0    0  501 -0.00000000000E+00  0.00000000000E+00  0.70495111469E+02  0.70506550341E+02  0.12700000000E+01 0.  1.
          4   -1    0    0  501    0  0.00000000000E+00 -0.00000000000E+00 -0.55371826503E+02  0.55386388854E+02  0.12700000000E+01 0.  1.
         25    2    1    2    0    0  0.00000000000E+00  0.00000000000E+00  0.15123284965E+02  0.12589293919E+03  0.12498127216E+03 0.  0.
    9000005    1    3    3    0    0 -0.20274817552E+02 -0.18854229109E+02  0.63983883944E+02  0.69724368672E+02  0.10000000000E+01 0.  0.
    9000005    1    3    3    0    0  0.20274817552E+02  0.18854229109E+02 -0.48860598979E+02  0.56168570523E+02  0.10000000000E+01 0.  0.
<mgrwt>
<rscale>  0 0.12498127E+03</rscale>
<asrwt>0</asrwt>
<pdfrwt beam="2">  1        4 0.85207427E-02 0.12498127E+03</pdfrwt>
<pdfrwt beam="1">  1       -4 0.10847402E-01 0.12498127E+03</pdfrwt>
<totfact> 0.10437715E+04</totfact>
</mgrwt>
</event>
<event>
 5    1  0.3234540E-002  0.1249935E+03  0.7818608E-02  0.1235079E+00
         -4   -1    0    0    0  501 -0.00000000000E+00  0.00000000000E+00  0.26188415156E+02  0.26219191223E+02  0.12700000000E+01 0.  1.
          4   -1    0    0  501    0  0.00000000000E+00 -0.00000000000E+00 -0.14902293620E+03  0.14902834768E+03  0.12700000000E+01 0.  1.
         25    2    1    2    0    0  0.00000000000E+00  0.00000000000E+00 -0.12283452104E+03  0.17524753890E+03  0.12499352116E+03 0.  0.
    9000005    1    3    3    0    0  0.11662464432E+02 -0.59620761423E+02 -0.40897564242E+02  0.73241102055E+02  0.10000000000E+01 0.  0.
    9000005    1    3    3    0    0 -0.11662464432E+02  0.59620761423E+02 -0.81936956798E+02  0.10200643685E+03  0.10000000000E+01 0.  0.
<mgrwt>
<rscale>  0 0.12499352E+03</rscale>
<asrwt>0</asrwt>
<pdfrwt beam="2">  1        4 0.22929389E-01 0.12499352E+03</pdfrwt>
<pdfrwt beam="1">  1       -4 0.40317707E-02 0.12499352E+03</pdfrwt>
<totfact> 0.94493257E+03</totfact>
</mgrwt>
</event>
<event>
 5    1  0.3234540E-002  0.1249991E+03  0.7818608E-02  0.1235071E+00
         -4   -1    0    0    0  501 -0.00000000000E+00  0.00000000000E+00  0.11031031378E+03  0.11031762427E+03  0.12700000000E+01 0.  1.
          4   -1    0    0  501    0  0.00000000000E+00 -0.00000000000E+00 -0.35391056313E+02  0.35413835813E+02  0.12700000000E+01 0.  1.
         25    2    1    2    0    0  0.00000000000E+00  0.00000000000E+00  0.74919257463E+02  0.14573146009E+03  0.12499905328E+03 0.  0.
    9000005    1    3    3    0    0  0.24084855840E+02 -0.54281279320E+02  0.60146125892E+02  0.84528658011E+02  0.10000000000E+01 0.  0.
    9000005    1    3    3    0    0 -0.24084855840E+02  0.54281279320E+02  0.14773131572E+02  0.61202802075E+02  0.10000000000E+01 0.  0.
<mgrwt>
<rscale>  0 0.12499905E+03</rscale>
<asrwt>0</asrwt>
<pdfrwt beam="2">  1        4 0.54470926E-02 0.12499905E+03</pdfrwt>
<pdfrwt beam="1">  1       -4 0.16973132E-01 0.12499905E+03</pdfrwt>
<totfact> 0.10016361E+04</totfact>
</mgrwt>
</event>
<event>
 5    1  0.3234540E-002  0.1249941E+03  0.7818608E-02  0.1235079E+00
         -4   -1    0    0    0  501 -0.00000000000E+00  0.00000000000E+00  0.63920026170E+01  0.65169469428E+01  0.12700000000E+01 0.  1.
          4   -1    0    0  501    0  0.00000000000E+00 -0.00000000000E+00 -0.60501722875E+03  0.60501856168E+03  0.12700000000E+01 0.  1.
         25    2    1    2    0    0  0.00000000000E+00  0.00000000000E+00 -0.59862522613E+03  0.61153550862E+03  0.12499406766E+03 0.  0.
    9000005    1    3    3    0    0 -0.60125086348E+02  0.15953970456E+02 -0.27023441033E+03  0.27730342895E+03  0.10000000000E+01 0.  0.
    9000005    1    3    3    0    0  0.60125086348E+02 -0.15953970456E+02 -0.32839081580E+03  0.33423207967E+03  0.10000000000E+01 0.  0.
<mgrwt>
<rscale>  0 0.12499407E+03</rscale>
<asrwt>0</asrwt>
<pdfrwt beam="2">  1        4 0.93089242E-01 0.12499407E+03</pdfrwt>
<pdfrwt beam="1">  1       -4 0.99309913E-03 0.12499407E+03</pdfrwt>
<totfact> 0.48153738E+03</totfact>
</mgrwt>
</event>
<event>
 5    1  0.3234540E-002  0.1250005E+03  0.7818608E-02  0.1235069E+00
          4   -1    0    0  501    0  0.00000000000E+00  0.00000000000E+00  0.36520860089E+03  0.36521080907E+03  0.12700000000E+01 0. -1.
         -4   -1    0    0    0  501 -0.00000000000E+00 -0.00000000000E+00 -0.10656074721E+02  0.10731487709E+02  0.12700000000E+01 0. -1.
         25    2    1    2    0    0  0.00000000000E+00  0.00000000000E+00  0.35455252617E+03  0.37594229678E+03  0.12500046679E+03 0.  0.
    9000005    1    3    3    0    0 -0.17985528114E+02  0.40379619228E+01  0.35686101550E+03  0.35733817140E+03  0.10000000000E+01 0.  0.
    9000005    1    3    3    0    0  0.17985528114E+02 -0.40379619228E+01 -0.23084893330E+01  0.18604125377E+02  0.10000000000E+01 0.  0.
<mgrwt>
<rscale>  0 0.12500047E+03</rscale>
<asrwt>0</asrwt>
<pdfrwt beam="1">  1        4 0.56191915E-01 0.12500047E+03</pdfrwt>
<pdfrwt beam="2">  1       -4 0.16453668E-02 0.12500047E+03</pdfrwt>
<totfact> 0.66961114E+03</totfact>
</mgrwt>
</event>
<event>
 5    1  0.3234540E-002  0.1250041E+03  0.7818608E-02  0.1235063E+00
         -4   -1    0    0    0  501 -0.00000000000E+00  0.00000000000E+00  0.12032567637E+03  0.12033237842E+03  0.12700000000E+01 0. -1.
          4   -1    0    0  501    0  0.00000000000E+00 -0.00000000000E+00 -0.32446085284E+02  0.32470930850E+02  0.12700000000E+01 0. -1.
         25    2    1    2    0    0  0.00000000000E+00  0.00000000000E+00  0.87879591091E+02  0.15280330927E+03  0.12500411510E+03 0.  0.
    9000005    1    3    3    0    0  0.58089220264E+02 -0.88028568226E+01  0.69975744192E+02  0.91375338983E+02  0.10000000000E+01 0.  0.
    9000005    1    3    3    0    0 -0.58089220264E+02  0.88028568226E+01  0.17903846899E+02  0.61427970282E+02  0.10000000000E+01 0.  0.
<mgrwt>
<rscale>  0 0.12500412E+03</rscale>
<asrwt>0</asrwt>
<pdfrwt beam="2">  1        4 0.49941322E-02 0.12500412E+03</pdfrwt>
<pdfrwt beam="1">  1       -4 0.18514069E-01 0.12500412E+03</pdfrwt>
<totfact> 0.98738665E+03</totfact>
</mgrwt>
</event>
<event>
 5    1  0.3234540E-002  0.1249973E+03  0.7818608E-02  0.1235073E+00
          4   -1    0    0  501    0  0.00000000000E+00  0.00000000000E+00  0.45793405608E+01  0.47521847578E+01  0.12700000000E+01 0. -1.
         -4   -1    0    0    0  501 -0.00000000000E+00 -0.00000000000E+00 -0.83700647313E+03  0.83700743663E+03  0.12700000000E+01 0. -1.
         25    2    1    2    0    0  0.00000000000E+00  0.00000000000E+00 -0.83242713257E+03  0.84175962138E+03  0.12499731657E+03 0.  0.
    9000005    1    3    3    0    0 -0.62270711539E+02 -0.47303912405E+01 -0.43136806421E+03  0.43586629250E+03  0.10000000000E+01 0.  0.
    9000005    1    3    3    0    0  0.62270711539E+02  0.47303912405E+01 -0.40105906836E+03  0.40589332889E+03  0.10000000000E+01 0.  0.
<mgrwt>
<rscale>  0 0.12499732E+03</rscale>
<asrwt>0</asrwt>
<pdfrwt beam="1">  1        4 0.71788442E-03 0.12499732E+03</pdfrwt>
<pdfrwt beam="2">  1       -4 0.12878348E+00 0.12499732E+03</pdfrwt>
<totfact> 0.36469089E+03</totfact>
</mgrwt>
</event>
<event>
 5    1  0.3234540E-002  0.1250000E+03  0.7818608E-02  0.1235069E+00
          4   -1    0    0  501    0  0.00000000000E+00  0.00000000000E+00  0.31763095639E+03  0.31763349533E+03  0.12700000000E+01 0. -1.
         -4   -1    0    0    0  501 -0.00000000000E+00 -0.00000000000E+00 -0.12262688980E+02  0.12328278104E+02  0.12700000000E+01 0. -1.
         25    2    1    2    0    0  0.00000000000E+00  0.00000000000E+00  0.30536826741E+03  0.32996177343E+03  0.12499997275E+03 0.  0.
    9000005    1    3    3    0    0  0.22741589904E+02 -0.31008645557E+02  0.22653179991E+02  0.44641713389E+02  0.10000000000E+01 0.  0.
    9000005    1    3    3    0    0 -0.22741589904E+02  0.31008645557E+02  0.28271508742E+03  0.28532006005E+03  0.10000000000E+01 0.  0.
<mgrwt>
<rscale>  0 0.12499997E+03</rscale>
<asrwt>0</asrwt>
<pdfrwt beam="1">  1        4 0.48871532E-01 0.12499997E+03</pdfrwt>
<pdfrwt beam="2">  1       -4 0.18918085E-02 0.12499997E+03</pdfrwt>
<totfact> 0.71986811E+03</totfact>
</mgrwt>
</event>
<event>
 4    1  0.3234540E-002  0.1249290E+03  0.7818608E-02  0.1235180E+00
         -4   -1    0    0    0  501 -0.00000000000E+00  0.00000000000E+00  0.36314249974E+03  0.36314472049E+03  0.12700000000E+01 0.  1.
          4   -1    0    0  501    0  0.00000000000E+00 -0.00000000000E+00 -0.10704784044E+02  0.10779856281E+02  0.12700000000E+01 0.  1.
    9000005    1    1    2    0    0 -0.49233442212E+02 -0.21115227144E+02  0.27232604084E+03  0.27754685580E+03  0.10000000000E+01 0.  0.
    9000005    1    1    2    0    0  0.49233442212E+02  0.21115227144E+02  0.80111674862E+02  0.96377720966E+02  0.10000000000E+01 0.  0.
<mgrwt>
<rscale>  0 0.12492896E+03</rscale>
<asrwt>0</asrwt>
<pdfrwt beam="2">  1        4 0.16528355E-02 0.12492896E+03</pdfrwt>
<pdfrwt beam="1">  1       -4 0.55874022E-01 0.12492896E+03</pdfrwt>
<totfact> 0.67275920E+03</totfact>
</mgrwt>
</event>
<event>
 4    1  0.3234540E-002  0.1249100E+03  0.7818608E-02  0.1235210E+00
         -4   -1    0    0    0  501 -0.00000000000E+00  0.00000000000E+00  0.16499732572E+03  0.16500221330E+03  0.12700000000E+01 0. -1.
          4   -1    0    0  501    0  0.00000000000E+00 -0.00000000000E+00 -0.23618262918E+02  0.23652383458E+02  0.12700000000E+01 0. -1.
    9000005    1    1    2    0    0  0.47970821604E+02  0.39637368458E+02  0.78582135117E+02  0.10024207033E+03  0.10000000000E+01 0.  0.
    9000005    1    1    2    0    0 -0.47970821604E+02 -0.39637368458E+02  0.62796927682E+02  0.88412526431E+02  0.10000000000E+01 0.  0.
<mgrwt>
<rscale>  0 0.12491004E+03</rscale>
<asrwt>0</asrwt>
<pdfrwt beam="2">  1        4 0.36365795E-02 0.12491004E+03</pdfrwt>
<pdfrwt beam="1">  1       -4 0.25387205E-01 0.12491004E+03</pdfrwt>
<totfact> 0.92267767E+03</totfact>
</mgrwt>
</event>
<event>
 5    1  0.3234540E-002  0.1250070E+03  0.7818608E-02  0.1235058E+00
         -4   -1    0    0    0  501 -0.00000000000E+00  0.00000000000E+00  0.81642727616E+02  0.81652604812E+02  0.12700000000E+01 0. -1.
          4   -1    0    0  501    0  0.00000000000E+00 -0.00000000000E+00 -0.47829828781E+02  0.47846686627E+02  0.12700000000E+01 0. -1.
         25    2    1    2    0    0  0.00000000000E+00  0.00000000000E+00  0.33812898835E+02  0.12949929144E+03  0.12500701723E+03 0.  0.
    9000005    1    3    3    0    0 -0.18403731792E+02 -0.36212138451E+02  0.66107117521E+02  0.77596180976E+02  0.10000000000E+01 0.  0.
    9000005    1    3    3    0    0  0.18403731792E+02  0.36212138451E+02 -0.32294218687E+02  0.51903110463E+02  0.10000000000E+01 0.  0.
<mgrwt>
<rscale>  0 0.12500702E+03</rscale>
<asrwt>0</asrwt>
<pdfrwt beam="2">  1        4 0.73604918E-02 0.12500702E+03</pdfrwt>
<pdfrwt beam="1">  1       -4 0.12562476E-01 0.12500702E+03</pdfrwt>
<totfact> 0.10353590E+04</totfact>
</mgrwt>
</event>
<event>
 5    1  0.3234540E-002  0.1249938E+03  0.7818608E-02  0.1235079E+00
          4   -1    0    0  501    0  0.00000000000E+00  0.00000000000E+00  0.23236735118E+03  0.23237082173E+03  0.12700000000E+01 0. -1.
         -4   -1    0    0    0  501 -0.00000000000E+00 -0.00000000000E+00 -0.16781419274E+02  0.16829406789E+02  0.12700000000E+01 0. -1.
         25    2    1    2    0    0  0.00000000000E+00  0.00000000000E+00  0.21558593190E+03  0.24920022852E+03  0.12499383929E+03 0.  0.
    9000005    1    3    3    0    0 -0.60453016138E+02  0.54408896216E+01  0.13741095772E+03  0.15022297341E+03  0.10000000000E+01 0.  0.
    9000005    1    3    3    0    0  0.60453016138E+02 -0.54408896216E+01  0.78174974185E+02  0.98977255109E+02  0.10000000000E+01 0.  0.
<mgrwt>
<rscale>  0 0.12499384E+03</rscale>
<asrwt>0</asrwt>
<pdfrwt beam="1">  1        4 0.35752779E-01 0.12499384E+03</pdfrwt>
<pdfrwt beam="2">  1       -4 0.25857153E-02 0.12499384E+03</pdfrwt>
<totfact> 0.82457275E+03</totfact>
</mgrwt>
</event>
<event>
 5    1  0.3234540E-002  0.1249984E+03  0.7818608E-02  0.1235072E+00
         -4   -1    0    0    0  501 -0.00000000000E+00  0.00000000000E+00  0.12846185594E+03  0.12846813352E+03  0.12700000000E+01 0. -1.
          4   -1    0    0  501    0  0.00000000000E+00 -0.00000000000E+00 -0.30386775028E+02  0.30413302955E+02  0.12700000000E+01 0. -1.
         25    2    1    2    0    0  0.00000000000E+00  0.00000000000E+00  0.98075080907E+02  0.15888143648E+03  0.12499835744E+03 0.  0.
    9000005    1    3    3    0    0 -0.41100855395E+02  0.39920300438E+02  0.80743919089E+02  0.99012580873E+02  0.10000000000E+01 0.  0.
    9000005    1    3    3    0    0  0.41100855395E+02 -0.39920300438E+02  0.17331161818E+02  0.59868855603E+02  0.10000000000E+01 0.  0.
<mgrwt>
<rscale>  0 0.12499836E+03</rscale>
<asrwt>0</asrwt>
<pdfrwt beam="2">  1        4 0.46774118E-02 0.12499836E+03</pdfrwt>
<pdfrwt beam="1">  1       -4 0.19765887E-01 0.12499836E+03</pdfrwt>
<totfact> 0.97562471E+03</totfact>
</mgrwt>
</event>
<event>
 5    1  0.3234540E-002  0.1250002E+03  0.7818608E-02  0.1235069E+00
         -4   -1    0    0    0  501 -0.00000000000E+00  0.00000000000E+00  0.74064830542E+02  0.74075718175E+02  0.12700000000E+01 0.  1.
          4   -1    0    0  501    0  0.00000000000E+00 -0.00000000000E+00 -0.52718708663E+02  0.52734003670E+02  0.12700000000E+01 0.  1.
         25    2    1    2    0    0  0.00000000000E+00  0.00000000000E+00  0.21346121879E+02  0.12680972185E+03  0.12500019454E+03 0.  0.
    9000005    1    3    3    0    0  0.73911708776E+01  0.59809799152E+02  0.27447868179E+02  0.66228596158E+02  0.10000000000E+01 0.  0.
    9000005    1    3    3    0    0 -0.73911708776E+01 -0.59809799152E+02 -0.61017463000E+01  0.60581125687E+02  0.10000000000E+01 0.  0.
<mgrwt>
<rscale>  0 0.12500019E+03</rscale>
<asrwt>0</asrwt>
<pdfrwt beam="2">  1        4 0.81125846E-02 0.12500019E+03</pdfrwt>
<pdfrwt beam="1">  1       -4 0.11396603E-01 0.12500019E+03</pdfrwt>
<totfact> 0.10413237E+04</totfact>
</mgrwt>
</event>
<event>
 5    1  0.3234540E-002  0.1250004E+03  0.7818608E-02  0.1235069E+00
          4   -1    0    0  501    0  0.00000000000E+00  0.00000000000E+00  0.26834721318E+02  0.26864756992E+02  0.12700000000E+01 0.  1.
         -4   -1    0    0    0  501 -0.00000000000E+00 -0.00000000000E+00 -0.14545363950E+03  0.14545918378E+03  0.12700000000E+01 0.  1.
         25    2    1    2    0    0  0.00000000000E+00  0.00000000000E+00 -0.11861891818E+03  0.17232394077E+03  0.12500037124E+03 0.  0.
    9000005    1    3    3    0    0 -0.46649335024E+02  0.26055959319E+02 -0.14633872280E+02  0.55409599277E+02  0.10000000000E+01 0.  0.
    9000005    1    3    3    0    0  0.46649335024E+02 -0.26055959319E+02 -0.10398504591E+03  0.11691434149E+03  0.10000000000E+01 0.  0.
<mgrwt>
<rscale>  0 0.12500037E+03</rscale>
<asrwt>0</asrwt>
<pdfrwt beam="1">  1        4 0.41311557E-02 0.12500037E+03</pdfrwt>
<pdfrwt beam="2">  1       -4 0.22380219E-01 0.12500037E+03</pdfrwt>
<totfact> 0.95016461E+03</totfact>
</mgrwt>
</event>
<event>
 5    1  0.3234540E-002  0.1249905E+03  0.7818608E-02  0.1235084E+00
         -4   -1    0    0    0  501 -0.00000000000E+00  0.00000000000E+00  0.75903999510E+01  0.76959126435E+01  0.12700000000E+01 0.  1.
          4   -1    0    0  501    0  0.00000000000E+00 -0.00000000000E+00 -0.51089422817E+03  0.51089580667E+03  0.12700000000E+01 0.  1.
         25    2    1    2    0    0  0.00000000000E+00  0.00000000000E+00 -0.50330382822E+03  0.51859171932E+03  0.12499051102E+03 0.  0.
    9000005    1    3    3    0    0 -0.57343745856E+02  0.23972783980E+02 -0.22487289790E+03  0.23330627889E+03  0.10000000000E+01 0.  0.
    9000005    1    3    3    0    0  0.57343745856E+02 -0.23972783980E+02 -0.27843093032E+03  0.28528544042E+03  0.10000000000E+01 0.  0.
<mgrwt>
<rscale>  0 0.12499051E+03</rscale>
<asrwt>0</asrwt>
<pdfrwt beam="2">  1        4 0.78607323E-01 0.12499051E+03</pdfrwt>
<pdfrwt beam="1">  1       -4 0.11759920E-02 0.12499051E+03</pdfrwt>
<totfact> 0.54461558E+03</totfact>
</mgrwt>
</event>
<event>
 5    1  0.3234540E-002  0.1249910E+03  0.7818608E-02  0.1235083E+00
          4   -1    0    0  501    0  0.00000000000E+00  0.00000000000E+00  0.20619239283E+02  0.20658313789E+02  0.12700000000E+01 0. -1.
         -4   -1    0    0    0  501 -0.00000000000E+00 -0.00000000000E+00 -0.18919909841E+03  0.18920336080E+03  0.12700000000E+01 0. -1.
         25    2    1    2    0    0  0.00000000000E+00  0.00000000000E+00 -0.16857985912E+03  0.20986167459E+03  0.12499101391E+03 0.  0.
    9000005    1    3    3    0    0 -0.54754463945E+02 -0.14426805021E+02 -0.39914874490E+02  0.69284783543E+02  0.10000000000E+01 0.  0.
    9000005    1    3    3    0    0  0.54754463945E+02  0.14426805021E+02 -0.12866498463E+03  0.14057689104E+03  0.10000000000E+01 0.  0.
<mgrwt>
<rscale>  0 0.12499101E+03</rscale>
<asrwt>0</asrwt>
<pdfrwt beam="1">  1        4 0.31755244E-02 0.12499101E+03</pdfrwt>
<pdfrwt beam="2">  1       -4 0.29110886E-01 0.12499101E+03</pdfrwt>
<totfact> 0.88516259E+03</totfact>
</mgrwt>
</event>
<event>
 5    1  0.3234540E-002  0.1249982E+03  0.7818608E-02  0.1235072E+00
         -4   -1    0    0    0  501 -0.00000000000E+00  0.00000000000E+00  0.34230924595E+01  0.36510905201E+01  0.12700000000E+01 0.  1.
          4   -1    0    0  501    0  0.00000000000E+00 -0.00000000000E+00 -0.11041071540E+04  0.11041078844E+04  0.12700000000E+01 0.  1.
         25    2    1    2    0    0  0.00000000000E+00  0.00000000000E+00 -0.11006840616E+04  0.11077589750E+04  0.12499817281E+03 0.  0.
    9000005    1    3    3    0    0 -0.46226436468E+01 -0.60428445279E+02 -0.41530756397E+03  0.41970744397E+03  0.10000000000E+01 0.  0.
    9000005    1    3    3    0    0  0.46226436468E+01  0.60428445279E+02 -0.68537649760E+03  0.68805153099E+03  0.10000000000E+01 0.  0.
<mgrwt>
<rscale>  0 0.12499817E+03</rscale>
<asrwt>0</asrwt>
<pdfrwt beam="2">  1        4 0.16987996E+00 0.12499817E+03</pdfrwt>
<pdfrwt beam="1">  1       -4 0.54422499E-03 0.12499817E+03</pdfrwt>
<totfact> 0.27258551E+03</totfact>
</mgrwt>
</event>
<event>
 5    1  0.3234540E-002  0.1250004E+03  0.7818608E-02  0.1235069E+00
          4   -1    0    0  501    0  0.00000000000E+00  0.00000000000E+00  0.27114608656E+03  0.27114906077E+03  0.12700000000E+01 0.  1.
         -4   -1    0    0    0  501 -0.00000000000E+00 -0.00000000000E+00 -0.14375489051E+02  0.14431478977E+02  0.12700000000E+01 0.  1.
         25    2    1    2    0    0  0.00000000000E+00  0.00000000000E+00  0.25677059751E+03  0.28558053975E+03  0.12500041975E+03 0.  0.
    9000005    1    3    3    0    0  0.26680159171E+02 -0.51882951163E+02  0.17955324028E+03  0.18879628601E+03  0.10000000000E+01 0.  0.
    9000005    1    3    3    0    0 -0.26680159171E+02  0.51882951163E+02  0.77217357226E+02  0.96784253738E+02  0.10000000000E+01 0.  0.
<mgrwt>
<rscale>  0 0.12500042E+03</rscale>
<asrwt>0</asrwt>
<pdfrwt beam="1">  1        4 0.41719315E-01 0.12500042E+03</pdfrwt>
<pdfrwt beam="2">  1       -4 0.22161496E-02 0.12500042E+03</pdfrwt>
<totfact> 0.77443217E+03</totfact>
</mgrwt>
</event>
<event>
 5    1  0.3234540E-002  0.1250039E+03  0.7818608E-02  0.1235063E+00
         -4   -1    0    0    0  501 -0.00000000000E+00  0.00000000000E+00  0.39653272551E+02  0.39673604878E+02  0.12700000000E+01 0.  1.
          4   -1    0    0  501    0  0.00000000000E+00 -0.00000000000E+00 -0.98466683049E+02  0.98474872788E+02  0.12700000000E+01 0.  1.
         25    2    1    2    0    0  0.00000000000E+00  0.00000000000E+00 -0.58813410497E+02  0.13814847767E+03  0.12500393845E+03 0.  0.
    9000005    1    3    3    0    0 -0.43160165715E+02  0.39787414430E+02 -0.53100781076E+02  0.79161424964E+02  0.10000000000E+01 0.  0.
    9000005    1    3    3    0    0  0.43160165715E+02 -0.39787414430E+02 -0.57126294218E+01  0.58987052702E+02  0.10000000000E+01 0.  0.
<mgrwt>
<rscale>  0 0.12500394E+03</rscale>
<asrwt>0</asrwt>
<pdfrwt beam="2">  1        4 0.15150914E-01 0.12500394E+03</pdfrwt>
<pdfrwt beam="1">  1       -4 0.61026975E-02 0.12500394E+03</pdfrwt>
<totfact> 0.10171202E+04</totfact>
</mgrwt>
</event>
<event>
 4    1  0.3234540E-002  0.1252317E+03  0.7818608E-02  0.1234708E+00
          4   -1    0    0  501    0  0.00000000000E+00  0.00000000000E+00  0.14147144625E+03  0.14147714658E+03  0.12700000000E+01 0.  1.
         -4   -1    0    0    0  501 -0.00000000000E+00 -0.00000000000E+00 -0.27693217375E+02  0.27722322929E+02  0.12700000000E+01 0.  1.
    9000005    1    1    2    0    0 -0.25955533446E+02  0.50620123454E+02  0.92215886401E+02  0.10835523208E+03  0.10000000000E+01 0.  0.
    9000005    1    1    2    0    0  0.25955533446E+02 -0.50620123454E+02  0.21562342476E+02  0.60844237426E+02  0.10000000000E+01 0.  0.
<mgrwt>
<rscale>  0 0.12523169E+03</rscale>
<asrwt>0</asrwt>
<pdfrwt beam="1">  1        4 0.21767515E-01 0.12523169E+03</pdfrwt>
<pdfrwt beam="2">  1       -4 0.42631723E-02 0.12523169E+03</pdfrwt>
<totfact> 0.95102299E+03</totfact>
</mgrwt>
</event>
<event>
 5    1  0.3234540E-002  0.1249999E+03  0.7818608E-02  0.1235069E+00
          4   -1    0    0  501    0  0.00000000000E+00  0.00000000000E+00  0.16657825133E+02  0.16706167668E+02  0.12700000000E+01 0.  1.
         -4   -1    0    0    0  501 -0.00000000000E+00 -0.00000000000E+00 -0.23410914510E+03  0.23411258984E+03  0.12700000000E+01 0.  1.
         25    2    1    2    0    0  0.00000000000E+00  0.00000000000E+00 -0.21745131997E+03  0.25081875751E+03  0.12499989024E+03 0.  0.
    9000005    1    3    3    0    0  0.25069294976E+02  0.41595631798E+02 -0.29814912955E+02  0.56996448748E+02  0.10000000000E+01 0.  0.
    9000005    1    3    3    0    0 -0.25069294976E+02 -0.41595631798E+02 -0.18763640702E+03  0.19382230876E+03  0.10000000000E+01 0.  0.
<mgrwt>
<rscale>  0 0.12499989E+03</rscale>
<asrwt>0</asrwt>
<pdfrwt beam="1">  1        4 0.25667261E-02 0.12499989E+03</pdfrwt>
<pdfrwt beam="2">  1       -4 0.36020773E-01 0.12499989E+03</pdfrwt>
<totfact> 0.82212238E+03</totfact>
</mgrwt>
</event>
<event>
 5    1  0.3234540E-002  0.1249988E+03  0.7818608E-02  0.1235071E+00
          4   -1    0    0  501    0  0.00000000000E+00  0.00000000000E+00  0.13996577223E+03  0.13997153388E+03  0.12700000000E+01 0.  1.
         -4   -1    0    0    0  501 -0.00000000000E+00 -0.00000000000E+00 -0.27887300720E+02  0.27916203923E+02  0.12700000000E+01 0.  1.
         25    2    1    2    0    0  0.00000000000E+00  0.00000000000E+00  0.11207847151E+03  0.16788773780E+03  0.12499883491E+03 0.  0.
    9000005    1    3    3    0    0 -0.54735566270E+02  0.17805819033E+02  0.23355772978E+02  0.62125047587E+02  0.10000000000E+01 0.  0.
    9000005    1    3    3    0    0  0.54735566270E+02 -0.17805819033E+02  0.88722698533E+02  0.10576269021E+03  0.10000000000E+01 0.  0.
<mgrwt>
<rscale>  0 0.12499883E+03</rscale>
<asrwt>0</asrwt>
<pdfrwt beam="1">  1        4 0.21535862E-01 0.12499883E+03</pdfrwt>
<pdfrwt beam="2">  1       -4 0.42930205E-02 0.12499883E+03</pdfrwt>
<totfact> 0.95845786E+03</totfact>
</mgrwt>
</event>
<event>
 5    1  0.3234540E-002  0.1249978E+03  0.7818608E-02  0.1235073E+00
         -4   -1    0    0    0  501 -0.00000000000E+00  0.00000000000E+00  0.69444434664E+02  0.69456046574E+02  0.12700000000E+01 0.  1.
          4   -1    0    0  501    0  0.00000000000E+00 -0.00000000000E+00 -0.56224581749E+02  0.56238923291E+02  0.12700000000E+01 0.  1.
         25    2    1    2    0    0  0.00000000000E+00  0.00000000000E+00  0.13219852914E+02  0.12569496987E+03  0.12499784373E+03 0.  0.
    9000005    1    3    3    0    0  0.18078109677E+02 -0.29873988450E+02 -0.45504217370E+02  0.57366427760E+02  0.10000000000E+01 0.  0.
    9000005    1    3    3    0    0 -0.18078109677E+02  0.29873988450E+02  0.58724070285E+02  0.68328542105E+02  0.10000000000E+01 0.  0.
<mgrwt>
<rscale>  0 0.12499784E+03</rscale>
<asrwt>0</asrwt>
<pdfrwt beam="2">  1        4 0.86519321E-02 0.12499784E+03</pdfrwt>
<pdfrwt beam="1">  1       -4 0.10685756E-01 0.12499784E+03</pdfrwt>
<totfact> 0.10438163E+04</totfact>
</mgrwt>
</event>
<event>
 5    1  0.3234540E-002  0.1249639E+03  0.7818608E-02  0.1235126E+00
          4   -1    0    0  501    0  0.00000000000E+00  0.00000000000E+00  0.62870636153E+01  0.64140524556E+01  0.12700000000E+01 0.  1.
         -4   -1    0    0    0  501 -0.00000000000E+00 -0.00000000000E+00 -0.61462005287E+03  0.61462136498E+03  0.12700000000E+01 0.  1.
         25    2    1    2    0    0  0.00000000000E+00  0.00000000000E+00 -0.60833298925E+03  0.62103541743E+03  0.12496385035E+03 0.  0.
    9000005    1    3    3    0    0  0.48270612104E+02  0.34824927555E+01 -0.50050575937E+03  0.50284112293E+03  0.10000000000E+01 0.  0.
    9000005    1    3    3    0    0 -0.48270612104E+02 -0.34824927555E+01 -0.10782722988E+03  0.11819429450E+03  0.10000000000E+01 0.  0.
<mgrwt>
<rscale>  0 0.12496385E+03</rscale>
<asrwt>0</asrwt>
<pdfrwt beam="1">  1        4 0.97711035E-03 0.12496385E+03</pdfrwt>
<pdfrwt beam="2">  1       -4 0.94566753E-01 0.12496385E+03</pdfrwt>
<totfact> 0.47603880E+03</totfact>
</mgrwt>
</event>
<event>
 5    1  0.3234540E-002  0.1250081E+03  0.7818608E-02  0.1235057E+00
          4   -1    0    0  501    0  0.00000000000E+00  0.00000000000E+00  0.29358594690E+02  0.29386050810E+02  0.12700000000E+01 0. -1.
         -4   -1    0    0    0  501 -0.00000000000E+00 -0.00000000000E+00 -0.13297755571E+03  0.13298362013E+03  0.12700000000E+01 0. -1.
         25    2    1    2    0    0  0.00000000000E+00  0.00000000000E+00 -0.10361896102E+03  0.16236967094E+03  0.12500808357E+03 0.  0.
    9000005    1    3    3    0    0  0.47124803129E+02  0.85385883145E+00  0.14962430001E+01  0.47166883381E+02  0.10000000000E+01 0.  0.
    9000005    1    3    3    0    0 -0.47124803129E+02 -0.85385883145E+00 -0.10511520402E+03  0.11520278756E+03  0.10000000000E+01 0.  0.
<mgrwt>
<rscale>  0 0.12500808E+03</rscale>
<asrwt>0</asrwt>
<pdfrwt beam="1">  1        4 0.45192855E-02 0.12500808E+03</pdfrwt>
<pdfrwt beam="2">  1       -4 0.20460664E-01 0.12500808E+03</pdfrwt>
<totfact> 0.96870270E+03</totfact>
</mgrwt>
</event>
<event>
 5    1  0.3234540E-002  0.1250006E+03  0.7818608E-02  0.1235068E+00
         -4   -1    0    0    0  501 -0.00000000000E+00  0.00000000000E+00  0.41673985360E+02  0.41693332270E+02  0.12700000000E+01 0. -1.
          4   -1    0    0  501    0  0.00000000000E+00 -0.00000000000E+00 -0.93689060479E+02  0.93697667812E+02  0.12700000000E+01 0. -1.
         25    2    1    2    0    0  0.00000000000E+00  0.00000000000E+00 -0.52015075119E+02  0.13539100008E+03  0.12500061945E+03 0.  0.
    9000005    1    3    3    0    0  0.56234246839E+01 -0.28364691517E+02  0.33996968379E+02  0.44642720448E+02  0.10000000000E+01 0.  0.
    9000005    1    3    3    0    0 -0.56234246839E+01  0.28364691517E+02 -0.86012043498E+02  0.90748279635E+02  0.10000000000E+01 0.  0.
<mgrwt>
<rscale>  0 0.12500062E+03</rscale>
<asrwt>0</asrwt>
<pdfrwt beam="2">  1        4 0.14415852E-01 0.12500062E+03</pdfrwt>
<pdfrwt beam="1">  1       -4 0.64135327E-02 0.12500062E+03</pdfrwt>
<totfact> 0.10229693E+04</totfact>
</mgrwt>
</event>
<event>
 5    1  0.3234540E-002  0.1249961E+03  0.7818608E-02  0.1235075E+00
         -4   -1    0    0    0  501 -0.00000000000E+00  0.00000000000E+00  0.10128776298E+03  0.10129572464E+03  0.12700000000E+01 0. -1.
          4   -1    0    0  501    0  0.00000000000E+00 -0.00000000000E+00 -0.38543509531E+02  0.38564426963E+02  0.12700000000E+01 0. -1.
         25    2    1    2    0    0  0.00000000000E+00  0.00000000000E+00  0.62744253454E+02  0.13986015160E+03  0.12499608260E+03 0.  0.
    9000005    1    3    3    0    0 -0.39757282316E+02  0.47929279124E+02  0.25542167910E+02  0.67314631664E+02  0.10000000000E+01 0.  0.
    9000005    1    3    3    0    0  0.39757282316E+02 -0.47929279124E+02  0.37202085544E+02  0.72545519939E+02  0.10000000000E+01 0.  0.
<mgrwt>
<rscale>  0 0.12499608E+03</rscale>
<asrwt>0</asrwt>
<pdfrwt beam="2">  1        4 0.59319922E-02 0.12499608E+03</pdfrwt>
<pdfrwt beam="1">  1       -4 0.15584954E-01 0.12499608E+03</pdfrwt>
<totfact> 0.10137380E+04</totfact>
</mgrwt>
</event>
<event>
 5    1  0.3234540E-002  0.1250000E+03  0.7818608E-02  0.1235069E+00
          4   -1    0    0  501    0  0.00000000000E+00  0.00000000000E+00  0.46064264214E+02  0.46081767952E+02  0.12700000000E+01 0.  1.
         -4   -1    0    0    0  501 -0.00000000000E+00 -0.00000000000E+00 -0.84761662765E+02  0.84771176556E+02  0.12700000000E+01 0.  1.
         25    2    1    2    0    0  0.00000000000E+00  0.00000000000E+00 -0.38697398551E+02  0.13085294451E+03  0.12500001773E+03 0.  0.
    9000005    1    3    3    0    0 -0.59881415036E+01 -0.46890206669E+02 -0.62136788606E+02  0.78080278038E+02  0.10000000000E+01 0.  0.
    9000005    1    3    3    0    0  0.59881415036E+01  0.46890206669E+02  0.23439390055E+02  0.52772666470E+02  0.10000000000E+01 0.  0.
<mgrwt>
<rscale>  0 0.12500002E+03</rscale>
<asrwt>0</asrwt>
<pdfrwt beam="1">  1        4 0.70888882E-02 0.12500002E+03</pdfrwt>
<pdfrwt beam="2">  1       -4 0.13042334E-01 0.12500002E+03</pdfrwt>
<totfact> 0.10326239E+04</totfact>
</mgrwt>
</event>
<event>
 5    1  0.3234540E-002  0.1249996E+03  0.7818608E-02  0.1235070E+00
          4   -1    0    0  501    0  0.00000000000E+00  0.00000000000E+00  0.11088951546E+03  0.11089678778E+03  0.12700000000E+01 0. -1.
         -4   -1    0    0    0  501 -0.00000000000E+00 -0.00000000000E+00 -0.35206378261E+02  0.35229277174E+02  0.12700000000E+01 0. -1.
         25    2    1    2    0    0  0.00000000000E+00  0.00000000000E+00  0.75683137204E+02  0.14612606495E+03  0.12499955841E+03 0.  0.
    9000005    1    3    3    0    0  0.32332165334E+02  0.25536633749E+01  0.10028624021E+03  0.10540502875E+03  0.10000000000E+01 0.  0.
    9000005    1    3    3    0    0 -0.32332165334E+02 -0.25536633749E+01 -0.24603103003E+02  0.40721036200E+02  0.10000000000E+01 0.  0.
<mgrwt>
<rscale>  0 0.12499956E+03</rscale>
<asrwt>0</asrwt>
<pdfrwt beam="1">  1        4 0.17062246E-01 0.12499956E+03</pdfrwt>
<pdfrwt beam="2">  1       -4 0.54186867E-02 0.12499956E+03</pdfrwt>
<totfact> 0.10008259E+04</totfact>
</mgrwt>
</event>
<event>
 5    1  0.3234540E-002  0.1249985E+03  0.7818608E-02  0.1235072E+00
          4   -1    0    0  501    0  0.00000000000E+00  0.00000000000E+00  0.17597561578E+02  0.17643329433E+02  0.12700000000E+01 0.  1.
         -4   -1    0    0    0  501 -0.00000000000E+00 -0.00000000000E+00 -0.22163561437E+03  0.22163925297E+03  0.12700000000E+01 0.  1.
         25    2    1    2    0    0  0.00000000000E+00  0.00000000000E+00 -0.20403805279E+03  0.23928258240E+03  0.12499850901E+03 0.  0.
    9000005    1    3    3    0    0 -0.61833225137E+01 -0.61004964193E+02 -0.78942763280E+02  0.99963988555E+02  0.10000000000E+01 0.  0.
    9000005    1    3    3    0    0  0.61833225137E+01  0.61004964193E+02 -0.12509528951E+03  0.13931859385E+03  0.10000000000E+01 0.  0.
<mgrwt>
<rscale>  0 0.12499851E+03</rscale>
<asrwt>0</asrwt>
<pdfrwt beam="1">  1        4 0.27111178E-02 0.12499851E+03</pdfrwt>
<pdfrwt beam="2">  1       -4 0.34101585E-01 0.12499851E+03</pdfrwt>
<totfact> 0.83907120E+03</totfact>
</mgrwt>
</event>
<event>
 5    1  0.3234540E-002  0.1249810E+03  0.7818608E-02  0.1235099E+00
          4   -1    0    0  501    0  0.00000000000E+00  0.00000000000E+00  0.18363150798E+02  0.18407015164E+02  0.12700000000E+01 0.  1.
         -4   -1    0    0    0  501 -0.00000000000E+00 -0.00000000000E+00 -0.21235822326E+03  0.21236202082E+03  0.12700000000E+01 0.  1.
         25    2    1    2    0    0  0.00000000000E+00  0.00000000000E+00 -0.19399507246E+03  0.23076903598E+03  0.12498103788E+03 0.  0.
    9000005    1    3    3    0    0 -0.48525359096E+02 -0.31722873968E+02 -0.14002431386E+03  0.15155480751E+03  0.10000000000E+01 0.  0.
    9000005    1    3    3    0    0  0.48525359096E+02  0.31722873968E+02 -0.53970758607E+02  0.79214228474E+02  0.10000000000E+01 0.  0.
<mgrwt>
<rscale>  0 0.12498104E+03</rscale>
<asrwt>0</asrwt>
<pdfrwt beam="1">  1        4 0.28287666E-02 0.12498104E+03</pdfrwt>
<pdfrwt beam="2">  1       -4 0.32674160E-01 0.12498104E+03</pdfrwt>
<totfact> 0.85227702E+03</totfact>
</mgrwt>
</event>
<event>
 5    1  0.3234540E-002  0.1250004E+03  0.7818608E-02  0.1235069E+00
         -4   -1    0    0    0  501 -0.00000000000E+00  0.00000000000E+00  0.12448045747E+02  0.12512663303E+02  0.12700000000E+01 0.  1.
          4   -1    0    0  501    0  0.00000000000E+00 -0.00000000000E+00 -0.31292814104E+03  0.31293071814E+03  0.12700000000E+01 0.  1.
         25    2    1    2    0    0  0.00000000000E+00  0.00000000000E+00 -0.30048009529E+03  0.32544338144E+03  0.12500042743E+03 0.  0.
    9000005    1    3    3    0    0 -0.61413646885E+02 -0.11137042571E+02 -0.14217035047E+03  0.15527098343E+03  0.10000000000E+01 0.  0.
    9000005    1    3    3    0    0  0.61413646885E+02  0.11137042571E+02 -0.15830974482E+03  0.17017239802E+03  0.10000000000E+01 0.  0.
<mgrwt>
<rscale>  0 0.12500043E+03</rscale>
<asrwt>0</asrwt>
<pdfrwt beam="2">  1        4 0.48147954E-01 0.12500043E+03</pdfrwt>
<pdfrwt beam="1">  1       -4 0.19202530E-02 0.12500043E+03</pdfrwt>
<totfact> 0.72512666E+03</totfact>
</mgrwt>
</event>
<event>
 5    1  0.3234540E-002  0.1249995E+03  0.7818608E-02  0.1235070E+00
          4   -1    0    0  501    0  0.00000000000E+00  0.00000000000E+00  0.92324631012E+02  0.92333365538E+02  0.12700000000E+01 0. -1.
         -4   -1    0    0    0  501 -0.00000000000E+00 -0.00000000000E+00 -0.42289362140E+02  0.42308427649E+02  0.12700000000E+01 0. -1.
         25    2    1    2    0    0  0.00000000000E+00  0.00000000000E+00  0.50035268873E+02  0.13464179319E+03  0.12499953737E+03 0.  0.
    9000005    1    3    3    0    0  0.10182747819E+02 -0.60740297968E+02  0.13610697039E+02  0.63081877147E+02  0.10000000000E+01 0.  0.
    9000005    1    3    3    0    0 -0.10182747819E+02  0.60740297968E+02  0.36424571834E+02  0.71559916041E+02  0.10000000000E+01 0.  0.
<mgrwt>
<rscale>  0 0.12499954E+03</rscale>
<asrwt>0</asrwt>
<pdfrwt beam="1">  1        4 0.14205928E-01 0.12499954E+03</pdfrwt>
<pdfrwt beam="2">  1       -4 0.65081941E-02 0.12499954E+03</pdfrwt>
<totfact> 0.10245733E+04</totfact>
</mgrwt>
</event>
<event>
 5    1  0.3234540E-002  0.1250016E+03  0.7818608E-02  0.1235067E+00
          4   -1    0    0  501    0  0.00000000000E+00  0.00000000000E+00  0.17872900312E+02  0.17917964883E+02  0.12700000000E+01 0.  1.
         -4   -1    0    0    0  501 -0.00000000000E+00 -0.00000000000E+00 -0.21824078307E+03  0.21824447827E+03  0.12700000000E+01 0.  1.
         25    2    1    2    0    0  0.00000000000E+00  0.00000000000E+00 -0.20036788276E+03  0.23616244316E+03  0.12500164445E+03 0.  0.
    9000005    1    3    3    0    0 -0.40859103892E+02  0.23267851962E+01 -0.18941037635E+03  0.19378382535E+03  0.10000000000E+01 0.  0.
    9000005    1    3    3    0    0  0.40859103892E+02 -0.23267851962E+01 -0.10957506415E+02  0.42378617804E+02  0.10000000000E+01 0.  0.
<mgrwt>
<rscale>  0 0.12500164E+03</rscale>
<asrwt>0</asrwt>
<pdfrwt beam="1">  1        4 0.27534279E-02 0.12500164E+03</pdfrwt>
<pdfrwt beam="2">  1       -4 0.33579254E-01 0.12500164E+03</pdfrwt>
<totfact> 0.84369150E+03</totfact>
</mgrwt>
</event>
<event>
 5    1  0.3234540E-002  0.1249995E+03  0.7818608E-02  0.1235070E+00
         -4   -1    0    0    0  501 -0.00000000000E+00  0.00000000000E+00  0.10692274044E+03  0.10693028253E+03  0.12700000000E+01 0. -1.
          4   -1    0    0  501    0  0.00000000000E+00 -0.00000000000E+00 -0.36513196109E+02  0.36535275969E+02  0.12700000000E+01 0. -1.
         25    2    1    2    0    0  0.00000000000E+00  0.00000000000E+00  0.70409544326E+02  0.14346555850E+03  0.12499945017E+03 0.  0.
    9000005    1    3    3    0    0  0.11789294820E+02  0.41331421238E+02  0.87270997421E+02  0.97285666183E+02  0.10000000000E+01 0.  0.
    9000005    1    3    3    0    0 -0.11789294820E+02 -0.41331421238E+02 -0.16861453094E+02  0.46179892317E+02  0.10000000000E+01 0.  0.
<mgrwt>
<rscale>  0 0.12499945E+03</rscale>
<asrwt>0</asrwt>
<pdfrwt beam="2">  1        4 0.56196934E-02 0.12499945E+03</pdfrwt>
<pdfrwt beam="1">  1       -4 0.16451931E-01 0.12499945E+03</pdfrwt>
<totfact> 0.10062383E+04</totfact>
</mgrwt>
</event>
<event>
 5    1  0.3234540E-002  0.1249985E+03  0.7818608E-02  0.1235072E+00
          4   -1    0    0  501    0  0.00000000000E+00  0.00000000000E+00  0.73553200968E+02  0.73564164324E+02  0.12700000000E+01 0. -1.
         -4   -1    0    0    0  501 -0.00000000000E+00 -0.00000000000E+00 -0.53083987594E+02  0.53099177385E+02  0.12700000000E+01 0. -1.
         25    2    1    2    0    0  0.00000000000E+00  0.00000000000E+00  0.20469213374E+02  0.12666334171E+03  0.12499845374E+03 0.  0.
    9000005    1    3    3    0    0  0.39008317367E+01  0.21801671821E+02 -0.48978485855E+02  0.53762639993E+02  0.10000000000E+01 0.  0.
    9000005    1    3    3    0    0 -0.39008317367E+01 -0.21801671821E+02  0.69447699229E+02  0.72900701715E+02  0.10000000000E+01 0.  0.
<mgrwt>
<rscale>  0 0.12499845E+03</rscale>
<asrwt>0</asrwt>
<pdfrwt beam="1">  1        4 0.11317889E-01 0.12499845E+03</pdfrwt>
<pdfrwt beam="2">  1       -4 0.81687792E-02 0.12499845E+03</pdfrwt>
<totfact> 0.10416832E+04</totfact>
</mgrwt>
</event>
<event>
 5    1  0.3234540E-002  0.1249478E+03  0.7818608E-02  0.1235151E+00
         -4   -1    0    0    0  501 -0.00000000000E+00  0.00000000000E+00  0.44624787502E+02  0.44642855639E+02  0.12700000000E+01 0.  1.
          4   -1    0    0  501    0  0.00000000000E+00 -0.00000000000E+00 -0.87421993982E+02  0.87431218291E+02  0.12700000000E+01 0.  1.
         25    2    1    2    0    0  0.00000000000E+00  0.00000000000E+00 -0.42797206481E+02  0.13207407393E+03  0.12494782960E+03 0.  0.
    9000005    1    3    3    0    0  0.45121696540E+02  0.65882200831E+01  0.23728418448E+02  0.51414102973E+02  0.10000000000E+01 0.  0.
    9000005    1    3    3    0    0 -0.45121696540E+02 -0.65882200831E+01 -0.66525624929E+02  0.80659970956E+02  0.10000000000E+01 0.  0.
<mgrwt>
<rscale>  0 0.12494783E+03</rscale>
<asrwt>0</asrwt>
<pdfrwt beam="2">  1        4 0.13451637E-01 0.12494783E+03</pdfrwt>
<pdfrwt beam="1">  1       -4 0.68674513E-02 0.12494783E+03</pdfrwt>
<totfact> 0.10312249E+04</totfact>
</mgrwt>
</event>
<event>
 5    1  0.3234540E-002  0.1249977E+03  0.7818608E-02  0.1235073E+00
          4   -1    0    0  501    0  0.00000000000E+00  0.00000000000E+00  0.76829809072E+01  0.77872392810E+01  0.12700000000E+01 0.  1.
         -4   -1    0    0    0  501 -0.00000000000E+00 -0.00000000000E+00 -0.50487878015E+03  0.50488037746E+03  0.12700000000E+01 0.  1.
         25    2    1    2    0    0  0.00000000000E+00  0.00000000000E+00 -0.49719579924E+03  0.51266761674E+03  0.12499768987E+03 0.  0.
    9000005    1    3    3    0    0  0.44137898115E+02 -0.43939299455E+02 -0.26962722408E+03  0.27672848797E+03  0.10000000000E+01 0.  0.
    9000005    1    3    3    0    0 -0.44137898115E+02  0.43939299455E+02 -0.22756857516E+03  0.23593912878E+03  0.10000000000E+01 0.  0.
<mgrwt>
<rscale>  0 0.12499769E+03</rscale>
<asrwt>0</asrwt>
<pdfrwt beam="1">  1        4 0.11901402E-02 0.12499769E+03</pdfrwt>
<pdfrwt beam="2">  1       -4 0.77681775E-01 0.12499769E+03</pdfrwt>
<totfact> 0.54897537E+03</totfact>
</mgrwt>
</event>
<event>
 5    1  0.3234540E-002  0.1250067E+03  0.7818608E-02  0.1235059E+00
          4   -1    0    0  501    0  0.00000000000E+00  0.00000000000E+00  0.20628306393E+03  0.20628697333E+03  0.12700000000E+01 0.  1.
         -4   -1    0    0    0  501 -0.00000000000E+00 -0.00000000000E+00 -0.18913003601E+02  0.18955595617E+02  0.12700000000E+01 0.  1.
         25    2    1    2    0    0  0.00000000000E+00  0.00000000000E+00  0.18737006033E+03  0.22524256895E+03  0.12500670125E+03 0.  0.
    9000005    1    3    3    0    0 -0.22934144162E+02 -0.21597116101E+02  0.19093885361E+03  0.19352275372E+03  0.10000000000E+01 0.  0.
    9000005    1    3    3    0    0  0.22934144162E+02  0.21597116101E+02 -0.35687932749E+01  0.31719815222E+02  0.10000000000E+01 0.  0.
<mgrwt>
<rscale>  0 0.12500670E+03</rscale>
<asrwt>0</asrwt>
<pdfrwt beam="1">  1        4 0.31739434E-01 0.12500670E+03</pdfrwt>
<pdfrwt beam="2">  1       -4 0.29132698E-02 0.12500670E+03</pdfrwt>
<totfact> 0.86032628E+03</totfact>
</mgrwt>
</event>
<event>
 5    1  0.3234540E-002  0.1249975E+03  0.7818608E-02  0.1235073E+00
          4   -1    0    0  501    0  0.00000000000E+00  0.00000000000E+00  0.12495453765E+03  0.12496099143E+03  0.12700000000E+01 0.  1.
         -4   -1    0    0    0  501 -0.00000000000E+00 -0.00000000000E+00 -0.31239972858E+02  0.31265776884E+02  0.12700000000E+01 0.  1.
         25    2    1    2    0    0  0.00000000000E+00  0.00000000000E+00  0.93714564796E+02  0.15622676832E+03  0.12499753391E+03 0.  0.
    9000005    1    3    3    0    0 -0.46255137279E+01  0.31482749171E+02 -0.20361937127E+02  0.37791101547E+02  0.10000000000E+01 0.  0.
    9000005    1    3    3    0    0  0.46255137279E+01 -0.31482749171E+02  0.11407650192E+03  0.11843566677E+03  0.10000000000E+01 0.  0.
<mgrwt>
<rscale>  0 0.12499753E+03</rscale>
<asrwt>0</asrwt>
<pdfrwt beam="1">  1        4 0.19226257E-01 0.12499753E+03</pdfrwt>
<pdfrwt beam="2">  1       -4 0.48086310E-02 0.12499753E+03</pdfrwt>
<totfact> 0.98080645E+03</totfact>
</mgrwt>
</event>
<event>
 5    1  0.3234540E-002  0.1250022E+03  0.7818608E-02  0.1235066E+00
          4   -1    0    0  501    0  0.00000000000E+00  0.00000000000E+00  0.24112911061E+02  0.24146332637E+02  0.12700000000E+01 0.  1.
         -4   -1    0    0    0  501 -0.00000000000E+00 -0.00000000000E+00 -0.16185587634E+03  0.16186085878E+03  0.12700000000E+01 0.  1.
         25    2    1    2    0    0  0.00000000000E+00  0.00000000000E+00 -0.13774296528E+03  0.18600719142E+03  0.12500220308E+03 0.  0.
    9000005    1    3    3    0    0  0.40851046777E+02 -0.46529146488E+02 -0.56278640373E+02  0.83678281877E+02  0.10000000000E+01 0.  0.
    9000005    1    3    3    0    0 -0.40851046777E+02  0.46529146488E+02 -0.81464324903E+02  0.10232890954E+03  0.10000000000E+01 0.  0.
<mgrwt>
<rscale>  0 0.12500220E+03</rscale>
<asrwt>0</asrwt>
<pdfrwt beam="1">  1        4 0.37126329E-02 0.12500220E+03</pdfrwt>
<pdfrwt beam="2">  1       -4 0.24903857E-01 0.12500220E+03</pdfrwt>
<totfact> 0.92542161E+03</totfact>
</mgrwt>
</event>
<event>
 5    1  0.3234540E-002  0.1249914E+03  0.7818608E-02  0.1235083E+00
         -4   -1    0    0    0  501 -0.00000000000E+00  0.00000000000E+00  0.23783980922E+02  0.23817864062E+02  0.12700000000E+01 0. -1.
          4   -1    0    0  501    0  0.00000000000E+00 -0.00000000000E+00 -0.16406286250E+03  0.16406777792E+03  0.12700000000E+01 0. -1.
         25    2    1    2    0    0  0.00000000000E+00  0.00000000000E+00 -0.14027888158E+03  0.18788564198E+03  0.12499139909E+03 0.  0.
    9000005    1    3    3    0    0 -0.11731947264E+02  0.59827170382E+02 -0.90738256240E+02  0.10932227608E+03  0.10000000000E+01 0.  0.
    9000005    1    3    3    0    0  0.11731947264E+02 -0.59827170382E+02 -0.49540625339E+02  0.78563365900E+02  0.10000000000E+01 0.  0.
<mgrwt>
<rscale>  0 0.12499140E+03</rscale>
<asrwt>0</asrwt>
<pdfrwt beam="2">  1        4 0.25243424E-01 0.12499140E+03</pdfrwt>
<pdfrwt beam="1">  1       -4 0.36620586E-02 0.12499140E+03</pdfrwt>
<totfact> 0.92234285E+03</totfact>
</mgrwt>
</event>
<event>
 5    1  0.3234540E-002  0.1249997E+03  0.7818608E-02  0.1235070E+00
          4   -1    0    0  501    0  0.00000000000E+00  0.00000000000E+00  0.29357895118E+01  0.31987122499E+01  0.12700000000E+01 0.  1.
         -4   -1    0    0    0  501 -0.00000000000E+00 -0.00000000000E+00 -0.12732660438E+04  0.12732666772E+04  0.12700000000E+01 0.  1.
         25    2    1    2    0    0  0.00000000000E+00  0.00000000000E+00 -0.12703302543E+04  0.12764653895E+04  0.12499974172E+03 0.  0.
    9000005    1    3    3    0    0 -0.23953162595E+02  0.41745390519E+02 -0.22812722780E+03  0.23315116061E+03  0.10000000000E+01 0.  0.
    9000005    1    3    3    0    0  0.23953162595E+02 -0.41745390519E+02 -0.10422030265E+04  0.10433142288E+04  0.10000000000E+01 0.  0.
<mgrwt>
<rscale>  0 0.12499974E+03</rscale>
<asrwt>0</asrwt>
<pdfrwt beam="1">  1        4 0.47193449E-03 0.12499974E+03</pdfrwt>
<pdfrwt beam="2">  1       -4 0.19590694E+00 0.12499974E+03</pdfrwt>
<totfact> 0.22791075E+03</totfact>
</mgrwt>
</event>
<event>
 5    1  0.3234540E-002  0.1250030E+03  0.7818608E-02  0.1235065E+00
          4   -1    0    0  501    0  0.00000000000E+00  0.00000000000E+00  0.51015483972E+01  0.52572517582E+01  0.12700000000E+01 0. -1.
         -4   -1    0    0    0  501 -0.00000000000E+00 -0.00000000000E+00 -0.75407002796E+03  0.75407109742E+03  0.12700000000E+01 0. -1.
         25    2    1    2    0    0  0.00000000000E+00  0.00000000000E+00 -0.74896847956E+03  0.75932834918E+03  0.12500303392E+03 0.  0.
    9000005    1    3    3    0    0 -0.28183285215E+02 -0.52103890038E+02 -0.25355377386E+03  0.26038361923E+03  0.10000000000E+01 0.  0.
    9000005    1    3    3    0    0  0.28183285215E+02  0.52103890038E+02 -0.49541470570E+03  0.49894472995E+03  0.10000000000E+01 0.  0.
<mgrwt>
<rscale>  0 0.12500303E+03</rscale>
<asrwt>0</asrwt>
<pdfrwt beam="1">  1        4 0.79691364E-03 0.12500303E+03</pdfrwt>
<pdfrwt beam="2">  1       -4 0.11602275E+00 0.12500303E+03</pdfrwt>
<totfact> 0.40129253E+03</totfact>
</mgrwt>
</event>
<event>
 5    1  0.3234540E-002  0.1250021E+03  0.7818608E-02  0.1235066E+00
         -4   -1    0    0    0  501 -0.00000000000E+00  0.00000000000E+00  0.48675914339E+02  0.48692479263E+02  0.12700000000E+01 0. -1.
          4   -1    0    0  501    0  0.00000000000E+00 -0.00000000000E+00 -0.80217641583E+02  0.80227694228E+02  0.12700000000E+01 0. -1.
         25    2    1    2    0    0  0.00000000000E+00  0.00000000000E+00 -0.31541727244E+02  0.12892017349E+03  0.12500212228E+03 0.  0.
    9000005    1    3    3    0    0  0.27278857238E+02 -0.93982020357E+01 -0.72942306025E+02  0.78447703994E+02  0.10000000000E+01 0.  0.
    9000005    1    3    3    0    0 -0.27278857238E+02  0.93982020357E+01  0.41400578781E+02  0.50472469497E+02  0.10000000000E+01 0.  0.
<mgrwt>
<rscale>  0 0.12500212E+03</rscale>
<asrwt>0</asrwt>
<pdfrwt beam="2">  1        4 0.12343223E-01 0.12500212E+03</pdfrwt>
<pdfrwt beam="1">  1       -4 0.74906497E-02 0.12500212E+03</pdfrwt>
<totfact> 0.10367166E+04</totfact>
</mgrwt>
</event>
<event>
 5    1  0.3234540E-002  0.1250022E+03  0.7818608E-02  0.1235066E+00
         -4   -1    0    0    0  501 -0.00000000000E+00  0.00000000000E+00  0.65549828917E+02  0.65562130617E+02  0.12700000000E+01 0.  1.
          4   -1    0    0  501    0  0.00000000000E+00 -0.00000000000E+00 -0.59569493834E+02  0.59583030266E+02  0.12700000000E+01 0.  1.
         25    2    1    2    0    0  0.00000000000E+00  0.00000000000E+00  0.59803350830E+01  0.12514516088E+03  0.12500218752E+03 0.  0.
    9000005    1    3    3    0    0  0.80697772980E+01 -0.60795798137E+02  0.15009578912E+02  0.63146954288E+02  0.10000000000E+01 0.  0.
    9000005    1    3    3    0    0 -0.80697772980E+01  0.60795798137E+02 -0.90292438292E+01  0.61998206594E+02  0.10000000000E+01 0.  0.
<mgrwt>
<rscale>  0 0.12500219E+03</rscale>
<asrwt>0</asrwt>
<pdfrwt beam="2">  1        4 0.91665251E-02 0.12500219E+03</pdfrwt>
<pdfrwt beam="1">  1       -4 0.10086577E-01 0.12500219E+03</pdfrwt>
<totfact> 0.10449194E+04</totfact>
</mgrwt>
</event>
<event>
 5    1  0.3234540E-002  0.1249907E+03  0.7818608E-02  0.1235084E+00
         -4   -1    0    0    0  501 -0.00000000000E+00  0.00000000000E+00  0.24754454955E+01  0.27822168142E+01  0.12700000000E+01 0.  1.
          4   -1    0    0  501    0  0.00000000000E+00 -0.00000000000E+00 -0.14853982151E+04  0.14853987580E+04  0.12700000000E+01 0.  1.
         25    2    1    2    0    0  0.00000000000E+00  0.00000000000E+00 -0.14829227696E+04  0.14881809748E+04  0.12499069262E+03 0.  0.
    9000005    1    3    3    0    0 -0.55061436493E+02  0.29503097988E+02 -0.76018778467E+03  0.76275072111E+03  0.10000000000E+01 0.  0.
    9000005    1    3    3    0    0  0.55061436493E+02 -0.29503097988E+02 -0.72273498491E+03  0.72543025371E+03  0.10000000000E+01 0.  0.
<mgrwt>
<rscale>  0 0.12499069E+03</rscale>
<asrwt>0</asrwt>
<pdfrwt beam="2">  1        4 0.22854577E+00 0.12499069E+03</pdfrwt>
<pdfrwt beam="1">  1       -4 0.40447851E-03 0.12499069E+03</pdfrwt>
<totfact> 0.18167783E+03</totfact>
</mgrwt>
</event>
<event>
 5    1  0.3234540E-002  0.1250240E+03  0.7818608E-02  0.1235032E+00
         -4   -1    0    0    0  501 -0.00000000000E+00  0.00000000000E+00  0.62594535465E+01  0.63869913653E+01  0.12700000000E+01 0.  1.
          4   -1    0    0  501    0  0.00000000000E+00 -0.00000000000E+00 -0.61787170648E+03  0.61787301168E+03  0.12700000000E+01 0.  1.
         25    2    1    2    0    0  0.00000000000E+00  0.00000000000E+00 -0.61161225293E+03  0.62426000305E+03  0.12502401157E+03 0.  0.
    9000005    1    3    3    0    0 -0.22580446521E+02 -0.47131364241E+02 -0.13461351220E+03  0.14440581611E+03  0.10000000000E+01 0.  0.
    9000005    1    3    3    0    0  0.22580446521E+02  0.47131364241E+02 -0.47699874073E+03  0.47985418693E+03  0.10000000000E+01 0.  0.
<mgrwt>
<rscale>  0 0.12502401E+03</rscale>
<asrwt>0</asrwt>
<pdfrwt beam="2">  1        4 0.95067049E-01 0.12502401E+03</pdfrwt>
<pdfrwt beam="1">  1       -4 0.97290434E-03 0.12502401E+03</pdfrwt>
<totfact> 0.47346302E+03</totfact>
</mgrwt>
</event>
<event>
 5    1  0.3234540E-002  0.1249944E+03  0.7818608E-02  0.1235078E+00
         -4   -1    0    0    0  501 -0.00000000000E+00  0.00000000000E+00  0.94609501784E+01  0.95458094616E+01  0.12700000000E+01 0. -1.
          4   -1    0    0  501    0  0.00000000000E+00 -0.00000000000E+00 -0.41091527129E+03  0.41091723386E+03  0.12700000000E+01 0. -1.
         25    2    1    2    0    0  0.00000000000E+00  0.00000000000E+00 -0.40145432112E+03  0.42046304332E+03  0.12499439530E+03 0.  0.
    9000005    1    3    3    0    0  0.51730530400E+01 -0.39996940854E+02 -0.36129210993E+03  0.36353748700E+03  0.10000000000E+01 0.  0.
    9000005    1    3    3    0    0 -0.51730530400E+01  0.39996940854E+02 -0.40162211189E+02  0.56925556326E+02  0.10000000000E+01 0.  0.
<mgrwt>
<rscale>  0 0.12499440E+03</rscale>
<asrwt>0</asrwt>
<pdfrwt beam="2">  1        4 0.63224399E-01 0.12499440E+03</pdfrwt>
<pdfrwt beam="1">  1       -4 0.14622097E-02 0.12499440E+03</pdfrwt>
<totfact> 0.62617822E+03</totfact>
</mgrwt>
</event>
<event>
 5    1  0.3234540E-002  0.1250078E+03  0.7818608E-02  0.1235057E+00
         -4   -1    0    0    0  501 -0.00000000000E+00  0.00000000000E+00  0.66619815351E+02  0.66631919509E+02  0.12700000000E+01 0. -1.
          4   -1    0    0  501    0  0.00000000000E+00 -0.00000000000E+00 -0.58617922223E+02  0.58631678346E+02  0.12700000000E+01 0. -1.
         25    2    1    2    0    0  0.00000000000E+00  0.00000000000E+00  0.80018931285E+01  0.12526359786E+03  0.12500775438E+03 0.  0.
    9000005    1    3    3    0    0  0.44358293742E+02 -0.43767430546E+02 -0.75095916967E+00  0.62328245122E+02  0.10000000000E+01 0.  0.
    9000005    1    3    3    0    0 -0.44358293742E+02  0.43767430546E+02  0.87528522982E+01  0.62935352733E+02  0.10000000000E+01 0.  0.
<mgrwt>
<rscale>  0 0.12500775E+03</rscale>
<asrwt>0</asrwt>
<pdfrwt beam="2">  1        4 0.90201312E-02 0.12500775E+03</pdfrwt>
<pdfrwt beam="1">  1       -4 0.10251192E-01 0.12500775E+03</pdfrwt>
<totfact> 0.10445309E+04</totfact>
</mgrwt>
</event>
<event>
 5    1  0.3234540E-002  0.1249989E+03  0.7818608E-02  0.1235071E+00
          4   -1    0    0  501    0  0.00000000000E+00  0.00000000000E+00  0.10229733162E+03  0.10230521471E+03  0.12700000000E+01 0. -1.
         -4   -1    0    0    0  501 -0.00000000000E+00 -0.00000000000E+00 -0.38164647331E+02  0.38185772297E+02  0.12700000000E+01 0. -1.
         25    2    1    2    0    0  0.00000000000E+00  0.00000000000E+00  0.64132684286E+02  0.14049098700E+03  0.12499886494E+03 0.  0.
    9000005    1    3    3    0    0 -0.38984151562E+02 -0.47005439413E+02  0.17159700140E+02  0.63440765414E+02  0.10000000000E+01 0.  0.
    9000005    1    3    3    0    0  0.38984151562E+02  0.47005439413E+02  0.46972984146E+02  0.77050221590E+02  0.10000000000E+01 0.  0.
<mgrwt>
<rscale>  0 0.12499886E+03</rscale>
<asrwt>0</asrwt>
<pdfrwt beam="1">  1        4 0.15740283E-01 0.12499886E+03</pdfrwt>
<pdfrwt beam="2">  1       -4 0.58737155E-02 0.12499886E+03</pdfrwt>
<totfact> 0.10123679E+04</totfact>
</mgrwt>
</event>
<event>
 5    1  0.3234540E-002  0.1250019E+03  0.7818608E-02  0.1235066E+00
          4   -1    0    0  501    0  0.00000000000E+00  0.00000000000E+00  0.41553087342E+02  0.41572490515E+02  0.12700000000E+01 0. -1.
         -4   -1    0    0    0  501 -0.00000000000E+00 -0.00000000000E+00 -0.93963424311E+02  0.93972006514E+02  0.12700000000E+01 0. -1.
         25    2    1    2    0    0  0.00000000000E+00  0.00000000000E+00 -0.52410336970E+02  0.13554449703E+03  0.12500186900E+03 0.  0.
    9000005    1    3    3    0    0  0.57921001048E+01 -0.44569850502E+02  0.20877493555E+02  0.49567022652E+02  0.10000000000E+01 0.  0.
    9000005    1    3    3    0    0 -0.57921001048E+01  0.44569850502E+02 -0.73287830524E+02  0.85977474378E+02  0.10000000000E+01 0.  0.
<mgrwt>
<rscale>  0 0.12500187E+03</rscale>
<asrwt>0</asrwt>
<pdfrwt beam="1">  1        4 0.63949354E-02 0.12500187E+03</pdfrwt>
<pdfrwt beam="2">  1       -4 0.14458064E-01 0.12500187E+03</pdfrwt>
<totfact> 0.10226176E+04</totfact>
</mgrwt>
</event>
<event>
 5    1  0.3234540E-002  0.1250017E+03  0.7818608E-02  0.1235067E+00
         -4   -1    0    0    0  501 -0.00000000000E+00  0.00000000000E+00  0.20700951761E+02  0.20739872319E+02  0.12700000000E+01 0.  1.
          4   -1    0    0  501    0  0.00000000000E+00 -0.00000000000E+00 -0.18848583339E+03  0.18849011191E+03  0.12700000000E+01 0.  1.
         25    2    1    2    0    0  0.00000000000E+00  0.00000000000E+00 -0.16778488163E+03  0.20922998423E+03  0.12500167918E+03 0.  0.
    9000005    1    3    3    0    0  0.42484748235E+02 -0.45746950710E+02 -0.79272699445E+02  0.10091034738E+03  0.10000000000E+01 0.  0.
    9000005    1    3    3    0    0 -0.42484748235E+02  0.45746950710E+02 -0.88512182185E+02  0.10831963685E+03  0.10000000000E+01 0.  0.
<mgrwt>
<rscale>  0 0.12500168E+03</rscale>
<asrwt>0</asrwt>
<pdfrwt beam="2">  1        4 0.29001142E-01 0.12500168E+03</pdfrwt>
<pdfrwt beam="1">  1       -4 0.31880849E-02 0.12500168E+03</pdfrwt>
<totfact> 0.88598463E+03</totfact>
</mgrwt>
</event>
<event>
 5    1  0.3234540E-002  0.1250432E+03  0.7818608E-02  0.1235002E+00
          4   -1    0    0  501    0  0.00000000000E+00  0.00000000000E+00  0.18728772595E+03  0.18729203184E+03  0.12700000000E+01 0.  1.
         -4   -1    0    0    0  501 -0.00000000000E+00 -0.00000000000E+00 -0.20847481295E+02  0.20886128802E+02  0.12700000000E+01 0.  1.
         25    2    1    2    0    0  0.00000000000E+00  0.00000000000E+00  0.16644024465E+03  0.20817816064E+03  0.12504315866E+03 0.  0.
    9000005    1    3    3    0    0  0.33901205191E+02 -0.12399451523E+01  0.17063854451E+03  0.17398086690E+03  0.10000000000E+01 0.  0.
    9000005    1    3    3    0    0 -0.33901205191E+02  0.12399451523E+01 -0.41982998533E+01  0.34197293738E+02  0.10000000000E+01 0.  0.
<mgrwt>
<rscale>  0 0.12504316E+03</rscale>
<asrwt>0</asrwt>
<pdfrwt beam="1">  1        4 0.28816800E-01 0.12504316E+03</pdfrwt>
<pdfrwt beam="2">  1       -4 0.32106089E-02 0.12504316E+03</pdfrwt>
<totfact> 0.88688661E+03</totfact>
</mgrwt>
</event>
<event>
 5    1  0.3234540E-002  0.1250045E+03  0.7818608E-02  0.1235062E+00
         -4   -1    0    0    0  501 -0.00000000000E+00  0.00000000000E+00  0.16104244899E+03  0.16104745660E+03  0.12700000000E+01 0. -1.
          4   -1    0    0  501    0  0.00000000000E+00 -0.00000000000E+00 -0.24235754262E+02  0.24269006667E+02  0.12700000000E+01 0. -1.
         25    2    1    2    0    0  0.00000000000E+00  0.00000000000E+00  0.13680669473E+03  0.18531646326E+03  0.12500447926E+03 0.  0.
    9000005    1    3    3    0    0 -0.17205953086E+02 -0.58310063697E+02  0.89856897694E+02  0.10849594653E+03  0.10000000000E+01 0.  0.
    9000005    1    3    3    0    0  0.17205953086E+02  0.58310063697E+02  0.46949797032E+02  0.76820516735E+02  0.10000000000E+01 0.  0.
<mgrwt>
<rscale>  0 0.12500448E+03</rscale>
<asrwt>0</asrwt>
<pdfrwt beam="2">  1        4 0.37315206E-02 0.12500448E+03</pdfrwt>
<pdfrwt beam="1">  1       -4 0.24778705E-01 0.12500448E+03</pdfrwt>
<totfact> 0.92659380E+03</totfact>
</mgrwt>
</event>
<event>
 5    1  0.3234540E-002  0.1250026E+03  0.7818608E-02  0.1235065E+00
         -4   -1    0    0    0  501 -0.00000000000E+00  0.00000000000E+00  0.71848281454E+01  0.72962082946E+01  0.12700000000E+01 0.  1.
          4   -1    0    0  501    0  0.00000000000E+00 -0.00000000000E+00 -0.53940934337E+03  0.53941083843E+03  0.12700000000E+01 0.  1.
         25    2    1    2    0    0  0.00000000000E+00  0.00000000000E+00 -0.53222451522E+03  0.54670704672E+03  0.12500264130E+03 0.  0.
    9000005    1    3    3    0    0  0.10520051551E+02 -0.43200353225E+02 -0.74049892605E+02  0.86378982387E+02  0.10000000000E+01 0.  0.
    9000005    1    3    3    0    0 -0.10520051551E+02  0.43200353225E+02 -0.45817462262E+03  0.46032806433E+03  0.10000000000E+01 0.  0.
<mgrwt>
<rscale>  0 0.12500264E+03</rscale>
<asrwt>0</asrwt>
<pdfrwt beam="2">  1        4 0.82994704E-01 0.12500264E+03</pdfrwt>
<pdfrwt beam="1">  1       -4 0.11140413E-02 0.12500264E+03</pdfrwt>
<totfact> 0.52411222E+03</totfact>
</mgrwt>
</event>
<event>
 5    1  0.3234540E-002  0.1249827E+03  0.7818608E-02  0.1235096E+00
         -4   -1    0    0    0  501 -0.00000000000E+00  0.00000000000E+00  0.60847511158E+03  0.60847643694E+03  0.12700000000E+01 0.  1.
          4   -1    0    0  501    0  0.00000000000E+00 -0.00000000000E+00 -0.63537851884E+01  0.64794665073E+01  0.12700000000E+01 0.  1.
         25    2    1    2    0    0  0.00000000000E+00  0.00000000000E+00  0.60212132639E+03  0.61495590345E+03  0.12498268476E+03 0.  0.
    9000005    1    3    3    0    0 -0.29677001782E+02 -0.40603720278E+02  0.11862449605E+03  0.12884936010E+03  0.10000000000E+01 0.  0.
    9000005    1    3    3    0    0  0.29677001782E+02  0.40603720278E+02  0.48349683034E+03  0.48610654335E+03  0.10000000000E+01 0.  0.
<mgrwt>
<rscale>  0 0.12498268E+03</rscale>
<asrwt>0</asrwt>
<pdfrwt beam="2">  1        4 0.98727497E-03 0.12498268E+03</pdfrwt>
<pdfrwt beam="1">  1       -4 0.93621343E-01 0.12498268E+03</pdfrwt>
<totfact> 0.47955149E+03</totfact>
</mgrwt>
</event>
<event>
 5    1  0.3234540E-002  0.1250004E+03  0.7818608E-02  0.1235069E+00
         -4   -1    0    0    0  501 -0.00000000000E+00  0.00000000000E+00  0.30438854004E+02  0.30465336582E+02  0.12700000000E+01 0.  1.
          4   -1    0    0  501    0  0.00000000000E+00 -0.00000000000E+00 -0.12824654004E+03  0.12825282816E+03  0.12700000000E+01 0.  1.
         25    2    1    2    0    0  0.00000000000E+00  0.00000000000E+00 -0.97807686032E+02  0.15871816474E+03  0.12500044949E+03 0.  0.
    9000005    1    3    3    0    0 -0.56547940779E+02  0.15057955317E+02 -0.21060119960E+02  0.62200806083E+02  0.10000000000E+01 0.  0.
    9000005    1    3    3    0    0  0.56547940779E+02 -0.15057955317E+02 -0.76747566072E+02  0.96517358660E+02  0.10000000000E+01 0.  0.
<mgrwt>
<rscale>  0 0.12500045E+03</rscale>
<asrwt>0</asrwt>
<pdfrwt beam="2">  1        4 0.19732757E-01 0.12500045E+03</pdfrwt>
<pdfrwt beam="1">  1       -4 0.46854215E-02 0.12500045E+03</pdfrwt>
<totfact> 0.97589497E+03</totfact>
</mgrwt>
</event>
<event>
 5    1  0.3234540E-002  0.1249947E+03  0.7818608E-02  0.1235078E+00
          4   -1    0    0  501    0  0.00000000000E+00  0.00000000000E+00  0.19511421309E+03  0.19511834626E+03  0.12700000000E+01 0.  1.
         -4   -1    0    0    0  501 -0.00000000000E+00 -0.00000000000E+00 -0.19994121979E+02  0.20034415732E+02  0.12700000000E+01 0.  1.
         25    2    1    2    0    0  0.00000000000E+00  0.00000000000E+00  0.17512009111E+03  0.21515276199E+03  0.12499465862E+03 0.  0.
    9000005    1    3    3    0    0  0.39366510712E+02 -0.48033045556E+02  0.75632008192E+02  0.97867748999E+02  0.10000000000E+01 0.  0.
    9000005    1    3    3    0    0 -0.39366510712E+02  0.48033045556E+02  0.99488082915E+02  0.11728501299E+03  0.10000000000E+01 0.  0.
<mgrwt>
<rscale>  0 0.12499466E+03</rscale>
<asrwt>0</asrwt>
<pdfrwt beam="1">  1        4 0.30020989E-01 0.12499466E+03</pdfrwt>
<pdfrwt beam="2">  1       -4 0.30794362E-02 0.12499466E+03</pdfrwt>
<totfact> 0.87651682E+03</totfact>
</mgrwt>
</event>
<event>
 5    1  0.3234540E-002  0.1249986E+03  0.7818608E-02  0.1235071E+00
         -4   -1    0    0    0  501 -0.00000000000E+00  0.00000000000E+00  0.14387777131E+02  0.14443719423E+02  0.12700000000E+01 0.  1.
          4   -1    0    0  501    0  0.00000000000E+00 -0.00000000000E+00 -0.27090755659E+03  0.27091053342E+03  0.12700000000E+01 0.  1.
         25    2    1    2    0    0  0.00000000000E+00  0.00000000000E+00 -0.25651977946E+03  0.28535425284E+03  0.12499860944E+03 0.  0.
    9000005    1    3    3    0    0 -0.54046951282E+02  0.23641896257E+02 -0.17533059587E+03  0.18499143237E+03  0.10000000000E+01 0.  0.
    9000005    1    3    3    0    0  0.54046951282E+02 -0.23641896257E+02 -0.81189183589E+02  0.10036282047E+03  0.10000000000E+01 0.  0.
<mgrwt>
<rscale>  0 0.12499861E+03</rscale>
<asrwt>0</asrwt>
<pdfrwt beam="2">  1        4 0.41682614E-01 0.12499861E+03</pdfrwt>
<pdfrwt beam="1">  1       -4 0.22180366E-02 0.12499861E+03</pdfrwt>
<totfact> 0.77475880E+03</totfact>
</mgrwt>
</event>
<event>
 5    1  0.3234540E-002  0.1250003E+03  0.7818608E-02  0.1235069E+00
         -4   -1    0    0    0  501 -0.00000000000E+00  0.00000000000E+00  0.15639242820E+03  0.15639758470E+03  0.12700000000E+01 0.  1.
          4   -1    0    0  501    0  0.00000000000E+00 -0.00000000000E+00 -0.24955638500E+02  0.24987932946E+02  0.12700000000E+01 0.  1.
         25    2    1    2    0    0  0.00000000000E+00  0.00000000000E+00  0.13143678970E+03  0.18138551764E+03  0.12500030529E+03 0.  0.
    9000005    1    3    3    0    0  0.41178057533E+01 -0.59440394139E+02  0.93064712337E+02  0.11050863071E+03  0.10000000000E+01 0.  0.
    9000005    1    3    3    0    0 -0.41178057533E+01  0.59440394139E+02  0.38372077366E+02  0.70876886931E+02  0.10000000000E+01 0.  0.
<mgrwt>
<rscale>  0 0.12500031E+03</rscale>
<asrwt>0</asrwt>
<pdfrwt beam="2">  1        4 0.38422098E-02 0.12500031E+03</pdfrwt>
<pdfrwt beam="1">  1       -4 0.24063254E-01 0.12500031E+03</pdfrwt>
<totfact> 0.93367559E+03</totfact>
</mgrwt>
</event>
<event>
 5    1  0.3234540E-002  0.1249960E+03  0.7818608E-02  0.1235075E+00
          4   -1    0    0  501    0  0.00000000000E+00  0.00000000000E+00  0.28615218613E+02  0.28643387305E+02  0.12700000000E+01 0. -1.
         -4   -1    0    0    0  501 -0.00000000000E+00 -0.00000000000E+00 -0.13640258307E+03  0.13640849522E+03  0.12700000000E+01 0. -1.
         25    2    1    2    0    0  0.00000000000E+00  0.00000000000E+00 -0.10778736445E+03  0.16505188252E+03  0.12499603189E+03 0.  0.
    9000005    1    3    3    0    0  0.29232901132E+02 -0.45582192899E+02 -0.12711019462E+02  0.55631545312E+02  0.10000000000E+01 0.  0.
    9000005    1    3    3    0    0 -0.29232901132E+02  0.45582192899E+02 -0.95076344993E+02  0.10942033721E+03  0.10000000000E+01 0.  0.
<mgrwt>
<rscale>  0 0.12499603E+03</rscale>
<asrwt>0</asrwt>
<pdfrwt beam="1">  1        4 0.44049630E-02 0.12499603E+03</pdfrwt>
<pdfrwt beam="2">  1       -4 0.20987634E-01 0.12499603E+03</pdfrwt>
<totfact> 0.96386159E+03</totfact>
</mgrwt>
</event>
<event>
 5    1  0.3234540E-002  0.1249938E+03  0.7818608E-02  0.1235079E+00
          4   -1    0    0  501    0  0.00000000000E+00  0.00000000000E+00  0.15619636763E+03  0.15620153060E+03  0.12700000000E+01 0. -1.
         -4   -1    0    0    0  501 -0.00000000000E+00 -0.00000000000E+00 -0.24984393620E+02  0.25016650946E+02  0.12700000000E+01 0. -1.
         25    2    1    2    0    0  0.00000000000E+00  0.00000000000E+00  0.13121197401E+03  0.18121818154E+03  0.12499378864E+03 0.  0.
    9000005    1    3    3    0    0 -0.59428012934E+02 -0.18701847794E+02  0.58590612814E+02  0.85529572325E+02  0.10000000000E+01 0.  0.
    9000005    1    3    3    0    0  0.59428012934E+02  0.18701847794E+02  0.72621361197E+02  0.95688609219E+02  0.10000000000E+01 0.  0.
<mgrwt>
<rscale>  0 0.12499379E+03</rscale>
<asrwt>0</asrwt>
<pdfrwt beam="1">  1        4 0.24033089E-01 0.12499379E+03</pdfrwt>
<pdfrwt beam="2">  1       -4 0.38466313E-02 0.12499379E+03</pdfrwt>
<totfact> 0.93411192E+03</totfact>
</mgrwt>
</event>
<event>
 5    1  0.3234540E-002  0.1249999E+03  0.7818608E-02  0.1235069E+00
         -4   -1    0    0    0  501 -0.00000000000E+00  0.00000000000E+00  0.23614346629E+04  0.23614350044E+04  0.12700000000E+01 0. -1.
          4   -1    0    0  501    0  0.00000000000E+00 -0.00000000000E+00 -0.14100291538E+01  0.18976517632E+01  0.12700000000E+01 0. -1.
         25    2    1    2    0    0  0.00000000000E+00  0.00000000000E+00  0.23600246338E+04  0.23633326562E+04  0.12499988735E+03 0.  0.
    9000005    1    3    3    0    0  0.34201335500E+02 -0.51211443079E+02  0.97912077931E+03  0.98105598399E+03  0.10000000000E+01 0.  0.
    9000005    1    3    3    0    0 -0.34201335500E+02  0.51211443079E+02  0.13809038545E+04  0.13822766722E+04  0.10000000000E+01 0.  0.
<mgrwt>
<rscale>  0 0.12499989E+03</rscale>
<asrwt>0</asrwt>
<pdfrwt beam="2">  1        4 0.25446256E-03 0.12499989E+03</pdfrwt>
<pdfrwt beam="1">  1       -4 0.36333619E+00 0.12499989E+03</pdfrwt>
<totfact> 0.58336631E+02</totfact>
</mgrwt>
</event>
<event>
 5    1  0.3234540E-002  0.1249976E+03  0.7818608E-02  0.1235073E+00
          4   -1    0    0  501    0  0.00000000000E+00  0.00000000000E+00  0.17903107431E+03  0.17903557878E+03  0.12700000000E+01 0.  1.
         -4   -1    0    0    0  501 -0.00000000000E+00 -0.00000000000E+00 -0.21794750556E+02  0.21831721229E+02  0.12700000000E+01 0.  1.
         25    2    1    2    0    0  0.00000000000E+00  0.00000000000E+00  0.15723632375E+03  0.20086730001E+03  0.12499764280E+03 0.  0.
    9000005    1    3    3    0    0 -0.56644496834E+02 -0.71675297126E+01  0.11943422340E+03  0.13238393491E+03  0.10000000000E+01 0.  0.
    9000005    1    3    3    0    0  0.56644496834E+02  0.71675297126E+01  0.37802100355E+02  0.68483365097E+02  0.10000000000E+01 0.  0.
<mgrwt>
<rscale>  0 0.12499764E+03</rscale>
<asrwt>0</asrwt>
<pdfrwt beam="1">  1        4 0.27546433E-01 0.12499764E+03</pdfrwt>
<pdfrwt beam="2">  1       -4 0.33562288E-02 0.12499764E+03</pdfrwt>
<totfact> 0.89994180E+03</totfact>
</mgrwt>
</event>
<event>
 5    1  0.3234540E-002  0.1250005E+03  0.7818608E-02  0.1235069E+00
          4   -1    0    0  501    0  0.00000000000E+00  0.00000000000E+00  0.16070592342E+02  0.16120695960E+02  0.12700000000E+01 0. -1.
         -4   -1    0    0    0  501 -0.00000000000E+00 -0.00000000000E+00 -0.24263995086E+03  0.24264327449E+03  0.12700000000E+01 0. -1.
         25    2    1    2    0    0  0.00000000000E+00  0.00000000000E+00 -0.22656935852E+03  0.25876397045E+03  0.12500047273E+03 0.  0.
    9000005    1    3    3    0    0 -0.25303082413E+01  0.14949098280E+02 -0.23878491677E+03  0.23926787180E+03  0.10000000000E+01 0.  0.
    9000005    1    3    3    0    0  0.25303082413E+01 -0.14949098280E+02  0.12215558249E+02  0.19496098649E+02  0.10000000000E+01 0.  0.
<mgrwt>
<rscale>  0 0.12500047E+03</rscale>
<asrwt>0</asrwt>
<pdfrwt beam="1">  1        4 0.24765088E-02 0.12500047E+03</pdfrwt>
<pdfrwt beam="2">  1       -4 0.37333330E-01 0.12500047E+03</pdfrwt>
<totfact> 0.81078981E+03</totfact>
</mgrwt>
</event>
<event>
 5    1  0.3234540E-002  0.1249600E+03  0.7818608E-02  0.1235132E+00
          4   -1    0    0  501    0  0.00000000000E+00  0.00000000000E+00  0.76754921622E+02  0.76765427721E+02  0.12700000000E+01 0.  1.
         -4   -1    0    0    0  501 -0.00000000000E+00 -0.00000000000E+00 -0.50838044292E+02  0.50853904938E+02  0.12700000000E+01 0.  1.
         25    2    1    2    0    0  0.00000000000E+00  0.00000000000E+00  0.25916877330E+02  0.12761933266E+03  0.12496003176E+03 0.  0.
    9000005    1    3    3    0    0 -0.19288363136E+02 -0.59065267206E+02  0.63393354285E+01  0.62465461787E+02  0.10000000000E+01 0.  0.
    9000005    1    3    3    0    0  0.19288363136E+02  0.59065267206E+02  0.19577541901E+02  0.65153870872E+02  0.10000000000E+01 0.  0.
<mgrwt>
<rscale>  0 0.12496003E+03</rscale>
<asrwt>0</asrwt>
<pdfrwt beam="1">  1        4 0.11810478E-01 0.12496003E+03</pdfrwt>
<pdfrwt beam="2">  1       -4 0.78232658E-02 0.12496003E+03</pdfrwt>
<totfact> 0.10405102E+04</totfact>
</mgrwt>
</event>
<event>
 5    1  0.3234540E-002  0.1250025E+03  0.7818608E-02  0.1235065E+00
         -4   -1    0    0    0  501 -0.00000000000E+00  0.00000000000E+00  0.83877553680E+02  0.83887167739E+02  0.12700000000E+01 0. -1.
          4   -1    0    0  501    0  0.00000000000E+00 -0.00000000000E+00 -0.46551751539E+02  0.46569072047E+02  0.12700000000E+01 0. -1.
         25    2    1    2    0    0  0.00000000000E+00  0.00000000000E+00  0.37325802141E+02  0.13045623979E+03  0.12500245995E+03 0.  0.
    9000005    1    3    3    0    0  0.51146766245E+02 -0.74798527443E+01  0.55315899682E+02  0.75715181120E+02  0.10000000000E+01 0.  0.
    9000005    1    3    3    0    0 -0.51146766245E+02  0.74798527443E+01 -0.17990097541E+02  0.54741058666E+02  0.10000000000E+01 0.  0.
<mgrwt>
<rscale>  0 0.12500246E+03</rscale>
<asrwt>0</asrwt>
<pdfrwt beam="2">  1        4 0.71638798E-02 0.12500246E+03</pdfrwt>
<pdfrwt beam="1">  1       -4 0.12906311E-01 0.12500246E+03</pdfrwt>
<totfact> 0.10334183E+04</totfact>
</mgrwt>
</event>
<event>
 5    1  0.3234540E-002  0.1250007E+03  0.7818608E-02  0.1235068E+00
         -4   -1    0    0    0  501 -0.00000000000E+00  0.00000000000E+00  0.49231915189E+03  0.49232078995E+03  0.12700000000E+01 0.  1.
          4   -1    0    0  501    0  0.00000000000E+00 -0.00000000000E+00 -0.78819929220E+01  0.79836528245E+01  0.12700000000E+01 0.  1.
         25    2    1    2    0    0  0.00000000000E+00  0.00000000000E+00  0.48443715896E+03  0.50030444277E+03  0.12500069788E+03 0.  0.
    9000005    1    3    3    0    0  0.19364827143E+02 -0.30377066464E+02  0.37839398084E+02  0.52254978180E+02  0.10000000000E+01 0.  0.
    9000005    1    3    3    0    0 -0.19364827143E+02  0.30377066464E+02  0.44659776088E+03  0.44804946459E+03  0.10000000000E+01 0.  0.
<mgrwt>
<rscale>  0 0.12500070E+03</rscale>
<asrwt>0</asrwt>
<pdfrwt beam="2">  1        4 0.12205600E-02 0.12500070E+03</pdfrwt>
<pdfrwt beam="1">  1       -4 0.75749369E-01 0.12500070E+03</pdfrwt>
<totfact> 0.55839887E+03</totfact>
</mgrwt>
</event>
<event>
 5    1  0.3234540E-002  0.1249957E+03  0.7818608E-02  0.1235076E+00
         -4   -1    0    0    0  501 -0.00000000000E+00  0.00000000000E+00  0.21393651014E+02  0.21431313626E+02  0.12700000000E+01 0. -1.
          4   -1    0    0  501    0  0.00000000000E+00 -0.00000000000E+00 -0.18237612962E+03  0.18238055147E+03  0.12700000000E+01 0. -1.
         25    2    1    2    0    0  0.00000000000E+00  0.00000000000E+00 -0.16098247860E+03  0.20381186509E+03  0.12499567167E+03 0.  0.
    9000005    1    3    3    0    0  0.37999317523E+01  0.21752156838E+02  0.14828173643E+02  0.26617109949E+02  0.10000000000E+01 0.  0.
    9000005    1    3    3    0    0 -0.37999317523E+01 -0.21752156838E+02 -0.17581065225E+03  0.17719475515E+03  0.10000000000E+01 0.  0.
<mgrwt>
<rscale>  0 0.12499567E+03</rscale>
<asrwt>0</asrwt>
<pdfrwt beam="2">  1        4 0.28061102E-01 0.12499567E+03</pdfrwt>
<pdfrwt beam="1">  1       -4 0.32945683E-02 0.12499567E+03</pdfrwt>
<totfact> 0.89505229E+03</totfact>
</mgrwt>
</event>
<event>
 5    1  0.3234540E-002  0.1250026E+03  0.7818608E-02  0.1235065E+00
          4   -1    0    0  501    0  0.00000000000E+00  0.00000000000E+00  0.11797727360E+03  0.11798410904E+03  0.12700000000E+01 0. -1.
         -4   -1    0    0    0  501 -0.00000000000E+00 -0.00000000000E+00 -0.33091601622E+02  0.33115962886E+02  0.12700000000E+01 0. -1.
         25    2    1    2    0    0  0.00000000000E+00  0.00000000000E+00  0.84885671982E+02  0.15110007193E+03  0.12500261769E+03 0.  0.
    9000005    1    3    3    0    0 -0.65775922556E+01 -0.27817201983E+02  0.10961803654E+03  0.11328801958E+03  0.10000000000E+01 0.  0.
    9000005    1    3    3    0    0  0.65775922556E+01  0.27817201983E+02 -0.24732364559E+02  0.37812052347E+02  0.10000000000E+01 0.  0.
<mgrwt>
<rscale>  0 0.12500262E+03</rscale>
<asrwt>0</asrwt>
<pdfrwt beam="1">  1        4 0.18152750E-01 0.12500262E+03</pdfrwt>
<pdfrwt beam="2">  1       -4 0.50934153E-02 0.12500262E+03</pdfrwt>
<totfact> 0.99079029E+03</totfact>
</mgrwt>
</event>
<event>
 4    1  0.3234540E-002  0.1248792E+03  0.7818608E-02  0.1235258E+00
         -4   -1    0    0    0  501 -0.00000000000E+00  0.00000000000E+00  0.12281332611E+04  0.12281339177E+04  0.12700000000E+01 0.  1.
          4   -1    0    0  501    0  0.00000000000E+00 -0.00000000000E+00 -0.30467936099E+01  0.33008864417E+01  0.12700000000E+01 0.  1.
    9000005    1    1    2    0    0 -0.35606521001E+02 -0.49540496277E+02  0.74322329034E+03  0.74572377219E+03  0.10000000000E+01 0.  0.
    9000005    1    1    2    0    0  0.35606521001E+02  0.49540496277E+02  0.48186317711E+03  0.48571103196E+03  0.10000000000E+01 0.  0.
<mgrwt>
<rscale>  0 0.12487924E+03</rscale>
<asrwt>0</asrwt>
<pdfrwt beam="2">  1        4 0.48833376E-03 0.12487924E+03</pdfrwt>
<pdfrwt beam="1">  1       -4 0.18896311E+00 0.12487924E+03</pdfrwt>
<totfact> 0.23967563E+03</totfact>
</mgrwt>
</event>
<event>
 5    1  0.3234540E-002  0.1250034E+03  0.7818608E-02  0.1235064E+00
         -4   -1    0    0    0  501 -0.00000000000E+00  0.00000000000E+00  0.58582971917E+01  0.59943761966E+01  0.12700000000E+01 0.  1.
          4   -1    0    0  501    0  0.00000000000E+00 -0.00000000000E+00 -0.65903343465E+03  0.65903465834E+03  0.12700000000E+01 0.  1.
         25    2    1    2    0    0  0.00000000000E+00  0.00000000000E+00 -0.65317513746E+03  0.66502903453E+03  0.12500342626E+03 0.  0.
    9000005    1    3    3    0    0 -0.58419877678E+02  0.48173497366E+01 -0.21132753321E+03  0.21930894934E+03  0.10000000000E+01 0.  0.
    9000005    1    3    3    0    0  0.58419877678E+02 -0.48173497366E+01 -0.44184760425E+03  0.44572008520E+03  0.10000000000E+01 0.  0.
<mgrwt>
<rscale>  0 0.12500343E+03</rscale>
<asrwt>0</asrwt>
<pdfrwt beam="2">  1        4 0.10140026E+00 0.12500343E+03</pdfrwt>
<pdfrwt beam="1">  1       -4 0.91183876E-03 0.12500343E+03</pdfrwt>
<totfact> 0.44994746E+03</totfact>
</mgrwt>
</event>
<event>
 5    1  0.3234540E-002  0.1250004E+03  0.7818608E-02  0.1235069E+00
         -4   -1    0    0    0  501 -0.00000000000E+00  0.00000000000E+00  0.10849353454E+03  0.10850096745E+03  0.12700000000E+01 0. -1.
          4   -1    0    0  501    0  0.00000000000E+00 -0.00000000000E+00 -0.35984808804E+02  0.36007212676E+02  0.12700000000E+01 0. -1.
         25    2    1    2    0    0  0.00000000000E+00  0.00000000000E+00  0.72508725737E+02  0.14450818012E+03  0.12500039526E+03 0.  0.
    9000005    1    3    3    0    0  0.61104121934E+02  0.11297879894E+02  0.43915738464E+02  0.76098277854E+02  0.10000000000E+01 0.  0.
    9000005    1    3    3    0    0 -0.61104121934E+02 -0.11297879894E+02  0.28592987273E+02  0.68409902270E+02  0.10000000000E+01 0.  0.
<mgrwt>
<rscale>  0 0.12500040E+03</rscale>
<asrwt>0</asrwt>
<pdfrwt beam="2">  1        4 0.55384197E-02 0.12500040E+03</pdfrwt>
<pdfrwt beam="1">  1       -4 0.16693608E-01 0.12500040E+03</pdfrwt>
<totfact> 0.10040901E+04</totfact>
</mgrwt>
</event>
<event>
 5    1  0.3234540E-002  0.1250163E+03  0.7818608E-02  0.1235044E+00
          4   -1    0    0  501    0  0.00000000000E+00  0.00000000000E+00  0.75306437692E+02  0.75317145843E+02  0.12700000000E+01 0. -1.
         -4   -1    0    0    0  501 -0.00000000000E+00 -0.00000000000E+00 -0.51862786355E+02  0.51878333710E+02  0.12700000000E+01 0. -1.
         25    2    1    2    0    0  0.00000000000E+00  0.00000000000E+00  0.23443651337E+02  0.12719547955E+03  0.12501633985E+03 0.  0.
    9000005    1    3    3    0    0  0.30450365600E+02  0.33137435698E+02 -0.32404149796E+02  0.55464793643E+02  0.10000000000E+01 0.  0.
    9000005    1    3    3    0    0 -0.30450365600E+02 -0.33137435698E+02  0.55847801132E+02  0.71730685910E+02  0.10000000000E+01 0.  0.
<mgrwt>
<rscale>  0 0.12501634E+03</rscale>
<asrwt>0</asrwt>
<pdfrwt beam="1">  1        4 0.11587625E-01 0.12501634E+03</pdfrwt>
<pdfrwt beam="2">  1       -4 0.79809098E-02 0.12501634E+03</pdfrwt>
<totfact> 0.10401065E+04</totfact>
</mgrwt>
</event>
<event>
 5    1  0.3234540E-002  0.1249989E+03  0.7818608E-02  0.1235071E+00
          4   -1    0    0  501    0  0.00000000000E+00  0.00000000000E+00  0.66807776638E+03  0.66807897350E+03  0.12700000000E+01 0.  1.
         -4   -1    0    0    0  501 -0.00000000000E+00 -0.00000000000E+00 -0.57767095832E+01  0.59146659761E+01  0.12700000000E+01 0.  1.
         25    2    1    2    0    0  0.00000000000E+00  0.00000000000E+00  0.66230105680E+03  0.67399363948E+03  0.12499894487E+03 0.  0.
    9000005    1    3    3    0    0 -0.36927008382E+02  0.40583877735E+02  0.16988310130E+03  0.17852709371E+03  0.10000000000E+01 0.  0.
    9000005    1    3    3    0    0  0.36927008382E+02 -0.40583877735E+02  0.49241795549E+03  0.49546654577E+03  0.10000000000E+01 0.  0.
<mgrwt>
<rscale>  0 0.12499894E+03</rscale>
<asrwt>0</asrwt>
<pdfrwt beam="1">  1        4 0.10279186E+00 0.12499894E+03</pdfrwt>
<pdfrwt beam="2">  1       -4 0.89942977E-03 0.12499894E+03</pdfrwt>
<totfact> 0.44496588E+03</totfact>
</mgrwt>
</event>
<event>
 5    1  0.3234540E-002  0.1250020E+03  0.7818608E-02  0.1235066E+00
         -4   -1    0    0    0  501 -0.00000000000E+00  0.00000000000E+00  0.59769243915E+02  0.59782735118E+02  0.12700000000E+01 0. -1.
          4   -1    0    0  501    0  0.00000000000E+00 -0.00000000000E+00 -0.65330623605E+02  0.65342966573E+02  0.12700000000E+01 0. -1.
         25    2    1    2    0    0  0.00000000000E+00  0.00000000000E+00 -0.55613796895E+01  0.12512570169E+03  0.12500204910E+03 0.  0.
    9000005    1    3    3    0    0  0.54673605871E+02 -0.12462399239E+02  0.24830350338E+02  0.61335641120E+02  0.10000000000E+01 0.  0.
    9000005    1    3    3    0    0 -0.54673605871E+02  0.12462399239E+02 -0.30391730027E+02  0.63790060572E+02  0.10000000000E+01 0.  0.
<mgrwt>
<rscale>  0 0.12500205E+03</rscale>
<asrwt>0</asrwt>
<pdfrwt beam="2">  1        4 0.10052852E-01 0.12500205E+03</pdfrwt>
<pdfrwt beam="1">  1       -4 0.91972555E-02 0.12500205E+03</pdfrwt>
<totfact> 0.10449649E+04</totfact>
</mgrwt>
</event>
<event>
 5    1  0.3234540E-002  0.1249978E+03  0.7818608E-02  0.1235073E+00
         -4   -1    0    0    0  501 -0.00000000000E+00  0.00000000000E+00  0.46586699006E+02  0.46604006526E+02  0.12700000000E+01 0.  1.
          4   -1    0    0  501    0  0.00000000000E+00 -0.00000000000E+00 -0.83808392366E+02  0.83818014358E+02  0.12700000000E+01 0.  1.
         25    2    1    2    0    0  0.00000000000E+00  0.00000000000E+00 -0.37221693360E+02  0.13042202088E+03  0.12499779628E+03 0.  0.
    9000005    1    3    3    0    0 -0.51876843510E+02  0.58685985553E+01  0.17222806371E+02  0.54984292310E+02  0.10000000000E+01 0.  0.
    9000005    1    3    3    0    0  0.51876843510E+02 -0.58685985553E+01 -0.54444499730E+02  0.75437728574E+02  0.10000000000E+01 0.  0.
<mgrwt>
<rscale>  0 0.12499780E+03</rscale>
<asrwt>0</asrwt>
<pdfrwt beam="2">  1        4 0.12895670E-01 0.12499780E+03</pdfrwt>
<pdfrwt beam="1">  1       -4 0.71692560E-02 0.12499780E+03</pdfrwt>
<totfact> 0.10336002E+04</totfact>
</mgrwt>
</event>
<event>
 5    1  0.3234540E-002  0.1250017E+03  0.7818608E-02  0.1235067E+00
          4   -1    0    0  501    0  0.00000000000E+00  0.00000000000E+00  0.98941829514E+01  0.99753574510E+01  0.12700000000E+01 0.  1.
         -4   -1    0    0    0  501 -0.00000000000E+00 -0.00000000000E+00 -0.39311814801E+03  0.39312019942E+03  0.12700000000E+01 0.  1.
         25    2    1    2    0    0  0.00000000000E+00  0.00000000000E+00 -0.38322396506E+03  0.40309555688E+03  0.12500168230E+03 0.  0.
    9000005    1    3    3    0    0 -0.23059846698E+02  0.57154305142E+02 -0.22496626527E+03  0.23325777937E+03  0.10000000000E+01 0.  0.
    9000005    1    3    3    0    0  0.23059846698E+02 -0.57154305142E+02 -0.15825769979E+03  0.16983777750E+03  0.10000000000E+01 0.  0.
<mgrwt>
<rscale>  0 0.12500168E+03</rscale>
<asrwt>0</asrwt>
<pdfrwt beam="1">  1        4 0.15285843E-02 0.12500168E+03</pdfrwt>
<pdfrwt beam="2">  1       -4 0.60486105E-01 0.12500168E+03</pdfrwt>
<totfact> 0.64250448E+03</totfact>
</mgrwt>
</event>
<event>
 5    1  0.3234540E-002  0.1249982E+03  0.7818608E-02  0.1235072E+00
         -4   -1    0    0    0  501 -0.00000000000E+00  0.00000000000E+00  0.53974725762E+02  0.53989664947E+02  0.12700000000E+01 0.  1.
          4   -1    0    0  501    0  0.00000000000E+00 -0.00000000000E+00 -0.72339169495E+02  0.72350316815E+02  0.12700000000E+01 0.  1.
         25    2    1    2    0    0  0.00000000000E+00  0.00000000000E+00 -0.18364443733E+02  0.12633998176E+03  0.12499815278E+03 0.  0.
    9000005    1    3    3    0    0  0.54760053215E+02  0.97919738449E+01 -0.37958683967E+02  0.67352860878E+02  0.10000000000E+01 0.  0.
    9000005    1    3    3    0    0 -0.54760053215E+02 -0.97919738449E+01  0.19594240234E+02  0.58987120885E+02  0.10000000000E+01 0.  0.
<mgrwt>
<rscale>  0 0.12499815E+03</rscale>
<asrwt>0</asrwt>
<pdfrwt beam="2">  1        4 0.11131110E-01 0.12499815E+03</pdfrwt>
<pdfrwt beam="1">  1       -4 0.83058107E-02 0.12499815E+03</pdfrwt>
<totfact> 0.10423955E+04</totfact>
</mgrwt>
</event>
<event>
 5    1  0.3234540E-002  0.1250030E+03  0.7818608E-02  0.1235065E+00
         -4   -1    0    0    0  501 -0.00000000000E+00  0.00000000000E+00  0.24034906402E+03  0.24035241933E+03  0.12700000000E+01 0. -1.
          4   -1    0    0  501    0  0.00000000000E+00 -0.00000000000E+00 -0.16224905782E+02  0.16274534330E+02  0.12700000000E+01 0. -1.
         25    2    1    2    0    0  0.00000000000E+00  0.00000000000E+00  0.22412415824E+03  0.25662695366E+03  0.12500302011E+03 0.  0.
    9000005    1    3    3    0    0 -0.21863708288E+02 -0.57268104343E+02  0.87105134125E+02  0.10651742536E+03  0.10000000000E+01 0.  0.
    9000005    1    3    3    0    0  0.21863708288E+02  0.57268104343E+02  0.13701902412E+03  0.15010952829E+03  0.10000000000E+01 0.  0.
<mgrwt>
<rscale>  0 0.12500302E+03</rscale>
<asrwt>0</asrwt>
<pdfrwt beam="2">  1        4 0.25002150E-02 0.12500302E+03</pdfrwt>
<pdfrwt beam="1">  1       -4 0.36980855E-01 0.12500302E+03</pdfrwt>
<totfact> 0.81376289E+03</totfact>
</mgrwt>
</event>
<event>
 5    1  0.3234540E-002  0.1250021E+03  0.7818608E-02  0.1235066E+00
         -4   -1    0    0    0  501 -0.00000000000E+00  0.00000000000E+00  0.60069630664E+02  0.60083054417E+02  0.12700000000E+01 0. -1.
          4   -1    0    0  501    0  0.00000000000E+00 -0.00000000000E+00 -0.65003979055E+02  0.65016384035E+02  0.12700000000E+01 0. -1.
         25    2    1    2    0    0  0.00000000000E+00  0.00000000000E+00 -0.49343483905E+01  0.12509943845E+03  0.12500208681E+03 0.  0.
    9000005    1    3    3    0    0  0.14223157599E+02  0.44286059174E+01  0.58271687102E+02  0.60153971442E+02  0.10000000000E+01 0.  0.
    9000005    1    3    3    0    0 -0.14223157599E+02 -0.44286059174E+01 -0.63206035493E+02  0.64945467010E+02  0.10000000000E+01 0.  0.
<mgrwt>
<rscale>  0 0.12500209E+03</rscale>
<asrwt>0</asrwt>
<pdfrwt beam="2">  1        4 0.10002599E-01 0.12500209E+03</pdfrwt>
<pdfrwt beam="1">  1       -4 0.92434685E-02 0.12500209E+03</pdfrwt>
<totfact> 0.10450210E+04</totfact>
</mgrwt>
</event>
<event>
 5    1  0.3234540E-002  0.1250033E+03  0.7818608E-02  0.1235064E+00
          4   -1    0    0  501    0  0.00000000000E+00  0.00000000000E+00  0.92283388810E+02  0.92292127238E+02  0.12700000000E+01 0. -1.
         -4   -1    0    0    0  501 -0.00000000000E+00 -0.00000000000E+00 -0.42310832442E+02  0.42329888282E+02  0.12700000000E+01 0. -1.
         25    2    1    2    0    0  0.00000000000E+00  0.00000000000E+00  0.49972556367E+02  0.13462201552E+03  0.12500332265E+03 0.  0.
    9000005    1    3    3    0    0 -0.14447002476E+02  0.53339287806E+02  0.56415107783E+02  0.78977591065E+02  0.10000000000E+01 0.  0.
    9000005    1    3    3    0    0  0.14447002476E+02 -0.53339287806E+02 -0.64425514153E+01  0.55644424455E+02  0.10000000000E+01 0.  0.
<mgrwt>
<rscale>  0 0.12500332E+03</rscale>
<asrwt>0</asrwt>
<pdfrwt beam="1">  1        4 0.14199582E-01 0.12500332E+03</pdfrwt>
<pdfrwt beam="2">  1       -4 0.65114968E-02 0.12500332E+03</pdfrwt>
<totfact> 0.10245276E+04</totfact>
</mgrwt>
</event>
<event>
 5    1  0.3234540E-002  0.1249948E+03  0.7818608E-02  0.1235077E+00
         -4   -1    0    0    0  501 -0.00000000000E+00  0.00000000000E+00  0.45675355668E+02  0.45693008386E+02  0.12700000000E+01 0.  1.
          4   -1    0    0  501    0  0.00000000000E+00 -0.00000000000E+00 -0.85476010323E+02  0.85485444614E+02  0.12700000000E+01 0.  1.
         25    2    1    2    0    0  0.00000000000E+00  0.00000000000E+00 -0.39800654656E+02  0.13117845300E+03  0.12499477757E+03 0.  0.
    9000005    1    3    3    0    0  0.40154314802E+02 -0.45212962922E+02 -0.33618226109E+01  0.60571303970E+02  0.10000000000E+01 0.  0.
    9000005    1    3    3    0    0 -0.40154314802E+02  0.45212962922E+02 -0.36438832045E+02  0.70607149030E+02  0.10000000000E+01 0.  0.
<mgrwt>
<rscale>  0 0.12499478E+03</rscale>
<asrwt>0</asrwt>
<pdfrwt beam="2">  1        4 0.13152239E-01 0.12499478E+03</pdfrwt>
<pdfrwt beam="1">  1       -4 0.70290614E-02 0.12499478E+03</pdfrwt>
<totfact> 0.10320481E+04</totfact>
</mgrwt>
</event>
<event>
 5    1  0.3234540E-002  0.1249998E+03  0.7818608E-02  0.1235070E+00
         -4   -1    0    0    0  501 -0.00000000000E+00  0.00000000000E+00  0.14634713910E+02  0.14689715832E+02  0.12700000000E+01 0.  1.
          4   -1    0    0  501    0  0.00000000000E+00 -0.00000000000E+00 -0.26635883110E+03  0.26636185876E+03  0.12700000000E+01 0.  1.
         25    2    1    2    0    0  0.00000000000E+00  0.00000000000E+00 -0.25172411719E+03  0.28105157459E+03  0.12499982563E+03 0.  0.
    9000005    1    3    3    0    0 -0.10000881779E+02 -0.16425856101E+02  0.78272494549E+01  0.20786828017E+02  0.10000000000E+01 0.  0.
    9000005    1    3    3    0    0  0.10000881779E+02  0.16425856101E+02 -0.25955136664E+03  0.26026474658E+03  0.10000000000E+01 0.  0.
<mgrwt>
<rscale>  0 0.12499983E+03</rscale>
<asrwt>0</asrwt>
<pdfrwt beam="2">  1        4 0.40982742E-01 0.12499983E+03</pdfrwt>
<pdfrwt beam="1">  1       -4 0.22559585E-02 0.12499983E+03</pdfrwt>
<totfact> 0.78039185E+03</totfact>
</mgrwt>
</event>
<event>
 5    1  0.3234540E-002  0.1250038E+03  0.7818608E-02  0.1235063E+00
          4   -1    0    0  501    0  0.00000000000E+00  0.00000000000E+00  0.74600754692E+02  0.74611564121E+02  0.12700000000E+01 0. -1.
         -4   -1    0    0    0  501 -0.00000000000E+00 -0.00000000000E+00 -0.52342973480E+02  0.52358378248E+02  0.12700000000E+01 0. -1.
         25    2    1    2    0    0  0.00000000000E+00  0.00000000000E+00  0.22257781212E+02  0.12696994237E+03  0.12500382970E+03 0.  0.
    9000005    1    3    3    0    0 -0.26113528545E+02  0.51521139128E+02 -0.13103103044E+02  0.59237112180E+02  0.10000000000E+01 0.  0.
    9000005    1    3    3    0    0  0.26113528545E+02 -0.51521139128E+02  0.35360884256E+02  0.67732830189E+02  0.10000000000E+01 0.  0.
<mgrwt>
<rscale>  0 0.12500383E+03</rscale>
<asrwt>0</asrwt>
<pdfrwt beam="1">  1        4 0.11479056E-01 0.12500383E+03</pdfrwt>
<pdfrwt beam="2">  1       -4 0.80547816E-02 0.12500383E+03</pdfrwt>
<totfact> 0.10408899E+04</totfact>
</mgrwt>
</event>
<event>
 5    1  0.3234540E-002  0.1249941E+03  0.7818608E-02  0.1235078E+00
         -4   -1    0    0    0  501 -0.00000000000E+00  0.00000000000E+00  0.15373601476E+03  0.15374126035E+03  0.12700000000E+01 0. -1.
          4   -1    0    0  501    0  0.00000000000E+00 -0.00000000000E+00 -0.25384870348E+02  0.25416619417E+02  0.12700000000E+01 0. -1.
         25    2    1    2    0    0  0.00000000000E+00  0.00000000000E+00  0.12835114441E+03  0.17915787977E+03  0.12499411831E+03 0.  0.
    9000005    1    3    3    0    0  0.33540282430E+01  0.36736446200E+02  0.13647095463E+03  0.14137233620E+03  0.10000000000E+01 0.  0.
    9000005    1    3    3    0    0 -0.33540282430E+01 -0.36736446200E+02 -0.81198102170E+01  0.37785543570E+02  0.10000000000E+01 0.  0.
<mgrwt>
<rscale>  0 0.12499412E+03</rscale>
<asrwt>0</asrwt>
<pdfrwt beam="2">  1        4 0.39082103E-02 0.12499412E+03</pdfrwt>
<pdfrwt beam="1">  1       -4 0.23654541E-01 0.12499412E+03</pdfrwt>
<totfact> 0.93781175E+03</totfact>
</mgrwt>
</event>
<event>
 5    1  0.3234540E-002  0.1250455E+03  0.7818608E-02  0.1234998E+00
          4   -1    0    0  501    0  0.00000000000E+00  0.00000000000E+00  0.69137212048E+01  0.70293983311E+01  0.12700000000E+01 0.  1.
         -4   -1    0    0    0  501 -0.00000000000E+00 -0.00000000000E+00 -0.56060418533E+03  0.56060562386E+03  0.12700000000E+01 0.  1.
         25    2    1    2    0    0  0.00000000000E+00  0.00000000000E+00 -0.55369046412E+03  0.56763502219E+03  0.12504554515E+03 0.  0.
    9000005    1    3    3    0    0  0.29802637323E+02  0.46068653063E+02 -0.41284473634E+03  0.41647604290E+03  0.10000000000E+01 0.  0.
    9000005    1    3    3    0    0 -0.29802637323E+02 -0.46068653063E+02 -0.14084572779E+03  0.15115897930E+03  0.10000000000E+01 0.  0.
<mgrwt>
<rscale>  0 0.12504555E+03</rscale>
<asrwt>0</asrwt>
<pdfrwt beam="1">  1        4 0.10726588E-02 0.12504555E+03</pdfrwt>
<pdfrwt beam="2">  1       -4 0.86255771E-01 0.12504555E+03</pdfrwt>
<totfact> 0.50925556E+03</totfact>
</mgrwt>
</event>
<event>
 5    1  0.3234540E-002  0.1249992E+03  0.7818608E-02  0.1235070E+00
         -4   -1    0    0    0  501 -0.00000000000E+00  0.00000000000E+00  0.14458517497E+03  0.14459075254E+03  0.12700000000E+01 0. -1.
          4   -1    0    0  501    0  0.00000000000E+00 -0.00000000000E+00 -0.26995586295E+02  0.27025443186E+02  0.12700000000E+01 0. -1.
         25    2    1    2    0    0  0.00000000000E+00  0.00000000000E+00  0.11758958867E+03  0.17161619573E+03  0.12499922909E+03 0.  0.
    9000005    1    3    3    0    0  0.31818816782E+02 -0.32814211130E+02  0.11730180826E+03  0.12589648039E+03  0.10000000000E+01 0.  0.
    9000005    1    3    3    0    0 -0.31818816782E+02  0.32814211130E+02  0.28778041786E+00  0.45719715343E+02  0.10000000000E+01 0.  0.
<mgrwt>
<rscale>  0 0.12499923E+03</rscale>
<asrwt>0</asrwt>
<pdfrwt beam="2">  1        4 0.41558928E-02 0.12499923E+03</pdfrwt>
<pdfrwt beam="1">  1       -4 0.22246599E-01 0.12499923E+03</pdfrwt>
<totfact> 0.95149901E+03</totfact>
</mgrwt>
</event>
<event>
 5    1  0.3234540E-002  0.1249990E+03  0.7818608E-02  0.1235071E+00
         -4   -1    0    0    0  501 -0.00000000000E+00  0.00000000000E+00  0.17432766065E+03  0.17433228665E+03  0.12700000000E+01 0. -1.
          4   -1    0    0  501    0  0.00000000000E+00 -0.00000000000E+00 -0.22384250092E+02  0.22420248710E+02  0.12700000000E+01 0. -1.
         25    2    1    2    0    0  0.00000000000E+00  0.00000000000E+00  0.15194341056E+03  0.19675253536E+03  0.12499904063E+03 0.  0.
    9000005    1    3    3    0    0 -0.25517409031E+02 -0.51383991163E+02  0.36977064255E+02  0.68262405410E+02  0.10000000000E+01 0.  0.
    9000005    1    3    3    0    0  0.25517409031E+02  0.51383991163E+02  0.11496634630E+03  0.12849012995E+03  0.10000000000E+01 0.  0.
<mgrwt>
<rscale>  0 0.12499904E+03</rscale>
<asrwt>0</asrwt>
<pdfrwt beam="2">  1        4 0.34468557E-02 0.12499904E+03</pdfrwt>
<pdfrwt beam="1">  1       -4 0.26822765E-01 0.12499904E+03</pdfrwt>
<totfact> 0.90687436E+03</totfact>
</mgrwt>
</event>
<event>
 5    1  0.3234540E-002  0.1250003E+03  0.7818608E-02  0.1235069E+00
          4   -1    0    0  501    0  0.00000000000E+00  0.00000000000E+00  0.11289018880E+03  0.11289733225E+03  0.12700000000E+01 0.  1.
         -4   -1    0    0    0  501 -0.00000000000E+00 -0.00000000000E+00 -0.34582502304E+02  0.34605814044E+02  0.12700000000E+01 0.  1.
         25    2    1    2    0    0  0.00000000000E+00  0.00000000000E+00  0.78307686500E+02  0.14750314629E+03  0.12500033760E+03 0.  0.
    9000005    1    3    3    0    0  0.60681392669E+02  0.10402574828E+02  0.51798598999E+02  0.80464525336E+02  0.10000000000E+01 0.  0.
    9000005    1    3    3    0    0 -0.60681392669E+02 -0.10402574828E+02  0.26509087501E+02  0.67038620954E+02  0.10000000000E+01 0.  0.
<mgrwt>
<rscale>  0 0.12500034E+03</rscale>
<asrwt>0</asrwt>
<pdfrwt beam="1">  1        4 0.17370064E-01 0.12500034E+03</pdfrwt>
<pdfrwt beam="2">  1       -4 0.53227277E-02 0.12500034E+03</pdfrwt>
<totfact> 0.99802998E+03</totfact>
</mgrwt>
</event>
<event>
 5    1  0.3234540E-002  0.1250045E+03  0.7818608E-02  0.1235062E+00
         -4   -1    0    0    0  501 -0.00000000000E+00  0.00000000000E+00  0.17849722657E+02  0.17894845597E+02  0.12700000000E+01 0.  1.
          4   -1    0    0  501    0  0.00000000000E+00 -0.00000000000E+00 -0.21853348334E+03  0.21853717359E+03  0.12700000000E+01 0.  1.
         25    2    1    2    0    0  0.00000000000E+00  0.00000000000E+00 -0.20068376069E+03  0.23643201919E+03  0.12500451150E+03 0.  0.
    9000005    1    3    3    0    0 -0.53799099388E+02  0.12143759641E+02 -0.15592802897E+03  0.16539759433E+03  0.10000000000E+01 0.  0.
    9000005    1    3    3    0    0  0.53799099388E+02 -0.12143759641E+02 -0.44755731717E+02  0.71034424856E+02  0.10000000000E+01 0.  0.
<mgrwt>
<rscale>  0 0.12500451E+03</rscale>
<asrwt>0</asrwt>
<pdfrwt beam="2">  1        4 0.33624289E-01 0.12500451E+03</pdfrwt>
<pdfrwt beam="1">  1       -4 0.27498662E-02 0.12500451E+03</pdfrwt>
<totfact> 0.84323158E+03</totfact>
</mgrwt>
</event>
<event>
 5    1  0.3234540E-002  0.1250025E+03  0.7818608E-02  0.1235065E+00
          4   -1    0    0  501    0  0.00000000000E+00  0.00000000000E+00  0.93002238790E+02  0.93010909682E+02  0.12700000000E+01 0.  1.
         -4   -1    0    0    0  501 -0.00000000000E+00 -0.00000000000E+00 -0.41983095664E+02  0.42002300194E+02  0.12700000000E+01 0.  1.
         25    2    1    2    0    0  0.00000000000E+00  0.00000000000E+00  0.51019143126E+02  0.13501320988E+03  0.12500245548E+03 0.  0.
    9000005    1    3    3    0    0 -0.32119200642E+01  0.51836968886E+02 -0.12030405839E+02  0.53320900578E+02  0.10000000000E+01 0.  0.
    9000005    1    3    3    0    0  0.32119200642E+01 -0.51836968886E+02  0.63049548965E+02  0.81692309298E+02  0.10000000000E+01 0.  0.
<mgrwt>
<rscale>  0 0.12500246E+03</rscale>
<asrwt>0</asrwt>
<pdfrwt beam="1">  1        4 0.14310181E-01 0.12500246E+03</pdfrwt>
<pdfrwt beam="2">  1       -4 0.64610820E-02 0.12500246E+03</pdfrwt>
<totfact> 0.10237226E+04</totfact>
</mgrwt>
</event>
<event>
 5    1  0.3234540E-002  0.1250053E+03  0.7818608E-02  0.1235061E+00
         -4   -1    0    0    0  501 -0.00000000000E+00  0.00000000000E+00  0.27985977551E+03  0.27986265712E+03  0.12700000000E+01 0. -1.
          4   -1    0    0  501    0  0.00000000000E+00 -0.00000000000E+00 -0.13927220709E+02  0.13985005422E+02  0.12700000000E+01 0. -1.
         25    2    1    2    0    0  0.00000000000E+00  0.00000000000E+00  0.26593255480E+03  0.29384766254E+03  0.12500530019E+03 0.  0.
    9000005    1    3    3    0    0  0.53906210843E+02  0.31612679567E+02  0.13159521874E+03  0.14568302122E+03  0.10000000000E+01 0.  0.
    9000005    1    3    3    0    0 -0.53906210843E+02 -0.31612679567E+02  0.13433733606E+03  0.14816464132E+03  0.10000000000E+01 0.  0.
<mgrwt>
<rscale>  0 0.12500530E+03</rscale>
<asrwt>0</asrwt>
<pdfrwt beam="2">  1        4 0.21473159E-02 0.12500530E+03</pdfrwt>
<pdfrwt beam="1">  1       -4 0.43060019E-01 0.12500530E+03</pdfrwt>
<totfact> 0.76368122E+03</totfact>
</mgrwt>
</event>
<event>
 5    1  0.3234540E-002  0.1249958E+03  0.7818608E-02  0.1235076E+00
         -4   -1    0    0    0  501 -0.00000000000E+00  0.00000000000E+00  0.98261247560E+02  0.98269454421E+02  0.12700000000E+01 0. -1.
          4   -1    0    0  501    0  0.00000000000E+00 -0.00000000000E+00 -0.39731032366E+02  0.39751324920E+02  0.12700000000E+01 0. -1.
         25    2    1    2    0    0  0.00000000000E+00  0.00000000000E+00  0.58530215194E+02  0.13802077934E+03  0.12499579769E+03 0.  0.
    9000005    1    3    3    0    0 -0.32352565449E+02 -0.39700561297E+02  0.68803672618E+02  0.85777435402E+02  0.10000000000E+01 0.  0.
    9000005    1    3    3    0    0  0.32352565449E+02  0.39700561297E+02 -0.10273457423E+02  0.52243343938E+02  0.10000000000E+01 0.  0.
<mgrwt>
<rscale>  0 0.12499580E+03</rscale>
<asrwt>0</asrwt>
<pdfrwt beam="2">  1        4 0.61146587E-02 0.12499580E+03</pdfrwt>
<pdfrwt beam="1">  1       -4 0.15119307E-01 0.12499580E+03</pdfrwt>
<totfact> 0.10175735E+04</totfact>
</mgrwt>
</event>
<event>
 5    1  0.3234540E-002  0.1250018E+03  0.7818608E-02  0.1235066E+00
         -4   -1    0    0    0  501 -0.00000000000E+00  0.00000000000E+00  0.29052384146E+02  0.29080129376E+02  0.12700000000E+01 0. -1.
          4   -1    0    0  501    0  0.00000000000E+00 -0.00000000000E+00 -0.13436431352E+03  0.13437031535E+03  0.12700000000E+01 0. -1.
         25    2    1    2    0    0  0.00000000000E+00  0.00000000000E+00 -0.10531192937E+03  0.16345044472E+03  0.12500178164E+03 0.  0.
    9000005    1    3    3    0    0 -0.59372445798E+02 -0.47859577479E+01 -0.77374806838E+02  0.97651694531E+02  0.10000000000E+01 0.  0.
    9000005    1    3    3    0    0  0.59372445798E+02  0.47859577479E+01 -0.27937122533E+02  0.65798750193E+02  0.10000000000E+01 0.  0.
<mgrwt>
<rscale>  0 0.12500178E+03</rscale>
<asrwt>0</asrwt>
<pdfrwt beam="2">  1        4 0.20674028E-01 0.12500178E+03</pdfrwt>
<pdfrwt beam="1">  1       -4 0.44721936E-02 0.12500178E+03</pdfrwt>
<totfact> 0.96677791E+03</totfact>
</mgrwt>
</event>
<event>
 5    1  0.3234540E-002  0.1249979E+03  0.7818608E-02  0.1235073E+00
          4   -1    0    0  501    0  0.00000000000E+00  0.00000000000E+00  0.61138852118E+02  0.61152041162E+02  0.12700000000E+01 0.  1.
         -4   -1    0    0    0  501 -0.00000000000E+00 -0.00000000000E+00 -0.63862893041E+02  0.63875519627E+02  0.12700000000E+01 0.  1.
         25    2    1    2    0    0  0.00000000000E+00  0.00000000000E+00 -0.27240409235E+01  0.12502756079E+03  0.12499788221E+03 0.  0.
    9000005    1    3    3    0    0  0.10836815201E+02  0.41703389335E+02  0.43909176504E+02  0.61527433125E+02  0.10000000000E+01 0.  0.
    9000005    1    3    3    0    0 -0.10836815201E+02 -0.41703389335E+02 -0.46633217427E+02  0.63500127664E+02  0.10000000000E+01 0.  0.
<mgrwt>
<rscale>  0 0.12499788E+03</rscale>
<asrwt>0</asrwt>
<pdfrwt beam="1">  1        4 0.94079632E-02 0.12499788E+03</pdfrwt>
<pdfrwt beam="2">  1       -4 0.98270462E-02 0.12499788E+03</pdfrwt>
<totfact> 0.10452764E+04</totfact>
</mgrwt>
</event>
<event>
 5    1  0.3234540E-002  0.1250006E+03  0.7818608E-02  0.1235068E+00
         -4   -1    0    0    0  501 -0.00000000000E+00  0.00000000000E+00  0.20193035642E+03  0.20193435008E+03  0.12700000000E+01 0.  1.
          4   -1    0    0  501    0  0.00000000000E+00 -0.00000000000E+00 -0.19319690638E+02  0.19361388028E+02  0.12700000000E+01 0.  1.
         25    2    1    2    0    0  0.00000000000E+00  0.00000000000E+00  0.18261066578E+03  0.22129573811E+03  0.12500059380E+03 0.  0.
    9000005    1    3    3    0    0  0.29554986692E+02 -0.51283627034E+02  0.12679115294E+03  0.13993035448E+03  0.10000000000E+01 0.  0.
    9000005    1    3    3    0    0 -0.29554986692E+02  0.51283627034E+02  0.55819512839E+02  0.81365383633E+02  0.10000000000E+01 0.  0.
<mgrwt>
<rscale>  0 0.12500059E+03</rscale>
<asrwt>0</asrwt>
<pdfrwt beam="2">  1        4 0.29757749E-02 0.12500059E+03</pdfrwt>
<pdfrwt beam="1">  1       -4 0.31069722E-01 0.12500059E+03</pdfrwt>
<totfact> 0.86662582E+03</totfact>
</mgrwt>
</event>
<event>
 5    1  0.3234540E-002  0.1249961E+03  0.7818608E-02  0.1235075E+00
         -4   -1    0    0    0  501 -0.00000000000E+00  0.00000000000E+00  0.16265769340E+01  0.20636502907E+01  0.12700000000E+01 0.  1.
          4   -1    0    0  501    0  0.00000000000E+00 -0.00000000000E+00 -0.21165076768E+04  0.21165080578E+04  0.12700000000E+01 0.  1.
         25    2    1    2    0    0  0.00000000000E+00  0.00000000000E+00 -0.21148810999E+04  0.21185717081E+04  0.12499606343E+03 0.  0.
    9000005    1    3    3    0    0  0.24207296706E+02 -0.52827538608E+02 -0.66788312630E+03  0.67040704982E+03  0.10000000000E+01 0.  0.
    9000005    1    3    3    0    0 -0.24207296706E+02  0.52827538608E+02 -0.14469979736E+04  0.14481646583E+04  0.10000000000E+01 0.  0.
<mgrwt>
<rscale>  0 0.12499606E+03</rscale>
<asrwt>0</asrwt>
<pdfrwt beam="2">  1        4 0.32564827E+00 0.12499606E+03</pdfrwt>
<pdfrwt beam="1">  1       -4 0.28389464E-03 0.12499606E+03</pdfrwt>
<totfact> 0.83928115E+02</totfact>
</mgrwt>
</event>
<event>
 5    1  0.3234540E-002  0.1249979E+03  0.7818608E-02  0.1235073E+00
          4   -1    0    0  501    0  0.00000000000E+00  0.00000000000E+00  0.38593383694E+02  0.38614274108E+02  0.12700000000E+01 0.  1.
         -4   -1    0    0    0  501 -0.00000000000E+00 -0.00000000000E+00 -0.10115981958E+03  0.10116779131E+03  0.12700000000E+01 0.  1.
         25    2    1    2    0    0  0.00000000000E+00  0.00000000000E+00 -0.62566435891E+02  0.13978206542E+03  0.12499786763E+03 0.  0.
    9000005    1    3    3    0    0 -0.47740681307E+02 -0.38431431332E+02 -0.44932098611E+02  0.76000270075E+02  0.10000000000E+01 0.  0.
    9000005    1    3    3    0    0  0.47740681307E+02  0.38431431332E+02 -0.17634337280E+02  0.63781795343E+02  0.10000000000E+01 0.  0.
<mgrwt>
<rscale>  0 0.12499787E+03</rscale>
<asrwt>0</asrwt>
<pdfrwt beam="1">  1        4 0.59396639E-02 0.12499787E+03</pdfrwt>
<pdfrwt beam="2">  1       -4 0.15565269E-01 0.12499787E+03</pdfrwt>
<totfact> 0.10138592E+04</totfact>
</mgrwt>
</event>
<event>
 5    1  0.3234540E-002  0.1250006E+03  0.7818608E-02  0.1235068E+00
         -4   -1    0    0    0  501 -0.00000000000E+00  0.00000000000E+00  0.27269325415E+02  0.27298882919E+02  0.12700000000E+01 0. -1.
          4   -1    0    0  501    0  0.00000000000E+00 -0.00000000000E+00 -0.14313845996E+03  0.14314409390E+03  0.12700000000E+01 0. -1.
         25    2    1    2    0    0  0.00000000000E+00  0.00000000000E+00 -0.11586913454E+03  0.17044297682E+03  0.12500060803E+03 0.  0.
    9000005    1    3    3    0    0 -0.58732960059E+02  0.21035123563E+02 -0.52971033191E+02  0.81847219732E+02  0.10000000000E+01 0.  0.
    9000005    1    3    3    0    0  0.58732960059E+02 -0.21035123563E+02 -0.62898101352E+02  0.88595757090E+02  0.10000000000E+01 0.  0.
<mgrwt>
<rscale>  0 0.12500061E+03</rscale>
<asrwt>0</asrwt>
<pdfrwt beam="2">  1        4 0.22024008E-01 0.12500061E+03</pdfrwt>
<pdfrwt beam="1">  1       -4 0.41979879E-02 0.12500061E+03</pdfrwt>
<totfact> 0.95364835E+03</totfact>
</mgrwt>
</event>
<event>
 5    1  0.3234540E-002  0.1250005E+03  0.7818608E-02  0.1235068E+00
         -4   -1    0    0    0  501 -0.00000000000E+00  0.00000000000E+00  0.62609475686E+01  0.63884555612E+01  0.12700000000E+01 0. -1.
          4   -1    0    0  501    0  0.00000000000E+00 -0.00000000000E+00 -0.61749510075E+03  0.61749640675E+03  0.12700000000E+01 0. -1.
         25    2    1    2    0    0  0.00000000000E+00  0.00000000000E+00 -0.61123415318E+03  0.62388486231E+03  0.12500052563E+03 0.  0.
    9000005    1    3    3    0    0 -0.17248385999E+02  0.12847215833E+00 -0.60540311294E+03  0.60564961197E+03  0.10000000000E+01 0.  0.
    9000005    1    3    3    0    0  0.17248385999E+02 -0.12847215833E+00 -0.58310402410E+01  0.18235250339E+02  0.10000000000E+01 0.  0.
<mgrwt>
<rscale>  0 0.12500053E+03</rscale>
<asrwt>0</asrwt>
<pdfrwt beam="2">  1        4 0.95009107E-01 0.12500053E+03</pdfrwt>
<pdfrwt beam="1">  1       -4 0.97313196E-03 0.12500053E+03</pdfrwt>
<totfact> 0.47393295E+03</totfact>
</mgrwt>
</event>
<event>
 5    1  0.3234540E-002  0.1250008E+03  0.7818608E-02  0.1235068E+00
         -4   -1    0    0    0  501 -0.00000000000E+00  0.00000000000E+00  0.16442422699E+03  0.16442913161E+03  0.12700000000E+01 0.  1.
          4   -1    0    0  501    0  0.00000000000E+00 -0.00000000000E+00 -0.23735221265E+02  0.23769173913E+02  0.12700000000E+01 0.  1.
         25    2    1    2    0    0  0.00000000000E+00  0.00000000000E+00  0.14068900573E+03  0.18819830553E+03  0.12500082347E+03 0.  0.
    9000005    1    3    3    0    0 -0.33229775950E+01  0.10805776821E+02 -0.22190225344E+02  0.24924146798E+02  0.10000000000E+01 0.  0.
    9000005    1    3    3    0    0  0.33229775950E+01 -0.10805776821E+02  0.16287923107E+03  0.16327415873E+03  0.10000000000E+01 0.  0.
<mgrwt>
<rscale>  0 0.12500082E+03</rscale>
<asrwt>0</asrwt>
<pdfrwt beam="2">  1        4 0.36545614E-02 0.12500082E+03</pdfrwt>
<pdfrwt beam="1">  1       -4 0.25299025E-01 0.12500082E+03</pdfrwt>
<totfact> 0.92160050E+03</totfact>
</mgrwt>
</event>
<event>
 5    1  0.3234540E-002  0.1250034E+03  0.7818608E-02  0.1235064E+00
          4   -1    0    0  501    0  0.00000000000E+00  0.00000000000E+00  0.18007166275E+03  0.18007614119E+03  0.12700000000E+01 0. -1.
         -4   -1    0    0    0  501 -0.00000000000E+00 -0.00000000000E+00 -0.21670599109E+02  0.21707781226E+02  0.12700000000E+01 0. -1.
         25    2    1    2    0    0  0.00000000000E+00  0.00000000000E+00  0.15840106364E+03  0.20178392242E+03  0.12500341749E+03 0.  0.
    9000005    1    3    3    0    0 -0.48202969030E+02 -0.21744921749E+02  0.13295928581E+03  0.14309276547E+03  0.10000000000E+01 0.  0.
    9000005    1    3    3    0    0  0.48202969030E+02  0.21744921749E+02  0.25441777833E+02  0.58691156953E+02  0.10000000000E+01 0.  0.
<mgrwt>
<rscale>  0 0.12500342E+03</rscale>
<asrwt>0</asrwt>
<pdfrwt beam="1">  1        4 0.27706537E-01 0.12500342E+03</pdfrwt>
<pdfrwt beam="2">  1       -4 0.33371430E-02 0.12500342E+03</pdfrwt>
<totfact> 0.89828634E+03</totfact>
</mgrwt>
</event>
<event>
 5    1  0.3234540E-002  0.1250020E+03  0.7818608E-02  0.1235066E+00
         -4   -1    0    0    0  501 -0.00000000000E+00  0.00000000000E+00  0.51845721091E+03  0.51845876639E+03  0.12700000000E+01 0.  1.
          4   -1    0    0  501    0  0.00000000000E+00 -0.00000000000E+00 -0.74795137623E+01  0.75865687976E+01  0.12700000000E+01 0.  1.
         25    2    1    2    0    0  0.00000000000E+00  0.00000000000E+00  0.51097769715E+03  0.52604533519E+03  0.12500195074E+03 0.  0.
    9000005    1    3    3    0    0 -0.50831365833E+02 -0.23590497910E+02  0.13909062617E+03  0.14995846635E+03  0.10000000000E+01 0.  0.
    9000005    1    3    3    0    0  0.50831365833E+02  0.23590497910E+02  0.37188707098E+03  0.37608686883E+03  0.10000000000E+01 0.  0.
<mgrwt>
<rscale>  0 0.12500195E+03</rscale>
<asrwt>0</asrwt>
<pdfrwt beam="2">  1        4 0.11590488E-02 0.12500195E+03</pdfrwt>
<pdfrwt beam="1">  1       -4 0.79771020E-01 0.12500195E+03</pdfrwt>
<totfact> 0.53896400E+03</totfact>
</mgrwt>
</event>
<event>
 5    1  0.3234540E-002  0.1249988E+03  0.7818608E-02  0.1235071E+00
          4   -1    0    0  501    0  0.00000000000E+00  0.00000000000E+00  0.10575256076E+02  0.10651241292E+02  0.12700000000E+01 0.  1.
         -4   -1    0    0    0  501 -0.00000000000E+00 -0.00000000000E+00 -0.36796980411E+03  0.36797199572E+03  0.12700000000E+01 0.  1.
         25    2    1    2    0    0  0.00000000000E+00  0.00000000000E+00 -0.35739454803E+03  0.37862323701E+03  0.12499877057E+03 0.  0.
    9000005    1    3    3    0    0  0.46601273951E+02  0.49560683678E+01 -0.53480102351E+02  0.71115136891E+02  0.10000000000E+01 0.  0.
    9000005    1    3    3    0    0 -0.46601273951E+02 -0.49560683678E+01 -0.30391444568E+03  0.30750810012E+03  0.10000000000E+01 0.  0.
<mgrwt>
<rscale>  0 0.12499877E+03</rscale>
<asrwt>0</asrwt>
<pdfrwt beam="1">  1        4 0.16329764E-02 0.12499877E+03</pdfrwt>
<pdfrwt beam="2">  1       -4 0.56616743E-01 0.12499877E+03</pdfrwt>
<totfact> 0.66688148E+03</totfact>
</mgrwt>
</event>
<event>
 5    1  0.3234540E-002  0.1250080E+03  0.7818608E-02  0.1235057E+00
         -4   -1    0    0    0  501 -0.00000000000E+00  0.00000000000E+00  0.29161303610E+01  0.31806785883E+01  0.12700000000E+01 0.  1.
          4   -1    0    0  501    0  0.00000000000E+00 -0.00000000000E+00 -0.12813079062E+04  0.12813085356E+04  0.12700000000E+01 0.  1.
         25    2    1    2    0    0  0.00000000000E+00  0.00000000000E+00 -0.12783917759E+04  0.12844892142E+04  0.12500803503E+03 0.  0.
    9000005    1    3    3    0    0  0.45323539767E+02  0.20651777913E+02 -0.10270826845E+04  0.10282901147E+04  0.10000000000E+01 0.  0.
    9000005    1    3    3    0    0 -0.45323539767E+02 -0.20651777913E+02 -0.25130909140E+03  0.25619909955E+03  0.10000000000E+01 0.  0.
<mgrwt>
<rscale>  0 0.12500804E+03</rscale>
<asrwt>0</asrwt>
<pdfrwt beam="2">  1        4 0.19714426E+00 0.12500804E+03</pdfrwt>
<pdfrwt beam="1">  1       -4 0.46903474E-03 0.12500804E+03</pdfrwt>
<totfact> 0.22593688E+03</totfact>
</mgrwt>
</event>
<event>
 5    1  0.3234540E-002  0.1250019E+03  0.7818608E-02  0.1235066E+00
         -4   -1    0    0    0  501 -0.00000000000E+00  0.00000000000E+00  0.82572028228E+01  0.83542982025E+01  0.12700000000E+01 0. -1.
          4   -1    0    0  501    0  0.00000000000E+00 -0.00000000000E+00 -0.47022275315E+03  0.47022446819E+03  0.12700000000E+01 0. -1.
         25    2    1    2    0    0  0.00000000000E+00  0.00000000000E+00 -0.46196555033E+03  0.47857876639E+03  0.12500186378E+03 0.  0.
    9000005    1    3    3    0    0 -0.38240952143E+02 -0.13130131042E+02 -0.41341722253E+03  0.41539086491E+03  0.10000000000E+01 0.  0.
    9000005    1    3    3    0    0  0.38240952143E+02  0.13130131042E+02 -0.48548327800E+02  0.63187901486E+02  0.10000000000E+01 0.  0.
<mgrwt>
<rscale>  0 0.12500186E+03</rscale>
<asrwt>0</asrwt>
<pdfrwt beam="2">  1        4 0.72349542E-01 0.12500186E+03</pdfrwt>
<pdfrwt beam="1">  1       -4 0.12779401E-02 0.12500186E+03</pdfrwt>
<totfact> 0.57563206E+03</totfact>
</mgrwt>
</event>
<event>
 5    1  0.3234540E-002  0.1249969E+03  0.7818608E-02  0.1235074E+00
         -4   -1    0    0    0  501 -0.00000000000E+00  0.00000000000E+00  0.36991352492E+03  0.36991570502E+03  0.12700000000E+01 0. -1.
          4   -1    0    0  501    0  0.00000000000E+00 -0.00000000000E+00 -0.10518968231E+02  0.10595357127E+02  0.12700000000E+01 0. -1.
         25    2    1    2    0    0  0.00000000000E+00  0.00000000000E+00  0.35939455669E+03  0.38051106214E+03  0.12499688411E+03 0.  0.
    9000005    1    3    3    0    0  0.59681423029E+01 -0.37657114679E+02  0.28976452822E+02  0.47898975215E+02  0.10000000000E+01 0.  0.
    9000005    1    3    3    0    0 -0.59681423029E+01  0.37657114679E+02  0.33041810386E+03  0.33261208693E+03  0.10000000000E+01 0.  0.
<mgrwt>
<rscale>  0 0.12499688E+03</rscale>
<asrwt>0</asrwt>
<pdfrwt beam="2">  1        4 0.16243464E-02 0.12499688E+03</pdfrwt>
<pdfrwt beam="1">  1       -4 0.56915821E-01 0.12499688E+03</pdfrwt>
<totfact> 0.66498007E+03</totfact>
</mgrwt>
</event>
<event>
 5    1  0.3234540E-002  0.1249952E+03  0.7818608E-02  0.1235077E+00
          4   -1    0    0  501    0  0.00000000000E+00  0.00000000000E+00  0.93136324846E+01  0.93998218099E+01  0.12700000000E+01 0.  1.
         -4   -1    0    0    0  501 -0.00000000000E+00 -0.00000000000E+00 -0.41736092818E+03  0.41736286043E+03  0.12700000000E+01 0.  1.
         25    2    1    2    0    0  0.00000000000E+00  0.00000000000E+00 -0.40804729569E+03  0.42676268224E+03  0.12499516564E+03 0.  0.
    9000005    1    3    3    0    0  0.15013671505E+02  0.52167041325E+02 -0.30970712630E+03  0.31443014267E+03  0.10000000000E+01 0.  0.
    9000005    1    3    3    0    0 -0.15013671505E+02 -0.52167041325E+02 -0.98340169387E+02  0.11233253958E+03  0.10000000000E+01 0.  0.
<mgrwt>
<rscale>  0 0.12499517E+03</rscale>
<asrwt>0</asrwt>
<pdfrwt beam="1">  1        4 0.14396454E-02 0.12499517E+03</pdfrwt>
<pdfrwt beam="2">  1       -4 0.64216138E-01 0.12499517E+03</pdfrwt>
<totfact> 0.62037154E+03</totfact>
</mgrwt>
</event>
<event>
 5    1  0.3234540E-002  0.1249975E+03  0.7818608E-02  0.1235073E+00
          4   -1    0    0  501    0  0.00000000000E+00  0.00000000000E+00  0.12043487904E+03  0.12044157501E+03  0.12700000000E+01 0. -1.
         -4   -1    0    0    0  501 -0.00000000000E+00 -0.00000000000E+00 -0.32413192483E+02  0.32438063242E+02  0.12700000000E+01 0. -1.
         25    2    1    2    0    0  0.00000000000E+00  0.00000000000E+00  0.88021686562E+02  0.15287963825E+03  0.12499746592E+03 0.  0.
    9000005    1    3    3    0    0  0.48785781922E+02  0.37128855568E+02  0.58813792834E+02  0.84962736897E+02  0.10000000000E+01 0.  0.
    9000005    1    3    3    0    0 -0.48785781922E+02 -0.37128855568E+02  0.29207893728E+02  0.67916901354E+02  0.10000000000E+01 0.  0.
<mgrwt>
<rscale>  0 0.12499747E+03</rscale>
<asrwt>0</asrwt>
<pdfrwt beam="1">  1        4 0.18530871E-01 0.12499747E+03</pdfrwt>
<pdfrwt beam="2">  1       -4 0.49890732E-02 0.12499747E+03</pdfrwt>
<totfact> 0.98738381E+03</totfact>
</mgrwt>
</event>
<event>
 5    1  0.3234540E-002  0.1250028E+03  0.7818608E-02  0.1235065E+00
          4   -1    0    0  501    0  0.00000000000E+00  0.00000000000E+00  0.43179398797E+02  0.43198071490E+02  0.12700000000E+01 0. -1.
         -4   -1    0    0    0  501 -0.00000000000E+00 -0.00000000000E+00 -0.90426989075E+02  0.90435906879E+02  0.12700000000E+01 0. -1.
         25    2    1    2    0    0  0.00000000000E+00  0.00000000000E+00 -0.47247590278E+02  0.13363397837E+03  0.12500282152E+03 0.  0.
    9000005    1    3    3    0    0 -0.22309044277E+02  0.32434995729E+02 -0.75510660724E+02  0.85162094194E+02  0.10000000000E+01 0.  0.
    9000005    1    3    3    0    0  0.22309044277E+02 -0.32434995729E+02  0.28263070446E+02  0.48471884176E+02  0.10000000000E+01 0.  0.
<mgrwt>
<rscale>  0 0.12500282E+03</rscale>
<asrwt>0</asrwt>
<pdfrwt beam="1">  1        4 0.66451068E-02 0.12500282E+03</pdfrwt>
<pdfrwt beam="2">  1       -4 0.13913967E-01 0.12500282E+03</pdfrwt>
<totfact> 0.10266291E+04</totfact>
</mgrwt>
</event>
<event>
 5    1  0.3234540E-002  0.1250023E+03  0.7818608E-02  0.1235066E+00
          4   -1    0    0  501    0  0.00000000000E+00  0.00000000000E+00  0.38181775106E+02  0.38202890601E+02  0.12700000000E+01 0. -1.
         -4   -1    0    0    0  501 -0.00000000000E+00 -0.00000000000E+00 -0.10225705320E+03  0.10226493940E+03  0.12700000000E+01 0. -1.
         25    2    1    2    0    0  0.00000000000E+00  0.00000000000E+00 -0.64075278097E+02  0.14046783000E+03  0.12500227998E+03 0.  0.
    9000005    1    3    3    0    0 -0.18918715189E+01 -0.40112455230E+02 -0.85845091265E+02  0.94778520439E+02  0.10000000000E+01 0.  0.
    9000005    1    3    3    0    0  0.18918715189E+01  0.40112455230E+02  0.21769813168E+02  0.45689309557E+02  0.10000000000E+01 0.  0.
<mgrwt>
<rscale>  0 0.12500228E+03</rscale>
<asrwt>0</asrwt>
<pdfrwt beam="1">  1        4 0.58763502E-02 0.12500228E+03</pdfrwt>
<pdfrwt beam="2">  1       -4 0.15734085E-01 0.12500228E+03</pdfrwt>
<totfact> 0.10123379E+04</totfact>
</mgrwt>
</event>
<event>
 5    1  0.3234540E-002  0.1250000E+03  0.7818608E-02  0.1235069E+00
          4   -1    0    0  501    0  0.00000000000E+00  0.00000000000E+00  0.92335614991E+03  0.92335702330E+03  0.12700000000E+01 0. -1.
         -4   -1    0    0    0  501 -0.00000000000E+00 -0.00000000000E+00 -0.41342796317E+01  0.43249471758E+01  0.12700000000E+01 0. -1.
         25    2    1    2    0    0  0.00000000000E+00  0.00000000000E+00  0.91922187028E+03  0.92768197048E+03  0.12499996619E+03 0.  0.
    9000005    1    3    3    0    0 -0.26880490948E+02  0.43505164452E+01  0.42173884873E+02  0.50210799160E+02  0.10000000000E+01 0.  0.
    9000005    1    3    3    0    0  0.26880490948E+02 -0.43505164452E+01  0.87704798541E+03  0.87747117132E+03  0.10000000000E+01 0.  0.
<mgrwt>
<rscale>  0 0.12499997E+03</rscale>
<asrwt>0</asrwt>
<pdfrwt beam="1">  1        4 0.14206965E+00 0.12499997E+03</pdfrwt>
<pdfrwt beam="2">  1       -4 0.65077637E-03 0.12499997E+03</pdfrwt>
<totfact> 0.33121827E+03</totfact>
</mgrwt>
</event>
<event>
 5    1  0.3234540E-002  0.1250013E+03  0.7818608E-02  0.1235067E+00
         -4   -1    0    0    0  501 -0.00000000000E+00  0.00000000000E+00  0.58183818521E+02  0.58197677254E+02  0.12700000000E+01 0. -1.
          4   -1    0    0  501    0  0.00000000000E+00 -0.00000000000E+00 -0.67109850960E+02  0.67121866749E+02  0.12700000000E+01 0. -1.
         25    2    1    2    0    0  0.00000000000E+00  0.00000000000E+00 -0.89260324392E+01  0.12531954400E+03  0.12500125621E+03 0.  0.
    9000005    1    3    3    0    0 -0.19573817720E+02  0.51901141852E+02  0.24393352659E+02  0.60604443068E+02  0.10000000000E+01 0.  0.
    9000005    1    3    3    0    0  0.19573817720E+02 -0.51901141852E+02 -0.33319385098E+02  0.64715100935E+02  0.10000000000E+01 0.  0.
<mgrwt>
<rscale>  0 0.12500126E+03</rscale>
<asrwt>0</asrwt>
<pdfrwt beam="2">  1        4 0.10326583E-01 0.12500126E+03</pdfrwt>
<pdfrwt beam="1">  1       -4 0.89533470E-02 0.12500126E+03</pdfrwt>
<totfact> 0.10445629E+04</totfact>
</mgrwt>
</event>
<event>
 5    1  0.3234540E-002  0.1249839E+03  0.7818608E-02  0.1235095E+00
         -4   -1    0    0    0  501 -0.00000000000E+00  0.00000000000E+00  0.10638329277E+02  0.10713867174E+02  0.12700000000E+01 0.  1.
          4   -1    0    0  501    0  0.00000000000E+00 -0.00000000000E+00 -0.36571629704E+03  0.36571850216E+03  0.12700000000E+01 0.  1.
         25    2    1    2    0    0  0.00000000000E+00  0.00000000000E+00 -0.35507796776E+03  0.37643236933E+03  0.12498386092E+03 0.  0.
    9000005    1    3    3    0    0 -0.38414492089E+02 -0.14118845496E+02 -0.35335541118E+02  0.54079714003E+02  0.10000000000E+01 0.  0.
    9000005    1    3    3    0    0  0.38414492089E+02  0.14118845496E+02 -0.31974242665E+03  0.32235265533E+03  0.10000000000E+01 0.  0.
<mgrwt>
<rscale>  0 0.12498386E+03</rscale>
<asrwt>0</asrwt>
<pdfrwt beam="2">  1        4 0.56270016E-01 0.12498386E+03</pdfrwt>
<pdfrwt beam="1">  1       -4 0.16426466E-02 0.12498386E+03</pdfrwt>
<totfact> 0.66935194E+03</totfact>
</mgrwt>
</event>
<event>
 5    1  0.3234540E-002  0.1249850E+03  0.7818608E-02  0.1235093E+00
         -4   -1    0    0    0  501 -0.00000000000E+00  0.00000000000E+00  0.33560205204E+03  0.33560445502E+03  0.12700000000E+01 0. -1.
          4   -1    0    0  501    0  0.00000000000E+00 -0.00000000000E+00 -0.11599634438E+02  0.11668951071E+02  0.12700000000E+01 0. -1.
         25    2    1    2    0    0  0.00000000000E+00  0.00000000000E+00  0.32400241760E+03  0.34727340609E+03  0.12498500698E+03 0.  0.
    9000005    1    3    3    0    0  0.46839459423E+02  0.10593358664E+02  0.50924354713E+02  0.70003172141E+02  0.10000000000E+01 0.  0.
    9000005    1    3    3    0    0 -0.46839459423E+02 -0.10593358664E+02  0.27307806289E+03  0.27727023395E+03  0.10000000000E+01 0.  0.
<mgrwt>
<rscale>  0 0.12498501E+03</rscale>
<asrwt>0</asrwt>
<pdfrwt beam="2">  1        4 0.17900761E-02 0.12498501E+03</pdfrwt>
<pdfrwt beam="1">  1       -4 0.51636599E-01 0.12498501E+03</pdfrwt>
<totfact> 0.70048802E+03</totfact>
</mgrwt>
</event>
<event>
 5    1  0.3234540E-002  0.1249978E+03  0.7818608E-02  0.1235073E+00
         -4   -1    0    0    0  501 -0.00000000000E+00  0.00000000000E+00  0.76183087055E+01  0.77234401359E+01  0.12700000000E+01 0. -1.
          4   -1    0    0  501    0  0.00000000000E+00 -0.00000000000E+00 -0.50910727421E+03  0.50910885826E+03  0.12700000000E+01 0. -1.
         25    2    1    2    0    0  0.00000000000E+00  0.00000000000E+00 -0.50148896551E+03  0.51683229839E+03  0.12499776853E+03 0.  0.
    9000005    1    3    3    0    0 -0.35289320148E+02  0.26387520591E+01 -0.37783239162E+02  0.51777140617E+02  0.10000000000E+01 0.  0.
    9000005    1    3    3    0    0  0.35289320148E+02 -0.26387520591E+01 -0.46370572634E+03  0.46505515778E+03  0.10000000000E+01 0.  0.
<mgrwt>
<rscale>  0 0.12499777E+03</rscale>
<asrwt>0</asrwt>
<pdfrwt beam="2">  1        4 0.78332379E-01 0.12499777E+03</pdfrwt>
<pdfrwt beam="1">  1       -4 0.11802568E-02 0.12499777E+03</pdfrwt>
<totfact> 0.54584324E+03</totfact>
</mgrwt>
</event>
<event>
 5    1  0.3234540E-002  0.1250032E+03  0.7818608E-02  0.1235064E+00
          4   -1    0    0  501    0  0.00000000000E+00  0.00000000000E+00  0.75116816935E+02  0.75127552112E+02  0.12700000000E+01 0.  1.
         -4   -1    0    0    0  501 -0.00000000000E+00 -0.00000000000E+00 -0.51982806950E+02  0.51998318418E+02  0.12700000000E+01 0.  1.
         25    2    1    2    0    0  0.00000000000E+00  0.00000000000E+00  0.23134009985E+02  0.12712587053E+03  0.12500321812E+03 0.  0.
    9000005    1    3    3    0    0 -0.10061107870E+02 -0.28413678903E+01 -0.51092150257E+02  0.52160397630E+02  0.10000000000E+01 0.  0.
    9000005    1    3    3    0    0  0.10061107870E+02  0.28413678903E+01  0.74226160242E+02  0.74965472901E+02  0.10000000000E+01 0.  0.
<mgrwt>
<rscale>  0 0.12500322E+03</rscale>
<asrwt>0</asrwt>
<pdfrwt beam="1">  1        4 0.11558452E-01 0.12500322E+03</pdfrwt>
<pdfrwt beam="2">  1       -4 0.79993739E-02 0.12500322E+03</pdfrwt>
<totfact> 0.10405656E+04</totfact>
</mgrwt>
</event>
<event>
 5    1  0.3234540E-002  0.1250036E+03  0.7818608E-02  0.1235064E+00
          4   -1    0    0  501    0  0.00000000000E+00  0.00000000000E+00  0.76591315282E+02  0.76601843820E+02  0.12700000000E+01 0.  1.
         -4   -1    0    0    0  501 -0.00000000000E+00 -0.00000000000E+00 -0.50982201203E+02  0.50998017016E+02  0.12700000000E+01 0.  1.
         25    2    1    2    0    0  0.00000000000E+00  0.00000000000E+00  0.25609114079E+02  0.12759986084E+03  0.12500359099E+03 0.  0.
    9000005    1    3    3    0    0 -0.39353951477E+02 -0.48310379533E+02  0.79253027838E+01  0.62820670895E+02  0.10000000000E+01 0.  0.
    9000005    1    3    3    0    0  0.39353951477E+02  0.48310379533E+02  0.17683811295E+02  0.64779189941E+02  0.10000000000E+01 0.  0.
<mgrwt>
<rscale>  0 0.12500359E+03</rscale>
<asrwt>0</asrwt>
<pdfrwt beam="1">  1        4 0.11785306E-01 0.12500359E+03</pdfrwt>
<pdfrwt beam="2">  1       -4 0.78454421E-02 0.12500359E+03</pdfrwt>
<totfact> 0.10395296E+04</totfact>
</mgrwt>
</event>
<event>
 5    1  0.3234540E-002  0.1250147E+03  0.7818608E-02  0.1235046E+00
          4   -1    0    0  501    0  0.00000000000E+00  0.00000000000E+00  0.17062233345E+03  0.17062705991E+03  0.12700000000E+01 0.  1.
         -4   -1    0    0    0  501 -0.00000000000E+00 -0.00000000000E+00 -0.22876860027E+02  0.22912084687E+02  0.12700000000E+01 0.  1.
         25    2    1    2    0    0  0.00000000000E+00  0.00000000000E+00  0.14774547343E+03  0.19353914460E+03  0.12501470143E+03 0.  0.
    9000005    1    3    3    0    0 -0.91764385924E+01  0.13191133501E+02  0.16737723772E+03  0.16814979255E+03  0.10000000000E+01 0.  0.
    9000005    1    3    3    0    0  0.91764385924E+01 -0.13191133501E+02 -0.19631764290E+02  0.25389352048E+02  0.10000000000E+01 0.  0.
<mgrwt>
<rscale>  0 0.12501470E+03</rscale>
<asrwt>0</asrwt>
<pdfrwt beam="1">  1        4 0.26252663E-01 0.12501470E+03</pdfrwt>
<pdfrwt beam="2">  1       -4 0.35225901E-02 0.12501470E+03</pdfrwt>
<totfact> 0.91205108E+03</totfact>
</mgrwt>
</event>
<event>
 5    1  0.3234540E-002  0.1250003E+03  0.7818608E-02  0.1235069E+00
          4   -1    0    0  501    0  0.00000000000E+00  0.00000000000E+00  0.21330427748E+03  0.21330805820E+03  0.12700000000E+01 0. -1.
         -4   -1    0    0    0  501 -0.00000000000E+00 -0.00000000000E+00 -0.18287177109E+02  0.18331223271E+02  0.12700000000E+01 0. -1.
         25    2    1    2    0    0  0.00000000000E+00  0.00000000000E+00  0.19501710037E+03  0.23163928147E+03  0.12500034913E+03 0.  0.
    9000005    1    3    3    0    0 -0.50354812069E+01  0.17802675090E+02 -0.13104840815E+02  0.22694231958E+02  0.10000000000E+01 0.  0.
    9000005    1    3    3    0    0  0.50354812069E+01 -0.17802675090E+02  0.20812194119E+03  0.20894504951E+03  0.10000000000E+01 0.  0.
<mgrwt>
<rscale>  0 0.12500035E+03</rscale>
<asrwt>0</asrwt>
<pdfrwt beam="1">  1        4 0.32819721E-01 0.12500035E+03</pdfrwt>
<pdfrwt beam="2">  1       -4 0.28170909E-02 0.12500035E+03</pdfrwt>
<totfact> 0.85057855E+03</totfact>
</mgrwt>
</event>
<event>
 5    1  0.3234540E-002  0.1250041E+03  0.7818608E-02  0.1235063E+00
         -4   -1    0    0    0  501 -0.00000000000E+00  0.00000000000E+00  0.22455719019E+03  0.22456078146E+03  0.12700000000E+01 0.  1.
          4   -1    0    0  501    0  0.00000000000E+00 -0.00000000000E+00 -0.17369569239E+02  0.17415936253E+02  0.12700000000E+01 0.  1.
         25    2    1    2    0    0  0.00000000000E+00  0.00000000000E+00  0.20718762096E+03  0.24197671771E+03  0.12500408648E+03 0.  0.
    9000005    1    3    3    0    0 -0.41651285506E+02 -0.43536279847E+02  0.71477373220E+02  0.93489315591E+02  0.10000000000E+01 0.  0.
    9000005    1    3    3    0    0  0.41651285506E+02  0.43536279847E+02  0.13571024774E+03  0.14848740212E+03  0.10000000000E+01 0.  0.
<mgrwt>
<rscale>  0 0.12500409E+03</rscale>
<asrwt>0</asrwt>
<pdfrwt beam="2">  1        4 0.26760845E-02 0.12500409E+03</pdfrwt>
<pdfrwt beam="1">  1       -4 0.34551101E-01 0.12500409E+03</pdfrwt>
<totfact> 0.83496243E+03</totfact>
</mgrwt>
</event>
<event>
 5    1  0.3234540E-002  0.1249967E+03  0.7818608E-02  0.1235074E+00
         -4   -1    0    0    0  501 -0.00000000000E+00  0.00000000000E+00  0.56842034049E+01  0.58243513242E+01  0.12700000000E+01 0.  1.
          4   -1    0    0  501    0  0.00000000000E+00 -0.00000000000E+00 -0.67866645044E+03  0.67866763872E+03  0.12700000000E+01 0.  1.
         25    2    1    2    0    0  0.00000000000E+00  0.00000000000E+00 -0.67298224703E+03  0.68449199005E+03  0.12499671843E+03 0.  0.
    9000005    1    3    3    0    0 -0.24073770414E+02  0.57353914550E+02 -0.36935990596E+03  0.37456208840E+03  0.10000000000E+01 0.  0.
    9000005    1    3    3    0    0  0.24073770414E+02 -0.57353914550E+02 -0.30362234108E+03  0.30992990165E+03  0.10000000000E+01 0.  0.
<mgrwt>
<rscale>  0 0.12499672E+03</rscale>
<asrwt>0</asrwt>
<pdfrwt beam="2">  1        4 0.10442103E+00 0.12499672E+03</pdfrwt>
<pdfrwt beam="1">  1       -4 0.88536538E-03 0.12499672E+03</pdfrwt>
<totfact> 0.43921259E+03</totfact>
</mgrwt>
</event>
<event>
 5    1  0.3234540E-002  0.1250003E+03  0.7818608E-02  0.1235069E+00
         -4   -1    0    0    0  501 -0.00000000000E+00  0.00000000000E+00  0.51860610086E+02  0.51876158093E+02  0.12700000000E+01 0. -1.
          4   -1    0    0  501    0  0.00000000000E+00 -0.00000000000E+00 -0.75290234629E+02  0.75300945083E+02  0.12700000000E+01 0. -1.
         25    2    1    2    0    0  0.00000000000E+00  0.00000000000E+00 -0.23429624542E+02  0.12717710318E+03  0.12500027306E+03 0.  0.
    9000005    1    3    3    0    0 -0.79144089135E+01 -0.21229991548E+02 -0.70969205198E+02  0.74504889074E+02  0.10000000000E+01 0.  0.
    9000005    1    3    3    0    0  0.79144089135E+01  0.21229991548E+02  0.47539580655E+02  0.52672214102E+02  0.10000000000E+01 0.  0.
<mgrwt>
<rscale>  0 0.12500027E+03</rscale>
<asrwt>0</asrwt>
<pdfrwt beam="2">  1        4 0.11585133E-01 0.12500027E+03</pdfrwt>
<pdfrwt beam="1">  1       -4 0.79805753E-02 0.12500027E+03</pdfrwt>
<totfact> 0.10405236E+04</totfact>
</mgrwt>
</event>
<event>
 5    1  0.3234540E-002  0.1250030E+03  0.7818608E-02  0.1235065E+00
         -4   -1    0    0    0  501 -0.00000000000E+00  0.00000000000E+00  0.89598085157E+02  0.89607085455E+02  0.12700000000E+01 0.  1.
          4   -1    0    0  501    0  0.00000000000E+00 -0.00000000000E+00 -0.43579090359E+02  0.43597591866E+02  0.12700000000E+01 0.  1.
         25    2    1    2    0    0  0.00000000000E+00  0.00000000000E+00  0.46018994797E+02  0.13320467732E+03  0.12500295268E+03 0.  0.
    9000005    1    3    3    0    0 -0.25932888669E+02  0.29587696991E+00  0.83598079705E+02  0.87534228667E+02  0.10000000000E+01 0.  0.
    9000005    1    3    3    0    0  0.25932888669E+02 -0.29587696991E+00 -0.37579084907E+02  0.45670448655E+02  0.10000000000E+01 0.  0.
<mgrwt>
<rscale>  0 0.12500295E+03</rscale>
<asrwt>0</asrwt>
<pdfrwt beam="2">  1        4 0.67065910E-02 0.12500295E+03</pdfrwt>
<pdfrwt beam="1">  1       -4 0.13786436E-01 0.12500295E+03</pdfrwt>
<totfact> 0.10275367E+04</totfact>
</mgrwt>
</event>
<event>
 5    1  0.3234540E-002  0.1249979E+03  0.7818608E-02  0.1235073E+00
          4   -1    0    0  501    0  0.00000000000E+00  0.00000000000E+00  0.15619879682E+03  0.15620395971E+03  0.12700000000E+01 0. -1.
         -4   -1    0    0    0  501 -0.00000000000E+00 -0.00000000000E+00 -0.24985633881E+02  0.25017889608E+02  0.12700000000E+01 0. -1.
         25    2    1    2    0    0  0.00000000000E+00  0.00000000000E+00  0.13121316294E+03  0.18122184931E+03  0.12499785814E+03 0.  0.
    9000005    1    3    3    0    0 -0.57243415366E+02  0.22435787571E+02  0.81812136001E+02  0.10234451018E+03  0.10000000000E+01 0.  0.
    9000005    1    3    3    0    0  0.57243415366E+02 -0.22435787571E+02  0.49401026937E+02  0.78877339135E+02  0.10000000000E+01 0.  0.
<mgrwt>
<rscale>  0 0.12499786E+03</rscale>
<asrwt>0</asrwt>
<pdfrwt beam="1">  1        4 0.24033463E-01 0.12499786E+03</pdfrwt>
<pdfrwt beam="2">  1       -4 0.38468220E-02 0.12499786E+03</pdfrwt>
<totfact> 0.93402012E+03</totfact>
</mgrwt>
</event>
<event>
 5    1  0.3234540E-002  0.1250023E+03  0.7818608E-02  0.1235066E+00
          4   -1    0    0  501    0  0.00000000000E+00  0.00000000000E+00  0.12384515518E+02  0.12449462824E+02  0.12700000000E+01 0.  1.
         -4   -1    0    0    0  501 -0.00000000000E+00 -0.00000000000E+00 -0.31453435837E+03  0.31453692231E+03  0.12700000000E+01 0.  1.
         25    2    1    2    0    0  0.00000000000E+00  0.00000000000E+00 -0.30214984286E+03  0.32698638514E+03  0.12500227409E+03 0.  0.
    9000005    1    3    3    0    0  0.17006425478E+02 -0.58512777337E+02 -0.18736153731E+03  0.19702362621E+03  0.10000000000E+01 0.  0.
    9000005    1    3    3    0    0 -0.17006425478E+02  0.58512777337E+02 -0.11478830554E+03  0.12996275893E+03  0.10000000000E+01 0.  0.
<mgrwt>
<rscale>  0 0.12500227E+03</rscale>
<asrwt>0</asrwt>
<pdfrwt beam="1">  1        4 0.19105035E-02 0.12500227E+03</pdfrwt>
<pdfrwt beam="2">  1       -4 0.48395088E-01 0.12500227E+03</pdfrwt>
<totfact> 0.72329179E+03</totfact>
</mgrwt>
</event>
<event>
 5    1  0.3234540E-002  0.1249967E+03  0.7818608E-02  0.1235075E+00
          4   -1    0    0  501    0  0.00000000000E+00  0.00000000000E+00  0.28624240418E+01  0.31315126369E+01  0.12700000000E+01 0.  1.
         -4   -1    0    0    0  501 -0.00000000000E+00 -0.00000000000E+00 -0.13030613682E+04  0.13030619871E+04  0.12700000000E+01 0.  1.
         25    2    1    2    0    0  0.00000000000E+00  0.00000000000E+00 -0.13001989442E+04  0.13061934998E+04  0.12499665730E+03 0.  0.
    9000005    1    3    3    0    0 -0.48524766326E+02  0.32288799319E+02 -0.41461368870E+03  0.41869168891E+03  0.10000000000E+01 0.  0.
    9000005    1    3    3    0    0  0.48524766326E+02 -0.32288799319E+02 -0.88558525550E+03  0.88750181085E+03  0.10000000000E+01 0.  0.
<mgrwt>
<rscale>  0 0.12499666E+03</rscale>
<asrwt>0</asrwt>
<pdfrwt beam="1">  1        4 0.46112070E-03 0.12499666E+03</pdfrwt>
<pdfrwt beam="2">  1       -4 0.20049127E+00 0.12499666E+03</pdfrwt>
<totfact> 0.22084488E+03</totfact>
</mgrwt>
</event>
<event>
 5    1  0.3234540E-002  0.1249966E+03  0.7818608E-02  0.1235075E+00
          4   -1    0    0  501    0  0.00000000000E+00  0.00000000000E+00  0.86454760195E+02  0.86464087692E+02  0.12700000000E+01 0.  1.
         -4   -1    0    0    0  501 -0.00000000000E+00 -0.00000000000E+00 -0.45159468913E+02  0.45177323211E+02  0.12700000000E+01 0.  1.
         25    2    1    2    0    0  0.00000000000E+00  0.00000000000E+00  0.41295291282E+02  0.13164141090E+03  0.12499663988E+03 0.  0.
    9000005    1    3    3    0    0 -0.76712544806E+01  0.55487961224E+02 -0.85246472577E+01  0.56669494413E+02  0.10000000000E+01 0.  0.
    9000005    1    3    3    0    0  0.76712544806E+01 -0.55487961224E+02  0.49819938539E+02  0.74971916490E+02  0.10000000000E+01 0.  0.
<mgrwt>
<rscale>  0 0.12499664E+03</rscale>
<asrwt>0</asrwt>
<pdfrwt beam="1">  1        4 0.13302823E-01 0.12499664E+03</pdfrwt>
<pdfrwt beam="2">  1       -4 0.69497016E-02 0.12499664E+03</pdfrwt>
<totfact> 0.10310140E+04</totfact>
</mgrwt>
</event>
<event>
 5    1  0.3234540E-002  0.1249717E+03  0.7818608E-02  0.1235114E+00
          4   -1    0    0  501    0  0.00000000000E+00  0.00000000000E+00  0.84419794735E+02  0.84429347049E+02  0.12700000000E+01 0. -1.
         -4   -1    0    0    0  501 -0.00000000000E+00 -0.00000000000E+00 -0.46229889663E+02  0.46247330715E+02  0.12700000000E+01 0. -1.
         25    2    1    2    0    0  0.00000000000E+00  0.00000000000E+00  0.38189905073E+02  0.13067667776E+03  0.12497169784E+03 0.  0.
    9000005    1    3    3    0    0  0.10325211844E+02  0.60100903191E+02  0.33307825428E+02  0.69492012482E+02  0.10000000000E+01 0.  0.
    9000005    1    3    3    0    0 -0.10325211844E+02 -0.60100903191E+02  0.48820796441E+01  0.61184665282E+02  0.10000000000E+01 0.  0.
<mgrwt>
<rscale>  0 0.12497170E+03</rscale>
<asrwt>0</asrwt>
<pdfrwt beam="1">  1        4 0.12989737E-01 0.12497170E+03</pdfrwt>
<pdfrwt beam="2">  1       -4 0.71143672E-02 0.12497170E+03</pdfrwt>
<totfact> 0.10336625E+04</totfact>
</mgrwt>
</event>
<event>
 5    1  0.3234540E-002  0.1249990E+03  0.7818608E-02  0.1235071E+00
         -4   -1    0    0    0  501 -0.00000000000E+00  0.00000000000E+00  0.20881550121E+03  0.20881936319E+03  0.12700000000E+01 0.  1.
          4   -1    0    0  501    0  0.00000000000E+00 -0.00000000000E+00 -0.18680815721E+02  0.18723935911E+02  0.12700000000E+01 0.  1.
         25    2    1    2    0    0  0.00000000000E+00  0.00000000000E+00  0.19013468548E+03  0.22754329910E+03  0.12499901737E+03 0.  0.
    9000005    1    3    3    0    0  0.22834661708E+02 -0.83176622475E+01 -0.97352244034E+01  0.26198852547E+02  0.10000000000E+01 0.  0.
    9000005    1    3    3    0    0 -0.22834661708E+02  0.83176622475E+01  0.19986990989E+03  0.20134444656E+03  0.10000000000E+01 0.  0.
<mgrwt>
<rscale>  0 0.12499902E+03</rscale>
<asrwt>0</asrwt>
<pdfrwt beam="2">  1        4 0.28775858E-02 0.12499902E+03</pdfrwt>
<pdfrwt beam="1">  1       -4 0.32129074E-01 0.12499902E+03</pdfrwt>
<totfact> 0.85690138E+03</totfact>
</mgrwt>
</event>
<event>
 5    1  0.3234540E-002  0.1250001E+03  0.7818608E-02  0.1235069E+00
          4   -1    0    0  501    0  0.00000000000E+00  0.00000000000E+00  0.20093448346E+03  0.20093849692E+03  0.12700000000E+01 0.  1.
         -4   -1    0    0    0  501 -0.00000000000E+00 -0.00000000000E+00 -0.19415494507E+02  0.19456986585E+02  0.12700000000E+01 0.  1.
         25    2    1    2    0    0  0.00000000000E+00  0.00000000000E+00  0.18151898896E+03  0.22039548351E+03  0.12500010319E+03 0.  0.
    9000005    1    3    3    0    0 -0.36683913620E+02  0.35255746235E+02  0.26783679316E+02  0.57506892098E+02  0.10000000000E+01 0.  0.
    9000005    1    3    3    0    0  0.36683913620E+02 -0.35255746235E+02  0.15473530964E+03  0.16288859141E+03  0.10000000000E+01 0.  0.
<mgrwt>
<rscale>  0 0.12500010E+03</rscale>
<asrwt>0</asrwt>
<pdfrwt beam="1">  1        4 0.30916497E-01 0.12500010E+03</pdfrwt>
<pdfrwt beam="2">  1       -4 0.29904997E-02 0.12500010E+03</pdfrwt>
<totfact> 0.86805609E+03</totfact>
</mgrwt>
</event>
<event>
 5    1  0.3234540E-002  0.1250017E+03  0.7818608E-02  0.1235067E+00
         -4   -1    0    0    0  501 -0.00000000000E+00  0.00000000000E+00  0.15241931205E+02  0.15294749650E+02  0.12700000000E+01 0. -1.
          4   -1    0    0  501    0  0.00000000000E+00 -0.00000000000E+00 -0.25579245149E+03  0.25579560423E+03  0.12700000000E+01 0. -1.
         25    2    1    2    0    0  0.00000000000E+00  0.00000000000E+00 -0.24055052029E+03  0.27109035388E+03  0.12500170860E+03 0.  0.
    9000005    1    3    3    0    0 -0.52073550254E+02  0.28340861397E+02 -0.16313083951E+03  0.17357283733E+03  0.10000000000E+01 0.  0.
    9000005    1    3    3    0    0  0.52073550254E+02 -0.28340861397E+02 -0.77419680778E+02  0.97517516542E+02  0.10000000000E+01 0.  0.
<mgrwt>
<rscale>  0 0.12500171E+03</rscale>
<asrwt>0</asrwt>
<pdfrwt beam="2">  1        4 0.39356987E-01 0.12500171E+03</pdfrwt>
<pdfrwt beam="1">  1       -4 0.23492182E-02 0.12500171E+03</pdfrwt>
<totfact> 0.79371431E+03</totfact>
</mgrwt>
</event>
<event>
 5    1  0.3234540E-002  0.1249979E+03  0.7818608E-02  0.1235073E+00
         -4   -1    0    0    0  501 -0.00000000000E+00  0.00000000000E+00  0.50261305809E+02  0.50277348395E+02  0.12700000000E+01 0. -1.
          4   -1    0    0  501    0  0.00000000000E+00 -0.00000000000E+00 -0.77682619955E+02  0.77693000605E+02  0.12700000000E+01 0. -1.
         25    2    1    2    0    0  0.00000000000E+00  0.00000000000E+00 -0.27421314145E+02  0.12797034900E+03  0.12499792700E+03 0.  0.
    9000005    1    3    3    0    0 -0.61370026142E+02 -0.51715898224E+01 -0.24549917281E+02  0.66307796589E+02  0.10000000000E+01 0.  0.
    9000005    1    3    3    0    0  0.61370026142E+02  0.51715898224E+01 -0.28713968645E+01  0.61662552412E+02  0.10000000000E+01 0.  0.
<mgrwt>
<rscale>  0 0.12499793E+03</rscale>
<asrwt>0</asrwt>
<pdfrwt beam="2">  1        4 0.11953205E-01 0.12499793E+03</pdfrwt>
<pdfrwt beam="1">  1       -4 0.77345412E-02 0.12499793E+03</pdfrwt>
<totfact> 0.10388614E+04</totfact>
</mgrwt>
</event>
<event>
 5    1  0.3234540E-002  0.1250010E+03  0.7818608E-02  0.1235068E+00
          4   -1    0    0  501    0  0.00000000000E+00  0.00000000000E+00  0.15524082338E+03  0.15524601812E+03  0.12700000000E+01 0.  1.
         -4   -1    0    0    0  501 -0.00000000000E+00 -0.00000000000E+00 -0.25141263806E+02  0.25173320118E+02  0.12700000000E+01 0.  1.
         25    2    1    2    0    0  0.00000000000E+00  0.00000000000E+00  0.13009955957E+03  0.18041933824E+03  0.12500096884E+03 0.  0.
    9000005    1    3    3    0    0 -0.18797888546E+02 -0.39137463859E+02  0.17620314221E+00  0.43429629732E+02  0.10000000000E+01 0.  0.
    9000005    1    3    3    0    0  0.18797888546E+02  0.39137463859E+02  0.12992335643E+03  0.13698970851E+03  0.10000000000E+01 0.  0.
<mgrwt>
<rscale>  0 0.12500097E+03</rscale>
<asrwt>0</asrwt>
<pdfrwt beam="1">  1        4 0.23886069E-01 0.12500097E+03</pdfrwt>
<pdfrwt beam="2">  1       -4 0.38707522E-02 0.12500097E+03</pdfrwt>
<totfact> 0.93539543E+03</totfact>
</mgrwt>
</event>
<event>
 5    1  0.3234540E-002  0.1250008E+03  0.7818608E-02  0.1235068E+00
          4   -1    0    0  501    0  0.00000000000E+00  0.00000000000E+00  0.51921347266E+03  0.51921502587E+03  0.12700000000E+01 0. -1.
         -4   -1    0    0    0  501 -0.00000000000E+00 -0.00000000000E+00 -0.74683294523E+01  0.75755425421E+01  0.12700000000E+01 0. -1.
         25    2    1    2    0    0  0.00000000000E+00  0.00000000000E+00  0.51174514320E+03  0.52679056841E+03  0.12500084549E+03 0.  0.
    9000005    1    3    3    0    0 -0.43615613103E+01 -0.59097015419E+02  0.17224003972E+03  0.18215134293E+03  0.10000000000E+01 0.  0.
    9000005    1    3    3    0    0  0.43615613103E+01  0.59097015419E+02  0.33950510348E+03  0.34463922548E+03  0.10000000000E+01 0.  0.
<mgrwt>
<rscale>  0 0.12500085E+03</rscale>
<asrwt>0</asrwt>
<pdfrwt beam="1">  1        4 0.79887352E-01 0.12500085E+03</pdfrwt>
<pdfrwt beam="2">  1       -4 0.11573406E-02 0.12500085E+03</pdfrwt>
<totfact> 0.53843059E+03</totfact>
</mgrwt>
</event>
<event>
 5    1  0.3234540E-002  0.1250283E+03  0.7818608E-02  0.1235025E+00
         -4   -1    0    0    0  501 -0.00000000000E+00  0.00000000000E+00  0.23250034586E+03  0.23250381444E+03  0.12700000000E+01 0.  1.
          4   -1    0    0  501    0  0.00000000000E+00 -0.00000000000E+00 -0.16781078410E+02  0.16829066896E+02  0.12700000000E+01 0.  1.
         25    2    1    2    0    0  0.00000000000E+00  0.00000000000E+00  0.21571926745E+03  0.24933288133E+03  0.12502833024E+03 0.  0.
    9000005    1    3    3    0    0 -0.50567094085E+02  0.17974475743E+01  0.34675645868E+02  0.61348693861E+02  0.10000000000E+01 0.  0.
    9000005    1    3    3    0    0  0.50567094085E+02 -0.17974475743E+01  0.18104362159E+03  0.18798418747E+03  0.10000000000E+01 0.  0.
<mgrwt>
<rscale>  0 0.12502833E+03</rscale>
<asrwt>0</asrwt>
<pdfrwt beam="2">  1        4 0.25856626E-02 0.12502833E+03</pdfrwt>
<pdfrwt beam="1">  1       -4 0.35773242E-01 0.12502833E+03</pdfrwt>
<totfact> 0.82374742E+03</totfact>
</mgrwt>
</event>
<event>
 5    1  0.3234540E-002  0.1250015E+03  0.7818608E-02  0.1235067E+00
         -4   -1    0    0    0  501 -0.00000000000E+00  0.00000000000E+00  0.46556589286E+03  0.46556762504E+03  0.12700000000E+01 0. -1.
          4   -1    0    0  501    0  0.00000000000E+00 -0.00000000000E+00 -0.83407154309E+01  0.84368497616E+01  0.12700000000E+01 0. -1.
         25    2    1    2    0    0  0.00000000000E+00  0.00000000000E+00  0.45722517742E+03  0.47400447481E+03  0.12500151706E+03 0.  0.
    9000005    1    3    3    0    0  0.43508859027E+02 -0.44840134165E+02  0.23353687951E+03  0.24175221309E+03  0.10000000000E+01 0.  0.
    9000005    1    3    3    0    0 -0.43508859027E+02  0.44840134165E+02  0.22368829792E+03  0.23225226171E+03  0.10000000000E+01 0.  0.
<mgrwt>
<rscale>  0 0.12500152E+03</rscale>
<asrwt>0</asrwt>
<pdfrwt beam="2">  1        4 0.12907147E-02 0.12500152E+03</pdfrwt>
<pdfrwt beam="1">  1       -4 0.71633075E-01 0.12500152E+03</pdfrwt>
<totfact> 0.57937311E+03</totfact>
</mgrwt>
</event>
<event>
 5    1  0.3234540E-002  0.1249997E+03  0.7818608E-02  0.1235070E+00
          4   -1    0    0  501    0  0.00000000000E+00  0.00000000000E+00  0.46011976820E+03  0.46012152089E+03  0.12700000000E+01 0.  1.
         -4   -1    0    0    0  501 -0.00000000000E+00 -0.00000000000E+00 -0.84403191264E+01  0.85353316840E+01  0.12700000000E+01 0.  1.
         25    2    1    2    0    0  0.00000000000E+00  0.00000000000E+00  0.45167944907E+03  0.46865685258E+03  0.12499968301E+03 0.  0.
    9000005    1    3    3    0    0 -0.60225102337E+02 -0.12757416292E+02  0.26611868492E+03  0.27314825477E+03  0.10000000000E+01 0.  0.
    9000005    1    3    3    0    0  0.60225102337E+02  0.12757416292E+02  0.18556076415E+03  0.19550859780E+03  0.10000000000E+01 0.  0.
<mgrwt>
<rscale>  0 0.12499968E+03</rscale>
<asrwt>0</asrwt>
<pdfrwt beam="1">  1        4 0.70795103E-01 0.12499968E+03</pdfrwt>
<pdfrwt beam="2">  1       -4 0.13059541E-02 0.12499968E+03</pdfrwt>
<totfact> 0.58381355E+03</totfact>
</mgrwt>
</event>
<event>
 5    1  0.3234540E-002  0.1250039E+03  0.7818608E-02  0.1235063E+00
          4   -1    0    0  501    0  0.00000000000E+00  0.00000000000E+00  0.50889205468E+03  0.50889363940E+03  0.12700000000E+01 0. -1.
         -4   -1    0    0    0  501 -0.00000000000E+00 -0.00000000000E+00 -0.76223370061E+01  0.77274136316E+01  0.12700000000E+01 0. -1.
         25    2    1    2    0    0  0.00000000000E+00  0.00000000000E+00  0.50126971768E+03  0.51662105303E+03  0.12500393023E+03 0.  0.
    9000005    1    3    3    0    0 -0.40691770474E+02 -0.20050195585E+02  0.72986965310E+02  0.85941419773E+02  0.10000000000E+01 0.  0.
    9000005    1    3    3    0    0  0.40691770474E+02  0.20050195585E+02  0.42828275237E+03  0.43067963326E+03  0.10000000000E+01 0.  0.
<mgrwt>
<rscale>  0 0.12500393E+03</rscale>
<asrwt>0</asrwt>
<pdfrwt beam="1">  1        4 0.78299273E-01 0.12500393E+03</pdfrwt>
<pdfrwt beam="2">  1       -4 0.11808722E-02 0.12500393E+03</pdfrwt>
<totfact> 0.54592742E+03</totfact>
</mgrwt>
</event>
<event>
 5    1  0.3234540E-002  0.1250040E+03  0.7818608E-02  0.1235063E+00
          4   -1    0    0  501    0  0.00000000000E+00  0.00000000000E+00  0.18579748540E+03  0.18580182582E+03  0.12700000000E+01 0. -1.
         -4   -1    0    0    0  501 -0.00000000000E+00 -0.00000000000E+00 -0.21001811201E+02  0.21040175231E+02  0.12700000000E+01 0. -1.
         25    2    1    2    0    0  0.00000000000E+00  0.00000000000E+00  0.16479567420E+03  0.20684200106E+03  0.12500399660E+03 0.  0.
    9000005    1    3    3    0    0  0.53205123708E+02  0.32367403415E+02  0.91006293007E+02  0.11027955096E+03  0.10000000000E+01 0.  0.
    9000005    1    3    3    0    0 -0.53205123708E+02 -0.32367403415E+02  0.73789381189E+02  0.96562450098E+02  0.10000000000E+01 0.  0.
<mgrwt>
<rscale>  0 0.12500400E+03</rscale>
<asrwt>0</asrwt>
<pdfrwt beam="1">  1        4 0.28587514E-01 0.12500400E+03</pdfrwt>
<pdfrwt beam="2">  1       -4 0.32343328E-02 0.12500400E+03</pdfrwt>
<totfact> 0.88986280E+03</totfact>
</mgrwt>
</event>
<event>
 5    1  0.3234540E-002  0.1250010E+03  0.7818608E-02  0.1235068E+00
         -4   -1    0    0    0  501 -0.00000000000E+00  0.00000000000E+00  0.94226032616E+02  0.94234590903E+02  0.12700000000E+01 0.  1.
          4   -1    0    0  501    0  0.00000000000E+00 -0.00000000000E+00 -0.41436658921E+02  0.41456116588E+02  0.12700000000E+01 0.  1.
         25    2    1    2    0    0  0.00000000000E+00  0.00000000000E+00  0.52789373695E+02  0.13569070749E+03  0.12500100049E+03 0.  0.
    9000005    1    3    3    0    0 -0.61062963350E+02 -0.13285204372E+02  0.26002722358E+02  0.67692863127E+02  0.10000000000E+01 0.  0.
    9000005    1    3    3    0    0  0.61062963350E+02  0.13285204372E+02  0.26786651336E+02  0.67997844364E+02  0.10000000000E+01 0.  0.
<mgrwt>
<rscale>  0 0.12500100E+03</rscale>
<asrwt>0</asrwt>
<pdfrwt beam="2">  1        4 0.63770257E-02 0.12500100E+03</pdfrwt>
<pdfrwt beam="1">  1       -4 0.14498468E-01 0.12500100E+03</pdfrwt>
<totfact> 0.10223302E+04</totfact>
</mgrwt>
</event>
<event>
 5    1  0.3234540E-002  0.1250035E+03  0.7818608E-02  0.1235064E+00
          4   -1    0    0  501    0  0.00000000000E+00  0.00000000000E+00  0.15922042369E+02  0.15972611971E+02  0.12700000000E+01 0.  1.
         -4   -1    0    0    0  501 -0.00000000000E+00 -0.00000000000E+00 -0.24490868328E+03  0.24491197611E+03  0.12700000000E+01 0.  1.
         25    2    1    2    0    0  0.00000000000E+00  0.00000000000E+00 -0.22898664091E+03  0.26088458809E+03  0.12500354629E+03 0.  0.
    9000005    1    3    3    0    0  0.28150032631E+01 -0.57028197724E+02 -0.61476007493E+02  0.83907324331E+02  0.10000000000E+01 0.  0.
    9000005    1    3    3    0    0 -0.28150032631E+01  0.57028197724E+02 -0.16751063342E+03  0.17697726375E+03  0.10000000000E+01 0.  0.
<mgrwt>
<rscale>  0 0.12500355E+03</rscale>
<asrwt>0</asrwt>
<pdfrwt beam="1">  1        4 0.24536884E-02 0.12500355E+03</pdfrwt>
<pdfrwt beam="2">  1       -4 0.37682400E-01 0.12500355E+03</pdfrwt>
<totfact> 0.80775706E+03</totfact>
</mgrwt>
</event>
<event>
 5    1  0.3234540E-002  0.1249974E+03  0.7818608E-02  0.1235073E+00
          4   -1    0    0  501    0  0.00000000000E+00  0.00000000000E+00  0.10468732834E+02  0.10545485628E+02  0.12700000000E+01 0.  1.
         -4   -1    0    0    0  501 -0.00000000000E+00 -0.00000000000E+00 -0.37167891790E+03  0.37168108765E+03  0.12700000000E+01 0.  1.
         25    2    1    2    0    0  0.00000000000E+00  0.00000000000E+00 -0.36121018507E+03  0.38222657328E+03  0.12499742205E+03 0.  0.
    9000005    1    3    3    0    0  0.13980796347E+02 -0.58418498311E+02 -0.23329516219E+03  0.24090623967E+03  0.10000000000E+01 0.  0.
    9000005    1    3    3    0    0 -0.13980796347E+02  0.58418498311E+02 -0.12791502288E+03  0.14132033361E+03  0.10000000000E+01 0.  0.
<mgrwt>
<rscale>  0 0.12499742E+03</rscale>
<asrwt>0</asrwt>
<pdfrwt beam="1">  1        4 0.16166455E-02 0.12499742E+03</pdfrwt>
<pdfrwt beam="2">  1       -4 0.57187433E-01 0.12499742E+03</pdfrwt>
<totfact> 0.66322696E+03</totfact>
</mgrwt>
</event>
<event>
 5    1  0.3234540E-002  0.1250056E+03  0.7818608E-02  0.1235060E+00
         -4   -1    0    0    0  501 -0.00000000000E+00  0.00000000000E+00  0.15152033912E+04  0.15152039234E+04  0.12700000000E+01 0. -1.
          4   -1    0    0  501    0  0.00000000000E+00 -0.00000000000E+00 -0.24213100121E+01  0.27341620608E+01  0.12700000000E+01 0. -1.
         25    2    1    2    0    0  0.00000000000E+00  0.00000000000E+00  0.15127820812E+04  0.15179380855E+04  0.12500562486E+03 0.  0.
    9000005    1    3    3    0    0 -0.19194520590E+02  0.32581254607E+02  0.15220915095E+03  0.15683938729E+03  0.10000000000E+01 0.  0.
    9000005    1    3    3    0    0  0.19194520590E+02 -0.32581254607E+02  0.13605729302E+04  0.13610986982E+04  0.10000000000E+01 0.  0.
<mgrwt>
<rscale>  0 0.12500562E+03</rscale>
<asrwt>0</asrwt>
<pdfrwt beam="2">  1        4 0.39661479E-03 0.12500562E+03</pdfrwt>
<pdfrwt beam="1">  1       -4 0.23313287E+00 0.12500562E+03</pdfrwt>
<totfact> 0.17578235E+03</totfact>
</mgrwt>
</event>
<event>
 5    1  0.3234540E-002  0.1249991E+03  0.7818608E-02  0.1235071E+00
         -4   -1    0    0    0  501 -0.00000000000E+00  0.00000000000E+00  0.34961225317E+03  0.34961455986E+03  0.12700000000E+01 0. -1.
          4   -1    0    0  501    0  0.00000000000E+00 -0.00000000000E+00 -0.11134495576E+02  0.11206689597E+02  0.12700000000E+01 0. -1.
         25    2    1    2    0    0  0.00000000000E+00  0.00000000000E+00  0.33847775759E+03  0.36082124946E+03  0.12499912669E+03 0.  0.
    9000005    1    3    3    0    0 -0.20305554708E+02  0.47124643832E+02  0.27219541300E+03  0.27699167942E+03  0.10000000000E+01 0.  0.
    9000005    1    3    3    0    0  0.20305554708E+02 -0.47124643832E+02  0.66282344595E+02  0.83829570041E+02  0.10000000000E+01 0.  0.
<mgrwt>
<rscale>  0 0.12499913E+03</rscale>
<asrwt>0</asrwt>
<pdfrwt beam="2">  1        4 0.17187303E-02 0.12499913E+03</pdfrwt>
<pdfrwt beam="1">  1       -4 0.53792227E-01 0.12499913E+03</pdfrwt>
<totfact> 0.68551591E+03</totfact>
</mgrwt>
</event>
<event>
 5    1  0.3234540E-002  0.1249988E+03  0.7818608E-02  0.1235071E+00
          4   -1    0    0  501    0  0.00000000000E+00  0.00000000000E+00  0.25179221660E+02  0.25211229708E+02  0.12700000000E+01 0. -1.
         -4   -1    0    0    0  501 -0.00000000000E+00 -0.00000000000E+00 -0.15500164884E+03  0.15500685160E+03  0.12700000000E+01 0. -1.
         25    2    1    2    0    0  0.00000000000E+00  0.00000000000E+00 -0.12982242718E+03  0.18021808131E+03  0.12499877692E+03 0.  0.
    9000005    1    3    3    0    0  0.46616135519E+02 -0.40459015245E+02 -0.78976865479E+02  0.10024141503E+03  0.10000000000E+01 0.  0.
    9000005    1    3    3    0    0 -0.46616135519E+02  0.40459015245E+02 -0.50845561703E+02  0.79976666286E+02  0.10000000000E+01 0.  0.
<mgrwt>
<rscale>  0 0.12499878E+03</rscale>
<asrwt>0</asrwt>
<pdfrwt beam="1">  1        4 0.38765889E-02 0.12499878E+03</pdfrwt>
<pdfrwt beam="2">  1       -4 0.23849269E-01 0.12499878E+03</pdfrwt>
<totfact> 0.93580329E+03</totfact>
</mgrwt>
</event>
<event>
 5    1  0.3234540E-002  0.1250021E+03  0.7818608E-02  0.1235066E+00
         -4   -1    0    0    0  501 -0.00000000000E+00  0.00000000000E+00  0.10357094153E+02  0.10434668145E+02  0.12700000000E+01 0.  1.
          4   -1    0    0  501    0  0.00000000000E+00 -0.00000000000E+00 -0.37568397406E+03  0.37568612067E+03  0.12700000000E+01 0.  1.
         25    2    1    2    0    0  0.00000000000E+00  0.00000000000E+00 -0.36532687991E+03  0.38612078881E+03  0.12500213748E+03 0.  0.
    9000005    1    3    3    0    0 -0.61461884574E+02 -0.11282382869E+02 -0.18490832730E+03  0.19518438698E+03  0.10000000000E+01 0.  0.
    9000005    1    3    3    0    0  0.61461884574E+02  0.11282382869E+02 -0.18041855261E+03  0.19093640183E+03  0.10000000000E+01 0.  0.
<mgrwt>
<rscale>  0 0.12500214E+03</rscale>
<asrwt>0</asrwt>
<pdfrwt beam="2">  1        4 0.57803656E-01 0.12500214E+03</pdfrwt>
<pdfrwt beam="1">  1       -4 0.15995317E-02 0.12500214E+03</pdfrwt>
<totfact> 0.65922318E+03</totfact>
</mgrwt>
</event>
<event>
 5    1  0.3234540E-002  0.1250004E+03  0.7818608E-02  0.1235069E+00
         -4   -1    0    0    0  501 -0.00000000000E+00  0.00000000000E+00  0.16144329004E+03  0.16144828521E+03  0.12700000000E+01 0. -1.
          4   -1    0    0  501    0  0.00000000000E+00 -0.00000000000E+00 -0.24173915729E+02  0.24207253080E+02  0.12700000000E+01 0. -1.
         25    2    1    2    0    0  0.00000000000E+00  0.00000000000E+00  0.13726937431E+03  0.18565553829E+03  0.12500039110E+03 0.  0.
    9000005    1    3    3    0    0  0.42638423948E+02  0.39398779235E+02  0.34281782783E+02  0.67428032989E+02  0.10000000000E+01 0.  0.
    9000005    1    3    3    0    0 -0.42638423948E+02 -0.39398779235E+02  0.10298759152E+03  0.11822750530E+03  0.10000000000E+01 0.  0.
<mgrwt>
<rscale>  0 0.12500039E+03</rscale>
<asrwt>0</asrwt>
<pdfrwt beam="2">  1        4 0.37220125E-02 0.12500039E+03</pdfrwt>
<pdfrwt beam="1">  1       -4 0.24840378E-01 0.12500039E+03</pdfrwt>
<totfact> 0.92607968E+03</totfact>
</mgrwt>
</event>
<event>
 5    1  0.3234540E-002  0.1250004E+03  0.7818608E-02  0.1235069E+00
         -4   -1    0    0    0  501 -0.00000000000E+00  0.00000000000E+00  0.25106990698E+02  0.25139090714E+02  0.12700000000E+01 0. -1.
          4   -1    0    0  501    0  0.00000000000E+00 -0.00000000000E+00 -0.15545108018E+03  0.15545626790E+03  0.12700000000E+01 0. -1.
         25    2    1    2    0    0  0.00000000000E+00  0.00000000000E+00 -0.13034408948E+03  0.18059535862E+03  0.12500040756E+03 0.  0.
    9000005    1    3    3    0    0 -0.54667960698E+01 -0.47096659457E+02 -0.63561143461E+01  0.47847480402E+02  0.10000000000E+01 0.  0.
    9000005    1    3    3    0    0  0.54667960698E+01  0.47096659457E+02 -0.12398797514E+03  0.13274787821E+03  0.10000000000E+01 0.  0.
<mgrwt>
<rscale>  0 0.12500041E+03</rscale>
<asrwt>0</asrwt>
<pdfrwt beam="2">  1        4 0.23918418E-01 0.12500041E+03</pdfrwt>
<pdfrwt beam="1">  1       -4 0.38654823E-02 0.12500041E+03</pdfrwt>
<totfact> 0.93509092E+03</totfact>
</mgrwt>
</event>
<event>
 5    1  0.3234540E-002  0.1250017E+03  0.7818608E-02  0.1235067E+00
          4   -1    0    0  501    0  0.00000000000E+00  0.00000000000E+00  0.80143168917E+02  0.80153230903E+02  0.12700000000E+01 0.  1.
         -4   -1    0    0    0  501 -0.00000000000E+00 -0.00000000000E+00 -0.48720858924E+02  0.48737408571E+02  0.12700000000E+01 0.  1.
         25    2    1    2    0    0  0.00000000000E+00  0.00000000000E+00  0.31422309994E+02  0.12889063947E+03  0.12500174150E+03 0.  0.
    9000005    1    3    3    0    0  0.64032265949E+01 -0.46039823355E+02  0.58780148678E+02  0.74945130089E+02  0.10000000000E+01 0.  0.
    9000005    1    3    3    0    0 -0.64032265949E+01  0.46039823355E+02 -0.27357838684E+02  0.53945509385E+02  0.10000000000E+01 0.  0.
<mgrwt>
<rscale>  0 0.12500174E+03</rscale>
<asrwt>0</asrwt>
<pdfrwt beam="1">  1        4 0.12331765E-01 0.12500174E+03</pdfrwt>
<pdfrwt beam="2">  1       -4 0.74975638E-02 0.12500174E+03</pdfrwt>
<totfact> 0.10367890E+04</totfact>
</mgrwt>
</event>
<event>
 5    1  0.3234540E-002  0.1250020E+03  0.7818608E-02  0.1235066E+00
         -4   -1    0    0    0  501 -0.00000000000E+00  0.00000000000E+00  0.20148111297E+03  0.20148511554E+03  0.12700000000E+01 0. -1.
          4   -1    0    0  501    0  0.00000000000E+00 -0.00000000000E+00 -0.19363284463E+02  0.19404888178E+02  0.12700000000E+01 0. -1.
         25    2    1    2    0    0  0.00000000000E+00  0.00000000000E+00  0.18211782851E+03  0.22089000372E+03  0.12500196111E+03 0.  0.
    9000005    1    3    3    0    0 -0.26007739727E+02  0.32335794226E+02  0.84888632448E+01  0.42368229997E+02  0.10000000000E+01 0.  0.
    9000005    1    3    3    0    0  0.26007739727E+02 -0.32335794226E+02  0.17362896526E+03  0.17852177372E+03  0.10000000000E+01 0.  0.
<mgrwt>
<rscale>  0 0.12500196E+03</rscale>
<asrwt>0</asrwt>
<pdfrwt beam="2">  1        4 0.29824751E-02 0.12500196E+03</pdfrwt>
<pdfrwt beam="1">  1       -4 0.31000602E-01 0.12500196E+03</pdfrwt>
<totfact> 0.86723915E+03</totfact>
</mgrwt>
</event>
<event>
 5    1  0.3234540E-002  0.1250029E+03  0.7818608E-02  0.1235065E+00
          4   -1    0    0  501    0  0.00000000000E+00  0.00000000000E+00  0.19872035768E+02  0.19912576568E+02  0.12700000000E+01 0. -1.
         -4   -1    0    0    0  501 -0.00000000000E+00 -0.00000000000E+00 -0.19633635296E+03  0.19634046041E+03  0.12700000000E+01 0. -1.
         25    2    1    2    0    0  0.00000000000E+00  0.00000000000E+00 -0.17646431719E+03  0.21625303698E+03  0.12500288301E+03 0.  0.
    9000005    1    3    3    0    0 -0.60184308915E+01 -0.13158385939E+02  0.16942719842E+02  0.22302923274E+02  0.10000000000E+01 0.  0.
    9000005    1    3    3    0    0  0.60184308915E+01  0.13158385939E+02 -0.19340703704E+03  0.19395011371E+03  0.10000000000E+01 0.  0.
<mgrwt>
<rscale>  0 0.12500288E+03</rscale>
<asrwt>0</asrwt>
<pdfrwt beam="1">  1        4 0.30606709E-02 0.12500288E+03</pdfrwt>
<pdfrwt beam="2">  1       -4 0.30209026E-01 0.12500288E+03</pdfrwt>
<totfact> 0.87459118E+03</totfact>
</mgrwt>
</event>
<event>
 5    1  0.3234540E-002  0.1249558E+03  0.7818608E-02  0.1235138E+00
          4   -1    0    0  501    0  0.00000000000E+00  0.00000000000E+00  0.12024658582E+03  0.12025329226E+03  0.12700000000E+01 0.  1.
         -4   -1    0    0    0  501 -0.00000000000E+00 -0.00000000000E+00 -0.32442328812E+02  0.32467177253E+02  0.12700000000E+01 0.  1.
         25    2    1    2    0    0  0.00000000000E+00  0.00000000000E+00  0.87804257004E+02  0.15272046952E+03  0.12495580923E+03 0.  0.
    9000005    1    3    3    0    0 -0.14222531423E+02 -0.35410163373E+02 -0.16548133315E+02  0.41605297576E+02  0.10000000000E+01 0.  0.
    9000005    1    3    3    0    0  0.14222531423E+02  0.35410163373E+02  0.10435239032E+03  0.11111517194E+03  0.10000000000E+01 0.  0.
<mgrwt>
<rscale>  0 0.12495581E+03</rscale>
<asrwt>0</asrwt>
<pdfrwt beam="1">  1        4 0.18501902E-01 0.12495581E+03</pdfrwt>
<pdfrwt beam="2">  1       -4 0.49935548E-02 0.12495581E+03</pdfrwt>
<totfact> 0.98862411E+03</totfact>
</mgrwt>
</event>
<event>
 5    1  0.3234540E-002  0.1250077E+03  0.7818608E-02  0.1235057E+00
         -4   -1    0    0    0  501 -0.00000000000E+00  0.00000000000E+00  0.49114826254E+03  0.49114990450E+03  0.12700000000E+01 0. -1.
          4   -1    0    0  501    0  0.00000000000E+00 -0.00000000000E+00 -0.79019191893E+01  0.80033259883E+01  0.12700000000E+01 0. -1.
         25    2    1    2    0    0  0.00000000000E+00  0.00000000000E+00  0.48324634335E+03  0.49915323049E+03  0.12500767637E+03 0.  0.
    9000005    1    3    3    0    0 -0.18792581343E+02  0.29241953005E+02  0.34238779859E+02  0.48801096046E+02  0.10000000000E+01 0.  0.
    9000005    1    3    3    0    0  0.18792581343E+02 -0.29241953005E+02  0.44900756349E+03  0.45035213445E+03  0.10000000000E+01 0.  0.
<mgrwt>
<rscale>  0 0.12500768E+03</rscale>
<asrwt>0</asrwt>
<pdfrwt beam="2">  1        4 0.12236064E-02 0.12500768E+03</pdfrwt>
<pdfrwt beam="1">  1       -4 0.75569217E-01 0.12500768E+03</pdfrwt>
<totfact> 0.55920675E+03</totfact>
</mgrwt>
</event>
<event>
 5    1  0.3234540E-002  0.1250008E+03  0.7818608E-02  0.1235068E+00
          4   -1    0    0  501    0  0.00000000000E+00  0.00000000000E+00  0.21679733625E+03  0.21680105605E+03  0.12700000000E+01 0.  1.
         -4   -1    0    0    0  501 -0.00000000000E+00 -0.00000000000E+00 -0.17991953429E+02  0.18036720550E+02  0.12700000000E+01 0.  1.
         25    2    1    2    0    0  0.00000000000E+00  0.00000000000E+00  0.19880538282E+03  0.23483777660E+03  0.12500080432E+03 0.  0.
    9000005    1    3    3    0    0 -0.64763539210E+01 -0.62073311598E+02  0.93384693235E+02  0.11232426320E+03  0.10000000000E+01 0.  0.
    9000005    1    3    3    0    0  0.64763539210E+01  0.62073311598E+02  0.10542068958E+03  0.12251351340E+03  0.10000000000E+01 0.  0.
<mgrwt>
<rscale>  0 0.12500080E+03</rscale>
<asrwt>0</asrwt>
<pdfrwt beam="1">  1        4 0.33357167E-01 0.12500080E+03</pdfrwt>
<pdfrwt beam="2">  1       -4 0.27717225E-02 0.12500080E+03</pdfrwt>
<totfact> 0.84570727E+03</totfact>
</mgrwt>
</event>
<event>
 5    1  0.3234540E-002  0.1249986E+03  0.7818608E-02  0.1235071E+00
         -4   -1    0    0    0  501 -0.00000000000E+00  0.00000000000E+00  0.10262149642E+03  0.10262935461E+03  0.12700000000E+01 0. -1.
          4   -1    0    0  501    0  0.00000000000E+00 -0.00000000000E+00 -0.38043886117E+02  0.38065078101E+02  0.12700000000E+01 0. -1.
         25    2    1    2    0    0  0.00000000000E+00  0.00000000000E+00  0.64577610307E+02  0.14069443271E+03  0.12499862257E+03 0.  0.
    9000005    1    3    3    0    0  0.24552787896E+02 -0.30701036270E+02  0.86966047792E+02  0.95443629909E+02  0.10000000000E+01 0.  0.
    9000005    1    3    3    0    0 -0.24552787896E+02  0.30701036270E+02 -0.22388437485E+02  0.45250802806E+02  0.10000000000E+01 0.  0.
<mgrwt>
<rscale>  0 0.12499862E+03</rscale>
<asrwt>0</asrwt>
<pdfrwt beam="2">  1        4 0.58551402E-02 0.12499862E+03</pdfrwt>
<pdfrwt beam="1">  1       -4 0.15790157E-01 0.12499862E+03</pdfrwt>
<totfact> 0.10119528E+04</totfact>
</mgrwt>
</event>
<event>
 5    1  0.3234540E-002  0.1250203E+03  0.7818608E-02  0.1235038E+00
          4   -1    0    0  501    0  0.00000000000E+00  0.00000000000E+00  0.52244050486E+02  0.52259484414E+02  0.12700000000E+01 0. -1.
         -4   -1    0    0    0  501 -0.00000000000E+00 -0.00000000000E+00 -0.74761657449E+02  0.74772443617E+02  0.12700000000E+01 0. -1.
         25    2    1    2    0    0  0.00000000000E+00  0.00000000000E+00 -0.22517606963E+02  0.12703192803E+03  0.12502027082E+03 0.  0.
    9000005    1    3    3    0    0  0.54253278988E+02  0.24920475309E+02  0.75338928658E+01  0.60184781401E+02  0.10000000000E+01 0.  0.
    9000005    1    3    3    0    0 -0.54253278988E+02 -0.24920475309E+02 -0.30051499829E+02  0.66847146630E+02  0.10000000000E+01 0.  0.
<mgrwt>
<rscale>  0 0.12502027E+03</rscale>
<asrwt>0</asrwt>
<pdfrwt beam="1">  1        4 0.80395631E-02 0.12502027E+03</pdfrwt>
<pdfrwt beam="2">  1       -4 0.11503810E-01 0.12502027E+03</pdfrwt>
<totfact> 0.10403691E+04</totfact>
</mgrwt>
</event>
<event>
 5    1  0.3234540E-002  0.1250037E+03  0.7818608E-02  0.1235064E+00
         -4   -1    0    0    0  501 -0.00000000000E+00  0.00000000000E+00  0.36045827030E+02  0.36068193000E+02  0.12700000000E+01 0.  1.
          4   -1    0    0  501    0  0.00000000000E+00 -0.00000000000E+00 -0.10831565235E+03  0.10832309746E+03  0.12700000000E+01 0.  1.
         25    2    1    2    0    0  0.00000000000E+00  0.00000000000E+00 -0.72269825320E+02  0.14439129046E+03  0.12500366839E+03 0.  0.
    9000005    1    3    3    0    0  0.20003522762E+02  0.59202472068E+02 -0.35399219088E+02  0.71827420488E+02  0.10000000000E+01 0.  0.
    9000005    1    3    3    0    0 -0.20003522762E+02 -0.59202472068E+02 -0.36870606232E+02  0.72563869975E+02  0.10000000000E+01 0.  0.
<mgrwt>
<rscale>  0 0.12500367E+03</rscale>
<asrwt>0</asrwt>
<pdfrwt beam="2">  1        4 0.16666240E-01 0.12500367E+03</pdfrwt>
<pdfrwt beam="1">  1       -4 0.55478051E-02 0.12500367E+03</pdfrwt>
<totfact> 0.10042541E+04</totfact>
</mgrwt>
</event>
<event>
 5    1  0.3234540E-002  0.1250045E+03  0.7818608E-02  0.1235062E+00
         -4   -1    0    0    0  501 -0.00000000000E+00  0.00000000000E+00  0.11517905344E+02  0.11587710883E+02  0.12700000000E+01 0. -1.
          4   -1    0    0  501    0  0.00000000000E+00 -0.00000000000E+00 -0.33807469304E+03  0.33807707845E+03  0.12700000000E+01 0. -1.
         25    2    1    2    0    0  0.00000000000E+00  0.00000000000E+00 -0.32655678769E+03  0.34966478933E+03  0.12500451716E+03 0.  0.
    9000005    1    3    3    0    0  0.39232035506E+02  0.46420127670E+02 -0.12259340390E+03  0.13683611929E+03  0.10000000000E+01 0.  0.
    9000005    1    3    3    0    0 -0.39232035506E+02 -0.46420127670E+02 -0.20396338379E+03  0.21282867004E+03  0.10000000000E+01 0.  0.
<mgrwt>
<rscale>  0 0.12500452E+03</rscale>
<asrwt>0</asrwt>
<pdfrwt beam="2">  1        4 0.52017037E-01 0.12500452E+03</pdfrwt>
<pdfrwt beam="1">  1       -4 0.17775388E-02 0.12500452E+03</pdfrwt>
<totfact> 0.69754479E+03</totfact>
</mgrwt>
</event>
<event>
 5    1  0.3234540E-002  0.1249814E+03  0.7818608E-02  0.1235098E+00
          4   -1    0    0  501    0  0.00000000000E+00  0.00000000000E+00  0.65626876334E+03  0.65626999218E+03  0.12700000000E+01 0.  1.
         -4   -1    0    0    0  501 -0.00000000000E+00 -0.00000000000E+00 -0.58814232400E+01  0.60169792527E+01  0.12700000000E+01 0.  1.
         25    2    1    2    0    0  0.00000000000E+00  0.00000000000E+00  0.65038734010E+03  0.66228697143E+03  0.12498136008E+03 0.  0.
    9000005    1    3    3    0    0 -0.31190019755E+02  0.19703997410E+02  0.57969415621E+02  0.68720579114E+02  0.10000000000E+01 0.  0.
    9000005    1    3    3    0    0  0.31190019755E+02 -0.19703997410E+02  0.59241792448E+03  0.59356639232E+03  0.10000000000E+01 0.  0.
<mgrwt>
<rscale>  0 0.12498136E+03</rscale>
<asrwt>0</asrwt>
<pdfrwt beam="1">  1        4 0.10097488E+00 0.12498136E+03</pdfrwt>
<pdfrwt beam="2">  1       -4 0.91535688E-03 0.12498136E+03</pdfrwt>
<totfact> 0.45172021E+03</totfact>
</mgrwt>
</event>
<event>
 5    1  0.3234540E-002  0.1249998E+03  0.7818608E-02  0.1235070E+00
         -4   -1    0    0    0  501 -0.00000000000E+00  0.00000000000E+00  0.70621452072E+01  0.71754299472E+01  0.12700000000E+01 0.  1.
          4   -1    0    0  501    0  0.00000000000E+00 -0.00000000000E+00 -0.54860815900E+03  0.54860962900E+03  0.12700000000E+01 0.  1.
         25    2    1    2    0    0  0.00000000000E+00  0.00000000000E+00 -0.54154601380E+03  0.55578505894E+03  0.12499978674E+03 0.  0.
    9000005    1    3    3    0    0 -0.41747774410E+02 -0.18854283119E+02 -0.81773021121E+02  0.93734666177E+02  0.10000000000E+01 0.  0.
    9000005    1    3    3    0    0  0.41747774410E+02  0.18854283119E+02 -0.45977299268E+03  0.46205039277E+03  0.10000000000E+01 0.  0.
<mgrwt>
<rscale>  0 0.12499979E+03</rscale>
<asrwt>0</asrwt>
<pdfrwt beam="2">  1        4 0.84410049E-01 0.12499979E+03</pdfrwt>
<pdfrwt beam="1">  1       -4 0.10953116E-02 0.12499979E+03</pdfrwt>
<totfact> 0.51783329E+03</totfact>
</mgrwt>
</event>
<event>
 5    1  0.3234540E-002  0.1249982E+03  0.7818608E-02  0.1235072E+00
         -4   -1    0    0    0  501 -0.00000000000E+00  0.00000000000E+00  0.11694586628E+03  0.11695276200E+03  0.12700000000E+01 0.  1.
          4   -1    0    0  501    0  0.00000000000E+00 -0.00000000000E+00 -0.33381313815E+02  0.33405463805E+02  0.12700000000E+01 0.  1.
         25    2    1    2    0    0  0.00000000000E+00  0.00000000000E+00  0.83564552466E+02  0.15035822581E+03  0.12499824654E+03 0.  0.
    9000005    1    3    3    0    0  0.65026746633E+01  0.59834530899E+02  0.62006613713E+02  0.86419187741E+02  0.10000000000E+01 0.  0.
    9000005    1    3    3    0    0 -0.65026746633E+01 -0.59834530899E+02  0.21557938753E+02  0.63939038067E+02  0.10000000000E+01 0.  0.
<mgrwt>
<rscale>  0 0.12499825E+03</rscale>
<asrwt>0</asrwt>
<pdfrwt beam="2">  1        4 0.51379749E-02 0.12499825E+03</pdfrwt>
<pdfrwt beam="1">  1       -4 0.17994060E-01 0.12499825E+03</pdfrwt>
<totfact> 0.99236255E+03</totfact>
</mgrwt>
</event>
<event>
 4    1  0.3234540E-002  0.1250831E+03  0.7818608E-02  0.1234940E+00
          4   -1    0    0  501    0  0.00000000000E+00  0.00000000000E+00  0.59124684485E+02  0.59138322731E+02  0.12700000000E+01 0. -1.
         -4   -1    0    0    0  501 -0.00000000000E+00 -0.00000000000E+00 -0.66128470296E+02  0.66140664373E+02  0.12700000000E+01 0. -1.
    9000005    1    1    2    0    0 -0.72287197326E+01  0.42324876858E+02 -0.49035102443E+02  0.65185050906E+02  0.10000000000E+01 0.  0.
    9000005    1    1    2    0    0  0.72287197326E+01 -0.42324876858E+02  0.42031316631E+02  0.60093936198E+02  0.10000000000E+01 0.  0.
<mgrwt>
<rscale>  0 0.12508306E+03</rscale>
<asrwt>0</asrwt>
<pdfrwt beam="1">  1        4 0.90980924E-02 0.12508306E+03</pdfrwt>
<pdfrwt beam="2">  1       -4 0.10175598E-01 0.12508306E+03</pdfrwt>
<totfact> 0.10427221E+04</totfact>
</mgrwt>
</event>
<event>
 5    1  0.3234540E-002  0.1250001E+03  0.7818608E-02  0.1235069E+00
          4   -1    0    0  501    0  0.00000000000E+00  0.00000000000E+00  0.11861243690E+04  0.11861250489E+04  0.12700000000E+01 0. -1.
         -4   -1    0    0    0  501 -0.00000000000E+00 -0.00000000000E+00 -0.31701493529E+01  0.34150764149E+01  0.12700000000E+01 0. -1.
         25    2    1    2    0    0  0.00000000000E+00  0.00000000000E+00  0.11829542196E+04  0.11895401253E+04  0.12500009584E+03 0.  0.
    9000005    1    3    3    0    0 -0.45627511524E+02 -0.10113887777E+02  0.98627173294E+03  0.98737889978E+03  0.10000000000E+01 0.  0.
    9000005    1    3    3    0    0  0.45627511524E+02  0.10113887777E+02  0.19668248670E+03  0.20216122554E+03  0.10000000000E+01 0.  0.
<mgrwt>
<rscale>  0 0.12500010E+03</rscale>
<asrwt>0</asrwt>
<pdfrwt beam="1">  1        4 0.18249971E+00 0.12500010E+03</pdfrwt>
<pdfrwt beam="2">  1       -4 0.50660772E-03 0.12500010E+03</pdfrwt>
<totfact> 0.24988109E+03</totfact>
</mgrwt>
</event>
<event>
 5    1  0.3234540E-002  0.1249945E+03  0.7818608E-02  0.1235078E+00
         -4   -1    0    0    0  501 -0.00000000000E+00  0.00000000000E+00  0.53055130711E+02  0.53070328761E+02  0.12700000000E+01 0. -1.
          4   -1    0    0  501    0  0.00000000000E+00 -0.00000000000E+00 -0.73588564020E+02  0.73599522108E+02  0.12700000000E+01 0. -1.
         25    2    1    2    0    0  0.00000000000E+00  0.00000000000E+00 -0.20533433308E+02  0.12666985087E+03  0.12499451682E+03 0.  0.
    9000005    1    3    3    0    0 -0.18746688595E+01  0.22940573669E+01 -0.73522323925E+02  0.73588784457E+02  0.10000000000E+01 0.  0.
    9000005    1    3    3    0    0  0.18746688595E+01 -0.22940573669E+01  0.52988890617E+02  0.53081066411E+02  0.10000000000E+01 0.  0.
<mgrwt>
<rscale>  0 0.12499452E+03</rscale>
<asrwt>0</asrwt>
<pdfrwt beam="2">  1        4 0.11323330E-01 0.12499452E+03</pdfrwt>
<pdfrwt beam="1">  1       -4 0.81643398E-02 0.12499452E+03</pdfrwt>
<totfact> 0.10417616E+04</totfact>
</mgrwt>
</event>
<event>
 5    1  0.3234540E-002  0.1250026E+03  0.7818608E-02  0.1235065E+00
          4   -1    0    0  501    0  0.00000000000E+00  0.00000000000E+00  0.12048748140E+03  0.12049417444E+03  0.12700000000E+01 0.  1.
         -4   -1    0    0    0  501 -0.00000000000E+00 -0.00000000000E+00 -0.32401675926E+02  0.32426555519E+02  0.12700000000E+01 0.  1.
         25    2    1    2    0    0  0.00000000000E+00  0.00000000000E+00  0.88085805477E+02  0.15292072996E+03  0.12500256208E+03 0.  0.
    9000005    1    3    3    0    0 -0.16468125448E+02  0.52902371115E+02  0.86811569868E+01  0.56091198169E+02  0.10000000000E+01 0.  0.
    9000005    1    3    3    0    0  0.16468125448E+02 -0.52902371115E+02  0.79404648490E+02  0.96829531793E+02  0.10000000000E+01 0.  0.
<mgrwt>
<rscale>  0 0.12500256E+03</rscale>
<asrwt>0</asrwt>
<pdfrwt beam="1">  1        4 0.18538965E-01 0.12500256E+03</pdfrwt>
<pdfrwt beam="2">  1       -4 0.49873018E-02 0.12500256E+03</pdfrwt>
<totfact> 0.98718957E+03</totfact>
</mgrwt>
</event>
<event>
 5    1  0.3234540E-002  0.1250025E+03  0.7818608E-02  0.1235065E+00
          4   -1    0    0  501    0  0.00000000000E+00  0.00000000000E+00  0.21641067400E+03  0.21641440045E+03  0.12700000000E+01 0.  1.
         -4   -1    0    0    0  501 -0.00000000000E+00 -0.00000000000E+00 -0.18024665726E+02  0.18069351802E+02  0.12700000000E+01 0.  1.
         25    2    1    2    0    0  0.00000000000E+00  0.00000000000E+00  0.19838600827E+03  0.23448375225E+03  0.12500248714E+03 0.  0.
    9000005    1    3    3    0    0  0.27902455156E+02  0.55912693957E+02  0.10068083415E+03  0.11850066124E+03  0.10000000000E+01 0.  0.
    9000005    1    3    3    0    0 -0.27902455156E+02 -0.55912693957E+02  0.97705174119E+02  0.11598309100E+03  0.10000000000E+01 0.  0.
<mgrwt>
<rscale>  0 0.12500249E+03</rscale>
<asrwt>0</asrwt>
<pdfrwt beam="1">  1        4 0.33297672E-01 0.12500249E+03</pdfrwt>
<pdfrwt beam="2">  1       -4 0.27767497E-02 0.12500249E+03</pdfrwt>
<totfact> 0.84621141E+03</totfact>
</mgrwt>
</event>
<event>
 5    1  0.3234540E-002  0.1250089E+03  0.7818608E-02  0.1235055E+00
         -4   -1    0    0    0  501 -0.00000000000E+00  0.00000000000E+00  0.41951829987E+03  0.41952022219E+03  0.12700000000E+01 0. -1.
          4   -1    0    0  501    0  0.00000000000E+00 -0.00000000000E+00 -0.92673542190E+01  0.93539699711E+01  0.12700000000E+01 0. -1.
         25    2    1    2    0    0  0.00000000000E+00  0.00000000000E+00  0.41025094565E+03  0.42887419216E+03  0.12500893686E+03 0.  0.
    9000005    1    3    3    0    0 -0.59873796786E+02  0.10851539201E+02  0.25402791360E+03  0.26121601853E+03  0.10000000000E+01 0.  0.
    9000005    1    3    3    0    0  0.59873796786E+02 -0.10851539201E+02  0.15622303205E+03  0.16765817364E+03  0.10000000000E+01 0.  0.
<mgrwt>
<rscale>  0 0.12500894E+03</rscale>
<asrwt>0</asrwt>
<pdfrwt beam="2">  1        4 0.14325576E-02 0.12500894E+03</pdfrwt>
<pdfrwt beam="1">  1       -4 0.64548077E-01 0.12500894E+03</pdfrwt>
<totfact> 0.61825992E+03</totfact>
</mgrwt>
</event>
<event>
 5    1  0.3234540E-002  0.1250010E+03  0.7818608E-02  0.1235068E+00
         -4   -1    0    0    0  501 -0.00000000000E+00  0.00000000000E+00  0.27604104879E+02  0.27633304294E+02  0.12700000000E+01 0. -1.
          4   -1    0    0  501    0  0.00000000000E+00 -0.00000000000E+00 -0.14140508565E+03  0.14141078866E+03  0.12700000000E+01 0. -1.
         25    2    1    2    0    0  0.00000000000E+00  0.00000000000E+00 -0.11380098078E+03  0.16904409295E+03  0.12500096854E+03 0.  0.
    9000005    1    3    3    0    0 -0.62034671455E+02  0.32037024400E+01 -0.66146631809E+02  0.90746576087E+02  0.10000000000E+01 0.  0.
    9000005    1    3    3    0    0  0.62034671455E+02 -0.32037024400E+01 -0.47654348967E+02  0.78297516866E+02  0.10000000000E+01 0.  0.
<mgrwt>
<rscale>  0 0.12500097E+03</rscale>
<asrwt>0</asrwt>
<pdfrwt beam="2">  1        4 0.21757313E-01 0.12500097E+03</pdfrwt>
<pdfrwt beam="1">  1       -4 0.42494702E-02 0.12500097E+03</pdfrwt>
<totfact> 0.95624860E+03</totfact>
</mgrwt>
</event>
<event>
 5    1  0.3234540E-002  0.1249977E+03  0.7818608E-02  0.1235073E+00
          4   -1    0    0  501    0  0.00000000000E+00  0.00000000000E+00  0.72599964142E+01  0.73702406971E+01  0.12700000000E+01 0. -1.
         -4   -1    0    0    0  501 -0.00000000000E+00 -0.00000000000E+00 -0.53386615538E+03  0.53386766597E+03  0.12700000000E+01 0. -1.
         25    2    1    2    0    0  0.00000000000E+00  0.00000000000E+00 -0.52660615897E+03  0.54123790666E+03  0.12499769976E+03 0.  0.
    9000005    1    3    3    0    0  0.45059564240E+02  0.30904239109E+02 -0.39461440148E+03  0.39838042395E+03  0.10000000000E+01 0.  0.
    9000005    1    3    3    0    0 -0.45059564240E+02 -0.30904239109E+02 -0.13199175749E+03  0.14285748272E+03  0.10000000000E+01 0.  0.
<mgrwt>
<rscale>  0 0.12499770E+03</rscale>
<asrwt>0</asrwt>
<pdfrwt beam="1">  1        4 0.11255195E-02 0.12499770E+03</pdfrwt>
<pdfrwt beam="2">  1       -4 0.82141820E-01 0.12499770E+03</pdfrwt>
<totfact> 0.52803681E+03</totfact>
</mgrwt>
</event>
<event>
 5    1  0.3234540E-002  0.1249967E+03  0.7818608E-02  0.1235074E+00
         -4   -1    0    0    0  501 -0.00000000000E+00  0.00000000000E+00  0.10098257512E+03  0.10099056084E+03  0.12700000000E+01 0.  1.
          4   -1    0    0  501    0  0.00000000000E+00 -0.00000000000E+00 -0.38660446541E+02  0.38681300738E+02  0.12700000000E+01 0.  1.
         25    2    1    2    0    0  0.00000000000E+00  0.00000000000E+00  0.62322128579E+02  0.13967186157E+03  0.12499672478E+03 0.  0.
    9000005    1    3    3    0    0  0.48303649585E+02  0.34265675232E+02  0.53443858470E+02  0.79778600329E+02  0.10000000000E+01 0.  0.
    9000005    1    3    3    0    0 -0.48303649585E+02 -0.34265675232E+02  0.88782701094E+01  0.59893261244E+02  0.10000000000E+01 0.  0.
<mgrwt>
<rscale>  0 0.12499672E+03</rscale>
<asrwt>0</asrwt>
<pdfrwt beam="2">  1        4 0.59499795E-02 0.12499672E+03</pdfrwt>
<pdfrwt beam="1">  1       -4 0.15537999E-01 0.12499672E+03</pdfrwt>
<totfact> 0.10141139E+04</totfact>
</mgrwt>
</event>
<event>
 5    1  0.3234540E-002  0.1249999E+03  0.7818608E-02  0.1235069E+00
         -4   -1    0    0    0  501 -0.00000000000E+00  0.00000000000E+00  0.47936561008E+01  0.49590360770E+01  0.12700000000E+01 0.  1.
          4   -1    0    0  501    0  0.00000000000E+00 -0.00000000000E+00 -0.80089327099E+03  0.80089427793E+03  0.12700000000E+01 0.  1.
         25    2    1    2    0    0  0.00000000000E+00  0.00000000000E+00 -0.79609961489E+03  0.80585331401E+03  0.12499986746E+03 0.  0.
    9000005    1    3    3    0    0  0.17925339985E+02 -0.25645044888E+02 -0.74679045596E+03  0.74744629991E+03  0.10000000000E+01 0.  0.
    9000005    1    3    3    0    0 -0.17925339985E+02  0.25645044888E+02 -0.49309158934E+02  0.58407014096E+02  0.10000000000E+01 0.  0.
<mgrwt>
<rscale>  0 0.12499987E+03</rscale>
<asrwt>0</asrwt>
<pdfrwt beam="2">  1        4 0.12322704E+00 0.12499987E+03</pdfrwt>
<pdfrwt beam="1">  1       -4 0.75028518E-03 0.12499987E+03</pdfrwt>
<totfact> 0.38004889E+03</totfact>
</mgrwt>
</event>
<event>
 5    1  0.3234540E-002  0.1250008E+03  0.7818608E-02  0.1235068E+00
          4   -1    0    0  501    0  0.00000000000E+00  0.00000000000E+00  0.13433467028E+02  0.13493366385E+02  0.12700000000E+01 0. -1.
         -4   -1    0    0    0  501 -0.00000000000E+00 -0.00000000000E+00 -0.29008063120E+03  0.29008341128E+03  0.12700000000E+01 0. -1.
         25    2    1    2    0    0  0.00000000000E+00  0.00000000000E+00 -0.27664716417E+03  0.30357677766E+03  0.12500082596E+03 0.  0.
    9000005    1    3    3    0    0 -0.61272690399E+02  0.59433243432E+01 -0.11220785856E+03  0.12798933243E+03  0.10000000000E+01 0.  0.
    9000005    1    3    3    0    0  0.61272690399E+02 -0.59433243432E+01 -0.16443930562E+03  0.17558744524E+03  0.10000000000E+01 0.  0.
<mgrwt>
<rscale>  0 0.12500083E+03</rscale>
<asrwt>0</asrwt>
<pdfrwt beam="1">  1        4 0.20715089E-02 0.12500083E+03</pdfrwt>
<pdfrwt beam="2">  1       -4 0.44632606E-01 0.12500083E+03</pdfrwt>
<totfact> 0.75150978E+03</totfact>
</mgrwt>
</event>
<event>
 5    1  0.3234540E-002  0.1249990E+03  0.7818608E-02  0.1235071E+00
          4   -1    0    0  501    0  0.00000000000E+00  0.00000000000E+00  0.49887913587E+02  0.49904076207E+02  0.12700000000E+01 0. -1.
         -4   -1    0    0    0  501 -0.00000000000E+00 -0.00000000000E+00 -0.78265243140E+02  0.78275546525E+02  0.12700000000E+01 0. -1.
         25    2    1    2    0    0  0.00000000000E+00  0.00000000000E+00 -0.28377329553E+02  0.12817962273E+03  0.12499897140E+03 0.  0.
    9000005    1    3    3    0    0 -0.42126050020E+02 -0.35333868191E+02 -0.44644555702E+02  0.70832356204E+02  0.10000000000E+01 0.  0.
    9000005    1    3    3    0    0  0.42126050020E+02  0.35333868191E+02  0.16267226149E+02  0.57347266528E+02  0.10000000000E+01 0.  0.
<mgrwt>
<rscale>  0 0.12499897E+03</rscale>
<asrwt>0</asrwt>
<pdfrwt beam="1">  1        4 0.76770995E-02 0.12499897E+03</pdfrwt>
<pdfrwt beam="2">  1       -4 0.12042843E-01 0.12499897E+03</pdfrwt>
<totfact> 0.10383851E+04</totfact>
</mgrwt>
</event>
<event>
 5    1  0.3234540E-002  0.1250037E+03  0.7818608E-02  0.1235063E+00
          4   -1    0    0  501    0  0.00000000000E+00  0.00000000000E+00  0.21767981048E+03  0.21768351520E+03  0.12700000000E+01 0.  1.
         -4   -1    0    0    0  501 -0.00000000000E+00 -0.00000000000E+00 -0.17919671323E+02  0.17964618568E+02  0.12700000000E+01 0.  1.
         25    2    1    2    0    0  0.00000000000E+00  0.00000000000E+00  0.19976013916E+03  0.23564813377E+03  0.12500371896E+03 0.  0.
    9000005    1    3    3    0    0 -0.68877046805E+01 -0.61964842766E+02  0.91793717985E+02  0.11096922491E+03  0.10000000000E+01 0.  0.
    9000005    1    3    3    0    0  0.68877046805E+01  0.61964842766E+02  0.10796642117E+03  0.12467890887E+03  0.10000000000E+01 0.  0.
<mgrwt>
<rscale>  0 0.12500372E+03</rscale>
<asrwt>0</asrwt>
<pdfrwt beam="1">  1        4 0.33492944E-01 0.12500372E+03</pdfrwt>
<pdfrwt beam="2">  1       -4 0.27606150E-02 0.12500372E+03</pdfrwt>
<totfact> 0.84442795E+03</totfact>
</mgrwt>
</event>
<event>
 5    1  0.3234540E-002  0.1249980E+03  0.7818608E-02  0.1235072E+00
          4   -1    0    0  501    0  0.00000000000E+00  0.00000000000E+00  0.29995931177E+02  0.30022804452E+02  0.12700000000E+01 0.  1.
         -4   -1    0    0    0  501 -0.00000000000E+00 -0.00000000000E+00 -0.13013361472E+03  0.13013981166E+03  0.12700000000E+01 0.  1.
         25    2    1    2    0    0  0.00000000000E+00  0.00000000000E+00 -0.10013768354E+03  0.16016261612E+03  0.12499803173E+03 0.  0.
    9000005    1    3    3    0    0  0.13937324821E+02 -0.50228852231E+02 -0.59061741167E+01  0.52469700898E+02  0.10000000000E+01 0.  0.
    9000005    1    3    3    0    0 -0.13937324821E+02  0.50228852231E+02 -0.94231509425E+02  0.10769291522E+03  0.10000000000E+01 0.  0.
<mgrwt>
<rscale>  0 0.12499803E+03</rscale>
<asrwt>0</asrwt>
<pdfrwt beam="1">  1        4 0.46173026E-02 0.12499803E+03</pdfrwt>
<pdfrwt beam="2">  1       -4 0.20023100E-01 0.12499803E+03</pdfrwt>
<totfact> 0.97315748E+03</totfact>
</mgrwt>
</event>
<event>
 5    1  0.3234540E-002  0.1250020E+03  0.7818608E-02  0.1235066E+00
          4   -1    0    0  501    0  0.00000000000E+00  0.00000000000E+00  0.45820705022E+02  0.45838301765E+02  0.12700000000E+01 0. -1.
         -4   -1    0    0    0  501 -0.00000000000E+00 -0.00000000000E+00 -0.85214796820E+02  0.85224260027E+02  0.12700000000E+01 0. -1.
         25    2    1    2    0    0  0.00000000000E+00  0.00000000000E+00 -0.39394091798E+02  0.13106256179E+03  0.12500200252E+03 0.  0.
    9000005    1    3    3    0    0  0.80388997813E+01 -0.24757659566E+02  0.39871312613E+02  0.47626538677E+02  0.10000000000E+01 0.  0.
    9000005    1    3    3    0    0 -0.80388997813E+01  0.24757659566E+02 -0.79265404411E+02  0.83436023115E+02  0.10000000000E+01 0.  0.
<mgrwt>
<rscale>  0 0.12500200E+03</rscale>
<asrwt>0</asrwt>
<pdfrwt beam="1">  1        4 0.70514208E-02 0.12500200E+03</pdfrwt>
<pdfrwt beam="2">  1       -4 0.13112050E-01 0.12500200E+03</pdfrwt>
<totfact> 0.10321282E+04</totfact>
</mgrwt>
</event>
<event>
 5    1  0.3234540E-002  0.1250012E+03  0.7818608E-02  0.1235067E+00
          4   -1    0    0  501    0  0.00000000000E+00  0.00000000000E+00  0.12080439961E+04  0.12080446637E+04  0.12700000000E+01 0.  1.
         -4   -1    0    0    0  501 -0.00000000000E+00 -0.00000000000E+00 -0.31082043931E+01  0.33576531312E+01  0.12700000000E+01 0.  1.
         25    2    1    2    0    0  0.00000000000E+00  0.00000000000E+00  0.12049357917E+04  0.12114023168E+04  0.12500124402E+03 0.  0.
    9000005    1    3    3    0    0 -0.59071996844E+02  0.17994255834E+02  0.69543889540E+03  0.69817587418E+03  0.10000000000E+01 0.  0.
    9000005    1    3    3    0    0  0.59071996844E+02 -0.17994255834E+02  0.50949689631E+03  0.51322644262E+03  0.10000000000E+01 0.  0.
<mgrwt>
<rscale>  0 0.12500124E+03</rscale>
<asrwt>0</asrwt>
<pdfrwt beam="1">  1        4 0.18587201E+00 0.12500124E+03</pdfrwt>
<pdfrwt beam="2">  1       -4 0.49742542E-03 0.12500124E+03</pdfrwt>
<totfact> 0.24415595E+03</totfact>
</mgrwt>
</event>
<event>
 5    1  0.3234540E-002  0.1249972E+03  0.7818608E-02  0.1235074E+00
          4   -1    0    0  501    0  0.00000000000E+00  0.00000000000E+00  0.20369107231E+02  0.20408660647E+02  0.12700000000E+01 0. -1.
         -4   -1    0    0    0  501 -0.00000000000E+00 -0.00000000000E+00 -0.19153713821E+03  0.19154134857E+03  0.12700000000E+01 0. -1.
         25    2    1    2    0    0  0.00000000000E+00  0.00000000000E+00 -0.17116803098E+03  0.21195000922E+03  0.12499724629E+03 0.  0.
    9000005    1    3    3    0    0  0.59706861532E+02 -0.17862575176E+02 -0.93372325552E+02  0.11226474106E+03  0.10000000000E+01 0.  0.
    9000005    1    3    3    0    0 -0.59706861532E+02  0.17862575176E+02 -0.77795705426E+02  0.99685268163E+02  0.10000000000E+01 0.  0.
<mgrwt>
<rscale>  0 0.12499725E+03</rscale>
<asrwt>0</asrwt>
<pdfrwt beam="1">  1        4 0.31370754E-02 0.12499725E+03</pdfrwt>
<pdfrwt beam="2">  1       -4 0.29470617E-01 0.12499725E+03</pdfrwt>
<totfact> 0.88163833E+03</totfact>
</mgrwt>
</event>
<event>
 5    1  0.3234540E-002  0.1249890E+03  0.7818608E-02  0.1235086E+00
         -4   -1    0    0    0  501 -0.00000000000E+00  0.00000000000E+00  0.25770233043E+03  0.25770545979E+03  0.12700000000E+01 0. -1.
          4   -1    0    0  501    0  0.00000000000E+00 -0.00000000000E+00 -0.15125492123E+02  0.15178715755E+02  0.12700000000E+01 0. -1.
         25    2    1    2    0    0  0.00000000000E+00  0.00000000000E+00  0.24257683831E+03  0.27288417555E+03  0.12498900265E+03 0.  0.
    9000005    1    3    3    0    0  0.16117124156E+02 -0.26244795533E+02  0.23999085320E+03  0.24196107249E+03  0.10000000000E+01 0.  0.
    9000005    1    3    3    0    0 -0.16117124156E+02  0.26244795533E+02  0.25859851072E+01  0.30923103056E+02  0.10000000000E+01 0.  0.
<mgrwt>
<rscale>  0 0.12498900E+03</rscale>
<asrwt>0</asrwt>
<pdfrwt beam="2">  1        4 0.23313336E-02 0.12498900E+03</pdfrwt>
<pdfrwt beam="1">  1       -4 0.39650847E-01 0.12498900E+03</pdfrwt>
<totfact> 0.79150527E+03</totfact>
</mgrwt>
</event>
<event>
 5    1  0.3234540E-002  0.1250025E+03  0.7818608E-02  0.1235065E+00
         -4   -1    0    0    0  501 -0.00000000000E+00  0.00000000000E+00  0.20304117452E+02  0.20343797224E+02  0.12700000000E+01 0.  1.
          4   -1    0    0  501    0  0.00000000000E+00 -0.00000000000E+00 -0.19216526169E+03  0.19216945829E+03  0.12700000000E+01 0.  1.
         25    2    1    2    0    0  0.00000000000E+00  0.00000000000E+00 -0.17186114424E+03  0.21251325552E+03  0.12500252346E+03 0.  0.
    9000005    1    3    3    0    0  0.45188211637E+02  0.87317857119E+01 -0.14059767747E+02  0.48134141955E+02  0.10000000000E+01 0.  0.
    9000005    1    3    3    0    0 -0.45188211637E+02 -0.87317857119E+01 -0.15780137649E+03  0.16437911356E+03  0.10000000000E+01 0.  0.
<mgrwt>
<rscale>  0 0.12500252E+03</rscale>
<asrwt>0</asrwt>
<pdfrwt beam="2">  1        4 0.29567260E-01 0.12500252E+03</pdfrwt>
<pdfrwt beam="1">  1       -4 0.31270856E-02 0.12500252E+03</pdfrwt>
<totfact> 0.88062105E+03</totfact>
</mgrwt>
</event>
<event>
 5    1  0.3234540E-002  0.1249980E+03  0.7818608E-02  0.1235072E+00
          4   -1    0    0  501    0  0.00000000000E+00  0.00000000000E+00  0.98691078517E+03  0.98691160231E+03  0.12700000000E+01 0.  1.
         -4   -1    0    0    0  501 -0.00000000000E+00 -0.00000000000E+00 -0.38552128000E+01  0.40590104377E+01  0.12700000000E+01 0.  1.
         25    2    1    2    0    0  0.00000000000E+00  0.00000000000E+00  0.98305557237E+03  0.99097061275E+03  0.12499798787E+03 0.  0.
    9000005    1    3    3    0    0  0.11499331872E+02 -0.50188554966E+02  0.77226906410E+03  0.77398425891E+03  0.10000000000E+01 0.  0.
    9000005    1    3    3    0    0 -0.11499331872E+02  0.50188554966E+02  0.21078650827E+03  0.21698635384E+03  0.10000000000E+01 0.  0.
<mgrwt>
<rscale>  0 0.12499799E+03</rscale>
<asrwt>0</asrwt>
<pdfrwt beam="1">  1        4 0.15184826E+00 0.12499799E+03</pdfrwt>
<pdfrwt beam="2">  1       -4 0.60884889E-03 0.12499799E+03</pdfrwt>
<totfact> 0.30905837E+03</totfact>
</mgrwt>
</event>
<event>
 5    1  0.3234540E-002  0.1249995E+03  0.7818608E-02  0.1235070E+00
         -4   -1    0    0    0  501 -0.00000000000E+00  0.00000000000E+00  0.14994256307E+03  0.14994794136E+03  0.12700000000E+01 0. -1.
          4   -1    0    0  501    0  0.00000000000E+00 -0.00000000000E+00 -0.26030086759E+02  0.26061049800E+02  0.12700000000E+01 0. -1.
         25    2    1    2    0    0  0.00000000000E+00  0.00000000000E+00  0.12391247631E+03  0.17600899116E+03  0.12499945274E+03 0.  0.
    9000005    1    3    3    0    0  0.14966323670E+02 -0.39403049445E+02 -0.30082895211E+01  0.42268675820E+02  0.10000000000E+01 0.  0.
    9000005    1    3    3    0    0 -0.14966323670E+02  0.39403049445E+02  0.12692076583E+03  0.13374031534E+03  0.10000000000E+01 0.  0.
<mgrwt>
<rscale>  0 0.12499945E+03</rscale>
<asrwt>0</asrwt>
<pdfrwt beam="2">  1        4 0.40074242E-02 0.12499945E+03</pdfrwt>
<pdfrwt beam="1">  1       -4 0.23070882E-01 0.12499945E+03</pdfrwt>
<totfact> 0.94341528E+03</totfact>
</mgrwt>
</event>
<event>
 5    1  0.3234540E-002  0.1250202E+03  0.7818608E-02  0.1235038E+00
         -4   -1    0    0    0  501 -0.00000000000E+00  0.00000000000E+00  0.70767559199E+01  0.71898104530E+01  0.12700000000E+01 0.  1.
          4   -1    0    0  501    0  0.00000000000E+00 -0.00000000000E+00 -0.54767221983E+03  0.54767369233E+03  0.12700000000E+01 0.  1.
         25    2    1    2    0    0  0.00000000000E+00  0.00000000000E+00 -0.54059546391E+03  0.55486350279E+03  0.12502020286E+03 0.  0.
    9000005    1    3    3    0    0 -0.17005592566E+02  0.39296861292E+01 -0.39367605722E+01  0.17920119849E+02  0.10000000000E+01 0.  0.
    9000005    1    3    3    0    0  0.17005592566E+02 -0.39296861292E+01 -0.53665870334E+03  0.53694338294E+03  0.10000000000E+01 0.  0.
<mgrwt>
<rscale>  0 0.12502020E+03</rscale>
<asrwt>0</asrwt>
<pdfrwt beam="2">  1        4 0.84266041E-01 0.12502020E+03</pdfrwt>
<pdfrwt beam="1">  1       -4 0.10975419E-02 0.12502020E+03</pdfrwt>
<totfact> 0.51823640E+03</totfact>
</mgrwt>
</event>
<event>
 5    1  0.3234540E-002  0.1249971E+03  0.7818608E-02  0.1235074E+00
          4   -1    0    0  501    0  0.00000000000E+00  0.00000000000E+00  0.29106372011E+03  0.29106649080E+03  0.12700000000E+01 0.  1.
         -4   -1    0    0    0  501 -0.00000000000E+00 -0.00000000000E+00 -0.13387082746E+02  0.13447188719E+02  0.12700000000E+01 0.  1.
         25    2    1    2    0    0  0.00000000000E+00  0.00000000000E+00  0.27767663737E+03  0.30451367952E+03  0.12499706426E+03 0.  0.
    9000005    1    3    3    0    0  0.30374514676E+02 -0.56593106174E+01  0.65110119192E+01  0.31591647862E+02  0.10000000000E+01 0.  0.
    9000005    1    3    3    0    0 -0.30374514676E+02  0.56593106174E+01  0.27116562545E+03  0.27292203166E+03  0.10000000000E+01 0.  0.
<mgrwt>
<rscale>  0 0.12499706E+03</rscale>
<asrwt>0</asrwt>
<pdfrwt beam="1">  1        4 0.44783870E-01 0.12499706E+03</pdfrwt>
<pdfrwt beam="2">  1       -4 0.20643879E-02 0.12499706E+03</pdfrwt>
<totfact> 0.75041005E+03</totfact>
</mgrwt>
</event>
<event>
 5    1  0.3234540E-002  0.1250063E+03  0.7818608E-02  0.1235059E+00
          4   -1    0    0  501    0  0.00000000000E+00  0.00000000000E+00  0.12922368510E+03  0.12922992568E+03  0.12700000000E+01 0. -1.
         -4   -1    0    0    0  501 -0.00000000000E+00 -0.00000000000E+00 -0.30211314025E+02  0.30237995885E+02  0.12700000000E+01 0. -1.
         25    2    1    2    0    0  0.00000000000E+00  0.00000000000E+00  0.99012371077E+02  0.15946792157E+03  0.12500627337E+03 0.  0.
    9000005    1    3    3    0    0  0.36078894817E+02 -0.48217660434E+02  0.70814715295E+02  0.92964258354E+02  0.10000000000E+01 0.  0.
    9000005    1    3    3    0    0 -0.36078894817E+02  0.48217660434E+02  0.28197655782E+02  0.66503663212E+02  0.10000000000E+01 0.  0.
<mgrwt>
<rscale>  0 0.12500627E+03</rscale>
<asrwt>0</asrwt>
<pdfrwt beam="1">  1        4 0.19883099E-01 0.12500627E+03</pdfrwt>
<pdfrwt beam="2">  1       -4 0.46504270E-02 0.12500627E+03</pdfrwt>
<totfact> 0.97431723E+03</totfact>
</mgrwt>
</event>
<event>
 5    1  0.3234540E-002  0.1250017E+03  0.7818608E-02  0.1235067E+00
         -4   -1    0    0    0  501 -0.00000000000E+00  0.00000000000E+00  0.76190205451E+01  0.77241422868E+01  0.12700000000E+01 0.  1.
          4   -1    0    0  501    0  0.00000000000E+00 -0.00000000000E+00 -0.50909276562E+03  0.50909434971E+03  0.12700000000E+01 0.  1.
         25    2    1    2    0    0  0.00000000000E+00  0.00000000000E+00 -0.50147374508E+03  0.51681849200E+03  0.12500174667E+03 0.  0.
    9000005    1    3    3    0    0  0.45543144346E+02  0.39916558747E+02 -0.18697323386E+03  0.19653879983E+03  0.10000000000E+01 0.  0.
    9000005    1    3    3    0    0 -0.45543144346E+02 -0.39916558747E+02 -0.31450051121E+03  0.32027969216E+03  0.10000000000E+01 0.  0.
<mgrwt>
<rscale>  0 0.12500175E+03</rscale>
<asrwt>0</asrwt>
<pdfrwt beam="2">  1        4 0.78330146E-01 0.12500175E+03</pdfrwt>
<pdfrwt beam="1">  1       -4 0.11803655E-02 0.12500175E+03</pdfrwt>
<totfact> 0.54580586E+03</totfact>
</mgrwt>
</event>
<event>
 5    1  0.3234540E-002  0.1249998E+03  0.7818608E-02  0.1235070E+00
          4   -1    0    0  501    0  0.00000000000E+00  0.00000000000E+00  0.57068302003E+03  0.57068443316E+03  0.12700000000E+01 0.  1.
         -4   -1    0    0    0  501 -0.00000000000E+00 -0.00000000000E+00 -0.67845000255E+01  0.69023431236E+01  0.12700000000E+01 0.  1.
         25    2    1    2    0    0  0.00000000000E+00  0.00000000000E+00  0.56389852001E+03  0.57758677629E+03  0.12499977310E+03 0.  0.
    9000005    1    3    3    0    0  0.34623736217E+02 -0.36012648136E+02  0.10847145105E+03  0.11942683797E+03  0.10000000000E+01 0.  0.
    9000005    1    3    3    0    0 -0.34623736217E+02  0.36012648136E+02  0.45542706896E+03  0.45815993832E+03  0.10000000000E+01 0.  0.
<mgrwt>
<rscale>  0 0.12499977E+03</rscale>
<asrwt>0</asrwt>
<pdfrwt beam="1">  1        4 0.87806550E-01 0.12499977E+03</pdfrwt>
<pdfrwt beam="2">  1       -4 0.10529429E-02 0.12499977E+03</pdfrwt>
<totfact> 0.50313921E+03</totfact>
</mgrwt>
</event>
<event>
 5    1  0.3234540E-002  0.1250011E+03  0.7818608E-02  0.1235068E+00
         -4   -1    0    0    0  501 -0.00000000000E+00  0.00000000000E+00  0.17404814073E+02  0.17451087443E+02  0.12700000000E+01 0. -1.
          4   -1    0    0  501    0  0.00000000000E+00 -0.00000000000E+00 -0.22409291166E+03  0.22409651036E+03  0.12700000000E+01 0. -1.
         25    2    1    2    0    0  0.00000000000E+00  0.00000000000E+00 -0.20668809758E+03  0.24154759780E+03  0.12500108928E+03 0.  0.
    9000005    1    3    3    0    0  0.46827415767E+01 -0.62299510891E+02 -0.10618465943E+03  0.12320446025E+03  0.10000000000E+01 0.  0.
    9000005    1    3    3    0    0 -0.46827415767E+01  0.62299510891E+02 -0.10050343815E+03  0.11834313755E+03  0.10000000000E+01 0.  0.
<mgrwt>
<rscale>  0 0.12500109E+03</rscale>
<asrwt>0</asrwt>
<pdfrwt beam="2">  1        4 0.34479667E-01 0.12500109E+03</pdfrwt>
<pdfrwt beam="1">  1       -4 0.26815002E-02 0.12500109E+03</pdfrwt>
<totfact> 0.83565391E+03</totfact>
</mgrwt>
</event>
<event>
 5    1  0.3234540E-002  0.1249975E+03  0.7818608E-02  0.1235073E+00
         -4   -1    0    0    0  501 -0.00000000000E+00  0.00000000000E+00  0.13729901393E+02  0.13788513055E+02  0.12700000000E+01 0. -1.
          4   -1    0    0  501    0  0.00000000000E+00 -0.00000000000E+00 -0.28382940488E+03  0.28383224618E+03  0.12700000000E+01 0. -1.
         25    2    1    2    0    0  0.00000000000E+00  0.00000000000E+00 -0.27009950349E+03  0.29762075924E+03  0.12499749816E+03 0.  0.
    9000005    1    3    3    0    0 -0.18757833488E+02 -0.38173265854E+02 -0.26040944208E+02  0.49881713266E+02  0.10000000000E+01 0.  0.
    9000005    1    3    3    0    0  0.18757833488E+02  0.38173265854E+02 -0.24405855928E+03  0.24773904597E+03  0.10000000000E+01 0.  0.
<mgrwt>
<rscale>  0 0.12499750E+03</rscale>
<asrwt>0</asrwt>
<pdfrwt beam="2">  1        4 0.43670785E-01 0.12499750E+03</pdfrwt>
<pdfrwt beam="1">  1       -4 0.21170199E-02 0.12499750E+03</pdfrwt>
<totfact> 0.75902476E+03</totfact>
</mgrwt>
</event>
<event>
 5    1  0.3234540E-002  0.1250022E+03  0.7818608E-02  0.1235066E+00
         -4   -1    0    0    0  501 -0.00000000000E+00  0.00000000000E+00  0.32476741363E+03  0.32476989678E+03  0.12700000000E+01 0. -1.
          4   -1    0    0  501    0  0.00000000000E+00 -0.00000000000E+00 -0.11992204209E+02  0.12059264563E+02  0.12700000000E+01 0. -1.
         25    2    1    2    0    0  0.00000000000E+00  0.00000000000E+00  0.31277520942E+03  0.33682916134E+03  0.12500220920E+03 0.  0.
    9000005    1    3    3    0    0 -0.18145613968E+02  0.59183134755E+02  0.13328927904E+03  0.14696577374E+03  0.10000000000E+01 0.  0.
    9000005    1    3    3    0    0  0.18145613968E+02 -0.59183134755E+02  0.17948593038E+03  0.18986338760E+03  0.10000000000E+01 0.  0.
<mgrwt>
<rscale>  0 0.12500221E+03</rscale>
<asrwt>0</asrwt>
<pdfrwt beam="2">  1        4 0.18503040E-02 0.12500221E+03</pdfrwt>
<pdfrwt beam="1">  1       -4 0.49969568E-01 0.12500221E+03</pdfrwt>
<totfact> 0.71194749E+03</totfact>
</mgrwt>
</event>
<event>
 5    1  0.3234540E-002  0.1250029E+03  0.7818608E-02  0.1235065E+00
          4   -1    0    0  501    0  0.00000000000E+00  0.00000000000E+00  0.49751604138E+03  0.49751766233E+03  0.12700000000E+01 0. -1.
         -4   -1    0    0    0  501 -0.00000000000E+00 -0.00000000000E+00 -0.77988762400E+01  0.79016055714E+01  0.12700000000E+01 0. -1.
         25    2    1    2    0    0  0.00000000000E+00  0.00000000000E+00  0.48971716514E+03  0.50541926790E+03  0.12500293810E+03 0.  0.
    9000005    1    3    3    0    0  0.21685776116E+01 -0.62407593641E+02  0.23493556437E+03  0.24309489892E+03  0.10000000000E+01 0.  0.
    9000005    1    3    3    0    0 -0.21685776116E+01  0.62407593641E+02  0.25478160077E+03  0.26232436898E+03  0.10000000000E+01 0.  0.
<mgrwt>
<rscale>  0 0.12500294E+03</rscale>
<asrwt>0</asrwt>
<pdfrwt beam="1">  1        4 0.76548950E-01 0.12500294E+03</pdfrwt>
<pdfrwt beam="2">  1       -4 0.12078542E-02 0.12500294E+03</pdfrwt>
<totfact> 0.55442756E+03</totfact>
</mgrwt>
</event>
<event>
 5    1  0.3234540E-002  0.1249976E+03  0.7818608E-02  0.1235073E+00
          4   -1    0    0  501    0  0.00000000000E+00  0.00000000000E+00  0.26515367430E+02  0.26545764445E+02  0.12700000000E+01 0. -1.
         -4   -1    0    0    0  501 -0.00000000000E+00 -0.00000000000E+00 -0.14719699675E+03  0.14720247536E+03  0.12700000000E+01 0. -1.
         25    2    1    2    0    0  0.00000000000E+00  0.00000000000E+00 -0.12068162931E+03  0.17374823980E+03  0.12499758070E+03 0.  0.
    9000005    1    3    3    0    0 -0.40589691449E+02 -0.19833706481E+02 -0.12035653709E+03  0.12855969424E+03  0.10000000000E+01 0.  0.
    9000005    1    3    3    0    0  0.40589691449E+02  0.19833706481E+02 -0.32509222987E+00  0.45188545558E+02  0.10000000000E+01 0.  0.
<mgrwt>
<rscale>  0 0.12499758E+03</rscale>
<asrwt>0</asrwt>
<pdfrwt beam="1">  1        4 0.40820470E-02 0.12499758E+03</pdfrwt>
<pdfrwt beam="2">  1       -4 0.22648451E-01 0.12499758E+03</pdfrwt>
<totfact> 0.94759742E+03</totfact>
</mgrwt>
</event>
<event>
 5    1  0.3234540E-002  0.1250004E+03  0.7818608E-02  0.1235069E+00
         -4   -1    0    0    0  501 -0.00000000000E+00  0.00000000000E+00  0.13520506695E+04  0.13520512659E+04  0.12700000000E+01 0. -1.
          4   -1    0    0  501    0  0.00000000000E+00 -0.00000000000E+00 -0.27489551434E+01  0.30281437186E+01  0.12700000000E+01 0. -1.
         25    2    1    2    0    0  0.00000000000E+00  0.00000000000E+00  0.13493017143E+04  0.13550794097E+04  0.12500036072E+03 0.  0.
    9000005    1    3    3    0    0 -0.52989504087E+02  0.33014425908E+02  0.64509617430E+03  0.64811103521E+03  0.10000000000E+01 0.  0.
    9000005    1    3    3    0    0  0.52989504087E+02 -0.33014425908E+02  0.70420554003E+03  0.70696837445E+03  0.10000000000E+01 0.  0.
<mgrwt>
<rscale>  0 0.12500036E+03</rscale>
<asrwt>0</asrwt>
<pdfrwt beam="2">  1        4 0.44443674E-03 0.12500036E+03</pdfrwt>
<pdfrwt beam="1">  1       -4 0.20802996E+00 0.12500036E+03</pdfrwt>
<totfact> 0.20964353E+03</totfact>
</mgrwt>
</event>
<event>
 5    1  0.3234540E-002  0.1249994E+03  0.7818608E-02  0.1235070E+00
          4   -1    0    0  501    0  0.00000000000E+00  0.00000000000E+00  0.21004132668E+01  0.24545133716E+01  0.12700000000E+01 0.  1.
         -4   -1    0    0    0  501 -0.00000000000E+00 -0.00000000000E+00 -0.17148042174E+04  0.17148046877E+04  0.12700000000E+01 0.  1.
         25    2    1    2    0    0  0.00000000000E+00  0.00000000000E+00 -0.17127038042E+04  0.17172592011E+04  0.12499937171E+03 0.  0.
    9000005    1    3    3    0    0  0.22691217155E+02  0.27037637099E+02 -0.15648040329E+04  0.15652024108E+04  0.10000000000E+01 0.  0.
    9000005    1    3    3    0    0 -0.22691217155E+02 -0.27037637099E+02 -0.14789977122E+03  0.15205679032E+03  0.10000000000E+01 0.  0.
<mgrwt>
<rscale>  0 0.12499937E+03</rscale>
<asrwt>0</asrwt>
<pdfrwt beam="1">  1        4 0.35041652E-03 0.12499937E+03</pdfrwt>
<pdfrwt beam="2">  1       -4 0.26384228E+00 0.12499937E+03</pdfrwt>
<totfact> 0.14022279E+03</totfact>
</mgrwt>
</event>
<event>
 5    1  0.3234540E-002  0.1250006E+03  0.7818608E-02  0.1235068E+00
          4   -1    0    0  501    0  0.00000000000E+00  0.00000000000E+00  0.87344641064E+02  0.87353873541E+02  0.12700000000E+01 0. -1.
         -4   -1    0    0    0  501 -0.00000000000E+00 -0.00000000000E+00 -0.44702081219E+02  0.44720118127E+02  0.12700000000E+01 0. -1.
         25    2    1    2    0    0  0.00000000000E+00  0.00000000000E+00  0.42642559845E+02  0.13207399167E+03  0.12500060546E+03 0.  0.
    9000005    1    3    3    0    0 -0.62349901390E+02  0.32155630757E+01  0.18439723008E+02  0.65106631259E+02  0.10000000000E+01 0.  0.
    9000005    1    3    3    0    0  0.62349901390E+02 -0.32155630757E+01  0.24202836837E+02  0.66967360409E+02  0.10000000000E+01 0.  0.
<mgrwt>
<rscale>  0 0.12500061E+03</rscale>
<asrwt>0</asrwt>
<pdfrwt beam="1">  1        4 0.13439735E-01 0.12500061E+03</pdfrwt>
<pdfrwt beam="2">  1       -4 0.68793410E-02 0.12500061E+03</pdfrwt>
<totfact> 0.10299979E+04</totfact>
</mgrwt>
</event>
<event>
 5    1  0.3234540E-002  0.1250150E+03  0.7818608E-02  0.1235046E+00
          4   -1    0    0  501    0  0.00000000000E+00  0.00000000000E+00  0.86089806148E+02  0.86099173182E+02  0.12700000000E+01 0. -1.
         -4   -1    0    0    0  501 -0.00000000000E+00 -0.00000000000E+00 -0.45364270350E+02  0.45382044075E+02  0.12700000000E+01 0. -1.
         25    2    1    2    0    0  0.00000000000E+00  0.00000000000E+00  0.40725535798E+02  0.13148121726E+03  0.12501496400E+03 0.  0.
    9000005    1    3    3    0    0 -0.23641992351E+02  0.32911533702E+02  0.70406175723E+02  0.81241260655E+02  0.10000000000E+01 0.  0.
    9000005    1    3    3    0    0  0.23641992351E+02 -0.32911533702E+02 -0.29680639925E+02  0.50239956601E+02  0.10000000000E+01 0.  0.
<mgrwt>
<rscale>  0 0.12501496E+03</rscale>
<asrwt>0</asrwt>
<pdfrwt beam="1">  1        4 0.13246673E-01 0.12501496E+03</pdfrwt>
<pdfrwt beam="2">  1       -4 0.69812064E-02 0.12501496E+03</pdfrwt>
<totfact> 0.10309303E+04</totfact>
</mgrwt>
</event>
<event>
 5    1  0.3234540E-002  0.1250122E+03  0.7818608E-02  0.1235050E+00
          4   -1    0    0  501    0  0.00000000000E+00  0.00000000000E+00  0.52043236250E+03  0.52043391207E+03  0.12700000000E+01 0. -1.
         -4   -1    0    0    0  501 -0.00000000000E+00 -0.00000000000E+00 -0.74519542554E+01  0.75593995942E+01  0.12700000000E+01 0. -1.
         25    2    1    2    0    0  0.00000000000E+00  0.00000000000E+00  0.51298040824E+03  0.52799331167E+03  0.12501215111E+03 0.  0.
    9000005    1    3    3    0    0  0.23329908936E+02  0.41044061318E+02  0.83525714722E+02  0.95950219594E+02  0.10000000000E+01 0.  0.
    9000005    1    3    3    0    0 -0.23329908936E+02 -0.41044061318E+02  0.42945469352E+03  0.43204309207E+03  0.10000000000E+01 0.  0.
<mgrwt>
<rscale>  0 0.12501215E+03</rscale>
<asrwt>0</asrwt>
<pdfrwt beam="1">  1        4 0.80074929E-01 0.12501215E+03</pdfrwt>
<pdfrwt beam="2">  1       -4 0.11548383E-02 0.12501215E+03</pdfrwt>
<totfact> 0.53741653E+03</totfact>
</mgrwt>
</event>
<event>
 5    1  0.3234540E-002  0.1249966E+03  0.7818608E-02  0.1235075E+00
          4   -1    0    0  501    0  0.00000000000E+00  0.00000000000E+00  0.58033402894E+01  0.59406782874E+01  0.12700000000E+01 0. -1.
         -4   -1    0    0    0  501 -0.00000000000E+00 -0.00000000000E+00 -0.66505797745E+03  0.66505919005E+03  0.12700000000E+01 0. -1.
         25    2    1    2    0    0  0.00000000000E+00  0.00000000000E+00 -0.65925463716E+03  0.67099986834E+03  0.12499658672E+03 0.  0.
    9000005    1    3    3    0    0  0.51208962326E+02 -0.32868431211E+02 -0.25326649470E+03  0.26047573578E+03  0.10000000000E+01 0.  0.
    9000005    1    3    3    0    0 -0.51208962326E+02  0.32868431211E+02 -0.40598814246E+03  0.41052413255E+03  0.10000000000E+01 0.  0.
<mgrwt>
<rscale>  0 0.12499659E+03</rscale>
<asrwt>0</asrwt>
<pdfrwt beam="1">  1        4 0.90347984E-03 0.12499659E+03</pdfrwt>
<pdfrwt beam="2">  1       -4 0.10232721E+00 0.12499659E+03</pdfrwt>
<totfact> 0.44665764E+03</totfact>
</mgrwt>
</event>
<event>
 5    1  0.3234540E-002  0.1250006E+03  0.7818608E-02  0.1235068E+00
         -4   -1    0    0    0  501 -0.00000000000E+00  0.00000000000E+00  0.79544545739E+03  0.79544647122E+03  0.12700000000E+01 0. -1.
          4   -1    0    0  501    0  0.00000000000E+00 -0.00000000000E+00 -0.48276733285E+01  0.49919264585E+01  0.12700000000E+01 0. -1.
         25    2    1    2    0    0  0.00000000000E+00  0.00000000000E+00  0.79061778406E+03  0.80043839768E+03  0.12500059204E+03 0.  0.
    9000005    1    3    3    0    0 -0.49256336166E+02 -0.34463471664E+02  0.28600443618E+03  0.29225580413E+03  0.10000000000E+01 0.  0.
    9000005    1    3    3    0    0  0.49256336166E+02  0.34463471664E+02  0.50461334788E+03  0.50818259355E+03  0.10000000000E+01 0.  0.
<mgrwt>
<rscale>  0 0.12500059E+03</rscale>
<asrwt>0</asrwt>
<pdfrwt beam="2">  1        4 0.75543135E-03 0.12500059E+03</pdfrwt>
<pdfrwt beam="1">  1       -4 0.12238901E+00 0.12500059E+03</pdfrwt>
<totfact> 0.38244643E+03</totfact>
</mgrwt>
</event>
<event>
 5    1  0.3234540E-002  0.1249973E+03  0.7818608E-02  0.1235074E+00
         -4   -1    0    0    0  501 -0.00000000000E+00  0.00000000000E+00  0.85374243666E+02  0.85383689201E+02  0.12700000000E+01 0. -1.
          4   -1    0    0  501    0  0.00000000000E+00 -0.00000000000E+00 -0.45731662371E+02  0.45749293363E+02  0.12700000000E+01 0. -1.
         25    2    1    2    0    0  0.00000000000E+00  0.00000000000E+00  0.39642581295E+02  0.13113298256E+03  0.12499729943E+03 0.  0.
    9000005    1    3    3    0    0 -0.34880291483E+01 -0.56771670772E+02  0.46974038775E+02  0.73774990806E+02  0.10000000000E+01 0.  0.
    9000005    1    3    3    0    0  0.34880291483E+01  0.56771670772E+02 -0.73314574801E+01  0.57357991757E+02  0.10000000000E+01 0.  0.
<mgrwt>
<rscale>  0 0.12499730E+03</rscale>
<asrwt>0</asrwt>
<pdfrwt beam="2">  1        4 0.70377232E-02 0.12499730E+03</pdfrwt>
<pdfrwt beam="1">  1       -4 0.13136582E-01 0.12499730E+03</pdfrwt>
<totfact> 0.10320868E+04</totfact>
</mgrwt>
</event>
<event>
 5    1  0.3234540E-002  0.1249953E+03  0.7818608E-02  0.1235077E+00
          4   -1    0    0  501    0  0.00000000000E+00  0.00000000000E+00  0.13751180039E+03  0.13751766485E+03  0.12700000000E+01 0. -1.
         -4   -1    0    0    0  501 -0.00000000000E+00 -0.00000000000E+00 -0.28383869084E+02  0.28412267143E+02  0.12700000000E+01 0. -1.
         25    2    1    2    0    0  0.00000000000E+00  0.00000000000E+00  0.10912793130E+03  0.16592993199E+03  0.12499534768E+03 0.  0.
    9000005    1    3    3    0    0  0.12464168517E+02 -0.31317198642E+02  0.12441608158E+03  0.12890494088E+03  0.10000000000E+01 0.  0.
    9000005    1    3    3    0    0 -0.12464168517E+02  0.31317198642E+02 -0.15288150281E+02  0.37024991108E+02  0.10000000000E+01 0.  0.
<mgrwt>
<rscale>  0 0.12499535E+03</rscale>
<asrwt>0</asrwt>
<pdfrwt beam="1">  1        4 0.21158297E-01 0.12499535E+03</pdfrwt>
<pdfrwt beam="2">  1       -4 0.43693848E-02 0.12499535E+03</pdfrwt>
<totfact> 0.96221623E+03</totfact>
</mgrwt>
</event>
<event>
 5    1  0.3234540E-002  0.1250012E+03  0.7818608E-02  0.1235067E+00
          4   -1    0    0  501    0  0.00000000000E+00  0.00000000000E+00  0.59881853501E+02  0.59895319339E+02  0.12700000000E+01 0.  1.
         -4   -1    0    0    0  501 -0.00000000000E+00 -0.00000000000E+00 -0.65206873170E+02  0.65219239559E+02  0.12700000000E+01 0.  1.
         25    2    1    2    0    0  0.00000000000E+00  0.00000000000E+00 -0.53250196689E+01  0.12511455890E+03  0.12500118805E+03 0.  0.
    9000005    1    3    3    0    0 -0.36720630720E+02  0.14037698453E+02  0.45959965313E+02  0.60487850928E+02  0.10000000000E+01 0.  0.
    9000005    1    3    3    0    0  0.36720630720E+02 -0.14037698453E+02 -0.51284984982E+02  0.64626707970E+02  0.10000000000E+01 0.  0.
<mgrwt>
<rscale>  0 0.12500119E+03</rscale>
<asrwt>0</asrwt>
<pdfrwt beam="1">  1        4 0.92145799E-02 0.12500119E+03</pdfrwt>
<pdfrwt beam="2">  1       -4 0.10033814E-01 0.12500119E+03</pdfrwt>
<totfact> 0.10450094E+04</totfact>
</mgrwt>
</event>
<event>
 5    1  0.3234540E-002  0.1249976E+03  0.7818608E-02  0.1235073E+00
          4   -1    0    0  501    0  0.00000000000E+00  0.00000000000E+00  0.68347153717E+03  0.68347271710E+03  0.12700000000E+01 0.  1.
         -4   -1    0    0    0  501 -0.00000000000E+00 -0.00000000000E+00 -0.56433372694E+01  0.57844753898E+01  0.12700000000E+01 0.  1.
         25    2    1    2    0    0  0.00000000000E+00  0.00000000000E+00  0.67782819990E+03  0.68925719249E+03  0.12499763526E+03 0.  0.
    9000005    1    3    3    0    0  0.13407471099E+02  0.58044936874E+01  0.67394877412E+03  0.67410785677E+03  0.10000000000E+01 0.  0.
    9000005    1    3    3    0    0 -0.13407471099E+02 -0.58044936874E+01  0.38794257805E+01  0.15149335716E+02  0.10000000000E+01 0.  0.
<mgrwt>
<rscale>  0 0.12499764E+03</rscale>
<asrwt>0</asrwt>
<pdfrwt beam="1">  1        4 0.10516043E+00 0.12499764E+03</pdfrwt>
<pdfrwt beam="2">  1       -4 0.87915318E-03 0.12499764E+03</pdfrwt>
<totfact> 0.43662143E+03</totfact>
</mgrwt>
</event>
<event>
 5    1  0.3234540E-002  0.1250016E+03  0.7818608E-02  0.1235067E+00
          4   -1    0    0  501    0  0.00000000000E+00  0.00000000000E+00  0.94486018790E+02  0.94494553530E+02  0.12700000000E+01 0.  1.
         -4   -1    0    0    0  501 -0.00000000000E+00 -0.00000000000E+00 -0.41323025085E+02  0.41342536233E+02  0.12700000000E+01 0.  1.
         25    2    1    2    0    0  0.00000000000E+00  0.00000000000E+00  0.53162993705E+02  0.13583708976E+03  0.12500164421E+03 0.  0.
    9000005    1    3    3    0    0 -0.38446400977E+02 -0.45682317440E+02  0.46629326514E+02  0.75764727717E+02  0.10000000000E+01 0.  0.
    9000005    1    3    3    0    0  0.38446400977E+02  0.45682317440E+02  0.65336671908E+01  0.60072362046E+02  0.10000000000E+01 0.  0.
<mgrwt>
<rscale>  0 0.12500164E+03</rscale>
<asrwt>0</asrwt>
<pdfrwt beam="1">  1        4 0.14538468E-01 0.12500164E+03</pdfrwt>
<pdfrwt beam="2">  1       -4 0.63595460E-02 0.12500164E+03</pdfrwt>
<totfact> 0.10220078E+04</totfact>
</mgrwt>
</event>
<event>
 5    1  0.3234540E-002  0.1249988E+03  0.7818608E-02  0.1235071E+00
         -4   -1    0    0    0  501 -0.00000000000E+00  0.00000000000E+00  0.10290841345E+03  0.10291624973E+03  0.12700000000E+01 0. -1.
          4   -1    0    0  501    0  0.00000000000E+00 -0.00000000000E+00 -0.37937867656E+02  0.37959118829E+02  0.12700000000E+01 0. -1.
         25    2    1    2    0    0  0.00000000000E+00  0.00000000000E+00  0.64970545793E+02  0.14087536856E+03  0.12499879058E+03 0.  0.
    9000005    1    3    3    0    0  0.37718850793E+02 -0.70975084222E+01  0.88065319153E+02  0.96070738357E+02  0.10000000000E+01 0.  0.
    9000005    1    3    3    0    0 -0.37718850793E+02  0.70975084222E+01 -0.23094773360E+02  0.44804630202E+02  0.10000000000E+01 0.  0.
<mgrwt>
<rscale>  0 0.12499879E+03</rscale>
<asrwt>0</asrwt>
<pdfrwt beam="2">  1        4 0.58388326E-02 0.12499879E+03</pdfrwt>
<pdfrwt beam="1">  1       -4 0.15834301E-01 0.12499879E+03</pdfrwt>
<totfact> 0.10115751E+04</totfact>
</mgrwt>
</event>
<event>
 5    1  0.3234540E-002  0.1249963E+03  0.7818608E-02  0.1235075E+00
          4   -1    0    0  501    0  0.00000000000E+00  0.00000000000E+00  0.14819776213E+03  0.14820320375E+03  0.12700000000E+01 0. -1.
         -4   -1    0    0    0  501 -0.00000000000E+00 -0.00000000000E+00 -0.26335567729E+02  0.26366172032E+02  0.12700000000E+01 0. -1.
         25    2    1    2    0    0  0.00000000000E+00  0.00000000000E+00  0.12186219440E+03  0.17456937578E+03  0.12499629009E+03 0.  0.
    9000005    1    3    3    0    0  0.21308931425E+01  0.19094395173E+02  0.14397730136E+03  0.14525701340E+03  0.10000000000E+01 0.  0.
    9000005    1    3    3    0    0 -0.21308931425E+01 -0.19094395173E+02 -0.22115106960E+02  0.29312362383E+02  0.10000000000E+01 0.  0.
<mgrwt>
<rscale>  0 0.12499629E+03</rscale>
<asrwt>0</asrwt>
<pdfrwt beam="1">  1        4 0.22802428E-01 0.12499629E+03</pdfrwt>
<pdfrwt beam="2">  1       -4 0.40543986E-02 0.12499629E+03</pdfrwt>
<totfact> 0.94611642E+03</totfact>
</mgrwt>
</event>
<event>
 5    1  0.3234540E-002  0.1250021E+03  0.7818608E-02  0.1235066E+00
          4   -1    0    0  501    0  0.00000000000E+00  0.00000000000E+00  0.98772221072E+02  0.98780385480E+02  0.12700000000E+01 0. -1.
         -4   -1    0    0    0  501 -0.00000000000E+00 -0.00000000000E+00 -0.39529374624E+02  0.39549770646E+02  0.12700000000E+01 0. -1.
         25    2    1    2    0    0  0.00000000000E+00  0.00000000000E+00  0.59242846449E+02  0.13833015613E+03  0.12500206894E+03 0.  0.
    9000005    1    3    3    0    0  0.52992408528E+02  0.33100517919E+02  0.30994555234E+02  0.69753151199E+02  0.10000000000E+01 0.  0.
    9000005    1    3    3    0    0 -0.52992408528E+02 -0.33100517919E+02  0.28248291215E+02  0.68577004926E+02  0.10000000000E+01 0.  0.
<mgrwt>
<rscale>  0 0.12500207E+03</rscale>
<asrwt>0</asrwt>
<pdfrwt beam="1">  1        4 0.15197923E-01 0.12500207E+03</pdfrwt>
<pdfrwt beam="2">  1       -4 0.60836393E-02 0.12500207E+03</pdfrwt>
<totfact> 0.10167838E+04</totfact>
</mgrwt>
</event>
<event>
 5    1  0.3234540E-002  0.1250005E+03  0.7818608E-02  0.1235069E+00
         -4   -1    0    0    0  501 -0.00000000000E+00  0.00000000000E+00  0.10150301231E+04  0.10150309176E+04  0.12700000000E+01 0. -1.
          4   -1    0    0  501    0  0.00000000000E+00 -0.00000000000E+00 -0.37428425080E+01  0.39524384929E+01  0.12700000000E+01 0. -1.
         25    2    1    2    0    0  0.00000000000E+00  0.00000000000E+00  0.10112872806E+04  0.10189833561E+04  0.12500046449E+03 0.  0.
    9000005    1    3    3    0    0 -0.19733892675E+02 -0.27894187185E+02  0.79109604029E+02  0.86179125363E+02  0.10000000000E+01 0.  0.
    9000005    1    3    3    0    0  0.19733892675E+02  0.27894187185E+02  0.93217767656E+03  0.93280423073E+03  0.10000000000E+01 0.  0.
<mgrwt>
<rscale>  0 0.12500046E+03</rscale>
<asrwt>0</asrwt>
<pdfrwt beam="2">  1        4 0.59200535E-03 0.12500046E+03</pdfrwt>
<pdfrwt beam="1">  1       -4 0.15617479E+00 0.12500046E+03</pdfrwt>
<totfact> 0.29982984E+03</totfact>
</mgrwt>
</event>
<event>
 5    1  0.3234540E-002  0.1249977E+03  0.7818608E-02  0.1235073E+00
         -4   -1    0    0    0  501 -0.00000000000E+00  0.00000000000E+00  0.31135343383E+01  0.33625877053E+01  0.12700000000E+01 0.  1.
          4   -1    0    0  501    0  0.00000000000E+00 -0.00000000000E+00 -0.12060600702E+04  0.12060607388E+04  0.12700000000E+01 0.  1.
         25    2    1    2    0    0  0.00000000000E+00  0.00000000000E+00 -0.12029465358E+04  0.12094233266E+04  0.12499765882E+03 0.  0.
    9000005    1    3    3    0    0  0.45500137249E+02  0.19549867573E+02 -0.23270288087E+03  0.23791614190E+03  0.10000000000E+01 0.  0.
    9000005    1    3    3    0    0 -0.45500137249E+02 -0.19549867573E+02 -0.97024365498E+03  0.97150718465E+03  0.10000000000E+01 0.  0.
<mgrwt>
<rscale>  0 0.12499766E+03</rscale>
<asrwt>0</asrwt>
<pdfrwt beam="2">  1        4 0.18556655E+00 0.12499766E+03</pdfrwt>
<pdfrwt beam="1">  1       -4 0.49821563E-03 0.12499766E+03</pdfrwt>
<totfact> 0.24468729E+03</totfact>
</mgrwt>
</event>
<event>
 5    1  0.3234540E-002  0.1249847E+03  0.7818608E-02  0.1235093E+00
         -4   -1    0    0    0  501 -0.00000000000E+00  0.00000000000E+00  0.17415921466E+02  0.17462165401E+02  0.12700000000E+01 0. -1.
          4   -1    0    0  501    0  0.00000000000E+00 -0.00000000000E+00 -0.22389156910E+03  0.22389517103E+03  0.12700000000E+01 0. -1.
         25    2    1    2    0    0  0.00000000000E+00  0.00000000000E+00 -0.20647564763E+03  0.24135733644E+03  0.12498468221E+03 0.  0.
    9000005    1    3    3    0    0  0.14236154428E+02  0.57384507038E+02 -0.64200887822E+02  0.87283467724E+02  0.10000000000E+01 0.  0.
    9000005    1    3    3    0    0 -0.14236154428E+02 -0.57384507038E+02 -0.14227475981E+03  0.15407386871E+03  0.10000000000E+01 0.  0.
<mgrwt>
<rscale>  0 0.12498468E+03</rscale>
<asrwt>0</asrwt>
<pdfrwt beam="2">  1        4 0.34448689E-01 0.12498468E+03</pdfrwt>
<pdfrwt beam="1">  1       -4 0.26832070E-02 0.12498468E+03</pdfrwt>
<totfact> 0.83624182E+03</totfact>
</mgrwt>
</event>
<event>
 5    1  0.3234540E-002  0.1249993E+03  0.7818608E-02  0.1235070E+00
         -4   -1    0    0    0  501 -0.00000000000E+00  0.00000000000E+00  0.26647095754E+02  0.26677342673E+02  0.12700000000E+01 0. -1.
          4   -1    0    0  501    0  0.00000000000E+00 -0.00000000000E+00 -0.14647420439E+03  0.14647971004E+03  0.12700000000E+01 0. -1.
         25    2    1    2    0    0  0.00000000000E+00  0.00000000000E+00 -0.11982710864E+03  0.17315705271E+03  0.12499931575E+03 0.  0.
    9000005    1    3    3    0    0 -0.49528288651E+02 -0.51468477136E+01 -0.76087697464E+01  0.50382881966E+02  0.10000000000E+01 0.  0.
    9000005    1    3    3    0    0  0.49528288651E+02  0.51468477136E+01 -0.11221833889E+03  0.12277417074E+03  0.10000000000E+01 0.  0.
<mgrwt>
<rscale>  0 0.12499932E+03</rscale>
<asrwt>0</asrwt>
<pdfrwt beam="2">  1        4 0.22537243E-01 0.12499932E+03</pdfrwt>
<pdfrwt beam="1">  1       -4 0.41023035E-02 0.12499932E+03</pdfrwt>
<totfact> 0.94864916E+03</totfact>
</mgrwt>
</event>
<event>
 5    1  0.3234540E-002  0.1249989E+03  0.7818608E-02  0.1235071E+00
          4   -1    0    0  501    0  0.00000000000E+00  0.00000000000E+00  0.61896708087E+01  0.63186173107E+01  0.12700000000E+01 0. -1.
         -4   -1    0    0    0  501 -0.00000000000E+00 -0.00000000000E+00 -0.62444478974E+03  0.62444608121E+03  0.12700000000E+01 0. -1.
         25    2    1    2    0    0  0.00000000000E+00  0.00000000000E+00 -0.61825511893E+03  0.63076469852E+03  0.12499885124E+03 0.  0.
    9000005    1    3    3    0    0 -0.51032074545E+02  0.32217847850E+02 -0.22730562519E+03  0.23518314054E+03  0.10000000000E+01 0.  0.
    9000005    1    3    3    0    0  0.51032074545E+02 -0.32217847850E+02 -0.39094949374E+03  0.39558155798E+03  0.10000000000E+01 0.  0.
<mgrwt>
<rscale>  0 0.12499885E+03</rscale>
<asrwt>0</asrwt>
<pdfrwt beam="1">  1        4 0.96227584E-03 0.12499885E+03</pdfrwt>
<pdfrwt beam="2">  1       -4 0.96078398E-01 0.12499885E+03</pdfrwt>
<totfact> 0.46982709E+03</totfact>
</mgrwt>
</event>
<event>
 5    1  0.3234540E-002  0.1249983E+03  0.7818608E-02  0.1235072E+00
          4   -1    0    0  501    0  0.00000000000E+00  0.00000000000E+00  0.25893036973E+02  0.25924163703E+02  0.12700000000E+01 0.  1.
         -4   -1    0    0    0  501 -0.00000000000E+00 -0.00000000000E+00 -0.15073240489E+03  0.15073775501E+03  0.12700000000E+01 0.  1.
         25    2    1    2    0    0  0.00000000000E+00  0.00000000000E+00 -0.12483936792E+03  0.17666191871E+03  0.12499826295E+03 0.  0.
    9000005    1    3    3    0    0  0.51459754871E+01 -0.62047990990E+02 -0.54847271315E+02  0.82979861534E+02  0.10000000000E+01 0.  0.
    9000005    1    3    3    0    0 -0.51459754871E+01  0.62047990990E+02 -0.69992096606E+02  0.93682057176E+02  0.10000000000E+01 0.  0.
<mgrwt>
<rscale>  0 0.12499826E+03</rscale>
<asrwt>0</asrwt>
<pdfrwt beam="1">  1        4 0.39863501E-02 0.12499826E+03</pdfrwt>
<pdfrwt beam="2">  1       -4 0.23192406E-01 0.12499826E+03</pdfrwt>
<totfact> 0.94225014E+03</totfact>
</mgrwt>
</event>
<event>
 5    1  0.3234540E-002  0.1249969E+03  0.7818608E-02  0.1235074E+00
          4   -1    0    0  501    0  0.00000000000E+00  0.00000000000E+00  0.69839130573E+01  0.70984464210E+01  0.12700000000E+01 0. -1.
         -4   -1    0    0    0  501 -0.00000000000E+00 -0.00000000000E+00 -0.55462973661E+03  0.55463119064E+03  0.12700000000E+01 0. -1.
         25    2    1    2    0    0  0.00000000000E+00  0.00000000000E+00 -0.54764582356E+03  0.56172963706E+03  0.12499694836E+03 0.  0.
    9000005    1    3    3    0    0 -0.13900246462E+02  0.58698871574E+02 -0.20048961716E+03  0.20937015299E+03  0.10000000000E+01 0.  0.
    9000005    1    3    3    0    0  0.13900246462E+02 -0.58698871574E+02 -0.34715620640E+03  0.35235948407E+03  0.10000000000E+01 0.  0.
<mgrwt>
<rscale>  0 0.12499695E+03</rscale>
<asrwt>0</asrwt>
<pdfrwt beam="1">  1        4 0.10833707E-02 0.12499695E+03</pdfrwt>
<pdfrwt beam="2">  1       -4 0.85336539E-01 0.12499695E+03</pdfrwt>
<totfact> 0.51379484E+03</totfact>
</mgrwt>
</event>
<event>
 5    1  0.3234540E-002  0.1250010E+03  0.7818608E-02  0.1235068E+00
         -4   -1    0    0    0  501 -0.00000000000E+00  0.00000000000E+00  0.56969144402E+02  0.56983298552E+02  0.12700000000E+01 0.  1.
          4   -1    0    0  501    0  0.00000000000E+00 -0.00000000000E+00 -0.68540336947E+02  0.68552102002E+02  0.12700000000E+01 0.  1.
         25    2    1    2    0    0  0.00000000000E+00  0.00000000000E+00 -0.11571192546E+02  0.12553540055E+03  0.12500097718E+03 0.  0.
    9000005    1    3    3    0    0  0.57438680896E+02  0.73597398940E+01 -0.29379511447E+02  0.64942463206E+02  0.10000000000E+01 0.  0.
    9000005    1    3    3    0    0 -0.57438680896E+02 -0.73597398940E+01  0.17808318902E+02  0.60592937348E+02  0.10000000000E+01 0.  0.
<mgrwt>
<rscale>  0 0.12500098E+03</rscale>
<asrwt>0</asrwt>
<pdfrwt beam="2">  1        4 0.10546661E-01 0.12500098E+03</pdfrwt>
<pdfrwt beam="1">  1       -4 0.87664776E-02 0.12500098E+03</pdfrwt>
<totfact> 0.10440942E+04</totfact>
</mgrwt>
</event>
<event>
 5    1  0.3234540E-002  0.1249999E+03  0.7818608E-02  0.1235069E+00
         -4   -1    0    0    0  501 -0.00000000000E+00  0.00000000000E+00  0.17930105508E+03  0.17930555277E+03  0.12700000000E+01 0.  1.
          4   -1    0    0  501    0  0.00000000000E+00 -0.00000000000E+00 -0.21762656748E+02  0.21799681850E+02  0.12700000000E+01 0.  1.
         25    2    1    2    0    0  0.00000000000E+00  0.00000000000E+00  0.15753839833E+03  0.20110523462E+03  0.12499987376E+03 0.  0.
    9000005    1    3    3    0    0 -0.19285518556E+02 -0.48159197988E+02  0.22713006494E+02  0.56640270486E+02  0.10000000000E+01 0.  0.
    9000005    1    3    3    0    0  0.19285518556E+02  0.48159197988E+02  0.13482539184E+03  0.14446496413E+03  0.10000000000E+01 0.  0.
<mgrwt>
<rscale>  0 0.12499987E+03</rscale>
<asrwt>0</asrwt>
<pdfrwt beam="2">  1        4 0.33512950E-02 0.12499987E+03</pdfrwt>
<pdfrwt beam="1">  1       -4 0.27587973E-01 0.12499987E+03</pdfrwt>
<totfact> 0.89949686E+03</totfact>
</mgrwt>
</event>
<event>
 5    1  0.3234540E-002  0.1250001E+03  0.7818608E-02  0.1235069E+00
         -4   -1    0    0    0  501 -0.00000000000E+00  0.00000000000E+00  0.63290336607E+03  0.63290464028E+03  0.12700000000E+01 0.  1.
          4   -1    0    0  501    0  0.00000000000E+00 -0.00000000000E+00 -0.61053408295E+01  0.62360313216E+01  0.12700000000E+01 0.  1.
         25    2    1    2    0    0  0.00000000000E+00  0.00000000000E+00  0.62679802524E+03  0.63914067160E+03  0.12500013458E+03 0.  0.
    9000005    1    3    3    0    0  0.26494902976E+02  0.23824830121E+02  0.57589963480E+03  0.57700172597E+03  0.10000000000E+01 0.  0.
    9000005    1    3    3    0    0 -0.26494902976E+02 -0.23824830121E+02  0.50898390449E+02  0.62138945632E+02  0.10000000000E+01 0.  0.
<mgrwt>
<rscale>  0 0.12500013E+03</rscale>
<asrwt>0</asrwt>
<pdfrwt beam="2">  1        4 0.94943481E-03 0.12500013E+03</pdfrwt>
<pdfrwt beam="1">  1       -4 0.97379851E-01 0.12500013E+03</pdfrwt>
<totfact> 0.46486450E+03</totfact>
</mgrwt>
</event>
<event>
 5    1  0.3234540E-002  0.1249992E+03  0.7818608E-02  0.1235070E+00
          4   -1    0    0  501    0  0.00000000000E+00  0.00000000000E+00  0.35150585991E+02  0.35173521227E+02  0.12700000000E+01 0. -1.
         -4   -1    0    0    0  501 -0.00000000000E+00 -0.00000000000E+00 -0.11106485298E+03  0.11107211382E+03  0.12700000000E+01 0. -1.
         25    2    1    2    0    0  0.00000000000E+00  0.00000000000E+00 -0.75914266992E+02  0.14624563505E+03  0.12499923935E+03 0.  0.
    9000005    1    3    3    0    0 -0.19515483549E+02  0.56590574553E+02 -0.16967452909E+02  0.62227338724E+02  0.10000000000E+01 0.  0.
    9000005    1    3    3    0    0  0.19515483549E+02 -0.56590574553E+02 -0.58946814083E+02  0.84018296322E+02  0.10000000000E+01 0.  0.
<mgrwt>
<rscale>  0 0.12499924E+03</rscale>
<asrwt>0</asrwt>
<pdfrwt beam="1">  1        4 0.54101053E-02 0.12499924E+03</pdfrwt>
<pdfrwt beam="2">  1       -4 0.17089223E-01 0.12499924E+03</pdfrwt>
<totfact> 0.10005912E+04</totfact>
</mgrwt>
</event>
<event>
 5    1  0.3234540E-002  0.1250006E+03  0.7818608E-02  0.1235068E+00
         -4   -1    0    0    0  501 -0.00000000000E+00  0.00000000000E+00  0.49473578676E+02  0.49489876611E+02  0.12700000000E+01 0. -1.
          4   -1    0    0  501    0  0.00000000000E+00 -0.00000000000E+00 -0.78922672528E+02  0.78932890097E+02  0.12700000000E+01 0. -1.
         25    2    1    2    0    0  0.00000000000E+00  0.00000000000E+00 -0.29449093852E+02  0.12842276671E+03  0.12500063152E+03 0.  0.
    9000005    1    3    3    0    0  0.33046895888E+02 -0.52794707402E+02 -0.19954189490E+02  0.65410611798E+02  0.10000000000E+01 0.  0.
    9000005    1    3    3    0    0 -0.33046895888E+02  0.52794707402E+02 -0.94949043620E+01  0.63012154910E+02  0.10000000000E+01 0.  0.
<mgrwt>
<rscale>  0 0.12500063E+03</rscale>
<asrwt>0</asrwt>
<pdfrwt beam="2">  1        4 0.12143989E-01 0.12500063E+03</pdfrwt>
<pdfrwt beam="1">  1       -4 0.76133594E-02 0.12500063E+03</pdfrwt>
<totfact> 0.10378220E+04</totfact>
</mgrwt>
</event>
<event>
 5    1  0.3234540E-002  0.1250022E+03  0.7818608E-02  0.1235066E+00
          4   -1    0    0  501    0  0.00000000000E+00  0.00000000000E+00  0.50291307680E+02  0.50307340699E+02  0.12700000000E+01 0. -1.
         -4   -1    0    0    0  501 -0.00000000000E+00 -0.00000000000E+00 -0.77641556573E+02  0.77651942712E+02  0.12700000000E+01 0. -1.
         25    2    1    2    0    0  0.00000000000E+00  0.00000000000E+00 -0.27350248893E+02  0.12795928341E+03  0.12500216837E+03 0.  0.
    9000005    1    3    3    0    0 -0.14834810971E+02  0.92473199156E+01  0.47742568412E+02  0.50852112844E+02  0.10000000000E+01 0.  0.
    9000005    1    3    3    0    0  0.14834810971E+02 -0.92473199156E+01 -0.75092817304E+02  0.77107170567E+02  0.10000000000E+01 0.  0.
<mgrwt>
<rscale>  0 0.12500217E+03</rscale>
<asrwt>0</asrwt>
<pdfrwt beam="1">  1        4 0.77391565E-02 0.12500217E+03</pdfrwt>
<pdfrwt beam="2">  1       -4 0.11946887E-01 0.12500217E+03</pdfrwt>
<totfact> 0.10387858E+04</totfact>
</mgrwt>
</event>
<event>
 5    1  0.3234540E-002  0.1249940E+03  0.7818608E-02  0.1235079E+00
          4   -1    0    0  501    0  0.00000000000E+00  0.00000000000E+00  0.44483813056E+02  0.44501938429E+02  0.12700000000E+01 0. -1.
         -4   -1    0    0    0  501 -0.00000000000E+00 -0.00000000000E+00 -0.87763792098E+02  0.87772980486E+02  0.12700000000E+01 0. -1.
         25    2    1    2    0    0  0.00000000000E+00  0.00000000000E+00 -0.43279979042E+02  0.13227491892E+03  0.12499399021E+03 0.  0.
    9000005    1    3    3    0    0 -0.21568678782E+02 -0.56705076594E+02 -0.57944536009E+01  0.60952844958E+02  0.10000000000E+01 0.  0.
    9000005    1    3    3    0    0  0.21568678782E+02  0.56705076594E+02 -0.37485525441E+02  0.71322073957E+02  0.10000000000E+01 0.  0.
<mgrwt>
<rscale>  0 0.12499399E+03</rscale>
<asrwt>0</asrwt>
<pdfrwt beam="1">  1        4 0.68457646E-02 0.12499399E+03</pdfrwt>
<pdfrwt beam="2">  1       -4 0.13504223E-01 0.12499399E+03</pdfrwt>
<totfact> 0.10297230E+04</totfact>
</mgrwt>
</event>
<event>
 5    1  0.3234540E-002  0.1249968E+03  0.7818608E-02  0.1235074E+00
          4   -1    0    0  501    0  0.00000000000E+00  0.00000000000E+00  0.88067163824E+02  0.88076320564E+02  0.12700000000E+01 0.  1.
         -4   -1    0    0    0  501 -0.00000000000E+00 -0.00000000000E+00 -0.44332522751E+02  0.44350709954E+02  0.12700000000E+01 0.  1.
         25    2    1    2    0    0  0.00000000000E+00  0.00000000000E+00  0.43734641073E+02  0.13242703052E+03  0.12499679829E+03 0.  0.
    9000005    1    3    3    0    0 -0.40299015288E+02  0.37811495586E+02 -0.90446532853E+01  0.56004692523E+02  0.10000000000E+01 0.  0.
    9000005    1    3    3    0    0  0.40299015288E+02 -0.37811495586E+02  0.52779294359E+02  0.76422337995E+02  0.10000000000E+01 0.  0.
<mgrwt>
<rscale>  0 0.12499680E+03</rscale>
<asrwt>0</asrwt>
<pdfrwt beam="1">  1        4 0.13550898E-01 0.12499680E+03</pdfrwt>
<pdfrwt beam="2">  1       -4 0.68224916E-02 0.12499680E+03</pdfrwt>
<totfact> 0.10293336E+04</totfact>
</mgrwt>
</event>
<event>
 5    1  0.3234540E-002  0.1249988E+03  0.7818608E-02  0.1235071E+00
         -4   -1    0    0    0  501 -0.00000000000E+00  0.00000000000E+00  0.19910705233E+02  0.19951167456E+02  0.12700000000E+01 0. -1.
          4   -1    0    0  501    0  0.00000000000E+00 -0.00000000000E+00 -0.19594294026E+03  0.19594705596E+03  0.12700000000E+01 0. -1.
         25    2    1    2    0    0  0.00000000000E+00  0.00000000000E+00 -0.17603223503E+03  0.21589822341E+03  0.12499878041E+03 0.  0.
    9000005    1    3    3    0    0 -0.39097355165E+02  0.48046984999E+02 -0.73767184845E+02  0.96331269629E+02  0.10000000000E+01 0.  0.
    9000005    1    3    3    0    0  0.39097355165E+02 -0.48046984999E+02 -0.10226505018E+03  0.11956695378E+03  0.10000000000E+01 0.  0.
<mgrwt>
<rscale>  0 0.12499878E+03</rscale>
<asrwt>0</asrwt>
<pdfrwt beam="2">  1        4 0.30148496E-01 0.12499878E+03</pdfrwt>
<pdfrwt beam="1">  1       -4 0.30666146E-02 0.12499878E+03</pdfrwt>
<totfact> 0.87523978E+03</totfact>
</mgrwt>
</event>
<event>
 5    1  0.3234540E-002  0.1250025E+03  0.7818608E-02  0.1235065E+00
         -4   -1    0    0    0  501 -0.00000000000E+00  0.00000000000E+00  0.18541116105E+02  0.18584560431E+02  0.12700000000E+01 0. -1.
          4   -1    0    0  501    0  0.00000000000E+00 -0.00000000000E+00 -0.21039693986E+03  0.21040077281E+03  0.12700000000E+01 0. -1.
         25    2    1    2    0    0  0.00000000000E+00  0.00000000000E+00 -0.19185582375E+03  0.22898533325E+03  0.12500250291E+03 0.  0.
    9000005    1    3    3    0    0  0.19749217648E+02 -0.43239532710E+02 -0.21614599377E+02  0.52229107717E+02  0.10000000000E+01 0.  0.
    9000005    1    3    3    0    0 -0.19749217648E+02  0.43239532710E+02 -0.17024122437E+03  0.17675622553E+03  0.10000000000E+01 0.  0.
<mgrwt>
<rscale>  0 0.12500250E+03</rscale>
<asrwt>0</asrwt>
<pdfrwt beam="2">  1        4 0.32372395E-01 0.12500250E+03</pdfrwt>
<pdfrwt beam="1">  1       -4 0.28561163E-02 0.12500250E+03</pdfrwt>
<totfact> 0.85460871E+03</totfact>
</mgrwt>
</event>
<event>
 5    1  0.3234540E-002  0.1250006E+03  0.7818608E-02  0.1235068E+00
          4   -1    0    0  501    0  0.00000000000E+00  0.00000000000E+00  0.74845184873E+03  0.74845292622E+03  0.12700000000E+01 0.  1.
         -4   -1    0    0    0  501 -0.00000000000E+00 -0.00000000000E+00 -0.51408033480E+01  0.52953525909E+01  0.12700000000E+01 0.  1.
         25    2    1    2    0    0  0.00000000000E+00  0.00000000000E+00  0.74331104538E+03  0.75374827881E+03  0.12500063049E+03 0.  0.
    9000005    1    3    3    0    0  0.12972226804E+02  0.58921565694E+02  0.27344684209E+03  0.28002536496E+03  0.10000000000E+01 0.  0.
    9000005    1    3    3    0    0 -0.12972226804E+02 -0.58921565694E+02  0.46986420329E+03  0.47372291385E+03  0.10000000000E+01 0.  0.
<mgrwt>
<rscale>  0 0.12500063E+03</rscale>
<asrwt>0</asrwt>
<pdfrwt beam="1">  1        4 0.11515845E+00 0.12500063E+03</pdfrwt>
<pdfrwt beam="2">  1       -4 0.80286385E-03 0.12500063E+03</pdfrwt>
<totfact> 0.40394926E+03</totfact>
</mgrwt>
</event>
<event>
 5    1  0.3234540E-002  0.1249996E+03  0.7818608E-02  0.1235070E+00
         -4   -1    0    0    0  501 -0.00000000000E+00  0.00000000000E+00  0.21289748727E+03  0.21290127521E+03  0.12700000000E+01 0. -1.
          4   -1    0    0  501    0  0.00000000000E+00 -0.00000000000E+00 -0.18321973126E+02  0.18365935839E+02  0.12700000000E+01 0. -1.
         25    2    1    2    0    0  0.00000000000E+00  0.00000000000E+00  0.19457551415E+03  0.23126721105E+03  0.12499956881E+03 0.  0.
    9000005    1    3    3    0    0 -0.54344063232E+02 -0.19319811962E+02  0.14179480637E+03  0.15307938939E+03  0.10000000000E+01 0.  0.
    9000005    1    3    3    0    0  0.54344063232E+02  0.19319811962E+02  0.52780707782E+02  0.78187821666E+02  0.10000000000E+01 0.  0.
<mgrwt>
<rscale>  0 0.12499957E+03</rscale>
<asrwt>0</asrwt>
<pdfrwt beam="2">  1        4 0.28224381E-02 0.12499957E+03</pdfrwt>
<pdfrwt beam="1">  1       -4 0.32757135E-01 0.12499957E+03</pdfrwt>
<totfact> 0.85116211E+03</totfact>
</mgrwt>
</event>
<event>
 5    1  0.3234540E-002  0.1249987E+03  0.7818608E-02  0.1235071E+00
          4   -1    0    0  501    0  0.00000000000E+00  0.00000000000E+00  0.14347710561E+03  0.14348272626E+03  0.12700000000E+01 0. -1.
         -4   -1    0    0    0  501 -0.00000000000E+00 -0.00000000000E+00 -0.27204082433E+02  0.27233710746E+02  0.12700000000E+01 0. -1.
         25    2    1    2    0    0  0.00000000000E+00  0.00000000000E+00  0.11627302318E+03  0.17071643701E+03  0.12499874377E+03 0.  0.
    9000005    1    3    3    0    0 -0.52400487971E+02 -0.23711784643E+02  0.91509680726E+02  0.10808830435E+03  0.10000000000E+01 0.  0.
    9000005    1    3    3    0    0  0.52400487971E+02  0.23711784643E+02  0.24763342454E+02  0.62628132657E+02  0.10000000000E+01 0.  0.
<mgrwt>
<rscale>  0 0.12499874E+03</rscale>
<asrwt>0</asrwt>
<pdfrwt beam="1">  1        4 0.22076112E-01 0.12499874E+03</pdfrwt>
<pdfrwt beam="2">  1       -4 0.41879549E-02 0.12499874E+03</pdfrwt>
<totfact> 0.95317958E+03</totfact>
</mgrwt>
</event>
<event>
 5    1  0.3234540E-002  0.1250020E+03  0.7818608E-02  0.1235066E+00
          4   -1    0    0  501    0  0.00000000000E+00  0.00000000000E+00  0.72261363958E+01  0.73368894779E+01  0.12700000000E+01 0.  1.
         -4   -1    0    0    0  501 -0.00000000000E+00 -0.00000000000E+00 -0.53636734677E+03  0.53636885031E+03  0.12700000000E+01 0.  1.
         25    2    1    2    0    0  0.00000000000E+00  0.00000000000E+00 -0.52914121037E+03  0.54370573978E+03  0.12500204382E+03 0.  0.
    9000005    1    3    3    0    0  0.59230141998E+02 -0.11813529920E+02 -0.33438209777E+03  0.33979428559E+03  0.10000000000E+01 0.  0.
    9000005    1    3    3    0    0 -0.59230141998E+02  0.11813529920E+02 -0.19475911261E+03  0.20391145420E+03  0.10000000000E+01 0.  0.
<mgrwt>
<rscale>  0 0.12500204E+03</rscale>
<asrwt>0</asrwt>
<pdfrwt beam="1">  1        4 0.11203488E-02 0.12500204E+03</pdfrwt>
<pdfrwt beam="2">  1       -4 0.82526657E-01 0.12500204E+03</pdfrwt>
<totfact> 0.52623596E+03</totfact>
</mgrwt>
</event>
<event>
 5    1  0.3234540E-002  0.1250104E+03  0.7818608E-02  0.1235053E+00
         -4   -1    0    0    0  501 -0.00000000000E+00  0.00000000000E+00  0.41611848798E+02  0.41631224584E+02  0.12700000000E+01 0.  1.
          4   -1    0    0  501    0  0.00000000000E+00 -0.00000000000E+00 -0.93843591799E+02  0.93852184960E+02  0.12700000000E+01 0.  1.
         25    2    1    2    0    0  0.00000000000E+00  0.00000000000E+00 -0.52231743001E+02  0.13548340954E+03  0.12501039671E+03 0.  0.
    9000005    1    3    3    0    0  0.32718141491E+02  0.20308562721E+02 -0.79463531601E+02  0.88308365158E+02  0.10000000000E+01 0.  0.
    9000005    1    3    3    0    0 -0.32718141491E+02 -0.20308562721E+02  0.27231788600E+02  0.47175044385E+02  0.10000000000E+01 0.  0.
<mgrwt>
<rscale>  0 0.12501040E+03</rscale>
<asrwt>0</asrwt>
<pdfrwt beam="2">  1        4 0.14439627E-01 0.12501040E+03</pdfrwt>
<pdfrwt beam="1">  1       -4 0.64039744E-02 0.12501040E+03</pdfrwt>
<totfact> 0.10225494E+04</totfact>
</mgrwt>
</event>
<event>
 5    1  0.3234540E-002  0.1250033E+03  0.7818608E-02  0.1235064E+00
          4   -1    0    0  501    0  0.00000000000E+00  0.00000000000E+00  0.27358515374E+02  0.27387976622E+02  0.12700000000E+01 0.  1.
         -4   -1    0    0    0  501 -0.00000000000E+00 -0.00000000000E+00 -0.14267854528E+03  0.14268419738E+03  0.12700000000E+01 0.  1.
         25    2    1    2    0    0  0.00000000000E+00  0.00000000000E+00 -0.11532002990E+03  0.17007217400E+03  0.12500334025E+03 0.  0.
    9000005    1    3    3    0    0 -0.21249708318E+02 -0.58312893205E+02 -0.67612923693E+02  0.91784808481E+02  0.10000000000E+01 0.  0.
    9000005    1    3    3    0    0  0.21249708318E+02  0.58312893205E+02 -0.47707106209E+02  0.78287365522E+02  0.10000000000E+01 0.  0.
<mgrwt>
<rscale>  0 0.12500334E+03</rscale>
<asrwt>0</asrwt>
<pdfrwt beam="1">  1        4 0.42117035E-02 0.12500334E+03</pdfrwt>
<pdfrwt beam="2">  1       -4 0.21953246E-01 0.12500334E+03</pdfrwt>
<totfact> 0.95428032E+03</totfact>
</mgrwt>
</event>
<event>
 5    1  0.3234540E-002  0.1250022E+03  0.7818608E-02  0.1235066E+00
         -4   -1    0    0    0  501 -0.00000000000E+00  0.00000000000E+00  0.13972121041E+02  0.14029720823E+02  0.12700000000E+01 0.  1.
          4   -1    0    0  501    0  0.00000000000E+00 -0.00000000000E+00 -0.27895048210E+03  0.27895337310E+03  0.12700000000E+01 0.  1.
         25    2    1    2    0    0  0.00000000000E+00  0.00000000000E+00 -0.26497836106E+03  0.29298309392E+03  0.12500224596E+03 0.  0.
    9000005    1    3    3    0    0  0.26851597125E+02 -0.45249000065E+02 -0.53459940296E+02  0.75016301505E+02  0.10000000000E+01 0.  0.
    9000005    1    3    3    0    0 -0.26851597125E+02  0.45249000065E+02 -0.21151842076E+03  0.21796679241E+03  0.10000000000E+01 0.  0.
<mgrwt>
<rscale>  0 0.12500225E+03</rscale>
<asrwt>0</asrwt>
<pdfrwt beam="2">  1        4 0.42920108E-01 0.12500225E+03</pdfrwt>
<pdfrwt beam="1">  1       -4 0.21542104E-02 0.12500225E+03</pdfrwt>
<totfact> 0.76483728E+03</totfact>
</mgrwt>
</event>
<event>
 5    1  0.3234540E-002  0.1249939E+03  0.7818608E-02  0.1235079E+00
          4   -1    0    0  501    0  0.00000000000E+00  0.00000000000E+00  0.15766700338E+03  0.15767211819E+03  0.12700000000E+01 0. -1.
         -4   -1    0    0    0  501 -0.00000000000E+00 -0.00000000000E+00 -0.24751084212E+02  0.24783645205E+02  0.12700000000E+01 0. -1.
         25    2    1    2    0    0  0.00000000000E+00  0.00000000000E+00  0.13291591917E+03  0.18245576340E+03  0.12499385596E+03 0.  0.
    9000005    1    3    3    0    0  0.29006082822E+02  0.43594319768E+02  0.16676477299E+02  0.54962918880E+02  0.10000000000E+01 0.  0.
    9000005    1    3    3    0    0 -0.29006082822E+02 -0.43594319768E+02  0.11623944187E+03  0.12749284452E+03  0.10000000000E+01 0.  0.
<mgrwt>
<rscale>  0 0.12499386E+03</rscale>
<asrwt>0</asrwt>
<pdfrwt beam="1">  1        4 0.24259360E-01 0.12499386E+03</pdfrwt>
<pdfrwt beam="2">  1       -4 0.38107573E-02 0.12499386E+03</pdfrwt>
<totfact> 0.93189651E+03</totfact>
</mgrwt>
</event>
<event>
 5    1  0.3234540E-002  0.1250128E+03  0.7818608E-02  0.1235049E+00
         -4   -1    0    0    0  501 -0.00000000000E+00  0.00000000000E+00  0.12234660419E+04  0.12234667010E+04  0.12700000000E+01 0.  1.
          4   -1    0    0  501    0  0.00000000000E+00 -0.00000000000E+00 -0.30664729431E+01  0.33190595522E+01  0.12700000000E+01 0.  1.
         25    2    1    2    0    0  0.00000000000E+00  0.00000000000E+00  0.12203995689E+04  0.12267857606E+04  0.12501277739E+03 0.  0.
    9000005    1    3    3    0    0  0.49937248726E+02  0.14360792296E+02  0.26939653747E+03  0.27436372859E+03  0.10000000000E+01 0.  0.
    9000005    1    3    3    0    0 -0.49937248726E+02 -0.14360792296E+02  0.95100303146E+03  0.95242203198E+03  0.10000000000E+01 0.  0.
<mgrwt>
<rscale>  0 0.12501278E+03</rscale>
<asrwt>0</asrwt>
<pdfrwt beam="2">  1        4 0.49124455E-03 0.12501278E+03</pdfrwt>
<pdfrwt beam="1">  1       -4 0.18824539E+00 0.12501278E+03</pdfrwt>
<totfact> 0.24015455E+03</totfact>
</mgrwt>
</event>
<event>
 5    1  0.3234540E-002  0.1249989E+03  0.7818608E-02  0.1235071E+00
         -4   -1    0    0    0  501 -0.00000000000E+00  0.00000000000E+00  0.13641053442E+03  0.13641644622E+03  0.12700000000E+01 0. -1.
          4   -1    0    0  501    0  0.00000000000E+00 -0.00000000000E+00 -0.28614865951E+02  0.28643034989E+02  0.12700000000E+01 0. -1.
         25    2    1    2    0    0  0.00000000000E+00  0.00000000000E+00  0.10779566847E+03  0.16505948121E+03  0.12499890479E+03 0.  0.
    9000005    1    3    3    0    0 -0.28955144566E+02  0.48708851849E+02  0.88690332453E+02  0.10525173498E+03  0.10000000000E+01 0.  0.
    9000005    1    3    3    0    0  0.28955144566E+02 -0.48708851849E+02  0.19105336012E+02  0.59807746232E+02  0.10000000000E+01 0.  0.
<mgrwt>
<rscale>  0 0.12499890E+03</rscale>
<asrwt>0</asrwt>
<pdfrwt beam="2">  1        4 0.44049086E-02 0.12499890E+03</pdfrwt>
<pdfrwt beam="1">  1       -4 0.20988858E-01 0.12499890E+03</pdfrwt>
<totfact> 0.96378499E+03</totfact>
</mgrwt>
</event>
<event>
 5    1  0.3234540E-002  0.1250055E+03  0.7818608E-02  0.1235061E+00
          4   -1    0    0  501    0  0.00000000000E+00  0.00000000000E+00  0.21361707120E+03  0.21362084638E+03  0.12700000000E+01 0. -1.
         -4   -1    0    0    0  501 -0.00000000000E+00 -0.00000000000E+00 -0.18261849663E+02  0.18305956766E+02  0.12700000000E+01 0. -1.
         25    2    1    2    0    0  0.00000000000E+00  0.00000000000E+00  0.19535522154E+03  0.23192680314E+03  0.12500551762E+03 0.  0.
    9000005    1    3    3    0    0 -0.57475856100E+02 -0.23810850147E+02  0.10867962938E+03  0.12523055721E+03  0.10000000000E+01 0.  0.
    9000005    1    3    3    0    0  0.57475856100E+02  0.23810850147E+02  0.86675592160E+02  0.10669624593E+03  0.10000000000E+01 0.  0.
<mgrwt>
<rscale>  0 0.12500552E+03</rscale>
<asrwt>0</asrwt>
<pdfrwt beam="1">  1        4 0.32867850E-01 0.12500552E+03</pdfrwt>
<pdfrwt beam="2">  1       -4 0.28131984E-02 0.12500552E+03</pdfrwt>
<totfact> 0.85004144E+03</totfact>
</mgrwt>
</event>
<event>
 5    1  0.3234540E-002  0.1250450E+03  0.7818608E-02  0.1234999E+00
          4   -1    0    0  501    0  0.00000000000E+00  0.00000000000E+00  0.20598909549E+03  0.20599301047E+03  0.12700000000E+01 0.  1.
         -4   -1    0    0    0  501 -0.00000000000E+00 -0.00000000000E+00 -0.18951676510E+02  0.18994181808E+02  0.12700000000E+01 0.  1.
         25    2    1    2    0    0  0.00000000000E+00  0.00000000000E+00  0.18703741898E+03  0.22498719228E+03  0.12504495427E+03 0.  0.
    9000005    1    3    3    0    0  0.11278254986E+01  0.29664074696E+02 -0.54700081724E+01  0.30201826225E+02  0.10000000000E+01 0.  0.
    9000005    1    3    3    0    0 -0.11278254986E+01 -0.29664074696E+02  0.19250742716E+03  0.19478536605E+03  0.10000000000E+01 0.  0.
<mgrwt>
<rscale>  0 0.12504495E+03</rscale>
<asrwt>0</asrwt>
<pdfrwt beam="1">  1        4 0.31694199E-01 0.12504495E+03</pdfrwt>
<pdfrwt beam="2">  1       -4 0.29192135E-02 0.12504495E+03</pdfrwt>
<totfact> 0.85998947E+03</totfact>
</mgrwt>
</event>
<event>
 5    1  0.3234540E-002  0.1249985E+03  0.7818608E-02  0.1235072E+00
          4   -1    0    0  501    0  0.00000000000E+00  0.00000000000E+00  0.49761840338E+03  0.49762002400E+03  0.12700000000E+01 0.  1.
         -4   -1    0    0    0  501 -0.00000000000E+00 -0.00000000000E+00 -0.77966883443E+01  0.78994461286E+01  0.12700000000E+01 0.  1.
         25    2    1    2    0    0  0.00000000000E+00  0.00000000000E+00  0.48982171503E+03  0.50551947012E+03  0.12499848861E+03 0.  0.
    9000005    1    3    3    0    0 -0.60545913017E+02 -0.60349416999E+01  0.30252160466E+03  0.30858151175E+03  0.10000000000E+01 0.  0.
    9000005    1    3    3    0    0  0.60545913017E+02  0.60349416999E+01  0.18730011037E+03  0.19693795838E+03  0.10000000000E+01 0.  0.
<mgrwt>
<rscale>  0 0.12499849E+03</rscale>
<asrwt>0</asrwt>
<pdfrwt beam="1">  1        4 0.76564676E-01 0.12499849E+03</pdfrwt>
<pdfrwt beam="2">  1       -4 0.12075201E-02 0.12499849E+03</pdfrwt>
<totfact> 0.55440508E+03</totfact>
</mgrwt>
</event>
<event>
 5    1  0.3234540E-002  0.1250000E+03  0.7818608E-02  0.1235069E+00
         -4   -1    0    0    0  501 -0.00000000000E+00  0.00000000000E+00  0.38103978927E+02  0.38125137509E+02  0.12700000000E+01 0.  1.
          4   -1    0    0  501    0  0.00000000000E+00 -0.00000000000E+00 -0.10246197556E+03  0.10246984598E+03  0.12700000000E+01 0.  1.
         25    2    1    2    0    0  0.00000000000E+00  0.00000000000E+00 -0.64357996629E+02  0.14059498349E+03  0.12499999061E+03 0.  0.
    9000005    1    3    3    0    0 -0.94001037327E+01 -0.44522291241E+02 -0.80355672725E+02  0.92350584766E+02  0.10000000000E+01 0.  0.
    9000005    1    3    3    0    0  0.94001037327E+01  0.44522291241E+02  0.15997676096E+02  0.48244398722E+02  0.10000000000E+01 0.  0.
<mgrwt>
<rscale>  0 0.12499999E+03</rscale>
<asrwt>0</asrwt>
<pdfrwt beam="2">  1        4 0.15765614E-01 0.12499999E+03</pdfrwt>
<pdfrwt beam="1">  1       -4 0.58643836E-02 0.12499999E+03</pdfrwt>
<totfact> 0.10121271E+04</totfact>
</mgrwt>
</event>
<event>
 5    1  0.3234540E-002  0.1250032E+03  0.7818608E-02  0.1235064E+00
          4   -1    0    0  501    0  0.00000000000E+00  0.00000000000E+00  0.39726800568E+02  0.39747095282E+02  0.12700000000E+01 0.  1.
         -4   -1    0    0    0  501 -0.00000000000E+00 -0.00000000000E+00 -0.98283358779E+02  0.98291563793E+02  0.12700000000E+01 0.  1.
         25    2    1    2    0    0  0.00000000000E+00  0.00000000000E+00 -0.58556558211E+02  0.13803865908E+03  0.12500320352E+03 0.  0.
    9000005    1    3    3    0    0 -0.20246172640E+02 -0.58106895046E+02 -0.41331214490E+02  0.74132233540E+02  0.10000000000E+01 0.  0.
    9000005    1    3    3    0    0  0.20246172640E+02  0.58106895046E+02 -0.17225343722E+02  0.63906425536E+02  0.10000000000E+01 0.  0.
<mgrwt>
<rscale>  0 0.12500320E+03</rscale>
<asrwt>0</asrwt>
<pdfrwt beam="1">  1        4 0.61140078E-02 0.12500320E+03</pdfrwt>
<pdfrwt beam="2">  1       -4 0.15122709E-01 0.12500320E+03</pdfrwt>
<totfact> 0.10173664E+04</totfact>
</mgrwt>
</event>
<event>
 5    1  0.3234540E-002  0.1249986E+03  0.7818608E-02  0.1235071E+00
          4   -1    0    0  501    0  0.00000000000E+00  0.00000000000E+00  0.25639295778E+03  0.25639610313E+03  0.12700000000E+01 0.  1.
         -4   -1    0    0    0  501 -0.00000000000E+00 -0.00000000000E+00 -0.15205349406E+02  0.15258294483E+02  0.12700000000E+01 0.  1.
         25    2    1    2    0    0  0.00000000000E+00  0.00000000000E+00  0.24118760838E+03  0.27165439761E+03  0.12499859723E+03 0.  0.
    9000005    1    3    3    0    0  0.34751476182E+01 -0.52139853092E+02  0.19507421560E+03  0.20195442685E+03  0.10000000000E+01 0.  0.
    9000005    1    3    3    0    0 -0.34751476182E+01  0.52139853092E+02  0.46113392777E+02  0.69699970766E+02  0.10000000000E+01 0.  0.
<mgrwt>
<rscale>  0 0.12499860E+03</rscale>
<asrwt>0</asrwt>
<pdfrwt beam="1">  1        4 0.39449382E-01 0.12499860E+03</pdfrwt>
<pdfrwt beam="2">  1       -4 0.23435993E-02 0.12499860E+03</pdfrwt>
<totfact> 0.79300321E+03</totfact>
</mgrwt>
</event>
<event>
 5    1  0.3234540E-002  0.1250048E+03  0.7818608E-02  0.1235062E+00
          4   -1    0    0  501    0  0.00000000000E+00  0.00000000000E+00  0.10561949449E+04  0.10561957085E+04  0.12700000000E+01 0. -1.
         -4   -1    0    0    0  501 -0.00000000000E+00 -0.00000000000E+00 -0.35888984762E+01  0.38069794158E+01  0.12700000000E+01 0. -1.
         25    2    1    2    0    0  0.00000000000E+00  0.00000000000E+00  0.10526060464E+04  0.10600026879E+04  0.12500483710E+03 0.  0.
    9000005    1    3    3    0    0 -0.67558621329E+00  0.62291048795E+02  0.56863457318E+03  0.57203750663E+03  0.10000000000E+01 0.  0.
    9000005    1    3    3    0    0  0.67558621329E+00 -0.62291048795E+02  0.48397147326E+03  0.48796518125E+03  0.10000000000E+01 0.  0.
<mgrwt>
<rscale>  0 0.12500484E+03</rscale>
<asrwt>0</asrwt>
<pdfrwt beam="1">  1        4 0.16250827E+00 0.12500484E+03</pdfrwt>
<pdfrwt beam="2">  1       -4 0.56897274E-03 0.12500484E+03</pdfrwt>
<totfact> 0.28681483E+03</totfact>
</mgrwt>
</event>
<event>
 5    1  0.3234540E-002  0.1249989E+03  0.7818608E-02  0.1235071E+00
          4   -1    0    0  501    0  0.00000000000E+00  0.00000000000E+00  0.48046720362E+02  0.48063502136E+02  0.12700000000E+01 0.  1.
         -4   -1    0    0    0  501 -0.00000000000E+00 -0.00000000000E+00 -0.81263747958E+02  0.81273671211E+02  0.12700000000E+01 0.  1.
         25    2    1    2    0    0  0.00000000000E+00  0.00000000000E+00 -0.33217027596E+02  0.12933717335E+03  0.12499893394E+03 0.  0.
    9000005    1    3    3    0    0 -0.25526211288E+02 -0.41819508458E+02 -0.56745574913E+02  0.74976789893E+02  0.10000000000E+01 0.  0.
    9000005    1    3    3    0    0  0.25526211288E+02  0.41819508458E+02  0.23528547317E+02  0.54360383454E+02  0.10000000000E+01 0.  0.
<mgrwt>
<rscale>  0 0.12499893E+03</rscale>
<asrwt>0</asrwt>
<pdfrwt beam="1">  1        4 0.73938574E-02 0.12499893E+03</pdfrwt>
<pdfrwt beam="2">  1       -4 0.12504169E-01 0.12499893E+03</pdfrwt>
<totfact> 0.10358956E+04</totfact>
</mgrwt>
</event>
<event>
 5    1  0.3234540E-002  0.1250034E+03  0.7818608E-02  0.1235064E+00
         -4   -1    0    0    0  501 -0.00000000000E+00  0.00000000000E+00  0.40992386694E+02  0.41012055141E+02  0.12700000000E+01 0.  1.
          4   -1    0    0  501    0  0.00000000000E+00 -0.00000000000E+00 -0.95250498653E+02  0.95258964899E+02  0.12700000000E+01 0.  1.
         25    2    1    2    0    0  0.00000000000E+00  0.00000000000E+00 -0.54258111959E+02  0.13627102004E+03  0.12500339271E+03 0.  0.
    9000005    1    3    3    0    0 -0.31841572397E+02 -0.49095282209E+02 -0.51043366462E+02  0.77657309557E+02  0.10000000000E+01 0.  0.
    9000005    1    3    3    0    0  0.31841572397E+02  0.49095282209E+02 -0.32147454973E+01  0.58613710482E+02  0.10000000000E+01 0.  0.
<mgrwt>
<rscale>  0 0.12500339E+03</rscale>
<asrwt>0</asrwt>
<pdfrwt beam="2">  1        4 0.14656087E-01 0.12500339E+03</pdfrwt>
<pdfrwt beam="1">  1       -4 0.63086853E-02 0.12500339E+03</pdfrwt>
<totfact> 0.10210569E+04</totfact>
</mgrwt>
</event>
<event>
 5    1  0.3234540E-002  0.1250087E+03  0.7818608E-02  0.1235056E+00
         -4   -1    0    0    0  501 -0.00000000000E+00  0.00000000000E+00  0.44316741801E+01  0.46100581383E+01  0.12700000000E+01 0.  1.
          4   -1    0    0  501    0  0.00000000000E+00 -0.00000000000E+00 -0.86399019719E+03  0.86399113059E+03  0.12700000000E+01 0.  1.
         25    2    1    2    0    0  0.00000000000E+00  0.00000000000E+00 -0.85955852301E+03  0.86860118873E+03  0.12500868203E+03 0.  0.
    9000005    1    3    3    0    0 -0.49280349411E+02  0.37772630329E+02 -0.47914085553E+03  0.48314830423E+03  0.10000000000E+01 0.  0.
    9000005    1    3    3    0    0  0.49280349411E+02 -0.37772630329E+02 -0.38041766747E+03  0.38545288450E+03  0.10000000000E+01 0.  0.
<mgrwt>
<rscale>  0 0.12500868E+03</rscale>
<asrwt>0</asrwt>
<pdfrwt beam="2">  1        4 0.13293523E+00 0.12500868E+03</pdfrwt>
<pdfrwt beam="1">  1       -4 0.69559036E-03 0.12500868E+03</pdfrwt>
<totfact> 0.35371333E+03</totfact>
</mgrwt>
</event>
<event>
 5    1  0.3234540E-002  0.1249809E+03  0.7818608E-02  0.1235099E+00
         -4   -1    0    0    0  501 -0.00000000000E+00  0.00000000000E+00  0.87446562589E+03  0.87446654811E+03  0.12700000000E+01 0.  1.
          4   -1    0    0  501    0  0.00000000000E+00 -0.00000000000E+00 -0.43744119522E+01  0.45550389601E+01  0.12700000000E+01 0.  1.
         25    2    1    2    0    0  0.00000000000E+00  0.00000000000E+00  0.87009121394E+03  0.87902158707E+03  0.12498091840E+03 0.  0.
    9000005    1    3    3    0    0  0.15396645711E+02 -0.59946159309E+02  0.49532622164E+03  0.49917899050E+03  0.10000000000E+01 0.  0.
    9000005    1    3    3    0    0 -0.15396645711E+02  0.59946159309E+02  0.37476499230E+03  0.37984259657E+03  0.10000000000E+01 0.  0.
<mgrwt>
<rscale>  0 0.12498092E+03</rscale>
<asrwt>0</asrwt>
<pdfrwt beam="2">  1        4 0.68695224E-03 0.12498092E+03</pdfrwt>
<pdfrwt beam="1">  1       -4 0.13454705E+00 0.12498092E+03</pdfrwt>
<totfact> 0.34982851E+03</totfact>
</mgrwt>
</event>
<event>
 5    1  0.3234540E-002  0.1249971E+03  0.7818608E-02  0.1235074E+00
          4   -1    0    0  501    0  0.00000000000E+00  0.00000000000E+00  0.60257091024E+03  0.60257224858E+03  0.12700000000E+01 0.  1.
         -4   -1    0    0    0  501 -0.00000000000E+00 -0.00000000000E+00 -0.64187756459E+01  0.65432087536E+01  0.12700000000E+01 0.  1.
         25    2    1    2    0    0  0.00000000000E+00  0.00000000000E+00  0.59615213459E+03  0.60911545734E+03  0.12499709113E+03 0.  0.
    9000005    1    3    3    0    0  0.80618485863E+01  0.23653349081E+02  0.18965712477E+02  0.31387458883E+02  0.10000000000E+01 0.  0.
    9000005    1    3    3    0    0 -0.80618485863E+01 -0.23653349081E+02  0.57718642211E+03  0.57772799845E+03  0.10000000000E+01 0.  0.
<mgrwt>
<rscale>  0 0.12499709E+03</rscale>
<asrwt>0</asrwt>
<pdfrwt beam="1">  1        4 0.92712891E-01 0.12499709E+03</pdfrwt>
<pdfrwt beam="2">  1       -4 0.99717868E-03 0.12499709E+03</pdfrwt>
<totfact> 0.48300306E+03</totfact>
</mgrwt>
</event>
<event>
 5    1  0.3234540E-002  0.1249960E+03  0.7818608E-02  0.1235076E+00
         -4   -1    0    0    0  501 -0.00000000000E+00  0.00000000000E+00  0.10719070370E+02  0.10794043246E+02  0.12700000000E+01 0. -1.
          4   -1    0    0  501    0  0.00000000000E+00 -0.00000000000E+00 -0.36305098126E+03  0.36305320257E+03  0.12700000000E+01 0. -1.
         25    2    1    2    0    0  0.00000000000E+00  0.00000000000E+00 -0.35233191089E+03  0.37384724582E+03  0.12499595102E+03 0.  0.
    9000005    1    3    3    0    0  0.86669589440E+01  0.48795320934E+02 -0.29001176767E+03  0.29421747894E+03  0.10000000000E+01 0.  0.
    9000005    1    3    3    0    0 -0.86669589440E+01 -0.48795320934E+02 -0.62320143217E+02  0.79629766878E+02  0.10000000000E+01 0.  0.
<mgrwt>
<rscale>  0 0.12499595E+03</rscale>
<asrwt>0</asrwt>
<pdfrwt beam="2">  1        4 0.55859926E-01 0.12499595E+03</pdfrwt>
<pdfrwt beam="1">  1       -4 0.16550260E-02 0.12499595E+03</pdfrwt>
<totfact> 0.67184372E+03</totfact>
</mgrwt>
</event>
<event>
 5    1  0.3234540E-002  0.1249998E+03  0.7818608E-02  0.1235070E+00
         -4   -1    0    0    0  501 -0.00000000000E+00  0.00000000000E+00  0.60986939799E+01  0.62295239192E+01  0.12700000000E+01 0. -1.
          4   -1    0    0  501    0  0.00000000000E+00 -0.00000000000E+00 -0.63357497717E+03  0.63357625003E+03  0.12700000000E+01 0. -1.
         25    2    1    2    0    0  0.00000000000E+00  0.00000000000E+00 -0.62747628319E+03  0.63980577394E+03  0.12499976963E+03 0.  0.
    9000005    1    3    3    0    0 -0.16247687608E+02  0.38358047516E+02 -0.75308828852E+02  0.86068268629E+02  0.10000000000E+01 0.  0.
    9000005    1    3    3    0    0  0.16247687608E+02 -0.38358047516E+02 -0.55216745434E+03  0.55373750532E+03  0.10000000000E+01 0.  0.
<mgrwt>
<rscale>  0 0.12499977E+03</rscale>
<asrwt>0</asrwt>
<pdfrwt beam="2">  1        4 0.97483184E-01 0.12499977E+03</pdfrwt>
<pdfrwt beam="1">  1       -4 0.94842287E-03 0.12499977E+03</pdfrwt>
<totfact> 0.46447844E+03</totfact>
</mgrwt>
</event>
<event>
 5    1  0.3234540E-002  0.1250002E+03  0.7818608E-02  0.1235069E+00
         -4   -1    0    0    0  501 -0.00000000000E+00  0.00000000000E+00  0.10696702263E+04  0.10696709803E+04  0.12700000000E+01 0.  1.
          4   -1    0    0  501    0  0.00000000000E+00 -0.00000000000E+00 -0.35406404747E+01  0.37615203005E+01  0.12700000000E+01 0.  1.
         25    2    1    2    0    0  0.00000000000E+00  0.00000000000E+00  0.10661295859E+04  0.10734325006E+04  0.12500015764E+03 0.  0.
    9000005    1    3    3    0    0 -0.37657250182E+02 -0.42149222473E+02  0.30414291764E+03  0.30935180587E+03  0.10000000000E+01 0.  0.
    9000005    1    3    3    0    0  0.37657250182E+02  0.42149222473E+02  0.76198666822E+03  0.76408069468E+03  0.10000000000E+01 0.  0.
<mgrwt>
<rscale>  0 0.12500016E+03</rscale>
<asrwt>0</asrwt>
<pdfrwt beam="2">  1        4 0.56176199E-03 0.12500016E+03</pdfrwt>
<pdfrwt beam="1">  1       -4 0.16458190E+00 0.12500016E+03</pdfrwt>
<totfact> 0.28274114E+03</totfact>
</mgrwt>
</event>
<event>
 5    1  0.3234540E-002  0.1249968E+03  0.7818608E-02  0.1235074E+00
         -4   -1    0    0    0  501 -0.00000000000E+00  0.00000000000E+00  0.52043240809E+03  0.52043395767E+03  0.12700000000E+01 0.  1.
          4   -1    0    0  501    0  0.00000000000E+00 -0.00000000000E+00 -0.74501013008E+01  0.75575729830E+01  0.12700000000E+01 0.  1.
         25    2    1    2    0    0  0.00000000000E+00  0.00000000000E+00  0.51298230679E+03  0.52799153065E+03  0.12499683739E+03 0.  0.
    9000005    1    3    3    0    0  0.46633177192E+02 -0.41592874644E+02  0.25926716383E+03  0.26669286206E+03  0.10000000000E+01 0.  0.
    9000005    1    3    3    0    0 -0.46633177192E+02  0.41592874644E+02  0.25371514296E+03  0.26129866859E+03  0.10000000000E+01 0.  0.
<mgrwt>
<rscale>  0 0.12499684E+03</rscale>
<asrwt>0</asrwt>
<pdfrwt beam="2">  1        4 0.11545557E-02 0.12499684E+03</pdfrwt>
<pdfrwt beam="1">  1       -4 0.80074908E-01 0.12499684E+03</pdfrwt>
<totfact> 0.53759879E+03</totfact>
</mgrwt>
</event>
<event>
 5    1  0.3234540E-002  0.1250004E+03  0.7818608E-02  0.1235069E+00
         -4   -1    0    0    0  501 -0.00000000000E+00  0.00000000000E+00  0.33750439520E+02  0.33774325572E+02  0.12700000000E+01 0. -1.
          4   -1    0    0  501    0  0.00000000000E+00 -0.00000000000E+00 -0.11567170644E+03  0.11567867812E+03  0.12700000000E+01 0. -1.
         25    2    1    2    0    0  0.00000000000E+00  0.00000000000E+00 -0.81921266921E+02  0.14945300369E+03  0.12500042535E+03 0.  0.
    9000005    1    3    3    0    0 -0.43109565392E+02  0.34064683865E+02 -0.53632849429E+01  0.55214148010E+02  0.10000000000E+01 0.  0.
    9000005    1    3    3    0    0  0.43109565392E+02 -0.34064683865E+02 -0.76557981979E+02  0.94238855679E+02  0.10000000000E+01 0.  0.
<mgrwt>
<rscale>  0 0.12500043E+03</rscale>
<asrwt>0</asrwt>
<pdfrwt beam="2">  1        4 0.17798021E-01 0.12500043E+03</pdfrwt>
<pdfrwt beam="1">  1       -4 0.51947490E-02 0.12500043E+03</pdfrwt>
<totfact> 0.99411893E+03</totfact>
</mgrwt>
</event>
<event>
 5    1  0.3234540E-002  0.1250051E+03  0.7818608E-02  0.1235061E+00
         -4   -1    0    0    0  501 -0.00000000000E+00  0.00000000000E+00  0.15802735261E+02  0.15853685431E+02  0.12700000000E+01 0. -1.
          4   -1    0    0  501    0  0.00000000000E+00 -0.00000000000E+00 -0.24675808410E+03  0.24676135226E+03  0.12700000000E+01 0. -1.
         25    2    1    2    0    0  0.00000000000E+00  0.00000000000E+00 -0.23095534884E+03  0.26261503769E+03  0.12500513935E+03 0.  0.
    9000005    1    3    3    0    0  0.15175787851E+02 -0.37514666982E+02 -0.21552494541E+03  0.21929354042E+03  0.10000000000E+01 0.  0.
    9000005    1    3    3    0    0 -0.15175787851E+02  0.37514666982E+02 -0.15430403427E+02  0.43321497269E+02  0.10000000000E+01 0.  0.
<mgrwt>
<rscale>  0 0.12500514E+03</rscale>
<asrwt>0</asrwt>
<pdfrwt beam="2">  1        4 0.37966950E-01 0.12500514E+03</pdfrwt>
<pdfrwt beam="1">  1       -4 0.24353609E-02 0.12500514E+03</pdfrwt>
<totfact> 0.80531262E+03</totfact>
</mgrwt>
</event>
<event>
 5    1  0.3234540E-002  0.1250025E+03  0.7818608E-02  0.1235065E+00
         -4   -1    0    0    0  501 -0.00000000000E+00  0.00000000000E+00  0.94865629140E+02  0.94874129731E+02  0.12700000000E+01 0. -1.
          4   -1    0    0  501    0  0.00000000000E+00 -0.00000000000E+00 -0.41158160620E+02  0.41177749886E+02  0.12700000000E+01 0. -1.
         25    2    1    2    0    0  0.00000000000E+00  0.00000000000E+00  0.53707468520E+02  0.13605187962E+03  0.12500248706E+03 0.  0.
    9000005    1    3    3    0    0  0.49283343249E+02 -0.31772789850E+02  0.33321620724E+01  0.58740628195E+02  0.10000000000E+01 0.  0.
    9000005    1    3    3    0    0 -0.49283343249E+02  0.31772789850E+02  0.50375306448E+02  0.77311251421E+02  0.10000000000E+01 0.  0.
<mgrwt>
<rscale>  0 0.12500249E+03</rscale>
<asrwt>0</asrwt>
<pdfrwt beam="2">  1        4 0.63341855E-02 0.12500249E+03</pdfrwt>
<pdfrwt beam="1">  1       -4 0.14596873E-01 0.12500249E+03</pdfrwt>
<totfact> 0.10215374E+04</totfact>
</mgrwt>
</event>
<event>
 5    1  0.3234540E-002  0.1250037E+03  0.7818608E-02  0.1235063E+00
         -4   -1    0    0    0  501 -0.00000000000E+00  0.00000000000E+00  0.11570155066E+04  0.11570162036E+04  0.12700000000E+01 0. -1.
          4   -1    0    0  501    0  0.00000000000E+00 -0.00000000000E+00 -0.32561945868E+01  0.34950970211E+01  0.12700000000E+01 0. -1.
         25    2    1    2    0    0  0.00000000000E+00  0.00000000000E+00  0.11537593120E+04  0.11605113006E+04  0.12500371527E+03 0.  0.
    9000005    1    3    3    0    0 -0.53229453853E+01  0.59832450646E+02  0.41682434935E+03  0.42113156390E+03  0.10000000000E+01 0.  0.
    9000005    1    3    3    0    0  0.53229453853E+01 -0.59832450646E+02  0.73693496263E+03  0.73937973670E+03  0.10000000000E+01 0.  0.
<mgrwt>
<rscale>  0 0.12500372E+03</rscale>
<asrwt>0</asrwt>
<pdfrwt beam="2">  1        4 0.51938316E-03 0.12500372E+03</pdfrwt>
<pdfrwt beam="1">  1       -4 0.17802101E+00 0.12500372E+03</pdfrwt>
<totfact> 0.25768254E+03</totfact>
</mgrwt>
</event>
<event>
 5    1  0.3234540E-002  0.1249896E+03  0.7818608E-02  0.1235086E+00
         -4   -1    0    0    0  501 -0.00000000000E+00  0.00000000000E+00  0.24611435715E+03  0.24611763386E+03  0.12700000000E+01 0. -1.
          4   -1    0    0  501    0  0.00000000000E+00 -0.00000000000E+00 -0.15840247329E+02  0.15891077228E+02  0.12700000000E+01 0. -1.
         25    2    1    2    0    0  0.00000000000E+00  0.00000000000E+00  0.23027410982E+03  0.26200871108E+03  0.12498959569E+03 0.  0.
    9000005    1    3    3    0    0 -0.32805023890E+02 -0.45903599352E+02  0.58838565479E+02  0.81524761966E+02  0.10000000000E+01 0.  0.
    9000005    1    3    3    0    0  0.32805023890E+02  0.45903599352E+02  0.17143554434E+03  0.18048394912E+03  0.10000000000E+01 0.  0.
<mgrwt>
<rscale>  0 0.12498960E+03</rscale>
<asrwt>0</asrwt>
<pdfrwt beam="2">  1        4 0.24411232E-02 0.12498960E+03</pdfrwt>
<pdfrwt beam="1">  1       -4 0.37867909E-01 0.12498960E+03</pdfrwt>
<totfact> 0.80643663E+03</totfact>
</mgrwt>
</event>
<event>
 5    1  0.3234540E-002  0.1250007E+03  0.7818608E-02  0.1235068E+00
         -4   -1    0    0    0  501 -0.00000000000E+00  0.00000000000E+00  0.41992903675E+03  0.41993095719E+03  0.12700000000E+01 0.  1.
          4   -1    0    0  501    0  0.00000000000E+00 -0.00000000000E+00 -0.92569694719E+01  0.93436814909E+01  0.12700000000E+01 0.  1.
         25    2    1    2    0    0  0.00000000000E+00  0.00000000000E+00  0.41067206728E+03  0.42927463868E+03  0.12500067428E+03 0.  0.
    9000005    1    3    3    0    0  0.67219040617E+01  0.66172530096E+01 -0.68150593854E+01  0.11679771660E+02  0.10000000000E+01 0.  0.
    9000005    1    3    3    0    0 -0.67219040617E+01 -0.66172530096E+01  0.41748712666E+03  0.41759486702E+03  0.10000000000E+01 0.  0.
<mgrwt>
<rscale>  0 0.12500067E+03</rscale>
<asrwt>0</asrwt>
<pdfrwt beam="2">  1        4 0.14309671E-02 0.12500067E+03</pdfrwt>
<pdfrwt beam="1">  1       -4 0.64611281E-01 0.12500067E+03</pdfrwt>
<totfact> 0.61800878E+03</totfact>
</mgrwt>
</event>
<event>
 5    1  0.3234540E-002  0.1250004E+03  0.7818608E-02  0.1235069E+00
         -4   -1    0    0    0  501 -0.00000000000E+00  0.00000000000E+00  0.71105909902E+01  0.72231159640E+01  0.12700000000E+01 0. -1.
          4   -1    0    0  501    0  0.00000000000E+00 -0.00000000000E+00 -0.54493425513E+03  0.54493573503E+03  0.12700000000E+01 0. -1.
         25    2    1    2    0    0  0.00000000000E+00  0.00000000000E+00 -0.53782366414E+03  0.55215885099E+03  0.12500041209E+03 0.  0.
    9000005    1    3    3    0    0  0.42843367713E+02  0.45411501870E+02 -0.28102276692E+03  0.28787593541E+03  0.10000000000E+01 0.  0.
    9000005    1    3    3    0    0 -0.42843367713E+02 -0.45411501870E+02 -0.25680089722E+03  0.26428291559E+03  0.10000000000E+01 0.  0.
<mgrwt>
<rscale>  0 0.12500041E+03</rscale>
<asrwt>0</asrwt>
<pdfrwt beam="2">  1        4 0.83844776E-01 0.12500041E+03</pdfrwt>
<pdfrwt beam="1">  1       -4 0.11027071E-02 0.12500041E+03</pdfrwt>
<totfact> 0.52033330E+03</totfact>
</mgrwt>
</event>
<event>
 5    1  0.3234540E-002  0.1249996E+03  0.7818608E-02  0.1235070E+00
          4   -1    0    0  501    0  0.00000000000E+00  0.00000000000E+00  0.20325664594E+03  0.20326061355E+03  0.12700000000E+01 0.  1.
         -4   -1    0    0    0  501 -0.00000000000E+00 -0.00000000000E+00 -0.19193050713E+02  0.19235022632E+02  0.12700000000E+01 0.  1.
         25    2    1    2    0    0  0.00000000000E+00  0.00000000000E+00  0.18406359523E+03  0.22249563618E+03  0.12499960412E+03 0.  0.
    9000005    1    3    3    0    0  0.19888972212E+02 -0.55568950031E+02  0.55477515370E+02  0.81007617758E+02  0.10000000000E+01 0.  0.
    9000005    1    3    3    0    0 -0.19888972212E+02  0.55568950031E+02  0.12858607986E+03  0.14148801842E+03  0.10000000000E+01 0.  0.
<mgrwt>
<rscale>  0 0.12499960E+03</rscale>
<asrwt>0</asrwt>
<pdfrwt beam="1">  1        4 0.31273786E-01 0.12499960E+03</pdfrwt>
<pdfrwt beam="2">  1       -4 0.29563109E-02 0.12499960E+03</pdfrwt>
<totfact> 0.86475746E+03</totfact>
</mgrwt>
</event>
<event>
 5    1  0.3234540E-002  0.1249951E+03  0.7818608E-02  0.1235077E+00
          4   -1    0    0  501    0  0.00000000000E+00  0.00000000000E+00  0.16384211052E+02  0.16433358506E+02  0.12700000000E+01 0.  1.
         -4   -1    0    0    0  501 -0.00000000000E+00 -0.00000000000E+00 -0.23798876007E+03  0.23799214866E+03  0.12700000000E+01 0.  1.
         25    2    1    2    0    0  0.00000000000E+00  0.00000000000E+00 -0.22160454902E+03  0.25442550716E+03  0.12499505009E+03 0.  0.
    9000005    1    3    3    0    0  0.79270161626E+01 -0.56047330429E+02 -0.56917655120E+02  0.80279264433E+02  0.10000000000E+01 0.  0.
    9000005    1    3    3    0    0 -0.79270161626E+01  0.56047330429E+02 -0.16468689390E+03  0.17414624273E+03  0.10000000000E+01 0.  0.
<mgrwt>
<rscale>  0 0.12499505E+03</rscale>
<asrwt>0</asrwt>
<pdfrwt beam="1">  1        4 0.25246893E-02 0.12499505E+03</pdfrwt>
<pdfrwt beam="2">  1       -4 0.36617694E-01 0.12499505E+03</pdfrwt>
<totfact> 0.81703789E+03</totfact>
</mgrwt>
</event>
<event>
 5    1  0.3234540E-002  0.1249992E+03  0.7818608E-02  0.1235070E+00
         -4   -1    0    0    0  501 -0.00000000000E+00  0.00000000000E+00  0.38937942801E+02  0.38958648457E+02  0.12700000000E+01 0.  1.
          4   -1    0    0  501    0  0.00000000000E+00 -0.00000000000E+00 -0.10026728666E+03  0.10027532934E+03  0.12700000000E+01 0.  1.
         25    2    1    2    0    0  0.00000000000E+00  0.00000000000E+00 -0.61329343864E+02  0.13923397780E+03  0.12499924862E+03 0.  0.
    9000005    1    3    3    0    0  0.39835134100E+02  0.35397785536E+02  0.56921916672E+01  0.53602632170E+02  0.10000000000E+01 0.  0.
    9000005    1    3    3    0    0 -0.39835134100E+02 -0.35397785536E+02 -0.67021535531E+02  0.85631345631E+02  0.10000000000E+01 0.  0.
<mgrwt>
<rscale>  0 0.12499925E+03</rscale>
<asrwt>0</asrwt>
<pdfrwt beam="2">  1        4 0.15427948E-01 0.12499925E+03</pdfrwt>
<pdfrwt beam="1">  1       -4 0.59926642E-02 0.12499925E+03</pdfrwt>
<totfact> 0.10149658E+04</totfact>
</mgrwt>
</event>
<event>
 5    1  0.3234540E-002  0.1249997E+03  0.7818608E-02  0.1235070E+00
          4   -1    0    0  501    0  0.00000000000E+00  0.00000000000E+00  0.28065534123E+03  0.28065821467E+03  0.12700000000E+01 0. -1.
         -4   -1    0    0    0  501 -0.00000000000E+00 -0.00000000000E+00 -0.13886338762E+02  0.13944292890E+02  0.12700000000E+01 0. -1.
         25    2    1    2    0    0  0.00000000000E+00  0.00000000000E+00  0.26676900247E+03  0.29460250756E+03  0.12499974713E+03 0.  0.
    9000005    1    3    3    0    0 -0.44525195545E+02 -0.26805580411E+02  0.51598875715E+02  0.73242584298E+02  0.10000000000E+01 0.  0.
    9000005    1    3    3    0    0  0.44525195545E+02  0.26805580411E+02  0.21517012676E+03  0.22135992327E+03  0.10000000000E+01 0.  0.
<mgrwt>
<rscale>  0 0.12499975E+03</rscale>
<asrwt>0</asrwt>
<pdfrwt beam="1">  1        4 0.43182421E-01 0.12499975E+03</pdfrwt>
<pdfrwt beam="2">  1       -4 0.21410390E-02 0.12499975E+03</pdfrwt>
<totfact> 0.76281346E+03</totfact>
</mgrwt>
</event>
<event>
 5    1  0.3234540E-002  0.1250001E+03  0.7818608E-02  0.1235069E+00
          4   -1    0    0  501    0  0.00000000000E+00  0.00000000000E+00  0.65860034644E+02  0.65872278413E+02  0.12700000000E+01 0. -1.
         -4   -1    0    0    0  501 -0.00000000000E+00 -0.00000000000E+00 -0.59286890896E+02  0.59300491837E+02  0.12700000000E+01 0. -1.
         25    2    1    2    0    0  0.00000000000E+00  0.00000000000E+00  0.65731437481E+01  0.12517277025E+03  0.12500006477E+03 0.  0.
    9000005    1    3    3    0    0 -0.43466617191E+02  0.39774109595E+01 -0.41497555587E+02  0.60234655537E+02  0.10000000000E+01 0.  0.
    9000005    1    3    3    0    0  0.43466617191E+02 -0.39774109595E+01  0.48070699335E+02  0.64938114713E+02  0.10000000000E+01 0.  0.
<mgrwt>
<rscale>  0 0.12500006E+03</rscale>
<asrwt>0</asrwt>
<pdfrwt beam="1">  1        4 0.10134301E-01 0.12500006E+03</pdfrwt>
<pdfrwt beam="2">  1       -4 0.91230482E-02 0.12500006E+03</pdfrwt>
<totfact> 0.10449096E+04</totfact>
</mgrwt>
</event>
<event>
 5    1  0.3234540E-002  0.1249966E+03  0.7818608E-02  0.1235075E+00
         -4   -1    0    0    0  501 -0.00000000000E+00  0.00000000000E+00  0.11291745501E+02  0.11362940485E+02  0.12700000000E+01 0. -1.
          4   -1    0    0  501    0  0.00000000000E+00 -0.00000000000E+00 -0.34476012510E+03  0.34476246425E+03  0.12700000000E+01 0. -1.
         25    2    1    2    0    0  0.00000000000E+00  0.00000000000E+00 -0.33346837960E+03  0.35612540474E+03  0.12499657479E+03 0.  0.
    9000005    1    3    3    0    0  0.57019895029E+02 -0.12338145700E+02 -0.10292891000E+03  0.11831677304E+03  0.10000000000E+01 0.  0.
    9000005    1    3    3    0    0 -0.57019895029E+02  0.12338145700E+02 -0.23053946960E+03  0.23780863170E+03  0.10000000000E+01 0.  0.
<mgrwt>
<rscale>  0 0.12499657E+03</rscale>
<asrwt>0</asrwt>
<pdfrwt beam="2">  1        4 0.53045668E-01 0.12499657E+03</pdfrwt>
<pdfrwt beam="1">  1       -4 0.17428484E-02 0.12499657E+03</pdfrwt>
<totfact> 0.69061139E+03</totfact>
</mgrwt>
</event>
<event>
 5    1  0.3234540E-002  0.1249992E+03  0.7818608E-02  0.1235070E+00
         -4   -1    0    0    0  501 -0.00000000000E+00  0.00000000000E+00  0.24614352392E+03  0.24614680024E+03  0.12700000000E+01 0.  1.
          4   -1    0    0  501    0  0.00000000000E+00 -0.00000000000E+00 -0.15840819227E+02  0.15891647296E+02  0.12700000000E+01 0.  1.
         25    2    1    2    0    0  0.00000000000E+00  0.00000000000E+00  0.23030270469E+03  0.26203844753E+03  0.12499924879E+03 0.  0.
    9000005    1    3    3    0    0 -0.15694132570E+02 -0.51239867861E+02  0.47762787025E+02  0.71792156118E+02  0.10000000000E+01 0.  0.
    9000005    1    3    3    0    0  0.15694132570E+02  0.51239867861E+02  0.18253991767E+03  0.19024629142E+03  0.10000000000E+01 0.  0.
<mgrwt>
<rscale>  0 0.12499925E+03</rscale>
<asrwt>0</asrwt>
<pdfrwt beam="2">  1        4 0.24412110E-02 0.12499925E+03</pdfrwt>
<pdfrwt beam="1">  1       -4 0.37872397E-01 0.12499925E+03</pdfrwt>
<totfact> 0.80622188E+03</totfact>
</mgrwt>
</event>
<event>
 5    1  0.3234540E-002  0.1249978E+03  0.7818608E-02  0.1235073E+00
         -4   -1    0    0    0  501 -0.00000000000E+00  0.00000000000E+00  0.18902171602E+03  0.18902598241E+03  0.12700000000E+01 0.  1.
          4   -1    0    0  501    0  0.00000000000E+00 -0.00000000000E+00 -0.20640884629E+02  0.20679918236E+02  0.12700000000E+01 0.  1.
         25    2    1    2    0    0  0.00000000000E+00  0.00000000000E+00  0.16838083139E+03  0.20970590065E+03  0.12499784153E+03 0.  0.
    9000005    1    3    3    0    0  0.91910059606E+01 -0.11915322523E+02 -0.17564006461E+02  0.23150460564E+02  0.10000000000E+01 0.  0.
    9000005    1    3    3    0    0 -0.91910059606E+01  0.11915322523E+02  0.18594483785E+03  0.18655544008E+03  0.10000000000E+01 0.  0.
<mgrwt>
<rscale>  0 0.12499784E+03</rscale>
<asrwt>0</asrwt>
<pdfrwt beam="2">  1        4 0.31788514E-02 0.12499784E+03</pdfrwt>
<pdfrwt beam="1">  1       -4 0.29083596E-01 0.12499784E+03</pdfrwt>
<totfact> 0.88528204E+03</totfact>
</mgrwt>
</event>
<event>
 5    1  0.3234540E-002  0.1250007E+03  0.7818608E-02  0.1235068E+00
          4   -1    0    0  501    0  0.00000000000E+00  0.00000000000E+00  0.63140315930E+02  0.63153086985E+02  0.12700000000E+01 0.  1.
         -4   -1    0    0    0  501 -0.00000000000E+00 -0.00000000000E+00 -0.61841279657E+02  0.61854318924E+02  0.12700000000E+01 0.  1.
         25    2    1    2    0    0  0.00000000000E+00  0.00000000000E+00  0.12990362733E+01  0.12500740591E+03  0.12500065615E+03 0.  0.
    9000005    1    3    3    0    0  0.40197443930E+02 -0.18814354562E+02  0.44645945285E+02  0.62960899505E+02  0.10000000000E+01 0.  0.
    9000005    1    3    3    0    0 -0.40197443930E+02  0.18814354562E+02 -0.43346909012E+02  0.62046506404E+02  0.10000000000E+01 0.  0.
<mgrwt>
<rscale>  0 0.12500066E+03</rscale>
<asrwt>0</asrwt>
<pdfrwt beam="1">  1        4 0.97158802E-02 0.12500066E+03</pdfrwt>
<pdfrwt beam="2">  1       -4 0.95160284E-02 0.12500066E+03</pdfrwt>
<totfact> 0.10452547E+04</totfact>
</mgrwt>
</event>
<event>
 5    1  0.3234540E-002  0.1250430E+03  0.7818608E-02  0.1235002E+00
         -4   -1    0    0    0  501 -0.00000000000E+00  0.00000000000E+00  0.28418805853E+02  0.28447169035E+02  0.12700000000E+01 0. -1.
          4   -1    0    0  501    0  0.00000000000E+00 -0.00000000000E+00 -0.13744773782E+03  0.13745360502E+03  0.12700000000E+01 0. -1.
         25    2    1    2    0    0  0.00000000000E+00  0.00000000000E+00 -0.10902893197E+03  0.16590077405E+03  0.12504302789E+03 0.  0.
    9000005    1    3    3    0    0 -0.13711590182E+01  0.51888753496E+02 -0.10073444423E+03  0.11332586232E+03  0.10000000000E+01 0.  0.
    9000005    1    3    3    0    0  0.13711590182E+01 -0.51888753496E+02 -0.82944877357E+01  0.52574911729E+02  0.10000000000E+01 0.  0.
<mgrwt>
<rscale>  0 0.12504303E+03</rscale>
<asrwt>0</asrwt>
<pdfrwt beam="2">  1        4 0.21148439E-01 0.12504303E+03</pdfrwt>
<pdfrwt beam="1">  1       -4 0.43747572E-02 0.12504303E+03</pdfrwt>
<totfact> 0.96124135E+03</totfact>
</mgrwt>
</event>
<event>
 5    1  0.3234540E-002  0.1250070E+03  0.7818608E-02  0.1235058E+00
         -4   -1    0    0    0  501 -0.00000000000E+00  0.00000000000E+00  0.19027525604E+01  0.22876554168E+01  0.12700000000E+01 0. -1.
          4   -1    0    0  501    0  0.00000000000E+00 -0.00000000000E+00 -0.18642001628E+04  0.18642005954E+04  0.12700000000E+01 0. -1.
         25    2    1    2    0    0  0.00000000000E+00  0.00000000000E+00 -0.18622974103E+04  0.18664882509E+04  0.12500698479E+03 0.  0.
    9000005    1    3    3    0    0 -0.10802944887E+02 -0.21475534790E+02 -0.69820700262E+02  0.73850067013E+02  0.10000000000E+01 0.  0.
    9000005    1    3    3    0    0  0.10802944887E+02  0.21475534790E+02 -0.17924767100E+04  0.17926381838E+04  0.10000000000E+01 0.  0.
<mgrwt>
<rscale>  0 0.12500698E+03</rscale>
<asrwt>0</asrwt>
<pdfrwt beam="2">  1        4 0.28682834E+00 0.12500698E+03</pdfrwt>
<pdfrwt beam="1">  1       -4 0.32237384E-03 0.12500698E+03</pdfrwt>
<totfact> 0.11704544E+03</totfact>
</mgrwt>
</event>
<event>
 5    1  0.3234540E-002  0.1249994E+03  0.7818608E-02  0.1235070E+00
         -4   -1    0    0    0  501 -0.00000000000E+00  0.00000000000E+00  0.20970733734E+01  0.24516559166E+01  0.12700000000E+01 0. -1.
          4   -1    0    0  501    0  0.00000000000E+00 -0.00000000000E+00 -0.17171413311E+04  0.17171418007E+04  0.12700000000E+01 0. -1.
         25    2    1    2    0    0  0.00000000000E+00  0.00000000000E+00 -0.17150442577E+04  0.17195934566E+04  0.12499940095E+03 0.  0.
    9000005    1    3    3    0    0 -0.21617398392E+02 -0.56332017900E+02 -0.63374464430E+03  0.63661124899E+03  0.10000000000E+01 0.  0.
    9000005    1    3    3    0    0  0.21617398392E+02  0.56332017900E+02 -0.10812996134E+04  0.10829822076E+04  0.10000000000E+01 0.  0.
<mgrwt>
<rscale>  0 0.12499940E+03</rscale>
<asrwt>0</asrwt>
<pdfrwt beam="2">  1        4 0.26420186E+00 0.12499940E+03</pdfrwt>
<pdfrwt beam="1">  1       -4 0.34993975E-03 0.12499940E+03</pdfrwt>
<totfact> 0.13983904E+03</totfact>
</mgrwt>
</event>
<event>
 5    1  0.3234540E-002  0.1250056E+03  0.7818608E-02  0.1235061E+00
         -4   -1    0    0    0  501 -0.00000000000E+00  0.00000000000E+00  0.24616018043E+02  0.24648757460E+02  0.12700000000E+01 0. -1.
          4   -1    0    0  501    0  0.00000000000E+00 -0.00000000000E+00 -0.15856072245E+03  0.15856580843E+03  0.12700000000E+01 0. -1.
         25    2    1    2    0    0  0.00000000000E+00  0.00000000000E+00 -0.13394470440E+03  0.18321456589E+03  0.12500557314E+03 0.  0.
    9000005    1    3    3    0    0 -0.59443839650E+02  0.10235641855E+02 -0.43011761698E+02  0.74090148339E+02  0.10000000000E+01 0.  0.
    9000005    1    3    3    0    0  0.59443839650E+02 -0.10235641855E+02 -0.90932942706E+02  0.10912441755E+03  0.10000000000E+01 0.  0.
<mgrwt>
<rscale>  0 0.12500557E+03</rscale>
<asrwt>0</asrwt>
<pdfrwt beam="2">  1        4 0.24396866E-01 0.12500557E+03</pdfrwt>
<pdfrwt beam="1">  1       -4 0.37899895E-02 0.12500557E+03</pdfrwt>
<totfact> 0.93029929E+03</totfact>
</mgrwt>
</event>
<event>
 5    1  0.3234540E-002  0.1250066E+03  0.7818608E-02  0.1235059E+00
         -4   -1    0    0    0  501 -0.00000000000E+00  0.00000000000E+00  0.35502920216E+03  0.35503147365E+03  0.12700000000E+01 0.  1.
          4   -1    0    0  501    0  0.00000000000E+00 -0.00000000000E+00 -0.10964811968E+02  0.11038115849E+02  0.12700000000E+01 0.  1.
         25    2    1    2    0    0  0.00000000000E+00  0.00000000000E+00  0.34406439019E+03  0.36606958950E+03  0.12500655888E+03 0.  0.
    9000005    1    3    3    0    0  0.10228075234E+02  0.58815536904E+02  0.11789402623E+03  0.13215098307E+03  0.10000000000E+01 0.  0.
    9000005    1    3    3    0    0 -0.10228075234E+02 -0.58815536904E+02  0.22617036395E+03  0.23391860643E+03  0.10000000000E+01 0.  0.
<mgrwt>
<rscale>  0 0.12500656E+03</rscale>
<asrwt>0</asrwt>
<pdfrwt beam="2">  1        4 0.16927078E-02 0.12500656E+03</pdfrwt>
<pdfrwt beam="1">  1       -4 0.54625685E-01 0.12500656E+03</pdfrwt>
<totfact> 0.67982287E+03</totfact>
</mgrwt>
</event>
<event>
 5    1  0.3234540E-002  0.1250017E+03  0.7818608E-02  0.1235067E+00
          4   -1    0    0  501    0  0.00000000000E+00  0.00000000000E+00  0.40016332806E+02  0.40036480755E+02  0.12700000000E+01 0.  1.
         -4   -1    0    0    0  501 -0.00000000000E+00 -0.00000000000E+00 -0.97570247894E+02  0.97578512871E+02  0.12700000000E+01 0.  1.
         25    2    1    2    0    0  0.00000000000E+00  0.00000000000E+00 -0.57553915088E+02  0.13761499363E+03  0.12500173330E+03 0.  0.
    9000005    1    3    3    0    0 -0.26864632275E+02  0.39931284517E+02  0.15109560411E+02  0.50453094714E+02  0.10000000000E+01 0.  0.
    9000005    1    3    3    0    0  0.26864632275E+02 -0.39931284517E+02 -0.72663475499E+02  0.87161898912E+02  0.10000000000E+01 0.  0.
<mgrwt>
<rscale>  0 0.12500173E+03</rscale>
<asrwt>0</asrwt>
<pdfrwt beam="1">  1        4 0.61585445E-02 0.12500173E+03</pdfrwt>
<pdfrwt beam="2">  1       -4 0.15012993E-01 0.12500173E+03</pdfrwt>
<totfact> 0.10182845E+04</totfact>
</mgrwt>
</event>
<event>
 4    1  0.3234540E-002  0.1240357E+03  0.7818608E-02  0.1236584E+00
          4   -1    0    0  501    0  0.00000000000E+00  0.00000000000E+00  0.64553465112E+01  0.65790879747E+01  0.12700000000E+01 0.  1.
         -4   -1    0    0    0  501 -0.00000000000E+00 -0.00000000000E+00 -0.59003770429E+03  0.59003907107E+03  0.12700000000E+01 0.  1.
    9000005    1    1    2    0    0  0.45082780757E+02  0.42517791350E+02 -0.28104080115E+03  0.28779359203E+03  0.10000000000E+01 0.  0.
    9000005    1    1    2    0    0 -0.45082780757E+02 -0.42517791350E+02 -0.30254155663E+03  0.30882456701E+03  0.10000000000E+01 0.  0.
<mgrwt>
<rscale>  0 0.12403572E+03</rscale>
<asrwt>0</asrwt>
<pdfrwt beam="1">  1        4 0.10027544E-02 0.12403572E+03</pdfrwt>
<pdfrwt beam="2">  1       -4 0.90784613E-01 0.12403572E+03</pdfrwt>
<totfact> 0.50134369E+03</totfact>
</mgrwt>
</event>
<event>
 5    1  0.3234540E-002  0.1250099E+03  0.7818608E-02  0.1235054E+00
          4   -1    0    0  501    0  0.00000000000E+00  0.00000000000E+00  0.61186043420E+03  0.61186175222E+03  0.12700000000E+01 0.  1.
         -4   -1    0    0    0  501 -0.00000000000E+00 -0.00000000000E+00 -0.63207413364E+01  0.64470668557E+01  0.12700000000E+01 0.  1.
         25    2    1    2    0    0  0.00000000000E+00  0.00000000000E+00  0.60553969286E+03  0.61830881908E+03  0.12500990410E+03 0.  0.
    9000005    1    3    3    0    0  0.62492704898E+02  0.39955911539E+00  0.30578337564E+03  0.31210570426E+03  0.10000000000E+01 0.  0.
    9000005    1    3    3    0    0 -0.62492704898E+02 -0.39955911539E+00  0.29975631722E+03  0.30620311482E+03  0.10000000000E+01 0.  0.
<mgrwt>
<rscale>  0 0.12500990E+03</rscale>
<asrwt>0</asrwt>
<pdfrwt beam="1">  1        4 0.94142185E-01 0.12500990E+03</pdfrwt>
<pdfrwt beam="2">  1       -4 0.98224056E-03 0.12500990E+03</pdfrwt>
<totfact> 0.47721573E+03</totfact>
</mgrwt>
</event>
<event>
 5    1  0.3234540E-002  0.1249980E+03  0.7818608E-02  0.1235072E+00
         -4   -1    0    0    0  501 -0.00000000000E+00  0.00000000000E+00  0.30908120864E+03  0.30908381781E+03  0.12700000000E+01 0.  1.
          4   -1    0    0  501    0  0.00000000000E+00 -0.00000000000E+00 -0.12603286336E+02  0.12667112001E+02  0.12700000000E+01 0.  1.
         25    2    1    2    0    0  0.00000000000E+00  0.00000000000E+00  0.29647792230E+03  0.32175092981E+03  0.12499800968E+03 0.  0.
    9000005    1    3    3    0    0 -0.53989137652E+02  0.28862421400E+02  0.18051831376E+03  0.19061932734E+03  0.10000000000E+01 0.  0.
    9000005    1    3    3    0    0  0.53989137652E+02 -0.28862421400E+02  0.11595960855E+03  0.13113160248E+03  0.10000000000E+01 0.  0.
<mgrwt>
<rscale>  0 0.12499801E+03</rscale>
<asrwt>0</asrwt>
<pdfrwt beam="2">  1        4 0.19440773E-02 0.12499801E+03</pdfrwt>
<pdfrwt beam="1">  1       -4 0.47556069E-01 0.12499801E+03</pdfrwt>
<totfact> 0.72951572E+03</totfact>
</mgrwt>
</event>
<event>
 5    1  0.3234540E-002  0.1249996E+03  0.7818608E-02  0.1235070E+00
         -4   -1    0    0    0  501 -0.00000000000E+00  0.00000000000E+00  0.37598360717E+02  0.37619803676E+02  0.12700000000E+01 0. -1.
          4   -1    0    0  501    0  0.00000000000E+00 -0.00000000000E+00 -0.10383859078E+03  0.10384635687E+03  0.12700000000E+01 0. -1.
         25    2    1    2    0    0  0.00000000000E+00  0.00000000000E+00 -0.66240230061E+02  0.14146616054E+03  0.12499962600E+03 0.  0.
    9000005    1    3    3    0    0  0.83146468908E+01  0.44813310387E+02  0.15265400783E+02  0.48077006997E+02  0.10000000000E+01 0.  0.
    9000005    1    3    3    0    0 -0.83146468908E+01 -0.44813310387E+02 -0.81505630844E+02  0.93389153546E+02  0.10000000000E+01 0.  0.
<mgrwt>
<rscale>  0 0.12499963E+03</rscale>
<asrwt>0</asrwt>
<pdfrwt beam="2">  1        4 0.15977415E-01 0.12499963E+03</pdfrwt>
<pdfrwt beam="1">  1       -4 0.57866101E-02 0.12499963E+03</pdfrwt>
<totfact> 0.10103374E+04</totfact>
</mgrwt>
</event>
<event>
 5    1  0.3234540E-002  0.1249980E+03  0.7818608E-02  0.1235072E+00
          4   -1    0    0  501    0  0.00000000000E+00  0.00000000000E+00  0.29818292538E+01  0.32410192377E+01  0.12700000000E+01 0.  1.
         -4   -1    0    0    0  501 -0.00000000000E+00 -0.00000000000E+00 -0.12551537011E+04  0.12551543436E+04  0.12700000000E+01 0.  1.
         25    2    1    2    0    0  0.00000000000E+00  0.00000000000E+00 -0.12521718719E+04  0.12583953629E+04  0.12499797037E+03 0.  0.
    9000005    1    3    3    0    0 -0.31848696741E+02 -0.18066910923E+02 -0.11628042579E+03  0.12191345363E+03  0.10000000000E+01 0.  0.
    9000005    1    3    3    0    0  0.31848696741E+02  0.18066910923E+02 -0.11358914461E+04  0.11364819092E+04  0.10000000000E+01 0.  0.
<mgrwt>
<rscale>  0 0.12499797E+03</rscale>
<asrwt>0</asrwt>
<pdfrwt beam="1">  1        4 0.47873108E-03 0.12499797E+03</pdfrwt>
<pdfrwt beam="2">  1       -4 0.19312015E+00 0.12499797E+03</pdfrwt>
<totfact> 0.23233338E+03</totfact>
</mgrwt>
</event>
<event>
 5    1  0.3234540E-002  0.1250153E+03  0.7818608E-02  0.1235045E+00
         -4   -1    0    0    0  501 -0.00000000000E+00  0.00000000000E+00  0.36100813750E+02  0.36123145675E+02  0.12700000000E+01 0. -1.
          4   -1    0    0  501    0  0.00000000000E+00 -0.00000000000E+00 -0.10817091240E+03  0.10817836748E+03  0.12700000000E+01 0. -1.
         25    2    1    2    0    0  0.00000000000E+00  0.00000000000E+00 -0.72070098652E+02  0.14430151315E+03  0.12501530938E+03 0.  0.
    9000005    1    3    3    0    0 -0.50522082490E+02 -0.98965453011E+01  0.48688997031E+01  0.51721645492E+02  0.10000000000E+01 0.  0.
    9000005    1    3    3    0    0  0.50522082490E+02  0.98965453011E+01 -0.76938998356E+02  0.92579867660E+02  0.10000000000E+01 0.  0.
<mgrwt>
<rscale>  0 0.12501531E+03</rscale>
<asrwt>0</asrwt>
<pdfrwt beam="2">  1        4 0.16643970E-01 0.12501531E+03</pdfrwt>
<pdfrwt beam="1">  1       -4 0.55562627E-02 0.12501531E+03</pdfrwt>
<totfact> 0.10041737E+04</totfact>
</mgrwt>
</event>
<event>
 5    1  0.3234540E-002  0.1249932E+03  0.7818608E-02  0.1235080E+00
          4   -1    0    0  501    0  0.00000000000E+00  0.00000000000E+00  0.27388778029E+03  0.27389072473E+03  0.12700000000E+01 0. -1.
         -4   -1    0    0    0  501 -0.00000000000E+00 -0.00000000000E+00 -0.14229381907E+02  0.14285944472E+02  0.12700000000E+01 0. -1.
         25    2    1    2    0    0  0.00000000000E+00  0.00000000000E+00  0.25965839838E+03  0.28817666920E+03  0.12499323510E+03 0.  0.
    9000005    1    3    3    0    0  0.39002421558E+01  0.61510581503E+02  0.15357329595E+03  0.16548269020E+03  0.10000000000E+01 0.  0.
    9000005    1    3    3    0    0 -0.39002421558E+01 -0.61510581503E+02  0.10608510243E+03  0.12269397900E+03  0.10000000000E+01 0.  0.
<mgrwt>
<rscale>  0 0.12499324E+03</rscale>
<asrwt>0</asrwt>
<pdfrwt beam="1">  1        4 0.42141161E-01 0.12499324E+03</pdfrwt>
<pdfrwt beam="2">  1       -4 0.21937130E-02 0.12499324E+03</pdfrwt>
<totfact> 0.77117867E+03</totfact>
</mgrwt>
</event>
<event>
 5    1  0.3234540E-002  0.1250560E+03  0.7818608E-02  0.1234982E+00
          4   -1    0    0  501    0  0.00000000000E+00  0.00000000000E+00  0.19579620478E+03  0.19580032356E+03  0.12700000000E+01 0.  1.
         -4   -1    0    0    0  501 -0.00000000000E+00 -0.00000000000E+00 -0.19943952357E+02  0.19984347265E+02  0.12700000000E+01 0.  1.
         25    2    1    2    0    0  0.00000000000E+00  0.00000000000E+00  0.17585225242E+03  0.21578467082E+03  0.12505602537E+03 0.  0.
    9000005    1    3    3    0    0 -0.38667247869E+02 -0.48923281160E+02  0.80188462818E+02  0.10158657916E+03  0.10000000000E+01 0.  0.
    9000005    1    3    3    0    0  0.38667247869E+02  0.48923281160E+02  0.95663789602E+02  0.11419809166E+03  0.10000000000E+01 0.  0.
<mgrwt>
<rscale>  0 0.12505603E+03</rscale>
<asrwt>0</asrwt>
<pdfrwt beam="1">  1        4 0.30125916E-01 0.12505603E+03</pdfrwt>
<pdfrwt beam="2">  1       -4 0.30717246E-02 0.12505603E+03</pdfrwt>
<totfact> 0.87430297E+03</totfact>
</mgrwt>
</event>
<event>
 5    1  0.3234540E-002  0.1250003E+03  0.7818608E-02  0.1235069E+00
          4   -1    0    0  501    0  0.00000000000E+00  0.00000000000E+00  0.10762312996E+03  0.10763062298E+03  0.12700000000E+01 0.  1.
         -4   -1    0    0    0  501 -0.00000000000E+00 -0.00000000000E+00 -0.36275950301E+02  0.36298174476E+02  0.12700000000E+01 0.  1.
         25    2    1    2    0    0  0.00000000000E+00  0.00000000000E+00  0.71347179660E+02  0.14392879745E+03  0.12500031476E+03 0.  0.
    9000005    1    3    3    0    0 -0.34497401638E+02 -0.51189322936E+02  0.24459598226E+02  0.66405492602E+02  0.10000000000E+01 0.  0.
    9000005    1    3    3    0    0  0.34497401638E+02  0.51189322936E+02  0.46887581434E+02  0.77523304852E+02  0.10000000000E+01 0.  0.
<mgrwt>
<rscale>  0 0.12500031E+03</rscale>
<asrwt>0</asrwt>
<pdfrwt beam="1">  1        4 0.16559690E-01 0.12500031E+03</pdfrwt>
<pdfrwt beam="2">  1       -4 0.55832014E-02 0.12500031E+03</pdfrwt>
<totfact> 0.10052727E+04</totfact>
</mgrwt>
</event>
<event>
 5    1  0.3234540E-002  0.1249998E+03  0.7818608E-02  0.1235070E+00
         -4   -1    0    0    0  501 -0.00000000000E+00  0.00000000000E+00  0.43533327051E+03  0.43533512300E+03  0.12700000000E+01 0.  1.
          4   -1    0    0  501    0  0.00000000000E+00 -0.00000000000E+00 -0.89261593348E+01  0.90160534865E+01  0.12700000000E+01 0.  1.
         25    2    1    2    0    0  0.00000000000E+00  0.00000000000E+00  0.42640711118E+03  0.44435117648E+03  0.12499977432E+03 0.  0.
    9000005    1    3    3    0    0 -0.12520738593E+02 -0.53696862272E+01  0.43000749983E+03  0.43022442089E+03  0.10000000000E+01 0.  0.
    9000005    1    3    3    0    0  0.12520738593E+02  0.53696862272E+01 -0.36003886493E+01  0.14126755591E+02  0.10000000000E+01 0.  0.
<mgrwt>
<rscale>  0 0.12499977E+03</rscale>
<asrwt>0</asrwt>
<pdfrwt beam="2">  1        4 0.13803130E-02 0.12499977E+03</pdfrwt>
<pdfrwt beam="1">  1       -4 0.66981394E-01 0.12499977E+03</pdfrwt>
<totfact> 0.60456601E+03</totfact>
</mgrwt>
</event>
<event>
 5    1  0.3234540E-002  0.1249989E+03  0.7818608E-02  0.1235071E+00
         -4   -1    0    0    0  501 -0.00000000000E+00  0.00000000000E+00  0.61541335691E+01  0.62838093532E+01  0.12700000000E+01 0. -1.
          4   -1    0    0  501    0  0.00000000000E+00 -0.00000000000E+00 -0.62797645572E+03  0.62797773992E+03  0.12700000000E+01 0. -1.
         25    2    1    2    0    0  0.00000000000E+00  0.00000000000E+00 -0.62182232215E+03  0.63426154928E+03  0.12499885025E+03 0.  0.
    9000005    1    3    3    0    0 -0.14546043005E+02 -0.15036585541E+01 -0.61919715138E+03  0.61937061654E+03  0.10000000000E+01 0.  0.
    9000005    1    3    3    0    0  0.14546043005E+02  0.15036585541E+01 -0.26251707700E+01  0.14890932735E+02  0.10000000000E+01 0.  0.
<mgrwt>
<rscale>  0 0.12499885E+03</rscale>
<asrwt>0</asrwt>
<pdfrwt beam="2">  1        4 0.96621786E-01 0.12499885E+03</pdfrwt>
<pdfrwt beam="1">  1       -4 0.95686412E-03 0.12499885E+03</pdfrwt>
<totfact> 0.46775158E+03</totfact>
</mgrwt>
</event>
<event>
 5    1  0.3234540E-002  0.1250021E+03  0.7818608E-02  0.1235066E+00
          4   -1    0    0  501    0  0.00000000000E+00  0.00000000000E+00  0.13353232109E+04  0.13353238148E+04  0.12700000000E+01 0. -1.
         -4   -1    0    0    0  501 -0.00000000000E+00 -0.00000000000E+00 -0.27869520082E+01  0.30626788105E+01  0.12700000000E+01 0. -1.
         25    2    1    2    0    0  0.00000000000E+00  0.00000000000E+00  0.13325362589E+04  0.13383864936E+04  0.12500210044E+03 0.  0.
    9000005    1    3    3    0    0 -0.38671275395E+02  0.49064584705E+02  0.64906939704E+03  0.65206969197E+03  0.10000000000E+01 0.  0.
    9000005    1    3    3    0    0  0.38671275395E+02 -0.49064584705E+02  0.68346686182E+03  0.68631680165E+03  0.10000000000E+01 0.  0.
<mgrwt>
<rscale>  0 0.12500210E+03</rscale>
<asrwt>0</asrwt>
<pdfrwt beam="1">  1        4 0.20545545E+00 0.12500210E+03</pdfrwt>
<pdfrwt beam="2">  1       -4 0.45001838E-03 0.12500210E+03</pdfrwt>
<totfact> 0.21339288E+03</totfact>
</mgrwt>
</event>
<event>
 5    1  0.3234540E-002  0.1250022E+03  0.7818608E-02  0.1235066E+00
          4   -1    0    0  501    0  0.00000000000E+00  0.00000000000E+00  0.15992119416E+03  0.15992623688E+03  0.12700000000E+01 0.  1.
         -4   -1    0    0    0  501 -0.00000000000E+00 -0.00000000000E+00 -0.24405013946E+02  0.24438036044E+02  0.12700000000E+01 0.  1.
         25    2    1    2    0    0  0.00000000000E+00  0.00000000000E+00  0.13551618021E+03  0.18436427292E+03  0.12500220010E+03 0.  0.
    9000005    1    3    3    0    0 -0.40986916511E+02 -0.41596049524E+02  0.34936314274E+02  0.68056628745E+02  0.10000000000E+01 0.  0.
    9000005    1    3    3    0    0  0.40986916511E+02  0.41596049524E+02  0.10057986594E+03  0.11630764418E+03  0.10000000000E+01 0.  0.
<mgrwt>
<rscale>  0 0.12500220E+03</rscale>
<asrwt>0</asrwt>
<pdfrwt beam="1">  1        4 0.24606189E-01 0.12500220E+03</pdfrwt>
<pdfrwt beam="2">  1       -4 0.37575455E-02 0.12500220E+03</pdfrwt>
<totfact> 0.92832688E+03</totfact>
</mgrwt>
</event>
<event>
 5    1  0.3234540E-002  0.1249950E+03  0.7818608E-02  0.1235077E+00
         -4   -1    0    0    0  501 -0.00000000000E+00  0.00000000000E+00  0.19789978620E+02  0.19830687173E+02  0.12700000000E+01 0. -1.
          4   -1    0    0  501    0  0.00000000000E+00 -0.00000000000E+00 -0.19712403060E+03  0.19712812164E+03  0.12700000000E+01 0. -1.
         25    2    1    2    0    0  0.00000000000E+00  0.00000000000E+00 -0.17733405198E+03  0.21695880881E+03  0.12499503482E+03 0.  0.
    9000005    1    3    3    0    0  0.33307140005E+02  0.46700368462E+02 -0.13169970264E+03  0.14365271200E+03  0.10000000000E+01 0.  0.
    9000005    1    3    3    0    0 -0.33307140005E+02 -0.46700368462E+02 -0.45634349344E+02  0.73306096813E+02  0.10000000000E+01 0.  0.
<mgrwt>
<rscale>  0 0.12499503E+03</rscale>
<asrwt>0</asrwt>
<pdfrwt beam="2">  1        4 0.30330219E-01 0.12499503E+03</pdfrwt>
<pdfrwt beam="1">  1       -4 0.30480584E-02 0.12499503E+03</pdfrwt>
<totfact> 0.87361569E+03</totfact>
</mgrwt>
</event>
<event>
 5    1  0.3234540E-002  0.1249978E+03  0.7818608E-02  0.1235073E+00
         -4   -1    0    0    0  501 -0.00000000000E+00  0.00000000000E+00  0.13068447983E+03  0.13069065066E+03  0.12700000000E+01 0. -1.
          4   -1    0    0  501    0  0.00000000000E+00 -0.00000000000E+00 -0.29869275959E+02  0.29896263083E+02  0.12700000000E+01 0. -1.
         25    2    1    2    0    0  0.00000000000E+00  0.00000000000E+00  0.10081520388E+03  0.16058691374E+03  0.12499780611E+03 0.  0.
    9000005    1    3    3    0    0  0.29180926695E+02 -0.55245255875E+02  0.52006084084E+02  0.81296971415E+02  0.10000000000E+01 0.  0.
    9000005    1    3    3    0    0 -0.29180926695E+02  0.55245255875E+02  0.48809119791E+02  0.79289942327E+02  0.10000000000E+01 0.  0.
<mgrwt>
<rscale>  0 0.12499781E+03</rscale>
<asrwt>0</asrwt>
<pdfrwt beam="2">  1        4 0.45978238E-02 0.12499781E+03</pdfrwt>
<pdfrwt beam="1">  1       -4 0.20107855E-01 0.12499781E+03</pdfrwt>
<totfact> 0.97234546E+03</totfact>
</mgrwt>
</event>
<event>
 5    1  0.3234540E-002  0.1250002E+03  0.7818608E-02  0.1235069E+00
          4   -1    0    0  501    0  0.00000000000E+00  0.00000000000E+00  0.42509733820E+02  0.42528700538E+02  0.12700000000E+01 0.  1.
         -4   -1    0    0    0  501 -0.00000000000E+00 -0.00000000000E+00 -0.91847227664E+02  0.91856007586E+02  0.12700000000E+01 0.  1.
         25    2    1    2    0    0  0.00000000000E+00  0.00000000000E+00 -0.49337493844E+02  0.13438470812E+03  0.12500024591E+03 0.  0.
    9000005    1    3    3    0    0  0.10736059534E+02  0.30248624133E+02 -0.82313483213E+02  0.88355824680E+02  0.10000000000E+01 0.  0.
    9000005    1    3    3    0    0 -0.10736059534E+02 -0.30248624133E+02  0.32975989369E+02  0.46028883444E+02  0.10000000000E+01 0.  0.
<mgrwt>
<rscale>  0 0.12500025E+03</rscale>
<asrwt>0</asrwt>
<pdfrwt beam="1">  1        4 0.65420935E-02 0.12500025E+03</pdfrwt>
<pdfrwt beam="2">  1       -4 0.14132477E-01 0.12500025E+03</pdfrwt>
<totfact> 0.10250999E+04</totfact>
</mgrwt>
</event>
<event>
 5    1  0.3234540E-002  0.1249925E+03  0.7818608E-02  0.1235081E+00
          4   -1    0    0  501    0  0.00000000000E+00  0.00000000000E+00  0.45746315199E+01  0.47476471586E+01  0.12700000000E+01 0.  1.
         -4   -1    0    0    0  501 -0.00000000000E+00 -0.00000000000E+00 -0.83777246387E+03  0.83777342649E+03  0.12700000000E+01 0.  1.
         25    2    1    2    0    0  0.00000000000E+00  0.00000000000E+00 -0.83319783236E+03  0.84252107365E+03  0.12499252656E+03 0.  0.
    9000005    1    3    3    0    0 -0.18341996211E+02 -0.59627172822E+02 -0.44085969327E+03  0.44525284695E+03  0.10000000000E+01 0.  0.
    9000005    1    3    3    0    0  0.18341996211E+02  0.59627172822E+02 -0.39233813908E+03  0.39726822670E+03  0.10000000000E+01 0.  0.
<mgrwt>
<rscale>  0 0.12499253E+03</rscale>
<asrwt>0</asrwt>
<pdfrwt beam="1">  1        4 0.71717307E-03 0.12499253E+03</pdfrwt>
<pdfrwt beam="2">  1       -4 0.12890134E+00 0.12499253E+03</pdfrwt>
<totfact> 0.36441316E+03</totfact>
</mgrwt>
</event>
<event>
 5    1  0.3234540E-002  0.1250019E+03  0.7818608E-02  0.1235066E+00
         -4   -1    0    0    0  501 -0.00000000000E+00  0.00000000000E+00  0.90030405051E+01  0.90921745659E+01  0.12700000000E+01 0.  1.
          4   -1    0    0  501    0  0.00000000000E+00 -0.00000000000E+00 -0.43166692813E+03  0.43166879634E+03  0.12700000000E+01 0.  1.
         25    2    1    2    0    0  0.00000000000E+00  0.00000000000E+00 -0.42266388762E+03  0.44076097091E+03  0.12500188630E+03 0.  0.
    9000005    1    3    3    0    0 -0.90431275111E+01  0.50534794510E+02 -0.33698075341E+03  0.34087031519E+03  0.10000000000E+01 0.  0.
    9000005    1    3    3    0    0  0.90431275111E+01 -0.50534794510E+02 -0.85683134211E+02  0.99890655717E+02  0.10000000000E+01 0.  0.
<mgrwt>
<rscale>  0 0.12500189E+03</rscale>
<asrwt>0</asrwt>
<pdfrwt beam="2">  1        4 0.66417281E-01 0.12500189E+03</pdfrwt>
<pdfrwt beam="1">  1       -4 0.13920837E-02 0.12500189E+03</pdfrwt>
<totfact> 0.60770022E+03</totfact>
</mgrwt>
</event>
<event>
 5    1  0.3234540E-002  0.1250260E+03  0.7818608E-02  0.1235029E+00
         -4   -1    0    0    0  501 -0.00000000000E+00  0.00000000000E+00  0.13780832289E+02  0.13839228251E+02  0.12700000000E+01 0. -1.
          4   -1    0    0  501    0  0.00000000000E+00 -0.00000000000E+00 -0.28291405582E+03  0.28291690632E+03  0.12700000000E+01 0. -1.
         25    2    1    2    0    0  0.00000000000E+00  0.00000000000E+00 -0.26913322353E+03  0.29675613457E+03  0.12502604287E+03 0.  0.
    9000005    1    3    3    0    0 -0.14790188605E+02  0.24230273786E+02 -0.23909043301E+01  0.28505653304E+02  0.10000000000E+01 0.  0.
    9000005    1    3    3    0    0  0.14790188605E+02 -0.24230273786E+02 -0.26674231920E+03  0.26825048127E+03  0.10000000000E+01 0.  0.
<mgrwt>
<rscale>  0 0.12502604E+03</rscale>
<asrwt>0</asrwt>
<pdfrwt beam="2">  1        4 0.43529946E-01 0.12502604E+03</pdfrwt>
<pdfrwt beam="1">  1       -4 0.21248395E-02 0.12502604E+03</pdfrwt>
<totfact> 0.75963620E+03</totfact>
</mgrwt>
</event>
<event>
 5    1  0.3234540E-002  0.1249999E+03  0.7818608E-02  0.1235069E+00
         -4   -1    0    0    0  501 -0.00000000000E+00  0.00000000000E+00  0.45086921393E+02  0.45104804408E+02  0.12700000000E+01 0. -1.
          4   -1    0    0  501    0  0.00000000000E+00 -0.00000000000E+00 -0.86598305036E+02  0.86607617074E+02  0.12700000000E+01 0. -1.
         25    2    1    2    0    0  0.00000000000E+00  0.00000000000E+00 -0.41511383643E+02  0.13171242148E+03  0.12499986800E+03 0.  0.
    9000005    1    3    3    0    0 -0.17152065109E+02 -0.44282710603E+02 -0.63558374544E+02  0.79346195690E+02  0.10000000000E+01 0.  0.
    9000005    1    3    3    0    0  0.17152065109E+02  0.44282710603E+02  0.22046990901E+02  0.52366225791E+02  0.10000000000E+01 0.  0.
<mgrwt>
<rscale>  0 0.12499987E+03</rscale>
<asrwt>0</asrwt>
<pdfrwt beam="2">  1        4 0.13324908E-01 0.12499987E+03</pdfrwt>
<pdfrwt beam="1">  1       -4 0.69385414E-02 0.12499987E+03</pdfrwt>
<totfact> 0.10307871E+04</totfact>
</mgrwt>
</event>
<event>
 5    1  0.3234540E-002  0.1249975E+03  0.7818608E-02  0.1235073E+00
         -4   -1    0    0    0  501 -0.00000000000E+00  0.00000000000E+00  0.16322093300E+03  0.16322587377E+03  0.12700000000E+01 0. -1.
          4   -1    0    0  501    0  0.00000000000E+00 -0.00000000000E+00 -0.23909158928E+02  0.23942864922E+02  0.12700000000E+01 0. -1.
         25    2    1    2    0    0  0.00000000000E+00  0.00000000000E+00  0.13931177407E+03  0.18716873869E+03  0.12499746537E+03 0.  0.
    9000005    1    3    3    0    0  0.22061278699E+02  0.36244670301E+02  0.13835146803E+03  0.14471525437E+03  0.10000000000E+01 0.  0.
    9000005    1    3    3    0    0 -0.22061278699E+02 -0.36244670301E+02  0.96030603971E+00  0.42453484318E+02  0.10000000000E+01 0.  0.
<mgrwt>
<rscale>  0 0.12499747E+03</rscale>
<asrwt>0</asrwt>
<pdfrwt beam="2">  1        4 0.36813049E-02 0.12499747E+03</pdfrwt>
<pdfrwt beam="1">  1       -4 0.25113886E-01 0.12499747E+03</pdfrwt>
<totfact> 0.92347535E+03</totfact>
</mgrwt>
</event>
<event>
 5    1  0.3234540E-002  0.1250201E+03  0.7818608E-02  0.1235038E+00
         -4   -1    0    0    0  501 -0.00000000000E+00  0.00000000000E+00  0.68385893290E+02  0.68397684910E+02  0.12700000000E+01 0. -1.
          4   -1    0    0  501    0  0.00000000000E+00 -0.00000000000E+00 -0.57115250060E+02  0.57129368012E+02  0.12700000000E+01 0. -1.
         25    2    1    2    0    0  0.00000000000E+00  0.00000000000E+00  0.11270643229E+02  0.12552705292E+03  0.12502005286E+03 0.  0.
    9000005    1    3    3    0    0  0.21248924923E+02 -0.62201793295E+01  0.64321441763E+02  0.68032751758E+02  0.10000000000E+01 0.  0.
    9000005    1    3    3    0    0 -0.21248924923E+02  0.62201793295E+01 -0.53050798534E+02  0.57494301164E+02  0.10000000000E+01 0.  0.
<mgrwt>
<rscale>  0 0.12502005E+03</rscale>
<asrwt>0</asrwt>
<pdfrwt beam="2">  1        4 0.87889545E-02 0.12502005E+03</pdfrwt>
<pdfrwt beam="1">  1       -4 0.10522900E-01 0.12502005E+03</pdfrwt>
<totfact> 0.10436635E+04</totfact>
</mgrwt>
</event>
<event>
 5    1  0.3234540E-002  0.1249923E+03  0.7818608E-02  0.1235081E+00
         -4   -1    0    0    0  501 -0.00000000000E+00  0.00000000000E+00  0.53143041242E+01  0.54639480528E+01  0.12700000000E+01 0.  1.
          4   -1    0    0  501    0  0.00000000000E+00 -0.00000000000E+00 -0.72459987878E+03  0.72460099174E+03  0.12700000000E+01 0.  1.
         25    2    1    2    0    0  0.00000000000E+00  0.00000000000E+00 -0.71928557466E+03  0.73006493979E+03  0.12499231338E+03 0.  0.
    9000005    1    3    3    0    0  0.19545896544E+01 -0.40935827752E+02 -0.84116263206E+02  0.93574078410E+02  0.10000000000E+01 0.  0.
    9000005    1    3    3    0    0 -0.19545896544E+01  0.40935827752E+02 -0.63516931145E+03  0.63649086138E+03  0.10000000000E+01 0.  0.
<mgrwt>
<rscale>  0 0.12499231E+03</rscale>
<asrwt>0</asrwt>
<pdfrwt beam="2">  1        4 0.11148842E+00 0.12499231E+03</pdfrwt>
<pdfrwt beam="1">  1       -4 0.82918251E-03 0.12499231E+03</pdfrwt>
<totfact> 0.41553268E+03</totfact>
</mgrwt>
</event>
<event>
 5    1  0.3234540E-002  0.1249992E+03  0.7818608E-02  0.1235071E+00
          4   -1    0    0  501    0  0.00000000000E+00  0.00000000000E+00  0.11138884510E+03  0.11139608481E+03  0.12700000000E+01 0. -1.
         -4   -1    0    0    0  501 -0.00000000000E+00 -0.00000000000E+00 -0.35048271599E+02  0.35071273745E+02  0.12700000000E+01 0. -1.
         25    2    1    2    0    0  0.00000000000E+00  0.00000000000E+00  0.76340573498E+02  0.14646735856E+03  0.12499921584E+03 0.  0.
    9000005    1    3    3    0    0  0.18702001840E+02 -0.30872177607E+02 -0.21604216726E+02  0.42078479100E+02  0.10000000000E+01 0.  0.
    9000005    1    3    3    0    0 -0.18702001840E+02  0.30872177607E+02  0.97944790224E+02  0.10438887946E+03  0.10000000000E+01 0.  0.
<mgrwt>
<rscale>  0 0.12499922E+03</rscale>
<asrwt>0</asrwt>
<pdfrwt beam="1">  1        4 0.17139072E-01 0.12499922E+03</pdfrwt>
<pdfrwt beam="2">  1       -4 0.53943681E-02 0.12499922E+03</pdfrwt>
<totfact> 0.10001436E+04</totfact>
</mgrwt>
</event>
<event>
 5    1  0.3234540E-002  0.1250263E+03  0.7818608E-02  0.1235028E+00
          4   -1    0    0  501    0  0.00000000000E+00  0.00000000000E+00  0.29842631455E+01  0.32432586270E+01  0.12700000000E+01 0. -1.
         -4   -1    0    0    0  501 -0.00000000000E+00 -0.00000000000E+00 -0.12547804878E+04  0.12547811305E+04  0.12700000000E+01 0. -1.
         25    2    1    2    0    0  0.00000000000E+00  0.00000000000E+00 -0.12517962246E+04  0.12580243891E+04  0.12502629957E+03 0.  0.
    9000005    1    3    3    0    0  0.38104618757E+02 -0.44857398941E+02 -0.83761955870E+03  0.83968546095E+03  0.10000000000E+01 0.  0.
    9000005    1    3    3    0    0 -0.38104618757E+02  0.44857398941E+02 -0.41417666593E+03  0.41833892816E+03  0.10000000000E+01 0.  0.
<mgrwt>
<rscale>  0 0.12502630E+03</rscale>
<asrwt>0</asrwt>
<pdfrwt beam="1">  1        4 0.47909058E-03 0.12502630E+03</pdfrwt>
<pdfrwt beam="2">  1       -4 0.19306272E+00 0.12502630E+03</pdfrwt>
<totfact> 0.23228126E+03</totfact>
</mgrwt>
</event>
<event>
 5    1  0.3234540E-002  0.1249986E+03  0.7818608E-02  0.1235071E+00
         -4   -1    0    0    0  501 -0.00000000000E+00  0.00000000000E+00  0.13373649068E+03  0.13374252069E+03  0.12700000000E+01 0. -1.
          4   -1    0    0  501    0  0.00000000000E+00 -0.00000000000E+00 -0.29187411228E+02  0.29215028225E+02  0.12700000000E+01 0. -1.
         25    2    1    2    0    0  0.00000000000E+00  0.00000000000E+00  0.10454907945E+03  0.16295754891E+03  0.12499861092E+03 0.  0.
    9000005    1    3    3    0    0 -0.81655039068E+01  0.48835677698E+02  0.10197797690E+03  0.11336713211E+03  0.10000000000E+01 0.  0.
    9000005    1    3    3    0    0  0.81655039068E+01 -0.48835677698E+02  0.25711025540E+01  0.49590416802E+02  0.10000000000E+01 0.  0.
<mgrwt>
<rscale>  0 0.12499861E+03</rscale>
<asrwt>0</asrwt>
<pdfrwt beam="2">  1        4 0.44929592E-02 0.12499861E+03</pdfrwt>
<pdfrwt beam="1">  1       -4 0.20577433E-01 0.12499861E+03</pdfrwt>
<totfact> 0.96778625E+03</totfact>
</mgrwt>
</event>
<event>
 5    1  0.3234540E-002  0.1249985E+03  0.7818608E-02  0.1235072E+00
         -4   -1    0    0    0  501 -0.00000000000E+00  0.00000000000E+00  0.92893562196E+03  0.92893649010E+03  0.12700000000E+01 0. -1.
          4   -1    0    0  501    0  0.00000000000E+00 -0.00000000000E+00 -0.41082007281E+01  0.43000247933E+01  0.12700000000E+01 0. -1.
         25    2    1    2    0    0  0.00000000000E+00  0.00000000000E+00  0.92482742123E+03  0.93323651489E+03  0.12499853469E+03 0.  0.
    9000005    1    3    3    0    0  0.33194785760E+02  0.21290262644E+00  0.67124156675E+02  0.74890530366E+02  0.10000000000E+01 0.  0.
    9000005    1    3    3    0    0 -0.33194785760E+02 -0.21290262644E+00  0.85770326455E+03  0.85834598453E+03  0.10000000000E+01 0.  0.
<mgrwt>
<rscale>  0 0.12499853E+03</rscale>
<asrwt>0</asrwt>
<pdfrwt beam="2">  1        4 0.64685277E-03 0.12499853E+03</pdfrwt>
<pdfrwt beam="1">  1       -4 0.14292812E+00 0.12499853E+03</pdfrwt>
<totfact> 0.32919741E+03</totfact>
</mgrwt>
</event>
<event>
 5    1  0.3234540E-002  0.1250000E+03  0.7818608E-02  0.1235069E+00
         -4   -1    0    0    0  501 -0.00000000000E+00  0.00000000000E+00  0.20922560302E+02  0.20961069381E+02  0.12700000000E+01 0. -1.
          4   -1    0    0  501    0  0.00000000000E+00 -0.00000000000E+00 -0.18648808303E+03  0.18649240738E+03  0.12700000000E+01 0. -1.
         25    2    1    2    0    0  0.00000000000E+00  0.00000000000E+00 -0.16556552273E+03  0.20745347676E+03  0.12500001082E+03 0.  0.
    9000005    1    3    3    0    0 -0.25165032993E+02 -0.34804865378E+02 -0.74460268700E+01  0.43601615287E+02  0.10000000000E+01 0.  0.
    9000005    1    3    3    0    0  0.25165032993E+02  0.34804865378E+02 -0.15811949586E+03  0.16385186148E+03  0.10000000000E+01 0.  0.
<mgrwt>
<rscale>  0 0.12500001E+03</rscale>
<asrwt>0</asrwt>
<pdfrwt beam="2">  1        4 0.28693768E-01 0.12500001E+03</pdfrwt>
<pdfrwt beam="1">  1       -4 0.32221504E-02 0.12500001E+03</pdfrwt>
<totfact> 0.88893436E+03</totfact>
</mgrwt>
</event>
<event>
 5    1  0.3234540E-002  0.1250009E+03  0.7818608E-02  0.1235068E+00
         -4   -1    0    0    0  501 -0.00000000000E+00  0.00000000000E+00  0.11415183178E+04  0.11415190243E+04  0.12700000000E+01 0. -1.
          4   -1    0    0  501    0  0.00000000000E+00 -0.00000000000E+00 -0.33034634318E+01  0.35391765490E+01  0.12700000000E+01 0. -1.
         25    2    1    2    0    0  0.00000000000E+00  0.00000000000E+00  0.11382148544E+04  0.11450582008E+04  0.12500091424E+03 0.  0.
    9000005    1    3    3    0    0  0.40917648899E+02 -0.42750876994E+02  0.75309595789E+03  0.75541803875E+03  0.10000000000E+01 0.  0.
    9000005    1    3    3    0    0 -0.40917648899E+02  0.42750876994E+02  0.38511889647E+03  0.38964016206E+03  0.10000000000E+01 0.  0.
<mgrwt>
<rscale>  0 0.12500091E+03</rscale>
<asrwt>0</asrwt>
<pdfrwt beam="2">  1        4 0.52641088E-03 0.12500091E+03</pdfrwt>
<pdfrwt beam="1">  1       -4 0.17563652E+00 0.12500091E+03</pdfrwt>
<totfact> 0.26197201E+03</totfact>
</mgrwt>
</event>
<event>
 5    1  0.3234540E-002  0.1249740E+03  0.7818608E-02  0.1235110E+00
         -4   -1    0    0    0  501 -0.00000000000E+00  0.00000000000E+00  0.18350812293E+02  0.18394706081E+02  0.12700000000E+01 0. -1.
          4   -1    0    0  501    0  0.00000000000E+00 -0.00000000000E+00 -0.21247667351E+03  0.21248046896E+03  0.12700000000E+01 0. -1.
         25    2    1    2    0    0  0.00000000000E+00  0.00000000000E+00 -0.19412586122E+03  0.23087517504E+03  0.12497398311E+03 0.  0.
    9000005    1    3    3    0    0 -0.39529933094E+02 -0.30936070847E+02 -0.16578886513E+03  0.17322414350E+03  0.10000000000E+01 0.  0.
    9000005    1    3    3    0    0  0.39529933094E+02  0.30936070847E+02 -0.28336996090E+02  0.57651031537E+02  0.10000000000E+01 0.  0.
<mgrwt>
<rscale>  0 0.12497398E+03</rscale>
<asrwt>0</asrwt>
<pdfrwt beam="2">  1        4 0.32692386E-01 0.12497398E+03</pdfrwt>
<pdfrwt beam="1">  1       -4 0.28268704E-02 0.12497398E+03</pdfrwt>
<totfact> 0.85224853E+03</totfact>
</mgrwt>
</event>
<event>
 5    1  0.3234540E-002  0.1250036E+03  0.7818608E-02  0.1235064E+00
         -4   -1    0    0    0  501 -0.00000000000E+00  0.00000000000E+00  0.23441348073E+03  0.23441692100E+03  0.12700000000E+01 0. -1.
          4   -1    0    0  501    0  0.00000000000E+00 -0.00000000000E+00 -0.16637115029E+02  0.16685517568E+02  0.12700000000E+01 0. -1.
         25    2    1    2    0    0  0.00000000000E+00  0.00000000000E+00  0.21777636570E+03  0.25110243856E+03  0.12500355672E+03 0.  0.
    9000005    1    3    3    0    0 -0.12876490166E+01 -0.21048862266E+02 -0.92837338951E+01  0.23062965067E+02  0.10000000000E+01 0.  0.
    9000005    1    3    3    0    0  0.12876490166E+01  0.21048862266E+02  0.22706009960E+03  0.22803947350E+03  0.10000000000E+01 0.  0.
<mgrwt>
<rscale>  0 0.12500356E+03</rscale>
<asrwt>0</asrwt>
<pdfrwt beam="2">  1        4 0.25635444E-02 0.12500356E+03</pdfrwt>
<pdfrwt beam="1">  1       -4 0.36067595E-01 0.12500356E+03</pdfrwt>
<totfact> 0.82164646E+03</totfact>
</mgrwt>
</event>
<event>
 5    1  0.3234540E-002  0.1250017E+03  0.7818608E-02  0.1235067E+00
          4   -1    0    0  501    0  0.00000000000E+00  0.00000000000E+00  0.39552980365E+03  0.39553184255E+03  0.12700000000E+01 0. -1.
         -4   -1    0    0    0  501 -0.00000000000E+00 -0.00000000000E+00 -0.98333599790E+01  0.99150324496E+01  0.12700000000E+01 0. -1.
         25    2    1    2    0    0  0.00000000000E+00  0.00000000000E+00  0.38569644367E+03  0.40544687500E+03  0.12500168715E+03 0.  0.
    9000005    1    3    3    0    0 -0.34776583738E+01  0.22017335306E+02  0.38221318279E+03  0.38286391089E+03  0.10000000000E+01 0.  0.
    9000005    1    3    3    0    0  0.34776583738E+01 -0.22017335306E+02  0.34832608745E+01  0.22582964111E+02  0.10000000000E+01 0.  0.
<mgrwt>
<rscale>  0 0.12500169E+03</rscale>
<asrwt>0</asrwt>
<pdfrwt beam="1">  1        4 0.60857176E-01 0.12500169E+03</pdfrwt>
<pdfrwt beam="2">  1       -4 0.15192640E-02 0.12500169E+03</pdfrwt>
<totfact> 0.64024073E+03</totfact>
</mgrwt>
</event>
<event>
 5    1  0.3234540E-002  0.1250011E+03  0.7818608E-02  0.1235068E+00
          4   -1    0    0  501    0  0.00000000000E+00  0.00000000000E+00  0.39251898503E+02  0.39272438632E+02  0.12700000000E+01 0.  1.
         -4   -1    0    0    0  501 -0.00000000000E+00 -0.00000000000E+00 -0.99468604231E+02  0.99476711484E+02  0.12700000000E+01 0.  1.
         25    2    1    2    0    0  0.00000000000E+00  0.00000000000E+00 -0.60216705729E+02  0.13874915012E+03  0.12500110003E+03 0.  0.
    9000005    1    3    3    0    0 -0.21397119513E+02  0.58065175561E+02 -0.20437000529E+02  0.65177237798E+02  0.10000000000E+01 0.  0.
    9000005    1    3    3    0    0  0.21397119513E+02 -0.58065175561E+02 -0.39779705200E+02  0.73571912318E+02  0.10000000000E+01 0.  0.
<mgrwt>
<rscale>  0 0.12500110E+03</rscale>
<asrwt>0</asrwt>
<pdfrwt beam="1">  1        4 0.60409573E-02 0.12500110E+03</pdfrwt>
<pdfrwt beam="2">  1       -4 0.15305066E-01 0.12500110E+03</pdfrwt>
<totfact> 0.10159324E+04</totfact>
</mgrwt>
</event>
<event>
 5    1  0.3234540E-002  0.1249996E+03  0.7818608E-02  0.1235070E+00
          4   -1    0    0  501    0  0.00000000000E+00  0.00000000000E+00  0.18837695819E+03  0.18838123919E+03  0.12700000000E+01 0.  1.
         -4   -1    0    0    0  501 -0.00000000000E+00 -0.00000000000E+00 -0.20712262429E+02  0.20751161773E+02  0.12700000000E+01 0.  1.
         25    2    1    2    0    0  0.00000000000E+00  0.00000000000E+00  0.16766469577E+03  0.20913240096E+03  0.12499964370E+03 0.  0.
    9000005    1    3    3    0    0 -0.55383157327E+02 -0.15605047399E+02  0.43041960050E+02  0.71863912673E+02  0.10000000000E+01 0.  0.
    9000005    1    3    3    0    0  0.55383157327E+02  0.15605047399E+02  0.12462273572E+03  0.13726848829E+03  0.10000000000E+01 0.  0.
<mgrwt>
<rscale>  0 0.12499964E+03</rscale>
<asrwt>0</asrwt>
<pdfrwt beam="1">  1        4 0.28984393E-01 0.12499964E+03</pdfrwt>
<pdfrwt beam="2">  1       -4 0.31898234E-02 0.12499964E+03</pdfrwt>
<totfact> 0.88618472E+03</totfact>
</mgrwt>
</event>
<event>
 5    1  0.3234540E-002  0.1250058E+03  0.7818608E-02  0.1235060E+00
          4   -1    0    0  501    0  0.00000000000E+00  0.00000000000E+00  0.12517782722E+02  0.12582042135E+02  0.12700000000E+01 0. -1.
         -4   -1    0    0    0  501 -0.00000000000E+00 -0.00000000000E+00 -0.31122056660E+03  0.31122315784E+03  0.12700000000E+01 0. -1.
         25    2    1    2    0    0  0.00000000000E+00  0.00000000000E+00 -0.29870278388E+03  0.32380519998E+03  0.12500581760E+03 0.  0.
    9000005    1    3    3    0    0  0.54674703346E+02 -0.17129885471E+02 -0.84704459169E+02  0.10226730448E+03  0.10000000000E+01 0.  0.
    9000005    1    3    3    0    0 -0.54674703346E+02  0.17129885471E+02 -0.21399832471E+03  0.22153789550E+03  0.10000000000E+01 0.  0.
<mgrwt>
<rscale>  0 0.12500582E+03</rscale>
<asrwt>0</asrwt>
<pdfrwt beam="1">  1        4 0.19309553E-02 0.12500582E+03</pdfrwt>
<pdfrwt beam="2">  1       -4 0.47885224E-01 0.12500582E+03</pdfrwt>
<totfact> 0.72696451E+03</totfact>
</mgrwt>
</event>
<event>
 5    1  0.3234540E-002  0.1250008E+03  0.7818608E-02  0.1235068E+00
          4   -1    0    0  501    0  0.00000000000E+00  0.00000000000E+00  0.42349589887E+01  0.44212868756E+01  0.12700000000E+01 0. -1.
         -4   -1    0    0    0  501 -0.00000000000E+00 -0.00000000000E+00 -0.90235173502E+03  0.90235262874E+03  0.12700000000E+01 0. -1.
         25    2    1    2    0    0  0.00000000000E+00  0.00000000000E+00 -0.89811677603E+03  0.90677391561E+03  0.12500076260E+03 0.  0.
    9000005    1    3    3    0    0  0.57156235328E+02 -0.22211219966E+02 -0.36166950745E+03  0.36683239517E+03  0.10000000000E+01 0.  0.
    9000005    1    3    3    0    0 -0.57156235328E+02  0.22211219966E+02 -0.53644726858E+03  0.53994152044E+03  0.10000000000E+01 0.  0.
<mgrwt>
<rscale>  0 0.12500076E+03</rscale>
<asrwt>0</asrwt>
<pdfrwt beam="1">  1        4 0.66593453E-03 0.12500076E+03</pdfrwt>
<pdfrwt beam="2">  1       -4 0.13883760E+00 0.12500076E+03</pdfrwt>
<totfact> 0.33901333E+03</totfact>
</mgrwt>
</event>
<event>
 5    1  0.3234540E-002  0.1249969E+03  0.7818608E-02  0.1235074E+00
         -4   -1    0    0    0  501 -0.00000000000E+00  0.00000000000E+00  0.44193760492E+03  0.44193942972E+03  0.12700000000E+01 0. -1.
          4   -1    0    0  501    0  0.00000000000E+00 -0.00000000000E+00 -0.87910091910E+01  0.88822712521E+01  0.12700000000E+01 0. -1.
         25    2    1    2    0    0  0.00000000000E+00  0.00000000000E+00  0.43314659573E+03  0.45082170098E+03  0.12499693067E+03 0.  0.
    9000005    1    3    3    0    0 -0.14195228901E+02  0.22294325222E+01  0.43591598779E+03  0.43615389864E+03  0.10000000000E+01 0.  0.
    9000005    1    3    3    0    0  0.14195228901E+02 -0.22294325222E+01 -0.27693920555E+01  0.14667802333E+02  0.10000000000E+01 0.  0.
<mgrwt>
<rscale>  0 0.12499693E+03</rscale>
<asrwt>0</asrwt>
<pdfrwt beam="2">  1        4 0.13596236E-02 0.12499693E+03</pdfrwt>
<pdfrwt beam="1">  1       -4 0.67997556E-01 0.12499693E+03</pdfrwt>
<totfact> 0.59896727E+03</totfact>
</mgrwt>
</event>
<event>
 5    1  0.3234540E-002  0.1249977E+03  0.7818608E-02  0.1235073E+00
          4   -1    0    0  501    0  0.00000000000E+00  0.00000000000E+00  0.13838018821E+03  0.13838601588E+03  0.12700000000E+01 0.  1.
         -4   -1    0    0    0  501 -0.00000000000E+00 -0.00000000000E+00 -0.28206635862E+02  0.28235212177E+02  0.12700000000E+01 0.  1.
         25    2    1    2    0    0  0.00000000000E+00  0.00000000000E+00  0.11017355235E+03  0.16662122805E+03  0.12499768798E+03 0.  0.
    9000005    1    3    3    0    0  0.45702898411E+02  0.35807143711E+01 -0.15228025881E+01  0.45879138683E+02  0.10000000000E+01 0.  0.
    9000005    1    3    3    0    0 -0.45702898411E+02 -0.35807143711E+01  0.11169635494E+03  0.12074208937E+03  0.10000000000E+01 0.  0.
<mgrwt>
<rscale>  0 0.12499769E+03</rscale>
<asrwt>0</asrwt>
<pdfrwt beam="1">  1        4 0.21291906E-01 0.12499769E+03</pdfrwt>
<pdfrwt beam="2">  1       -4 0.43421289E-02 0.12499769E+03</pdfrwt>
<totfact> 0.96086225E+03</totfact>
</mgrwt>
</event>
<event>
 5    1  0.3234540E-002  0.1250008E+03  0.7818608E-02  0.1235068E+00
         -4   -1    0    0    0  501 -0.00000000000E+00  0.00000000000E+00  0.85525025200E+01  0.86462824008E+01  0.12700000000E+01 0.  1.
          4   -1    0    0  501    0  0.00000000000E+00 -0.00000000000E+00 -0.45415808683E+03  0.45415986252E+03  0.12700000000E+01 0.  1.
         25    2    1    2    0    0  0.00000000000E+00  0.00000000000E+00 -0.44560558431E+03  0.46280614493E+03  0.12500076407E+03 0.  0.
    9000005    1    3    3    0    0  0.23604556888E+02  0.53181268106E+02 -0.30722098885E+03  0.31268379934E+03  0.10000000000E+01 0.  0.
    9000005    1    3    3    0    0 -0.23604556888E+02 -0.53181268106E+02 -0.13838459546E+03  0.15012234558E+03  0.10000000000E+01 0.  0.
<mgrwt>
<rscale>  0 0.12500076E+03</rscale>
<asrwt>0</asrwt>
<pdfrwt beam="2">  1        4 0.69877807E-01 0.12500076E+03</pdfrwt>
<pdfrwt beam="1">  1       -4 0.13231204E-02 0.12500076E+03</pdfrwt>
<totfact> 0.58869252E+03</totfact>
</mgrwt>
</event>
<event>
 5    1  0.3234540E-002  0.1250011E+03  0.7818608E-02  0.1235068E+00
          4   -1    0    0  501    0  0.00000000000E+00  0.00000000000E+00  0.28421155006E+03  0.28421438755E+03  0.12700000000E+01 0.  1.
         -4   -1    0    0    0  501 -0.00000000000E+00 -0.00000000000E+00 -0.13712157876E+02  0.13770845058E+02  0.12700000000E+01 0.  1.
         25    2    1    2    0    0  0.00000000000E+00  0.00000000000E+00  0.27049939218E+03  0.29798523260E+03  0.12500111071E+03 0.  0.
    9000005    1    3    3    0    0 -0.31833703539E+02 -0.50368173441E+02  0.18016392414E+03  0.18976400380E+03  0.10000000000E+01 0.  0.
    9000005    1    3    3    0    0  0.31833703539E+02  0.50368173441E+02  0.90335468043E+02  0.10822122880E+03  0.10000000000E+01 0.  0.
<mgrwt>
<rscale>  0 0.12500111E+03</rscale>
<asrwt>0</asrwt>
<pdfrwt beam="1">  1        4 0.43729582E-01 0.12500111E+03</pdfrwt>
<pdfrwt beam="2">  1       -4 0.21142956E-02 0.12500111E+03</pdfrwt>
<totfact> 0.75850396E+03</totfact>
</mgrwt>
</event>
<event>
 5    1  0.3234540E-002  0.1250001E+03  0.7818608E-02  0.1235069E+00
          4   -1    0    0  501    0  0.00000000000E+00  0.00000000000E+00  0.31430675424E+02  0.31456323015E+02  0.12700000000E+01 0. -1.
         -4   -1    0    0    0  501 -0.00000000000E+00 -0.00000000000E+00 -0.12420213960E+03  0.12420863248E+03  0.12700000000E+01 0. -1.
         25    2    1    2    0    0  0.00000000000E+00  0.00000000000E+00 -0.92771464179E+02  0.15566495549E+03  0.12500013521E+03 0.  0.
    9000005    1    3    3    0    0 -0.35414062448E+02 -0.32509614738E+02 -0.96108526539E+02  0.10746571427E+03  0.10000000000E+01 0.  0.
    9000005    1    3    3    0    0  0.35414062448E+02  0.32509614738E+02  0.33370623600E+01  0.48199241225E+02  0.10000000000E+01 0.  0.
<mgrwt>
<rscale>  0 0.12500014E+03</rscale>
<asrwt>0</asrwt>
<pdfrwt beam="1">  1        4 0.48379609E-02 0.12500014E+03</pdfrwt>
<pdfrwt beam="2">  1       -4 0.19110494E-01 0.12500014E+03</pdfrwt>
<totfact> 0.98184819E+03</totfact>
</mgrwt>
</event>
<event>
 5    1  0.3234540E-002  0.1249970E+03  0.7818608E-02  0.1235074E+00
         -4   -1    0    0    0  501 -0.00000000000E+00  0.00000000000E+00  0.10967364337E+02  0.11040651272E+02  0.12700000000E+01 0.  1.
          4   -1    0    0  501    0  0.00000000000E+00 -0.00000000000E+00 -0.35489305731E+03  0.35489532967E+03  0.12700000000E+01 0.  1.
         25    2    1    2    0    0  0.00000000000E+00  0.00000000000E+00 -0.34392569297E+03  0.36593598095E+03  0.12499703943E+03 0.  0.
    9000005    1    3    3    0    0  0.86459129331E+01  0.47663506949E+02 -0.28753660709E+03  0.29159022982E+03  0.10000000000E+01 0.  0.
    9000005    1    3    3    0    0 -0.86459129331E+01 -0.47663506949E+02 -0.56389085876E+02  0.74345751130E+02  0.10000000000E+01 0.  0.
<mgrwt>
<rscale>  0 0.12499704E+03</rscale>
<asrwt>0</asrwt>
<pdfrwt beam="2">  1        4 0.54604735E-01 0.12499704E+03</pdfrwt>
<pdfrwt beam="1">  1       -4 0.16930993E-02 0.12499704E+03</pdfrwt>
<totfact> 0.68010719E+03</totfact>
</mgrwt>
</event>
<event>
 5    1  0.3234540E-002  0.1250011E+03  0.7818608E-02  0.1235068E+00
         -4   -1    0    0    0  501 -0.00000000000E+00  0.00000000000E+00  0.78828868207E+03  0.78828970510E+03  0.12700000000E+01 0. -1.
          4   -1    0    0  501    0  0.00000000000E+00 -0.00000000000E+00 -0.48730303408E+01  0.50358042756E+01  0.12700000000E+01 0. -1.
         25    2    1    2    0    0  0.00000000000E+00  0.00000000000E+00  0.78341565173E+03  0.79332550938E+03  0.12500112185E+03 0.  0.
    9000005    1    3    3    0    0  0.37147373806E+02  0.36393308295E+01  0.70980522630E+03  0.71078662860E+03  0.10000000000E+01 0.  0.
    9000005    1    3    3    0    0 -0.37147373806E+02 -0.36393308295E+01  0.73610425425E+02  0.82538880782E+02  0.10000000000E+01 0.  0.
<mgrwt>
<rscale>  0 0.12500112E+03</rscale>
<asrwt>0</asrwt>
<pdfrwt beam="2">  1        4 0.76229620E-03 0.12500112E+03</pdfrwt>
<pdfrwt beam="1">  1       -4 0.12128787E+00 0.12500112E+03</pdfrwt>
<totfact> 0.38563464E+03</totfact>
</mgrwt>
</event>
<event>
 5    1  0.3234540E-002  0.1250025E+03  0.7818608E-02  0.1235065E+00
          4   -1    0    0  501    0  0.00000000000E+00  0.00000000000E+00  0.34235077922E+03  0.34235313484E+03  0.12700000000E+01 0.  1.
         -4   -1    0    0    0  501 -0.00000000000E+00 -0.00000000000E+00 -0.11372789503E+02  0.11443480287E+02  0.12700000000E+01 0.  1.
         25    2    1    2    0    0  0.00000000000E+00  0.00000000000E+00  0.33097798972E+03  0.35379661512E+03  0.12500246076E+03 0.  0.
    9000005    1    3    3    0    0 -0.29664147209E+02  0.53764807601E+02  0.13262955663E+03  0.14615818642E+03  0.10000000000E+01 0.  0.
    9000005    1    3    3    0    0  0.29664147209E+02 -0.53764807601E+02  0.19834843309E+03  0.20763842870E+03  0.10000000000E+01 0.  0.
<mgrwt>
<rscale>  0 0.12500246E+03</rscale>
<asrwt>0</asrwt>
<pdfrwt beam="1">  1        4 0.52674968E-01 0.12500246E+03</pdfrwt>
<pdfrwt beam="2">  1       -4 0.17552789E-02 0.12500246E+03</pdfrwt>
<totfact> 0.69305117E+03</totfact>
</mgrwt>
</event>
<event>
 5    1  0.3234540E-002  0.1249989E+03  0.7818608E-02  0.1235071E+00
         -4   -1    0    0    0  501 -0.00000000000E+00  0.00000000000E+00  0.22681566407E+02  0.22717093887E+02  0.12700000000E+01 0.  1.
          4   -1    0    0  501    0  0.00000000000E+00 -0.00000000000E+00 -0.17204567773E+03  0.17205036509E+03  0.12700000000E+01 0.  1.
         25    2    1    2    0    0  0.00000000000E+00  0.00000000000E+00 -0.14936411132E+03  0.19476745897E+03  0.12499890129E+03 0.  0.
    9000005    1    3    3    0    0 -0.42417744800E+02 -0.32812009223E+02 -0.24692563794E+02  0.59047571753E+02  0.10000000000E+01 0.  0.
    9000005    1    3    3    0    0  0.42417744800E+02  0.32812009223E+02 -0.12467154753E+03  0.13571988722E+03  0.10000000000E+01 0.  0.
<mgrwt>
<rscale>  0 0.12499890E+03</rscale>
<asrwt>0</asrwt>
<pdfrwt beam="2">  1        4 0.26471658E-01 0.12499890E+03</pdfrwt>
<pdfrwt beam="1">  1       -4 0.34925653E-02 0.12499890E+03</pdfrwt>
<totfact> 0.91026585E+03</totfact>
</mgrwt>
</event>
<event>
 5    1  0.3234540E-002  0.1250010E+03  0.7818608E-02  0.1235068E+00
         -4   -1    0    0    0  501 -0.00000000000E+00  0.00000000000E+00  0.14577786643E+02  0.14633002542E+02  0.12700000000E+01 0. -1.
          4   -1    0    0  501    0  0.00000000000E+00 -0.00000000000E+00 -0.26740020348E+03  0.26740321936E+03  0.12700000000E+01 0. -1.
         25    2    1    2    0    0  0.00000000000E+00  0.00000000000E+00 -0.25282241684E+03  0.28203622190E+03  0.12500102402E+03 0.  0.
    9000005    1    3    3    0    0  0.46744826414E+02  0.37819985227E+02 -0.87995983335E+02  0.10658200206E+03  0.10000000000E+01 0.  0.
    9000005    1    3    3    0    0 -0.46744826414E+02 -0.37819985227E+02 -0.16482643350E+03  0.17545421984E+03  0.10000000000E+01 0.  0.
<mgrwt>
<rscale>  0 0.12500102E+03</rscale>
<asrwt>0</asrwt>
<pdfrwt beam="2">  1        4 0.41142969E-01 0.12500102E+03</pdfrwt>
<pdfrwt beam="1">  1       -4 0.22472160E-02 0.12500102E+03</pdfrwt>
<totfact> 0.77907118E+03</totfact>
</mgrwt>
</event>
<event>
 5    1  0.3234540E-002  0.1250015E+03  0.7818608E-02  0.1235067E+00
          4   -1    0    0  501    0  0.00000000000E+00  0.00000000000E+00  0.11198782165E+03  0.11199502265E+03  0.12700000000E+01 0.  1.
         -4   -1    0    0    0  501 -0.00000000000E+00 -0.00000000000E+00 -0.34861996105E+02  0.34885121075E+02  0.12700000000E+01 0.  1.
         25    2    1    2    0    0  0.00000000000E+00  0.00000000000E+00  0.77125825548E+02  0.14688014373E+03  0.12500153461E+03 0.  0.
    9000005    1    3    3    0    0  0.14638779813E+02 -0.25836999235E+02  0.10317337366E+03  0.10736661229E+03  0.10000000000E+01 0.  0.
    9000005    1    3    3    0    0 -0.14638779813E+02  0.25836999235E+02 -0.26047548107E+02  0.39513531433E+02  0.10000000000E+01 0.  0.
<mgrwt>
<rscale>  0 0.12500153E+03</rscale>
<asrwt>0</asrwt>
<pdfrwt beam="1">  1        4 0.17231228E-01 0.12500153E+03</pdfrwt>
<pdfrwt beam="2">  1       -4 0.53657169E-02 0.12500153E+03</pdfrwt>
<totfact> 0.99925818E+03</totfact>
</mgrwt>
</event>
<event>
 5    1  0.3234540E-002  0.1249568E+03  0.7818608E-02  0.1235137E+00
          4   -1    0    0  501    0  0.00000000000E+00  0.00000000000E+00  0.25782607829E+02  0.25813867717E+02  0.12700000000E+01 0. -1.
         -4   -1    0    0    0  501 -0.00000000000E+00 -0.00000000000E+00 -0.15127692045E+03  0.15128225131E+03  0.12700000000E+01 0. -1.
         25    2    1    2    0    0  0.00000000000E+00  0.00000000000E+00 -0.12549431262E+03  0.17709611902E+03  0.12495684404E+03 0.  0.
    9000005    1    3    3    0    0  0.19008284189E+02  0.50821546201E+02 -0.10662288987E+03  0.11963939598E+03  0.10000000000E+01 0.  0.
    9000005    1    3    3    0    0 -0.19008284189E+02 -0.50821546201E+02 -0.18871422746E+02  0.57456723041E+02  0.10000000000E+01 0.  0.
<mgrwt>
<rscale>  0 0.12495684E+03</rscale>
<asrwt>0</asrwt>
<pdfrwt beam="1">  1        4 0.39693698E-02 0.12495684E+03</pdfrwt>
<pdfrwt beam="2">  1       -4 0.23276186E-01 0.12495684E+03</pdfrwt>
<totfact> 0.94233519E+03</totfact>
</mgrwt>
</event>
<event>
 4    1  0.3234540E-002  0.1248696E+03  0.7818608E-02  0.1235273E+00
         -4   -1    0    0    0  501 -0.00000000000E+00  0.00000000000E+00  0.22173079317E+02  0.22209420217E+02  0.12700000000E+01 0. -1.
          4   -1    0    0  501    0  0.00000000000E+00 -0.00000000000E+00 -0.17562084273E+03  0.17562543467E+03  0.12700000000E+01 0. -1.
    9000005    1    1    2    0    0  0.15823558970E+02 -0.57217676280E+02 -0.10731650095E+03  0.12264615311E+03  0.10000000000E+01 0.  0.
    9000005    1    1    2    0    0 -0.15823558970E+02  0.57217676280E+02 -0.46131262466E+02  0.75188701772E+02  0.10000000000E+01 0.  0.
<mgrwt>
<rscale>  0 0.12486959E+03</rscale>
<asrwt>0</asrwt>
<pdfrwt beam="2">  1        4 0.27021739E-01 0.12486959E+03</pdfrwt>
<pdfrwt beam="1">  1       -4 0.34143918E-02 0.12486959E+03</pdfrwt>
<totfact> 0.90766349E+03</totfact>
</mgrwt>
</event>
<event>
 5    1  0.3234540E-002  0.1250033E+03  0.7818608E-02  0.1235064E+00
         -4   -1    0    0    0  501 -0.00000000000E+00  0.00000000000E+00  0.24039338013E+03  0.24039673482E+03  0.12700000000E+01 0.  1.
          4   -1    0    0  501    0  0.00000000000E+00 -0.00000000000E+00 -0.16221971593E+02  0.16271609090E+02  0.12700000000E+01 0.  1.
         25    2    1    2    0    0  0.00000000000E+00  0.00000000000E+00  0.22417140854E+03  0.25666834391E+03  0.12500327339E+03 0.  0.
    9000005    1    3    3    0    0  0.26113962996E+02  0.30152196704E+02  0.21086511534E+03  0.21460706162E+03  0.10000000000E+01 0.  0.
    9000005    1    3    3    0    0 -0.26113962996E+02 -0.30152196704E+02  0.13306293204E+02  0.42061282294E+02  0.10000000000E+01 0.  0.
<mgrwt>
<rscale>  0 0.12500327E+03</rscale>
<asrwt>0</asrwt>
<pdfrwt beam="2">  1        4 0.24997644E-02 0.12500327E+03</pdfrwt>
<pdfrwt beam="1">  1       -4 0.36987672E-01 0.12500327E+03</pdfrwt>
<totfact> 0.81369966E+03</totfact>
</mgrwt>
</event>
<event>
 5    1  0.3234540E-002  0.1250031E+03  0.7818608E-02  0.1235065E+00
          4   -1    0    0  501    0  0.00000000000E+00  0.00000000000E+00  0.16454160712E+03  0.16454650824E+03  0.12700000000E+01 0. -1.
         -4   -1    0    0    0  501 -0.00000000000E+00 -0.00000000000E+00 -0.23719114459E+02  0.23753090130E+02  0.12700000000E+01 0. -1.
         25    2    1    2    0    0  0.00000000000E+00  0.00000000000E+00  0.14082249266E+03  0.18829959837E+03  0.12500305719E+03 0.  0.
    9000005    1    3    3    0    0 -0.12854775107E+02 -0.96829739988E+01  0.16137388453E+03  0.16217748252E+03  0.10000000000E+01 0.  0.
    9000005    1    3    3    0    0  0.12854775107E+02  0.96829739988E+01 -0.20551391870E+02  0.26122115847E+02  0.10000000000E+01 0.  0.
<mgrwt>
<rscale>  0 0.12500306E+03</rscale>
<asrwt>0</asrwt>
<pdfrwt beam="1">  1        4 0.25317084E-01 0.12500306E+03</pdfrwt>
<pdfrwt beam="2">  1       -4 0.36520851E-02 0.12500306E+03</pdfrwt>
<totfact> 0.92137712E+03</totfact>
</mgrwt>
</event>
<event>
 5    1  0.3234540E-002  0.1250012E+03  0.7818608E-02  0.1235067E+00
         -4   -1    0    0    0  501 -0.00000000000E+00  0.00000000000E+00  0.79666854298E+02  0.79676976435E+02  0.12700000000E+01 0. -1.
          4   -1    0    0  501    0  0.00000000000E+00 -0.00000000000E+00 -0.49011757601E+02  0.49028209055E+02  0.12700000000E+01 0. -1.
         25    2    1    2    0    0  0.00000000000E+00  0.00000000000E+00  0.30655096697E+02  0.12870518549E+03  0.12500115927E+03 0.  0.
    9000005    1    3    3    0    0 -0.10275056623E+02  0.50405162842E+02  0.51862296559E+02  0.73054466216E+02  0.10000000000E+01 0.  0.
    9000005    1    3    3    0    0  0.10275056623E+02 -0.50405162842E+02 -0.21207199862E+02  0.55650719274E+02  0.10000000000E+01 0.  0.
<mgrwt>
<rscale>  0 0.12500116E+03</rscale>
<asrwt>0</asrwt>
<pdfrwt beam="2">  1        4 0.75423146E-02 0.12500116E+03</pdfrwt>
<pdfrwt beam="1">  1       -4 0.12258483E-01 0.12500116E+03</pdfrwt>
<totfact> 0.10372015E+04</totfact>
</mgrwt>
</event>
<event>
 5    1  0.3234540E-002  0.1249985E+03  0.7818608E-02  0.1235072E+00
         -4   -1    0    0    0  501 -0.00000000000E+00  0.00000000000E+00  0.27517723902E+03  0.27518016966E+03  0.12700000000E+01 0. -1.
          4   -1    0    0  501    0  0.00000000000E+00 -0.00000000000E+00 -0.14163634912E+02  0.14220458992E+02  0.12700000000E+01 0. -1.
         25    2    1    2    0    0  0.00000000000E+00  0.00000000000E+00  0.26101360411E+03  0.28940062866E+03  0.12499848933E+03 0.  0.
    9000005    1    3    3    0    0 -0.43954132348E+02 -0.40748406076E+02  0.17145156761E+03  0.18162884789E+03  0.10000000000E+01 0.  0.
    9000005    1    3    3    0    0  0.43954132348E+02  0.40748406076E+02  0.89562036496E+02  0.10777178077E+03  0.10000000000E+01 0.  0.
<mgrwt>
<rscale>  0 0.12499849E+03</rscale>
<asrwt>0</asrwt>
<pdfrwt beam="2">  1        4 0.21836173E-02 0.12499849E+03</pdfrwt>
<pdfrwt beam="1">  1       -4 0.42339556E-01 0.12499849E+03</pdfrwt>
<totfact> 0.76950517E+03</totfact>
</mgrwt>
</event>
<event>
 5    1  0.3234540E-002  0.1249950E+03  0.7818608E-02  0.1235077E+00
         -4   -1    0    0    0  501 -0.00000000000E+00  0.00000000000E+00  0.91304137966E+02  0.91312970106E+02  0.12700000000E+01 0.  1.
          4   -1    0    0  501    0  0.00000000000E+00 -0.00000000000E+00 -0.42759057570E+02  0.42777913744E+02  0.12700000000E+01 0.  1.
         25    2    1    2    0    0  0.00000000000E+00  0.00000000000E+00  0.48545080395E+02  0.13409088385E+03  0.12499496110E+03 0.  0.
    9000005    1    3    3    0    0 -0.37847097790E+02 -0.37873672092E+02  0.58837013748E+02  0.79558858939E+02  0.10000000000E+01 0.  0.
    9000005    1    3    3    0    0  0.37847097790E+02  0.37873672092E+02 -0.10291933353E+02  0.54532024912E+02  0.10000000000E+01 0.  0.
<mgrwt>
<rscale>  0 0.12499496E+03</rscale>
<asrwt>0</asrwt>
<pdfrwt beam="2">  1        4 0.65804465E-02 0.12499496E+03</pdfrwt>
<pdfrwt beam="1">  1       -4 0.14048920E-01 0.12499496E+03</pdfrwt>
<totfact> 0.10258434E+04</totfact>
</mgrwt>
</event>
<event>
 5    1  0.3234540E-002  0.1250002E+03  0.7818608E-02  0.1235069E+00
         -4   -1    0    0    0  501 -0.00000000000E+00  0.00000000000E+00  0.35538672672E+03  0.35538899593E+03  0.12700000000E+01 0. -1.
          4   -1    0    0  501    0  0.00000000000E+00 -0.00000000000E+00 -0.10952592713E+02  0.11025977832E+02  0.12700000000E+01 0. -1.
         25    2    1    2    0    0  0.00000000000E+00  0.00000000000E+00  0.34443413400E+03  0.36641497376E+03  0.12500024131E+03 0.  0.
    9000005    1    3    3    0    0  0.14916125851E+02  0.60569729128E+02  0.16121694800E+03  0.17286725317E+03  0.10000000000E+01 0.  0.
    9000005    1    3    3    0    0 -0.14916125851E+02 -0.60569729128E+02  0.18321718601E+03  0.19354772059E+03  0.10000000000E+01 0.  0.
<mgrwt>
<rscale>  0 0.12500024E+03</rscale>
<asrwt>0</asrwt>
<pdfrwt beam="2">  1        4 0.16908341E-02 0.12500024E+03</pdfrwt>
<pdfrwt beam="1">  1       -4 0.54680691E-01 0.12500024E+03</pdfrwt>
<totfact> 0.67955315E+03</totfact>
</mgrwt>
</event>
<event>
 5    1  0.3234540E-002  0.1250011E+03  0.7818608E-02  0.1235068E+00
          4   -1    0    0  501    0  0.00000000000E+00  0.00000000000E+00  0.17147952253E+02  0.17194916878E+02  0.12700000000E+01 0.  1.
         -4   -1    0    0    0  501 -0.00000000000E+00 -0.00000000000E+00 -0.22744051917E+03  0.22744406490E+03  0.12700000000E+01 0.  1.
         25    2    1    2    0    0  0.00000000000E+00  0.00000000000E+00 -0.21029256691E+03  0.24463898178E+03  0.12500107082E+03 0.  0.
    9000005    1    3    3    0    0  0.25895017549E+02 -0.13756356161E+01  0.61309253443E+01  0.26665193657E+02  0.10000000000E+01 0.  0.
    9000005    1    3    3    0    0 -0.25895017549E+02  0.13756356161E+01 -0.21642349226E+03  0.21797378812E+03  0.10000000000E+01 0.  0.
<mgrwt>
<rscale>  0 0.12500107E+03</rscale>
<asrwt>0</asrwt>
<pdfrwt beam="1">  1        4 0.26420321E-02 0.12500107E+03</pdfrwt>
<pdfrwt beam="2">  1       -4 0.34994732E-01 0.12500107E+03</pdfrwt>
<totfact> 0.83109306E+03</totfact>
</mgrwt>
</event>
<event>
 5    1  0.3234540E-002  0.1249993E+03  0.7818608E-02  0.1235070E+00
         -4   -1    0    0    0  501 -0.00000000000E+00  0.00000000000E+00  0.10866866062E+03  0.10867608155E+03  0.12700000000E+01 0.  1.
          4   -1    0    0  501    0  0.00000000000E+00 -0.00000000000E+00 -0.35926175424E+02  0.35948615837E+02  0.12700000000E+01 0.  1.
         25    2    1    2    0    0  0.00000000000E+00  0.00000000000E+00  0.72742485197E+02  0.14462469739E+03  0.12499933577E+03 0.  0.
    9000005    1    3    3    0    0  0.12813855080E+01 -0.28682730597E+01 -0.35840432256E+02  0.35991742435E+02  0.10000000000E+01 0.  0.
    9000005    1    3    3    0    0 -0.12813855080E+01  0.28682730597E+01  0.10858291745E+03  0.10863295495E+03  0.10000000000E+01 0.  0.
<mgrwt>
<rscale>  0 0.12499934E+03</rscale>
<asrwt>0</asrwt>
<pdfrwt beam="2">  1        4 0.55294009E-02 0.12499934E+03</pdfrwt>
<pdfrwt beam="1">  1       -4 0.16720553E-01 0.12499934E+03</pdfrwt>
<totfact> 0.10038769E+04</totfact>
</mgrwt>
</event>
<event>
 5    1  0.3234540E-002  0.1249999E+03  0.7818608E-02  0.1235069E+00
          4   -1    0    0  501    0  0.00000000000E+00  0.00000000000E+00  0.35354565452E+02  0.35377368447E+02  0.12700000000E+01 0. -1.
         -4   -1    0    0    0  501 -0.00000000000E+00 -0.00000000000E+00 -0.11042559272E+03  0.11043289558E+03  0.12700000000E+01 0. -1.
         25    2    1    2    0    0  0.00000000000E+00  0.00000000000E+00 -0.75071027267E+02  0.14581026403E+03  0.12499989585E+03 0.  0.
    9000005    1    3    3    0    0 -0.48739276702E+02  0.76896127128E+01 -0.82268219865E+02  0.95935953828E+02  0.10000000000E+01 0.  0.
    9000005    1    3    3    0    0  0.48739276702E+02 -0.76896127128E+01  0.71971925978E+01  0.49874310205E+02  0.10000000000E+01 0.  0.
<mgrwt>
<rscale>  0 0.12499990E+03</rscale>
<asrwt>0</asrwt>
<pdfrwt beam="1">  1        4 0.54414798E-02 0.12499990E+03</pdfrwt>
<pdfrwt beam="2">  1       -4 0.16990868E-01 0.12499990E+03</pdfrwt>
<totfact> 0.10014575E+04</totfact>
</mgrwt>
</event>
<event>
 5    1  0.3234540E-002  0.1250013E+03  0.7818608E-02  0.1235067E+00
          4   -1    0    0  501    0  0.00000000000E+00  0.00000000000E+00  0.54793837129E+02  0.54808553049E+02  0.12700000000E+01 0.  1.
         -4   -1    0    0    0  501 -0.00000000000E+00 -0.00000000000E+00 -0.71261454854E+02  0.71272770733E+02  0.12700000000E+01 0.  1.
         25    2    1    2    0    0  0.00000000000E+00  0.00000000000E+00 -0.16467617726E+02  0.12608132378E+03  0.12500127109E+03 0.  0.
    9000005    1    3    3    0    0  0.33253697122E+02  0.41117486868E+02  0.25353662008E+02  0.58653766084E+02  0.10000000000E+01 0.  0.
    9000005    1    3    3    0    0 -0.33253697122E+02 -0.41117486868E+02 -0.41821279734E+02  0.67427557698E+02  0.10000000000E+01 0.  0.
<mgrwt>
<rscale>  0 0.12500127E+03</rscale>
<asrwt>0</asrwt>
<pdfrwt beam="1">  1        4 0.84318235E-02 0.12500127E+03</pdfrwt>
<pdfrwt beam="2">  1       -4 0.10965303E-01 0.12500127E+03</pdfrwt>
<totfact> 0.10428876E+04</totfact>
</mgrwt>
</event>
<event>
 5    1  0.3234540E-002  0.1250022E+03  0.7818608E-02  0.1235066E+00
         -4   -1    0    0    0  501 -0.00000000000E+00  0.00000000000E+00  0.15205080129E+03  0.15205610501E+03  0.12700000000E+01 0. -1.
          4   -1    0    0  501    0  0.00000000000E+00 -0.00000000000E+00 -0.25669869388E+02  0.25701266396E+02  0.12700000000E+01 0. -1.
         25    2    1    2    0    0  0.00000000000E+00  0.00000000000E+00  0.12638093190E+03  0.17775737141E+03  0.12500217255E+03 0.  0.
    9000005    1    3    3    0    0  0.13365469544E+02 -0.59947720630E+02  0.46789484498E+02  0.77218008550E+02  0.10000000000E+01 0.  0.
    9000005    1    3    3    0    0 -0.13365469544E+02  0.59947720630E+02  0.79591447400E+02  0.10053936286E+03  0.10000000000E+01 0.  0.
<mgrwt>
<rscale>  0 0.12500217E+03</rscale>
<asrwt>0</asrwt>
<pdfrwt beam="2">  1        4 0.39520338E-02 0.12500217E+03</pdfrwt>
<pdfrwt beam="1">  1       -4 0.23395254E-01 0.12500217E+03</pdfrwt>
<totfact> 0.94017667E+03</totfact>
</mgrwt>
</event>
<event>
 5    1  0.3234540E-002  0.1249963E+03  0.7818608E-02  0.1235075E+00
         -4   -1    0    0    0  501 -0.00000000000E+00  0.00000000000E+00  0.35681752571E+01  0.37874496254E+01  0.12700000000E+01 0. -1.
          4   -1    0    0  501    0  0.00000000000E+00 -0.00000000000E+00 -0.10618306454E+04  0.10618314048E+04  0.12700000000E+01 0. -1.
         25    2    1    2    0    0  0.00000000000E+00  0.00000000000E+00 -0.10582624701E+04  0.10656188545E+04  0.12499634949E+03 0.  0.
    9000005    1    3    3    0    0 -0.12465775558E+02 -0.59653117676E+02 -0.64699249623E+03  0.64985704596E+03  0.10000000000E+01 0.  0.
    9000005    1    3    3    0    0  0.12465775558E+02  0.59653117676E+02 -0.41126997387E+03  0.41576180851E+03  0.10000000000E+01 0.  0.
<mgrwt>
<rscale>  0 0.12499635E+03</rscale>
<asrwt>0</asrwt>
<pdfrwt beam="2">  1        4 0.16337524E+00 0.12499635E+03</pdfrwt>
<pdfrwt beam="1">  1       -4 0.56587657E-03 0.12499635E+03</pdfrwt>
<totfact> 0.28514376E+03</totfact>
</mgrwt>
</event>
<event>
 5    1  0.3234540E-002  0.1250075E+03  0.7818608E-02  0.1235058E+00
          4   -1    0    0  501    0  0.00000000000E+00  0.00000000000E+00  0.69296404967E+03  0.69296521344E+03  0.12700000000E+01 0. -1.
         -4   -1    0    0    0  501 -0.00000000000E+00 -0.00000000000E+00 -0.55649876345E+01  0.57080633645E+01  0.12700000000E+01 0. -1.
         25    2    1    2    0    0  0.00000000000E+00  0.00000000000E+00  0.68739906204E+03  0.69867327680E+03  0.12500750870E+03 0.  0.
    9000005    1    3    3    0    0  0.13693670946E+02  0.44195010638E+02  0.57850642551E+03  0.58035454676E+03  0.10000000000E+01 0.  0.
    9000005    1    3    3    0    0 -0.13693670946E+02 -0.44195010638E+02  0.10889263653E+03  0.11831873005E+03  0.10000000000E+01 0.  0.
<mgrwt>
<rscale>  0 0.12500751E+03</rscale>
<asrwt>0</asrwt>
<pdfrwt beam="1">  1        4 0.10662099E+00 0.12500751E+03</pdfrwt>
<pdfrwt beam="2">  1       -4 0.86724698E-03 0.12500751E+03</pdfrwt>
<totfact> 0.43149714E+03</totfact>
</mgrwt>
</event>
<event>
 5    1  0.3234540E-002  0.1250293E+03  0.7818608E-02  0.1235023E+00
         -4   -1    0    0    0  501 -0.00000000000E+00  0.00000000000E+00  0.15267860278E+02  0.15320589332E+02  0.12700000000E+01 0. -1.
          4   -1    0    0  501    0  0.00000000000E+00 -0.00000000000E+00 -0.25547231792E+03  0.25547547460E+03  0.12700000000E+01 0. -1.
         25    2    1    2    0    0  0.00000000000E+00  0.00000000000E+00 -0.24020445764E+03  0.27079606394E+03  0.12502930365E+03 0.  0.
    9000005    1    3    3    0    0  0.93804013932E+01  0.47465114995E+02 -0.34389055131E+02  0.59367804276E+02  0.10000000000E+01 0.  0.
    9000005    1    3    3    0    0 -0.93804013932E+01 -0.47465114995E+02 -0.20581540251E+03  0.21142825966E+03  0.10000000000E+01 0.  0.
<mgrwt>
<rscale>  0 0.12502930E+03</rscale>
<asrwt>0</asrwt>
<pdfrwt beam="2">  1        4 0.39307729E-01 0.12502930E+03</pdfrwt>
<pdfrwt beam="1">  1       -4 0.23532007E-02 0.12502930E+03</pdfrwt>
<totfact> 0.79362722E+03</totfact>
</mgrwt>
</event>
<event>
 5    1  0.3234540E-002  0.1250134E+03  0.7818608E-02  0.1235048E+00
         -4   -1    0    0    0  501 -0.00000000000E+00  0.00000000000E+00  0.36222113464E+03  0.36222336104E+03  0.12700000000E+01 0. -1.
          4   -1    0    0  501    0  0.00000000000E+00 -0.00000000000E+00 -0.10746820739E+02  0.10821601360E+02  0.12700000000E+01 0. -1.
         25    2    1    2    0    0  0.00000000000E+00  0.00000000000E+00  0.35147431390E+03  0.37304496240E+03  0.12501340183E+03 0.  0.
    9000005    1    3    3    0    0 -0.58791970992E+02 -0.13703500297E+02  0.22402016392E+03  0.23201361085E+03  0.10000000000E+01 0.  0.
    9000005    1    3    3    0    0  0.58791970992E+02  0.13703500297E+02  0.12745414998E+03  0.14103135155E+03  0.10000000000E+01 0.  0.
<mgrwt>
<rscale>  0 0.12501340E+03</rscale>
<asrwt>0</asrwt>
<pdfrwt beam="2">  1        4 0.16592807E-02 0.12501340E+03</pdfrwt>
<pdfrwt beam="1">  1       -4 0.55732249E-01 0.12501340E+03</pdfrwt>
<totfact> 0.67241654E+03</totfact>
</mgrwt>
</event>
<event>
 5    1  0.3234540E-002  0.1249947E+03  0.7818608E-02  0.1235078E+00
          4   -1    0    0  501    0  0.00000000000E+00  0.00000000000E+00  0.40475507311E+01  0.42421182116E+01  0.12700000000E+01 0.  1.
         -4   -1    0    0    0  501 -0.00000000000E+00 -0.00000000000E+00 -0.94216310734E+03  0.94216396329E+03  0.12700000000E+01 0.  1.
         25    2    1    2    0    0  0.00000000000E+00  0.00000000000E+00 -0.93811555661E+03  0.94640608151E+03  0.12499469414E+03 0.  0.
    9000005    1    3    3    0    0 -0.13405254708E+02  0.40511524496E+02 -0.81470919070E+03  0.81582654399E+03  0.10000000000E+01 0.  0.
    9000005    1    3    3    0    0  0.13405254708E+02 -0.40511524496E+02 -0.12340636590E+03  0.13057953751E+03  0.10000000000E+01 0.  0.
<mgrwt>
<rscale>  0 0.12499469E+03</rscale>
<asrwt>0</asrwt>
<pdfrwt beam="1">  1        4 0.63773343E-03 0.12499469E+03</pdfrwt>
<pdfrwt beam="2">  1       -4 0.14496303E+00 0.12499469E+03</pdfrwt>
<totfact> 0.32447708E+03</totfact>
</mgrwt>
</event>
<event>
 5    1  0.3234540E-002  0.1250001E+03  0.7818608E-02  0.1235069E+00
          4   -1    0    0  501    0  0.00000000000E+00  0.00000000000E+00  0.87055563550E+03  0.87055656186E+03  0.12700000000E+01 0.  1.
         -4   -1    0    0    0  501 -0.00000000000E+00 -0.00000000000E+00 -0.43962705121E+01  0.45760347917E+01  0.12700000000E+01 0.  1.
         25    2    1    2    0    0  0.00000000000E+00  0.00000000000E+00  0.86615936499E+03  0.87513259665E+03  0.12500006468E+03 0.  0.
    9000005    1    3    3    0    0  0.98180742309E+01  0.20282663091E+02  0.25003138610E+02  0.33673995070E+02  0.10000000000E+01 0.  0.
    9000005    1    3    3    0    0 -0.98180742309E+01 -0.20282663091E+02  0.84115622638E+03  0.84145860158E+03  0.10000000000E+01 0.  0.
<mgrwt>
<rscale>  0 0.12500006E+03</rscale>
<asrwt>0</asrwt>
<pdfrwt beam="1">  1        4 0.13394524E+00 0.12500006E+03</pdfrwt>
<pdfrwt beam="2">  1       -4 0.69025011E-03 0.12500006E+03</pdfrwt>
<totfact> 0.35120389E+03</totfact>
</mgrwt>
</event>
<event>
 5    1  0.3234540E-002  0.1250028E+03  0.7818608E-02  0.1235065E+00
          4   -1    0    0  501    0  0.00000000000E+00  0.00000000000E+00  0.78308410807E+01  0.79331564986E+01  0.12700000000E+01 0.  1.
         -4   -1    0    0    0  501 -0.00000000000E+00 -0.00000000000E+00 -0.49551035994E+03  0.49551198745E+03  0.12700000000E+01 0.  1.
         25    2    1    2    0    0  0.00000000000E+00  0.00000000000E+00 -0.48767951886E+03  0.50344514395E+03  0.12500279938E+03 0.  0.
    9000005    1    3    3    0    0 -0.13308388605E+02  0.14977479711E+02 -0.48224382183E+03  0.48266089732E+03  0.10000000000E+01 0.  0.
    9000005    1    3    3    0    0  0.13308388605E+02 -0.14977479711E+02 -0.54356970242E+01  0.20784246628E+02  0.10000000000E+01 0.  0.
<mgrwt>
<rscale>  0 0.12500280E+03</rscale>
<asrwt>0</asrwt>
<pdfrwt beam="1">  1        4 0.12127408E-02 0.12500280E+03</pdfrwt>
<pdfrwt beam="2">  1       -4 0.76240334E-01 0.12500280E+03</pdfrwt>
<totfact> 0.55594642E+03</totfact>
</mgrwt>
</event>
<event>
 5    1  0.3234540E-002  0.1249997E+03  0.7818608E-02  0.1235070E+00
          4   -1    0    0  501    0  0.00000000000E+00  0.00000000000E+00  0.25578215360E+03  0.25578530646E+03  0.12700000000E+01 0. -1.
         -4   -1    0    0    0  501 -0.00000000000E+00 -0.00000000000E+00 -0.15242059730E+02  0.15294877732E+02  0.12700000000E+01 0. -1.
         25    2    1    2    0    0  0.00000000000E+00  0.00000000000E+00  0.24054009387E+03  0.27108018419E+03  0.12499971801E+03 0.  0.
    9000005    1    3    3    0    0  0.14668653113E+02  0.15548036386E+02  0.24761819019E+03  0.24854110109E+03  0.10000000000E+01 0.  0.
    9000005    1    3    3    0    0 -0.14668653113E+02 -0.15548036386E+02 -0.70780963157E+01  0.22539083102E+02  0.10000000000E+01 0.  0.
<mgrwt>
<rscale>  0 0.12499972E+03</rscale>
<asrwt>0</asrwt>
<pdfrwt beam="1">  1        4 0.39355410E-01 0.12499972E+03</pdfrwt>
<pdfrwt beam="2">  1       -4 0.23492375E-02 0.12499972E+03</pdfrwt>
<totfact> 0.79376322E+03</totfact>
</mgrwt>
</event>
<event>
 5    1  0.3234540E-002  0.1249948E+03  0.7818608E-02  0.1235077E+00
          4   -1    0    0  501    0  0.00000000000E+00  0.00000000000E+00  0.59348240570E+02  0.59361827454E+02  0.12700000000E+01 0. -1.
         -4   -1    0    0    0  501 -0.00000000000E+00 -0.00000000000E+00 -0.65786443668E+02  0.65798701130E+02  0.12700000000E+01 0. -1.
         25    2    1    2    0    0  0.00000000000E+00  0.00000000000E+00 -0.64382030981E+01  0.12516052858E+03  0.12499482972E+03 0.  0.
    9000005    1    3    3    0    0  0.51239508745E+02  0.77822836768E+01  0.31739579850E+02  0.60782004942E+02  0.10000000000E+01 0.  0.
    9000005    1    3    3    0    0 -0.51239508745E+02 -0.77822836768E+01 -0.38177782948E+02  0.64378523643E+02  0.10000000000E+01 0.  0.
<mgrwt>
<rscale>  0 0.12499483E+03</rscale>
<asrwt>0</asrwt>
<pdfrwt beam="1">  1        4 0.91324866E-02 0.12499483E+03</pdfrwt>
<pdfrwt beam="2">  1       -4 0.10122979E-01 0.12499483E+03</pdfrwt>
<totfact> 0.10450598E+04</totfact>
</mgrwt>
</event>
<event>
 5    1  0.3234540E-002  0.1249941E+03  0.7818608E-02  0.1235078E+00
          4   -1    0    0  501    0  0.00000000000E+00  0.00000000000E+00  0.75715051734E+01  0.76772775507E+01  0.12700000000E+01 0. -1.
         -4   -1    0    0    0  501 -0.00000000000E+00 -0.00000000000E+00 -0.51218138434E+03  0.51218295888E+03  0.12700000000E+01 0. -1.
         25    2    1    2    0    0  0.00000000000E+00  0.00000000000E+00 -0.50460987917E+03  0.51986023643E+03  0.12499414093E+03 0.  0.
    9000005    1    3    3    0    0 -0.39194815485E+02 -0.52643612572E+01 -0.45353450271E+03  0.45525651254E+03  0.10000000000E+01 0.  0.
    9000005    1    3    3    0    0  0.39194815485E+02  0.52643612572E+01 -0.51075376461E+02  0.64603723894E+02  0.10000000000E+01 0.  0.
<mgrwt>
<rscale>  0 0.12499414E+03</rscale>
<asrwt>0</asrwt>
<pdfrwt beam="1">  1        4 0.11731048E-02 0.12499414E+03</pdfrwt>
<pdfrwt beam="2">  1       -4 0.78805367E-01 0.12499414E+03</pdfrwt>
<totfact> 0.54362733E+03</totfact>
</mgrwt>
</event>
<event>
 5    1  0.3234540E-002  0.1250023E+03  0.7818608E-02  0.1235066E+00
          4   -1    0    0  501    0  0.00000000000E+00  0.00000000000E+00  0.20210460611E+03  0.20210859634E+03  0.12700000000E+01 0.  1.
         -4   -1    0    0    0  501 -0.00000000000E+00 -0.00000000000E+00 -0.19303513157E+02  0.19345245415E+02  0.12700000000E+01 0.  1.
         25    2    1    2    0    0  0.00000000000E+00  0.00000000000E+00  0.18280109296E+03  0.22145384175E+03  0.12500225774E+03 0.  0.
    9000005    1    3    3    0    0  0.17615979125E+02 -0.59669220109E+02  0.80971777911E+02  0.10211839877E+03  0.10000000000E+01 0.  0.
    9000005    1    3    3    0    0 -0.17615979125E+02  0.59669220109E+02  0.10182931505E+03  0.11933544298E+03  0.10000000000E+01 0.  0.
<mgrwt>
<rscale>  0 0.12500226E+03</rscale>
<asrwt>0</asrwt>
<pdfrwt beam="1">  1        4 0.31096531E-01 0.12500226E+03</pdfrwt>
<pdfrwt beam="2">  1       -4 0.29732886E-02 0.12500226E+03</pdfrwt>
<totfact> 0.86634452E+03</totfact>
</mgrwt>
</event>
<event>
 5    1  0.3234540E-002  0.1250035E+03  0.7818608E-02  0.1235064E+00
          4   -1    0    0  501    0  0.00000000000E+00  0.00000000000E+00  0.45236212254E+01  0.46985156157E+01  0.12700000000E+01 0. -1.
         -4   -1    0    0    0  501 -0.00000000000E+00 -0.00000000000E+00 -0.84701871248E+03  0.84701966458E+03  0.12700000000E+01 0. -1.
         25    2    1    2    0    0  0.00000000000E+00  0.00000000000E+00 -0.84249509125E+03  0.85171818020E+03  0.12500351873E+03 0.  0.
    9000005    1    3    3    0    0  0.27065359193E+02  0.21105218786E+02 -0.77708899647E+03  0.77784720374E+03  0.10000000000E+01 0.  0.
    9000005    1    3    3    0    0 -0.27065359193E+02 -0.21105218786E+02 -0.65406094778E+02  0.73870976454E+02  0.10000000000E+01 0.  0.
<mgrwt>
<rscale>  0 0.12500352E+03</rscale>
<asrwt>0</asrwt>
<pdfrwt beam="1">  1        4 0.70946905E-03 0.12500352E+03</pdfrwt>
<pdfrwt beam="2">  1       -4 0.13032397E+00 0.12500352E+03</pdfrwt>
<totfact> 0.36054377E+03</totfact>
</mgrwt>
</event>
<event>
 5    1  0.3234540E-002  0.1250001E+03  0.7818608E-02  0.1235069E+00
         -4   -1    0    0    0  501 -0.00000000000E+00  0.00000000000E+00  0.18302767364E+03  0.18303207975E+03  0.12700000000E+01 0. -1.
          4   -1    0    0  501    0  0.00000000000E+00 -0.00000000000E+00 -0.21318886024E+02  0.21356680484E+02  0.12700000000E+01 0. -1.
         25    2    1    2    0    0  0.00000000000E+00  0.00000000000E+00  0.16170878761E+03  0.20438876023E+03  0.12500013327E+03 0.  0.
    9000005    1    3    3    0    0  0.33367585189E+02  0.50602548079E+01  0.16685326482E+03  0.17023517234E+03  0.10000000000E+01 0.  0.
    9000005    1    3    3    0    0 -0.33367585189E+02 -0.50602548079E+01 -0.51444772093E+01  0.34153587891E+02  0.10000000000E+01 0.  0.
<mgrwt>
<rscale>  0 0.12500013E+03</rscale>
<asrwt>0</asrwt>
<pdfrwt beam="2">  1        4 0.32830748E-02 0.12500013E+03</pdfrwt>
<pdfrwt beam="1">  1       -4 0.28161350E-01 0.12500013E+03</pdfrwt>
<totfact> 0.89400281E+03</totfact>
</mgrwt>
</event>
<event>
 5    1  0.3234540E-002  0.1250145E+03  0.7818608E-02  0.1235047E+00
         -4   -1    0    0    0  501 -0.00000000000E+00  0.00000000000E+00  0.42218847597E+02  0.42237944936E+02  0.12700000000E+01 0. -1.
          4   -1    0    0  501    0  0.00000000000E+00 -0.00000000000E+00 -0.92500916038E+02  0.92509633919E+02  0.12700000000E+01 0. -1.
         25    2    1    2    0    0  0.00000000000E+00  0.00000000000E+00 -0.50282068440E+02  0.13474757886E+03  0.12501449356E+03 0.  0.
    9000005    1    3    3    0    0  0.57732822601E+02 -0.22389062994E+02 -0.34274673461E+02  0.70782075330E+02  0.10000000000E+01 0.  0.
    9000005    1    3    3    0    0 -0.57732822601E+02  0.22389062994E+02 -0.16007394979E+02  0.63965503525E+02  0.10000000000E+01 0.  0.
<mgrwt>
<rscale>  0 0.12501449E+03</rscale>
<asrwt>0</asrwt>
<pdfrwt beam="2">  1        4 0.14233050E-01 0.12501449E+03</pdfrwt>
<pdfrwt beam="1">  1       -4 0.64973470E-02 0.12501449E+03</pdfrwt>
<totfact> 0.10240046E+04</totfact>
</mgrwt>
</event>
<event>
 5    1  0.3234540E-002  0.1250093E+03  0.7818608E-02  0.1235055E+00
          4   -1    0    0  501    0  0.00000000000E+00  0.00000000000E+00  0.44308634889E+01  0.46092788219E+01  0.12700000000E+01 0. -1.
         -4   -1    0    0    0  501 -0.00000000000E+00 -0.00000000000E+00 -0.86415002636E+03  0.86415095958E+03  0.12700000000E+01 0. -1.
         25    2    1    2    0    0  0.00000000000E+00  0.00000000000E+00 -0.85971916287E+03  0.86876023841E+03  0.12500925100E+03 0.  0.
    9000005    1    3    3    0    0 -0.36968014404E+02 -0.40396622976E+02 -0.63919123632E+03  0.64153328660E+03  0.10000000000E+01 0.  0.
    9000005    1    3    3    0    0  0.36968014404E+02  0.40396622976E+02 -0.22052792655E+03  0.22722695180E+03  0.10000000000E+01 0.  0.
<mgrwt>
<rscale>  0 0.12500925E+03</rscale>
<asrwt>0</asrwt>
<pdfrwt beam="1">  1        4 0.69546804E-03 0.12500925E+03</pdfrwt>
<pdfrwt beam="2">  1       -4 0.13295982E+00 0.12500925E+03</pdfrwt>
<totfact> 0.35364588E+03</totfact>
</mgrwt>
</event>
<event>
 5    1  0.3234540E-002  0.1249906E+03  0.7818608E-02  0.1235084E+00
          4   -1    0    0  501    0  0.00000000000E+00  0.00000000000E+00  0.61621808629E+02  0.61634894327E+02  0.12700000000E+01 0. -1.
         -4   -1    0    0    0  501 -0.00000000000E+00 -0.00000000000E+00 -0.63354998072E+02  0.63367725860E+02  0.12700000000E+01 0. -1.
         25    2    1    2    0    0  0.00000000000E+00  0.00000000000E+00 -0.17331894429E+01  0.12500262019E+03  0.12499060408E+03 0.  0.
    9000005    1    3    3    0    0  0.44883253897E+02  0.43033683451E+02  0.53193362229E+01  0.62415540770E+02  0.10000000000E+01 0.  0.
    9000005    1    3    3    0    0 -0.44883253897E+02 -0.43033683451E+02 -0.70525256658E+01  0.62587079417E+02  0.10000000000E+01 0.  0.
<mgrwt>
<rscale>  0 0.12499060E+03</rscale>
<asrwt>0</asrwt>
<pdfrwt beam="1">  1        4 0.94822639E-02 0.12499060E+03</pdfrwt>
<pdfrwt beam="2">  1       -4 0.97489085E-02 0.12499060E+03</pdfrwt>
<totfact> 0.10455026E+04</totfact>
</mgrwt>
</event>
<event>
 5    1  0.3234540E-002  0.1249995E+03  0.7818608E-02  0.1235070E+00
          4   -1    0    0  501    0  0.00000000000E+00  0.00000000000E+00  0.68257531928E+02  0.68269345719E+02  0.12700000000E+01 0. -1.
         -4   -1    0    0    0  501 -0.00000000000E+00 -0.00000000000E+00 -0.57203834851E+02  0.57217930946E+02  0.12700000000E+01 0. -1.
         25    2    1    2    0    0  0.00000000000E+00  0.00000000000E+00  0.11053697076E+02  0.12548727666E+03  0.12499948954E+03 0.  0.
    9000005    1    3    3    0    0  0.70585615910E+01 -0.17566070010E+01  0.67836026282E+02  0.68232216889E+02  0.10000000000E+01 0.  0.
    9000005    1    3    3    0    0 -0.70585615910E+01  0.17566070010E+01 -0.56782329205E+02  0.57255059775E+02  0.10000000000E+01 0.  0.
<mgrwt>
<rscale>  0 0.12499949E+03</rscale>
<asrwt>0</asrwt>
<pdfrwt beam="1">  1        4 0.10503152E-01 0.12499949E+03</pdfrwt>
<pdfrwt beam="2">  1       -4 0.88025831E-02 0.12499949E+03</pdfrwt>
<totfact> 0.10442356E+04</totfact>
</mgrwt>
</event>
<event>
 5    1  0.3234540E-002  0.1249937E+03  0.7818608E-02  0.1235079E+00
          4   -1    0    0  501    0  0.00000000000E+00  0.00000000000E+00  0.30829254361E+02  0.30855401868E+02  0.12700000000E+01 0.  1.
         -4   -1    0    0    0  501 -0.00000000000E+00 -0.00000000000E+00 -0.12661023310E+03  0.12661660249E+03  0.12700000000E+01 0.  1.
         25    2    1    2    0    0  0.00000000000E+00  0.00000000000E+00 -0.95780978741E+02  0.15747200436E+03  0.12499374492E+03 0.  0.
    9000005    1    3    3    0    0 -0.50852041834E+02 -0.19593191295E+02 -0.86414295298E+02  0.10216777249E+03  0.10000000000E+01 0.  0.
    9000005    1    3    3    0    0  0.50852041834E+02  0.19593191295E+02 -0.93666834430E+01  0.55304231868E+02  0.10000000000E+01 0.  0.
<mgrwt>
<rscale>  0 0.12499374E+03</rscale>
<asrwt>0</asrwt>
<pdfrwt beam="1">  1        4 0.47454636E-02 0.12499374E+03</pdfrwt>
<pdfrwt beam="2">  1       -4 0.19480998E-01 0.12499374E+03</pdfrwt>
<totfact> 0.97846148E+03</totfact>
</mgrwt>
</event>
