<event>
 5    1  0.3309219E-002  0.1249982E+03  0.7818608E-02  0.1235072E+00
          4   -1    0    0  501    0  0.00000000000E+00  0.00000000000E+00  0.54498200069E+02  0.54512995797E+02  0.12700000000E+01 0.  1.
         -4   -1    0    0    0  501 -0.00000000000E+00 -0.00000000000E+00 -0.71644497023E+02  0.71655752411E+02  0.12700000000E+01 0.  1.
         25    2    1    2    0    0  0.00000000000E+00  0.00000000000E+00 -0.17146296954E+02  0.12616874821E+03  0.12499823009E+03 0.  0.
    9000005    1    3    3    0    0 -0.14600967823E+02 -0.57977707828E+02  0.97777635150E+01  0.60590490390E+02  0.10000000000E+01 0.  0.
    9000005    1    3    3    0    0  0.14600967823E+02  0.57977707828E+02 -0.26924060469E+02  0.65578257818E+02  0.10000000000E+01 0.  0.
<mgrwt>
<rscale>  0 0.12499823E+03</rscale>
<asrwt>0</asrwt>
<pdfrwt beam="1">  1        4 0.83863424E-02 0.12499823E+03</pdfrwt>
<pdfrwt beam="2">  1       -4 0.11024234E-01 0.12499823E+03</pdfrwt>
<totfact> 0.10427679E+04</totfact>
</mgrwt>
</event>
<event>
 5    1  0.3309219E-002  0.1250049E+03  0.7818608E-02  0.1235062E+00
         -4   -1    0    0    0  501 -0.00000000000E+00  0.00000000000E+00  0.35166271328E+03  0.35166500652E+03  0.12700000000E+01 0. -1.
          4   -1    0    0  501    0  0.00000000000E+00 -0.00000000000E+00 -0.11070172598E+02  0.11142783376E+02  0.12700000000E+01 0. -1.
         25    2    1    2    0    0  0.00000000000E+00  0.00000000000E+00  0.34059254068E+03  0.36280778989E+03  0.12500485447E+03 0.  0.
    9000005    1    3    3    0    0 -0.42731216986E+02 -0.23257753941E+02  0.28414362544E+03  0.28828021074E+03  0.10000000000E+01 0.  0.
    9000005    1    3    3    0    0  0.42731216986E+02  0.23257753941E+02  0.56448915235E+02  0.74527579155E+02  0.10000000000E+01 0.  0.
<mgrwt>
<rscale>  0 0.12500485E+03</rscale>
<asrwt>0</asrwt>
<pdfrwt beam="2">  1        4 0.17088654E-02 0.12500485E+03</pdfrwt>
<pdfrwt beam="1">  1       -4 0.54107714E-01 0.12500485E+03</pdfrwt>
<totfact> 0.68330814E+03</totfact>
</mgrwt>
</event>
<event>
 5    1  0.3309219E-002  0.1249956E+03  0.7818608E-02  0.1235076E+00
          4   -1    0    0  501    0  0.00000000000E+00  0.00000000000E+00  0.30009483410E+02  0.30036344561E+02  0.12700000000E+01 0.  1.
         -4   -1    0    0    0  501 -0.00000000000E+00 -0.00000000000E+00 -0.13006989011E+03  0.13007609009E+03  0.12700000000E+01 0.  1.
         25    2    1    2    0    0  0.00000000000E+00  0.00000000000E+00 -0.10006040670E+03  0.16011243465E+03  0.12499562689E+03 0.  0.
    9000005    1    3    3    0    0  0.58199729969E+02  0.17234005903E+02 -0.30998062680E+02  0.68162302029E+02  0.10000000000E+01 0.  0.
    9000005    1    3    3    0    0 -0.58199729969E+02 -0.17234005903E+02 -0.69062344022E+02  0.91950132625E+02  0.10000000000E+01 0.  0.
<mgrwt>
<rscale>  0 0.12499563E+03</rscale>
<asrwt>0</asrwt>
<pdfrwt beam="1">  1        4 0.46193868E-02 0.12499563E+03</pdfrwt>
<pdfrwt beam="2">  1       -4 0.20013295E-01 0.12499563E+03</pdfrwt>
<totfact> 0.97330680E+03</totfact>
</mgrwt>
</event>
<event>
 5    1  0.3309219E-002  0.1250000E+03  0.7818608E-02  0.1235069E+00
          4   -1    0    0  501    0  0.00000000000E+00  0.00000000000E+00  0.30592059850E+03  0.30592323463E+03  0.12700000000E+01 0.  1.
         -4   -1    0    0    0  501 -0.00000000000E+00 -0.00000000000E+00 -0.12734554772E+02  0.12797725784E+02  0.12700000000E+01 0.  1.
         25    2    1    2    0    0  0.00000000000E+00  0.00000000000E+00  0.29318604373E+03  0.31872096041E+03  0.12499997748E+03 0.  0.
    9000005    1    3    3    0    0  0.19636181811E+01 -0.35292016830E+02  0.27799557343E+03  0.28023547436E+03  0.10000000000E+01 0.  0.
    9000005    1    3    3    0    0 -0.19636181811E+01  0.35292016830E+02  0.15190470300E+02  0.38485486047E+02  0.10000000000E+01 0.  0.
<mgrwt>
<rscale>  0 0.12499998E+03</rscale>
<asrwt>0</asrwt>
<pdfrwt beam="1">  1        4 0.47069773E-01 0.12499998E+03</pdfrwt>
<pdfrwt beam="2">  1       -4 0.19642242E-02 0.12499998E+03</pdfrwt>
<totfact> 0.73308541E+03</totfact>
</mgrwt>
</event>
<event>
 5    1  0.3309219E-002  0.1249974E+03  0.7818608E-02  0.1235073E+00
          4   -1    0    0  501    0  0.00000000000E+00  0.00000000000E+00  0.13741126633E+04  0.13741132502E+04  0.12700000000E+01 0. -1.
         -4   -1    0    0    0  501 -0.00000000000E+00 -0.00000000000E+00 -0.27001590978E+01  0.29839167471E+01  0.12700000000E+01 0. -1.
         25    2    1    2    0    0  0.00000000000E+00  0.00000000000E+00  0.13714125042E+04  0.13770971669E+04  0.12499740196E+03 0.  0.
    9000005    1    3    3    0    0  0.11349701436E+02  0.42984393801E+02  0.11695289428E+04  0.11703740522E+04  0.10000000000E+01 0.  0.
    9000005    1    3    3    0    0 -0.11349701436E+02 -0.42984393801E+02  0.20188356135E+03  0.20672311476E+03  0.10000000000E+01 0.  0.
<mgrwt>
<rscale>  0 0.12499740E+03</rscale>
<asrwt>0</asrwt>
<pdfrwt beam="1">  1        4 0.21142396E+00 0.12499740E+03</pdfrwt>
<pdfrwt beam="2">  1       -4 0.43728145E-03 0.12499740E+03</pdfrwt>
<totfact> 0.20478933E+03</totfact>
</mgrwt>
</event>
<event>
 5    1  0.3309219E-002  0.1249524E+03  0.7818608E-02  0.1235144E+00
          4   -1    0    0  501    0  0.00000000000E+00  0.00000000000E+00  0.33598298194E+01  0.35918458229E+01  0.12700000000E+01 0. -1.
         -4   -1    0    0    0  501 -0.00000000000E+00 -0.00000000000E+00 -0.11227422349E+04  0.11227429532E+04  0.12700000000E+01 0. -1.
         25    2    1    2    0    0  0.00000000000E+00  0.00000000000E+00 -0.11193824051E+04  0.11263347990E+04  0.12495243357E+03 0.  0.
    9000005    1    3    3    0    0  0.37653030493E+02 -0.38684785565E+02 -0.84302892843E+03  0.84475620004E+03  0.10000000000E+01 0.  0.
    9000005    1    3    3    0    0 -0.37653030493E+02  0.38684785565E+02 -0.27635347668E+03  0.28157859899E+03  0.10000000000E+01 0.  0.
<mgrwt>
<rscale>  0 0.12495243E+03</rscale>
<asrwt>0</asrwt>
<pdfrwt beam="1">  1        4 0.53480043E-03 0.12495243E+03</pdfrwt>
<pdfrwt beam="2">  1       -4 0.17274719E+00 0.12495243E+03</pdfrwt>
<totfact> 0.26752943E+03</totfact>
</mgrwt>
</event>
<event>
 5    1  0.3309219E-002  0.1250003E+03  0.7818608E-02  0.1235069E+00
         -4   -1    0    0    0  501 -0.00000000000E+00  0.00000000000E+00  0.60889177543E+02  0.60902420657E+02  0.12700000000E+01 0.  1.
          4   -1    0    0  501    0  0.00000000000E+00 -0.00000000000E+00 -0.64127186601E+02  0.64139761157E+02  0.12700000000E+01 0.  1.
         25    2    1    2    0    0  0.00000000000E+00  0.00000000000E+00 -0.32380090576E+01  0.12504218181E+03  0.12500025012E+03 0.  0.
    9000005    1    3    3    0    0  0.37558900798E+02 -0.39439224239E+02 -0.32274711606E+02  0.63314930680E+02  0.10000000000E+01 0.  0.
    9000005    1    3    3    0    0 -0.37558900798E+02  0.39439224239E+02  0.29036702548E+02  0.61727251134E+02  0.10000000000E+01 0.  0.
<mgrwt>
<rscale>  0 0.12500025E+03</rscale>
<asrwt>0</asrwt>
<pdfrwt beam="2">  1        4 0.98677069E-02 0.12500025E+03</pdfrwt>
<pdfrwt beam="1">  1       -4 0.93695518E-02 0.12500025E+03</pdfrwt>
<totfact> 0.10451887E+04</totfact>
</mgrwt>
</event>
<event>
 5    1  0.3309219E-002  0.1250012E+03  0.7818608E-02  0.1235067E+00
         -4   -1    0    0    0  501 -0.00000000000E+00  0.00000000000E+00  0.90173529055E+01  0.91063468758E+01  0.12700000000E+01 0.  1.
          4   -1    0    0  501    0  0.00000000000E+00 -0.00000000000E+00 -0.43098356821E+03  0.43098543939E+03  0.12700000000E+01 0.  1.
         25    2    1    2    0    0  0.00000000000E+00  0.00000000000E+00 -0.42196621531E+03  0.44009178627E+03  0.12500117392E+03 0.  0.
    9000005    1    3    3    0    0  0.58144567868E+02 -0.48976973598E+01 -0.28975128640E+03  0.29556993450E+03  0.10000000000E+01 0.  0.
    9000005    1    3    3    0    0 -0.58144567868E+02  0.48976973598E+01 -0.13221492891E+03  0.14452185177E+03  0.10000000000E+01 0.  0.
<mgrwt>
<rscale>  0 0.12500117E+03</rscale>
<asrwt>0</asrwt>
<pdfrwt beam="2">  1        4 0.66312138E-01 0.12500117E+03</pdfrwt>
<pdfrwt beam="1">  1       -4 0.13942750E-02 0.12500117E+03</pdfrwt>
<totfact> 0.60830198E+03</totfact>
</mgrwt>
</event>
<event>
 5    1  0.3309219E-002  0.1249992E+03  0.7818608E-02  0.1235071E+00
         -4   -1    0    0    0  501 -0.00000000000E+00  0.00000000000E+00  0.20115283577E+02  0.20155335109E+02  0.12700000000E+01 0.  1.
          4   -1    0    0  501    0  0.00000000000E+00 -0.00000000000E+00 -0.19395537241E+03  0.19395953028E+03  0.12700000000E+01 0.  1.
         25    2    1    2    0    0  0.00000000000E+00  0.00000000000E+00 -0.17384008883E+03  0.21411486539E+03  0.12499919638E+03 0.  0.
    9000005    1    3    3    0    0  0.35176453100E+01  0.47202895043E+02 -0.17030978118E+02  0.50314424816E+02  0.10000000000E+01 0.  0.
    9000005    1    3    3    0    0 -0.35176453100E+01 -0.47202895043E+02 -0.15680911071E+03  0.16380044057E+03  0.10000000000E+01 0.  0.
<mgrwt>
<rscale>  0 0.12499920E+03</rscale>
<asrwt>0</asrwt>
<pdfrwt beam="2">  1        4 0.29842687E-01 0.12499920E+03</pdfrwt>
<pdfrwt beam="1">  1       -4 0.30980599E-02 0.12499920E+03</pdfrwt>
<totfact> 0.87809826E+03</totfact>
</mgrwt>
</event>
<event>
 5    1  0.3309219E-002  0.1249924E+03  0.7818608E-02  0.1235081E+00
          4   -1    0    0  501    0  0.00000000000E+00  0.00000000000E+00  0.26129529689E+02  0.26160375032E+02  0.12700000000E+01 0. -1.
         -4   -1    0    0    0  501 -0.00000000000E+00 -0.00000000000E+00 -0.14935573492E+03  0.14936113435E+03  0.12700000000E+01 0. -1.
         25    2    1    2    0    0  0.00000000000E+00  0.00000000000E+00 -0.12322620523E+03  0.17552150938E+03  0.12499241017E+03 0.  0.
    9000005    1    3    3    0    0 -0.45911205496E+02  0.18210548479E+02 -0.78589683474E+01  0.50022257540E+02  0.10000000000E+01 0.  0.
    9000005    1    3    3    0    0  0.45911205496E+02 -0.18210548479E+02 -0.11536723688E+03  0.12549925184E+03  0.10000000000E+01 0.  0.
<mgrwt>
<rscale>  0 0.12499241E+03</rscale>
<asrwt>0</asrwt>
<pdfrwt beam="1">  1        4 0.40227158E-02 0.12499241E+03</pdfrwt>
<pdfrwt beam="2">  1       -4 0.22980593E-01 0.12499241E+03</pdfrwt>
<totfact> 0.94445493E+03</totfact>
</mgrwt>
</event>
<event>
 5    1  0.3309219E-002  0.1250580E+03  0.7818608E-02  0.1234979E+00
         -4   -1    0    0    0  501 -0.00000000000E+00  0.00000000000E+00  0.63137667102E+02  0.63150438693E+02  0.12700000000E+01 0.  1.
          4   -1    0    0  501    0  0.00000000000E+00 -0.00000000000E+00 -0.61900670325E+02  0.61913697084E+02  0.12700000000E+01 0.  1.
         25    2    1    2    0    0  0.00000000000E+00  0.00000000000E+00  0.12369967775E+01  0.12506413578E+03  0.12505801812E+03 0.  0.
    9000005    1    3    3    0    0 -0.23710397309E+02 -0.57730362533E+02  0.43468539686E+01  0.62568944678E+02  0.10000000000E+01 0.  0.
    9000005    1    3    3    0    0  0.23710397309E+02  0.57730362533E+02 -0.31098571911E+01  0.62495191099E+02  0.10000000000E+01 0.  0.
<mgrwt>
<rscale>  0 0.12505802E+03</rscale>
<asrwt>0</asrwt>
<pdfrwt beam="2">  1        4 0.95251645E-02 0.12505802E+03</pdfrwt>
<pdfrwt beam="1">  1       -4 0.97154717E-02 0.12505802E+03</pdfrwt>
<totfact> 0.10437777E+04</totfact>
</mgrwt>
</event>
<event>
 5    1  0.3309219E-002  0.1250028E+03  0.7818608E-02  0.1235065E+00
          4   -1    0    0  501    0  0.00000000000E+00  0.00000000000E+00  0.29390587355E+02  0.29418013615E+02  0.12700000000E+01 0. -1.
         -4   -1    0    0    0  501 -0.00000000000E+00 -0.00000000000E+00 -0.13282168395E+03  0.13282775548E+03  0.12700000000E+01 0. -1.
         25    2    1    2    0    0  0.00000000000E+00  0.00000000000E+00 -0.10343109659E+03  0.16224576910E+03  0.12500279136E+03 0.  0.
    9000005    1    3    3    0    0  0.56535902000E+02 -0.25573248068E+02 -0.61352260248E+02  0.87266253897E+02  0.10000000000E+01 0.  0.
    9000005    1    3    3    0    0 -0.56535902000E+02  0.25573248068E+02 -0.42078836345E+02  0.74979515202E+02  0.10000000000E+01 0.  0.
<mgrwt>
<rscale>  0 0.12500279E+03</rscale>
<asrwt>0</asrwt>
<pdfrwt beam="1">  1        4 0.45242057E-02 0.12500279E+03</pdfrwt>
<pdfrwt beam="2">  1       -4 0.20436682E-01 0.12500279E+03</pdfrwt>
<totfact> 0.96905479E+03</totfact>
</mgrwt>
</event>
<event>
 5    1  0.3309219E-002  0.1250045E+03  0.7818608E-02  0.1235062E+00
          4   -1    0    0  501    0  0.00000000000E+00  0.00000000000E+00  0.10280208688E+03  0.10280993126E+03  0.12700000000E+01 0. -1.
         -4   -1    0    0    0  501 -0.00000000000E+00 -0.00000000000E+00 -0.37980610596E+02  0.38001837867E+02  0.12700000000E+01 0. -1.
         25    2    1    2    0    0  0.00000000000E+00  0.00000000000E+00  0.64821476281E+02  0.14081176913E+03  0.12500452207E+03 0.  0.
    9000005    1    3    3    0    0 -0.23177315086E+02  0.51986908371E+02  0.33467983296E+01  0.57026552023E+02  0.10000000000E+01 0.  0.
    9000005    1    3    3    0    0  0.23177315086E+02 -0.51986908371E+02  0.61474677952E+02  0.83785217108E+02  0.10000000000E+01 0.  0.
<mgrwt>
<rscale>  0 0.12500452E+03</rscale>
<asrwt>0</asrwt>
<pdfrwt beam="1">  1        4 0.15817942E-01 0.12500452E+03</pdfrwt>
<pdfrwt beam="2">  1       -4 0.58454072E-02 0.12500452E+03</pdfrwt>
<totfact> 0.10115759E+04</totfact>
</mgrwt>
</event>
<event>
 5    1  0.3309219E-002  0.1249984E+03  0.7818608E-02  0.1235072E+00
         -4   -1    0    0    0  501 -0.00000000000E+00  0.00000000000E+00  0.60512782039E+03  0.60512915308E+03  0.12700000000E+01 0.  1.
          4   -1    0    0  501    0  0.00000000000E+00 -0.00000000000E+00 -0.63912629810E+01  0.65162214888E+01  0.12700000000E+01 0.  1.
         25    2    1    2    0    0  0.00000000000E+00  0.00000000000E+00  0.59873655741E+03  0.61164537457E+03  0.12499839621E+03 0.  0.
    9000005    1    3    3    0    0  0.32976965887E+02 -0.40240847820E+02  0.12997898985E+03  0.14000837087E+03  0.10000000000E+01 0.  0.
    9000005    1    3    3    0    0 -0.32976965887E+02  0.40240847820E+02  0.46875756756E+03  0.47163700370E+03  0.10000000000E+01 0.  0.
<mgrwt>
<rscale>  0 0.12499840E+03</rscale>
<asrwt>0</asrwt>
<pdfrwt beam="2">  1        4 0.99298551E-03 0.12499840E+03</pdfrwt>
<pdfrwt beam="1">  1       -4 0.93106342E-01 0.12499840E+03</pdfrwt>
<totfact> 0.48142352E+03</totfact>
</mgrwt>
</event>
<event>
 5    1  0.3309219E-002  0.1250300E+03  0.7818608E-02  0.1235022E+00
         -4   -1    0    0    0  501 -0.00000000000E+00  0.00000000000E+00  0.34060598607E+02  0.34084267301E+02  0.12700000000E+01 0. -1.
          4   -1    0    0  501    0  0.00000000000E+00 -0.00000000000E+00 -0.11467337470E+03  0.11468040707E+03  0.12700000000E+01 0. -1.
         25    2    1    2    0    0  0.00000000000E+00  0.00000000000E+00 -0.80612776092E+02  0.14876467437E+03  0.12503003107E+03 0.  0.
    9000005    1    3    3    0    0  0.67599827092E+01 -0.38372123593E+02 -0.98462378222E+02  0.10589597330E+03  0.10000000000E+01 0.  0.
    9000005    1    3    3    0    0 -0.67599827092E+01  0.38372123593E+02  0.17849602130E+02  0.42868701071E+02  0.10000000000E+01 0.  0.
<mgrwt>
<rscale>  0 0.12503003E+03</rscale>
<asrwt>0</asrwt>
<pdfrwt beam="2">  1        4 0.17644419E-01 0.12503003E+03</pdfrwt>
<pdfrwt beam="1">  1       -4 0.52424538E-02 0.12503003E+03</pdfrwt>
<totfact> 0.99483251E+03</totfact>
</mgrwt>
</event>
<event>
 5    1  0.3309219E-002  0.1249982E+03  0.7818608E-02  0.1235072E+00
         -4   -1    0    0    0  501 -0.00000000000E+00  0.00000000000E+00  0.17895185796E+02  0.17940194388E+02  0.12700000000E+01 0. -1.
          4   -1    0    0  501    0  0.00000000000E+00 -0.00000000000E+00 -0.21795782736E+03  0.21796152736E+03  0.12700000000E+01 0. -1.
         25    2    1    2    0    0  0.00000000000E+00  0.00000000000E+00 -0.20006264157E+03  0.23590172175E+03  0.12499824708E+03 0.  0.
    9000005    1    3    3    0    0 -0.37047635253E+02  0.11424775362E+02 -0.19252703607E+03  0.19639427789E+03  0.10000000000E+01 0.  0.
    9000005    1    3    3    0    0  0.37047635253E+02 -0.11424775362E+02 -0.75356054962E+01  0.39507443857E+02  0.10000000000E+01 0.  0.
<mgrwt>
<rscale>  0 0.12499825E+03</rscale>
<asrwt>0</asrwt>
<pdfrwt beam="2">  1        4 0.33535718E-01 0.12499825E+03</pdfrwt>
<pdfrwt beam="1">  1       -4 0.27568525E-02 0.12499825E+03</pdfrwt>
<totfact> 0.84414845E+03</totfact>
</mgrwt>
</event>
<event>
 5    1  0.3309219E-002  0.1249915E+03  0.7818608E-02  0.1235083E+00
          4   -1    0    0  501    0  0.00000000000E+00  0.00000000000E+00  0.14301460571E+03  0.14302024454E+03  0.12700000000E+01 0.  1.
         -4   -1    0    0    0  501 -0.00000000000E+00 -0.00000000000E+00 -0.27288970016E+02  0.27318506265E+02  0.12700000000E+01 0.  1.
         25    2    1    2    0    0  0.00000000000E+00  0.00000000000E+00  0.11572563570E+03  0.17033875080E+03  0.12499146878E+03 0.  0.
    9000005    1    3    3    0    0  0.44857449578E+02  0.38024394131E+02  0.29060515782E+02  0.65601516058E+02  0.10000000000E+01 0.  0.
    9000005    1    3    3    0    0 -0.44857449578E+02 -0.38024394131E+02  0.86665119914E+02  0.10473723474E+03  0.10000000000E+01 0.  0.
<mgrwt>
<rscale>  0 0.12499147E+03</rscale>
<asrwt>0</asrwt>
<pdfrwt beam="1">  1        4 0.22004953E-01 0.12499147E+03</pdfrwt>
<pdfrwt beam="2">  1       -4 0.42010088E-02 0.12499147E+03</pdfrwt>
<totfact> 0.95403802E+03</totfact>
</mgrwt>
</event>
<event>
 5    1  0.3309219E-002  0.1249986E+03  0.7818608E-02  0.1235071E+00
         -4   -1    0    0    0  501 -0.00000000000E+00  0.00000000000E+00  0.13074072929E+03  0.13074689746E+03  0.12700000000E+01 0.  1.
          4   -1    0    0  501    0  0.00000000000E+00 -0.00000000000E+00 -0.29856785288E+02  0.29883783692E+02  0.12700000000E+01 0.  1.
         25    2    1    2    0    0  0.00000000000E+00  0.00000000000E+00  0.10088394401E+03  0.16063068116E+03  0.12499858227E+03 0.  0.
    9000005    1    3    3    0    0 -0.14149952749E+02  0.29289930229E+02  0.11900977190E+03  0.12337928101E+03  0.10000000000E+01 0.  0.
    9000005    1    3    3    0    0  0.14149952749E+02 -0.29289930229E+02 -0.18125827895E+02  0.37251400142E+02  0.10000000000E+01 0.  0.
<mgrwt>
<rscale>  0 0.12499858E+03</rscale>
<asrwt>0</asrwt>
<pdfrwt beam="2">  1        4 0.45959027E-02 0.12499858E+03</pdfrwt>
<pdfrwt beam="1">  1       -4 0.20116510E-01 0.12499858E+03</pdfrwt>
<totfact> 0.97224430E+03</totfact>
</mgrwt>
</event>
<event>
 5    1  0.3309219E-002  0.1249912E+03  0.7818608E-02  0.1235083E+00
          4   -1    0    0  501    0  0.00000000000E+00  0.00000000000E+00  0.94020384161E+03  0.94020469935E+03  0.12700000000E+01 0. -1.
         -4   -1    0    0    0  501 -0.00000000000E+00 -0.00000000000E+00 -0.40561534667E+01  0.42503271575E+01  0.12700000000E+01 0. -1.
         25    2    1    2    0    0  0.00000000000E+00  0.00000000000E+00  0.93614768814E+03  0.94445502650E+03  0.12499121200E+03 0.  0.
    9000005    1    3    3    0    0 -0.76886775964E+01  0.48085541467E+02  0.17218766727E+03  0.17894392367E+03  0.10000000000E+01 0.  0.
    9000005    1    3    3    0    0  0.76886775964E+01 -0.48085541467E+02  0.76396002088E+03  0.76551110283E+03  0.10000000000E+01 0.  0.
<mgrwt>
<rscale>  0 0.12499121E+03</rscale>
<asrwt>0</asrwt>
<pdfrwt beam="1">  1        4 0.14466174E+00 0.12499121E+03</pdfrwt>
<pdfrwt beam="2">  1       -4 0.63902608E-03 0.12499121E+03</pdfrwt>
<totfact> 0.32519898E+03</totfact>
</mgrwt>
</event>
<event>
 5    1  0.3309219E-002  0.1250002E+03  0.7818608E-02  0.1235069E+00
         -4   -1    0    0    0  501 -0.00000000000E+00  0.00000000000E+00  0.12377223562E+02  0.12442208931E+02  0.12700000000E+01 0. -1.
          4   -1    0    0  501    0  0.00000000000E+00 -0.00000000000E+00 -0.31470820878E+03  0.31471077131E+03  0.12700000000E+01 0. -1.
         25    2    1    2    0    0  0.00000000000E+00  0.00000000000E+00 -0.30233098522E+03  0.32715298024E+03  0.12500019141E+03 0.  0.
    9000005    1    3    3    0    0  0.28164395435E+02  0.22228447902E+02 -0.17253709012E+02  0.39824961281E+02  0.10000000000E+01 0.  0.
    9000005    1    3    3    0    0 -0.28164395435E+02 -0.22228447902E+02 -0.28507727621E+03  0.28732801896E+03  0.10000000000E+01 0.  0.
<mgrwt>
<rscale>  0 0.12500019E+03</rscale>
<asrwt>0</asrwt>
<pdfrwt beam="2">  1        4 0.48421837E-01 0.12500019E+03</pdfrwt>
<pdfrwt beam="1">  1       -4 0.19093845E-02 0.12500019E+03</pdfrwt>
<totfact> 0.72313069E+03</totfact>
</mgrwt>
</event>
<event>
 5    1  0.3309219E-002  0.1250063E+03  0.7818608E-02  0.1235059E+00
          4   -1    0    0  501    0  0.00000000000E+00  0.00000000000E+00  0.31308939665E+03  0.31309197242E+03  0.12700000000E+01 0. -1.
         -4   -1    0    0    0  501 -0.00000000000E+00 -0.00000000000E+00 -0.12442768403E+02  0.12507413223E+02  0.12700000000E+01 0. -1.
         25    2    1    2    0    0  0.00000000000E+00  0.00000000000E+00  0.30064662825E+03  0.32559938565E+03  0.12500625927E+03 0.  0.
    9000005    1    3    3    0    0  0.43821591417E+02  0.43545392248E+02  0.12573603113E+03  0.14009669013E+03  0.10000000000E+01 0.  0.
    9000005    1    3    3    0    0 -0.43821591417E+02 -0.43545392248E+02  0.17491059712E+03  0.18550269552E+03  0.10000000000E+01 0.  0.
<mgrwt>
<rscale>  0 0.12500626E+03</rscale>
<asrwt>0</asrwt>
<pdfrwt beam="1">  1        4 0.48172768E-01 0.12500626E+03</pdfrwt>
<pdfrwt beam="2">  1       -4 0.19194430E-02 0.12500626E+03</pdfrwt>
<totfact> 0.72485010E+03</totfact>
</mgrwt>
</event>
<event>
 5    1  0.3309219E-002  0.1250006E+03  0.7818608E-02  0.1235068E+00
         -4   -1    0    0    0  501 -0.00000000000E+00  0.00000000000E+00  0.51970320011E+02  0.51985835205E+02  0.12700000000E+01 0.  1.
          4   -1    0    0  501    0  0.00000000000E+00 -0.00000000000E+00 -0.75131755273E+02  0.75142488316E+02  0.12700000000E+01 0.  1.
         25    2    1    2    0    0  0.00000000000E+00  0.00000000000E+00 -0.23161435262E+02  0.12712832352E+03  0.12500063423E+03 0.  0.
    9000005    1    3    3    0    0  0.30485791941E+02 -0.41420197666E+01 -0.66900979112E+02  0.73642927999E+02  0.10000000000E+01 0.  0.
    9000005    1    3    3    0    0 -0.30485791941E+02  0.41420197666E+01  0.43739543850E+02  0.53485395523E+02  0.10000000000E+01 0.  0.
<mgrwt>
<rscale>  0 0.12500063E+03</rscale>
<asrwt>0</asrwt>
<pdfrwt beam="2">  1        4 0.11560751E-01 0.12500063E+03</pdfrwt>
<pdfrwt beam="1">  1       -4 0.79974530E-02 0.12500063E+03</pdfrwt>
<totfact> 0.10406210E+04</totfact>
</mgrwt>
</event>
<event>
 5    1  0.3309219E-002  0.1249998E+03  0.7818608E-02  0.1235070E+00
         -4   -1    0    0    0  501 -0.00000000000E+00  0.00000000000E+00  0.69940770304E+02  0.69952299824E+02  0.12700000000E+01 0. -1.
          4   -1    0    0  501    0  0.00000000000E+00 -0.00000000000E+00 -0.55827320051E+02  0.55841763619E+02  0.12700000000E+01 0. -1.
         25    2    1    2    0    0  0.00000000000E+00  0.00000000000E+00  0.14113450253E+02  0.12579406344E+03  0.12499982768E+03 0.  0.
    9000005    1    3    3    0    0  0.61371430351E+02  0.42097416601E+00 -0.47913364965E+01  0.61567739832E+02  0.10000000000E+01 0.  0.
    9000005    1    3    3    0    0 -0.61371430351E+02 -0.42097416601E+00  0.18904786749E+02  0.64226323611E+02  0.10000000000E+01 0.  0.
<mgrwt>
<rscale>  0 0.12499983E+03</rscale>
<asrwt>0</asrwt>
<pdfrwt beam="2">  1        4 0.85908165E-02 0.12499983E+03</pdfrwt>
<pdfrwt beam="1">  1       -4 0.10762116E-01 0.12499983E+03</pdfrwt>
<totfact> 0.10435516E+04</totfact>
</mgrwt>
</event>
<event>
 5    1  0.3309219E-002  0.1250355E+03  0.7818608E-02  0.1235014E+00
          4   -1    0    0  501    0  0.00000000000E+00  0.00000000000E+00  0.56214380337E+03  0.56214523797E+03  0.12700000000E+01 0.  1.
         -4   -1    0    0    0  501 -0.00000000000E+00 -0.00000000000E+00 -0.68933371298E+01  0.70093506678E+01  0.12700000000E+01 0.  1.
         25    2    1    2    0    0  0.00000000000E+00  0.00000000000E+00  0.55525046624E+03  0.56915458864E+03  0.12503545698E+03 0.  0.
    9000005    1    3    3    0    0 -0.53394661231E+02  0.17007008841E+02  0.15154060017E+03  0.16157283713E+03  0.10000000000E+01 0.  0.
    9000005    1    3    3    0    0  0.53394661231E+02 -0.17007008841E+02  0.40370986608E+03  0.40758175151E+03  0.10000000000E+01 0.  0.
<mgrwt>
<rscale>  0 0.12503546E+03</rscale>
<asrwt>0</asrwt>
<pdfrwt beam="1">  1        4 0.86492726E-01 0.12503546E+03</pdfrwt>
<pdfrwt beam="2">  1       -4 0.10695475E-02 0.12503546E+03</pdfrwt>
<totfact> 0.50834826E+03</totfact>
</mgrwt>
</event>
<event>
 5    1  0.3309219E-002  0.1250015E+03  0.7818608E-02  0.1235067E+00
          4   -1    0    0  501    0  0.00000000000E+00  0.00000000000E+00  0.74618096377E+02  0.74628903294E+02  0.12700000000E+01 0.  1.
         -4   -1    0    0    0  501 -0.00000000000E+00 -0.00000000000E+00 -0.52328862545E+02  0.52344271465E+02  0.12700000000E+01 0.  1.
         25    2    1    2    0    0  0.00000000000E+00  0.00000000000E+00  0.22289233832E+02  0.12697317476E+03  0.12500150865E+03 0.  0.
    9000005    1    3    3    0    0 -0.37494048186E+02 -0.34100254063E+02  0.48282390226E+02  0.70005858201E+02  0.10000000000E+01 0.  0.
    9000005    1    3    3    0    0  0.37494048186E+02  0.34100254063E+02 -0.25993156394E+02  0.56967316558E+02  0.10000000000E+01 0.  0.
<mgrwt>
<rscale>  0 0.12500151E+03</rscale>
<asrwt>0</asrwt>
<pdfrwt beam="1">  1        4 0.11481724E-01 0.12500151E+03</pdfrwt>
<pdfrwt beam="2">  1       -4 0.80526109E-02 0.12500151E+03</pdfrwt>
<totfact> 0.10409374E+04</totfact>
</mgrwt>
</event>
<event>
 5    1  0.3309219E-002  0.1249954E+03  0.7818608E-02  0.1235076E+00
         -4   -1    0    0    0  501 -0.00000000000E+00  0.00000000000E+00  0.15458584660E+02  0.15510665353E+02  0.12700000000E+01 0.  1.
          4   -1    0    0  501    0  0.00000000000E+00 -0.00000000000E+00 -0.25219423959E+03  0.25219743730E+03  0.12700000000E+01 0.  1.
         25    2    1    2    0    0  0.00000000000E+00  0.00000000000E+00 -0.23673565493E+03  0.26770810265E+03  0.12499543157E+03 0.  0.
    9000005    1    3    3    0    0  0.56128266786E+02 -0.11765757157E+02 -0.65204728784E+02  0.86841649165E+02  0.10000000000E+01 0.  0.
    9000005    1    3    3    0    0 -0.56128266786E+02  0.11765757157E+02 -0.17153092614E+03  0.18086645349E+03  0.10000000000E+01 0.  0.
<mgrwt>
<rscale>  0 0.12499543E+03</rscale>
<asrwt>0</asrwt>
<pdfrwt beam="2">  1        4 0.38803363E-01 0.12499543E+03</pdfrwt>
<pdfrwt beam="1">  1       -4 0.23824962E-02 0.12499543E+03</pdfrwt>
<totfact> 0.79844478E+03</totfact>
</mgrwt>
</event>
<event>
 5    1  0.3309219E-002  0.1250051E+03  0.7818608E-02  0.1235061E+00
         -4   -1    0    0    0  501 -0.00000000000E+00  0.00000000000E+00  0.30367493871E+03  0.30367759433E+03  0.12700000000E+01 0.  1.
          4   -1    0    0  501    0  0.00000000000E+00 -0.00000000000E+00 -0.12830242376E+02  0.12892944560E+02  0.12700000000E+01 0.  1.
         25    2    1    2    0    0  0.00000000000E+00  0.00000000000E+00  0.29084469633E+03  0.31657053889E+03  0.12500507474E+03 0.  0.
    9000005    1    3    3    0    0 -0.56834706712E+02 -0.40159701159E+01  0.80398950643E+02  0.98545944450E+02  0.10000000000E+01 0.  0.
    9000005    1    3    3    0    0  0.56834706712E+02  0.40159701159E+01  0.21044574569E+03  0.21802459444E+03  0.10000000000E+01 0.  0.
<mgrwt>
<rscale>  0 0.12500507E+03</rscale>
<asrwt>0</asrwt>
<pdfrwt beam="2">  1        4 0.19789110E-02 0.12500507E+03</pdfrwt>
<pdfrwt beam="1">  1       -4 0.46724249E-01 0.12500507E+03</pdfrwt>
<totfact> 0.73557600E+03</totfact>
</mgrwt>
</event>
<event>
 5    1  0.3309219E-002  0.1250020E+03  0.7818608E-02  0.1235066E+00
         -4   -1    0    0    0  501 -0.00000000000E+00  0.00000000000E+00  0.14202153573E+03  0.14202721398E+03  0.12700000000E+01 0. -1.
          4   -1    0    0  501    0  0.00000000000E+00 -0.00000000000E+00 -0.27484637715E+02  0.27513963915E+02  0.12700000000E+01 0. -1.
         25    2    1    2    0    0  0.00000000000E+00  0.00000000000E+00  0.11453689801E+03  0.16954117789E+03  0.12500203996E+03 0.  0.
    9000005    1    3    3    0    0 -0.29863397389E+01 -0.44081056929E+02 -0.26754185399E+01  0.44274322912E+02  0.10000000000E+01 0.  0.
    9000005    1    3    3    0    0  0.29863397389E+01  0.44081056929E+02  0.11721231655E+03  0.12526685498E+03  0.10000000000E+01 0.  0.
<mgrwt>
<rscale>  0 0.12500204E+03</rscale>
<asrwt>0</asrwt>
<pdfrwt beam="2">  1        4 0.42310984E-02 0.12500204E+03</pdfrwt>
<pdfrwt beam="1">  1       -4 0.21852160E-01 0.12500204E+03</pdfrwt>
<totfact> 0.95529834E+03</totfact>
</mgrwt>
</event>
<event>
 5    1  0.3309219E-002  0.1250012E+03  0.7818608E-02  0.1235067E+00
         -4   -1    0    0    0  501 -0.00000000000E+00  0.00000000000E+00  0.11206586083E+02  0.11278318653E+02  0.12700000000E+01 0. -1.
          4   -1    0    0  501    0  0.00000000000E+00 -0.00000000000E+00 -0.34738891954E+03  0.34739124100E+03  0.12700000000E+01 0. -1.
         25    2    1    2    0    0  0.00000000000E+00  0.00000000000E+00 -0.33618233346E+03  0.35866955965E+03  0.12500116675E+03 0.  0.
    9000005    1    3    3    0    0 -0.30592250502E+02  0.88247473471E+01 -0.32238431106E+03  0.32395432699E+03  0.10000000000E+01 0.  0.
    9000005    1    3    3    0    0  0.30592250502E+02 -0.88247473471E+01 -0.13798022396E+02  0.34715232659E+02  0.10000000000E+01 0.  0.
<mgrwt>
<rscale>  0 0.12500117E+03</rscale>
<asrwt>0</asrwt>
<pdfrwt beam="2">  1        4 0.53450137E-01 0.12500117E+03</pdfrwt>
<pdfrwt beam="1">  1       -4 0.17297869E-02 0.12500117E+03</pdfrwt>
<totfact> 0.68779440E+03</totfact>
</mgrwt>
</event>
<event>
 5    1  0.3309219E-002  0.1250000E+03  0.7818608E-02  0.1235069E+00
         -4   -1    0    0    0  501 -0.00000000000E+00  0.00000000000E+00  0.10938571221E+02  0.11012049780E+02  0.12700000000E+01 0.  1.
          4   -1    0    0  501    0  0.00000000000E+00 -0.00000000000E+00 -0.35583809795E+03  0.35584036428E+03  0.12700000000E+01 0.  1.
         25    2    1    2    0    0  0.00000000000E+00  0.00000000000E+00 -0.34489952672E+03  0.36685241406E+03  0.12500004066E+03 0.  0.
    9000005    1    3    3    0    0 -0.21202228369E+02  0.55073217753E+02 -0.23278571320E+03  0.24015158145E+03  0.10000000000E+01 0.  0.
    9000005    1    3    3    0    0  0.21202228369E+02 -0.55073217753E+02 -0.11211381352E+03  0.12670083261E+03  0.10000000000E+01 0.  0.
<mgrwt>
<rscale>  0 0.12500004E+03</rscale>
<asrwt>0</asrwt>
<pdfrwt beam="2">  1        4 0.54750140E-01 0.12500004E+03</pdfrwt>
<pdfrwt beam="1">  1       -4 0.16886839E-02 0.12500004E+03</pdfrwt>
<totfact> 0.67909467E+03</totfact>
</mgrwt>
</event>
<event>
 5    1  0.3309219E-002  0.1249981E+03  0.7818608E-02  0.1235072E+00
          4   -1    0    0  501    0  0.00000000000E+00  0.00000000000E+00  0.25751261654E+01  0.28712671014E+01  0.12700000000E+01 0. -1.
         -4   -1    0    0    0  501 -0.00000000000E+00 -0.00000000000E+00 -0.14340955544E+04  0.14340961167E+04  0.12700000000E+01 0. -1.
         25    2    1    2    0    0  0.00000000000E+00  0.00000000000E+00 -0.14315204282E+04  0.14369673838E+04  0.12499810307E+03 0.  0.
    9000005    1    3    3    0    0 -0.62404569829E+02 -0.31883066749E+01 -0.70659365207E+03  0.70935187656E+03  0.10000000000E+01 0.  0.
    9000005    1    3    3    0    0  0.62404569829E+02  0.31883066749E+01 -0.72492677613E+03  0.72761550725E+03  0.10000000000E+01 0.  0.
<mgrwt>
<rscale>  0 0.12499810E+03</rscale>
<asrwt>0</asrwt>
<pdfrwt beam="1">  1        4 0.41899773E-03 0.12499810E+03</pdfrwt>
<pdfrwt beam="2">  1       -4 0.22065231E+00 0.12499810E+03</pdfrwt>
<totfact> 0.19202141E+03</totfact>
</mgrwt>
</event>
<event>
 5    1  0.3309219E-002  0.1249953E+03  0.7818608E-02  0.1235077E+00
          4   -1    0    0  501    0  0.00000000000E+00  0.00000000000E+00  0.25325528493E+02  0.25357351862E+02  0.12700000000E+01 0.  1.
         -4   -1    0    0    0  501 -0.00000000000E+00 -0.00000000000E+00 -0.15409865040E+03  0.15410388365E+03  0.12700000000E+01 0.  1.
         25    2    1    2    0    0  0.00000000000E+00  0.00000000000E+00 -0.12877312190E+03  0.17946123551E+03  0.12499527241E+03 0.  0.
    9000005    1    3    3    0    0  0.33958782217E+02  0.50396197856E+02 -0.85290270669E+02  0.10473015764E+03  0.10000000000E+01 0.  0.
    9000005    1    3    3    0    0 -0.33958782217E+02 -0.50396197856E+02 -0.43482851236E+02  0.74731077870E+02  0.10000000000E+01 0.  0.
<mgrwt>
<rscale>  0 0.12499527E+03</rscale>
<asrwt>0</asrwt>
<pdfrwt beam="1">  1        4 0.38990858E-02 0.12499527E+03</pdfrwt>
<pdfrwt beam="2">  1       -4 0.23710335E-01 0.12499527E+03</pdfrwt>
<totfact> 0.93724008E+03</totfact>
</mgrwt>
</event>
<event>
 5    1  0.3309219E-002  0.1249973E+03  0.7818608E-02  0.1235074E+00
          4   -1    0    0  501    0  0.00000000000E+00  0.00000000000E+00  0.20449158407E+02  0.20488557284E+02  0.12700000000E+01 0. -1.
         -4   -1    0    0    0  501 -0.00000000000E+00 -0.00000000000E+00 -0.19078886962E+03  0.19079309650E+03  0.12700000000E+01 0. -1.
         25    2    1    2    0    0  0.00000000000E+00  0.00000000000E+00 -0.17033971122E+03  0.21128165378E+03  0.12499728000E+03 0.  0.
    9000005    1    3    3    0    0 -0.39545384174E+02  0.15466568173E+02 -0.16266606479E+03  0.16811990000E+03  0.10000000000E+01 0.  0.
    9000005    1    3    3    0    0  0.39545384174E+02 -0.15466568173E+02 -0.76736464265E+01  0.43161753788E+02  0.10000000000E+01 0.  0.
<mgrwt>
<rscale>  0 0.12499728E+03</rscale>
<asrwt>0</asrwt>
<pdfrwt beam="1">  1        4 0.31493803E-02 0.12499728E+03</pdfrwt>
<pdfrwt beam="2">  1       -4 0.29355488E-01 0.12499728E+03</pdfrwt>
<totfact> 0.88272365E+03</totfact>
</mgrwt>
</event>
<event>
 5    1  0.3309219E-002  0.1249992E+03  0.7818608E-02  0.1235071E+00
          4   -1    0    0  501    0  0.00000000000E+00  0.00000000000E+00  0.90153973276E+02  0.90162918084E+02  0.12700000000E+01 0. -1.
         -4   -1    0    0    0  501 -0.00000000000E+00 -0.00000000000E+00 -0.43307677093E+02  0.43326294501E+02  0.12700000000E+01 0. -1.
         25    2    1    2    0    0  0.00000000000E+00  0.00000000000E+00  0.46846296183E+02  0.13348921258E+03  0.12499917764E+03 0.  0.
    9000005    1    3    3    0    0 -0.62334903274E+02  0.41203747062E+01  0.25138798113E+02  0.67346691266E+02  0.10000000000E+01 0.  0.
    9000005    1    3    3    0    0  0.62334903274E+02 -0.41203747062E+01  0.21707498070E+02  0.66142521319E+02  0.10000000000E+01 0.  0.
<mgrwt>
<rscale>  0 0.12499918E+03</rscale>
<asrwt>0</asrwt>
<pdfrwt beam="1">  1        4 0.13871962E-01 0.12499918E+03</pdfrwt>
<pdfrwt beam="2">  1       -4 0.66648398E-02 0.12499918E+03</pdfrwt>
<totfact> 0.10270204E+04</totfact>
</mgrwt>
</event>
<event>
 5    1  0.3309219E-002  0.1250011E+03  0.7818608E-02  0.1235068E+00
         -4   -1    0    0    0  501 -0.00000000000E+00  0.00000000000E+00  0.41870334432E+01  0.43754027305E+01  0.12700000000E+01 0. -1.
          4   -1    0    0  501    0  0.00000000000E+00 -0.00000000000E+00 -0.91224301078E+03  0.91224389481E+03  0.12700000000E+01 0. -1.
         25    2    1    2    0    0  0.00000000000E+00  0.00000000000E+00 -0.90805597733E+03  0.91661929754E+03  0.12500111458E+03 0.  0.
    9000005    1    3    3    0    0  0.26834191876E+02 -0.70827607078E+00 -0.40207122675E+02  0.48354815918E+02  0.10000000000E+01 0.  0.
    9000005    1    3    3    0    0 -0.26834191876E+02  0.70827607078E+00 -0.86784885466E+03  0.86826448162E+03  0.10000000000E+01 0.  0.
<mgrwt>
<rscale>  0 0.12500111E+03</rscale>
<asrwt>0</asrwt>
<pdfrwt beam="2">  1        4 0.14035948E+00 0.12500111E+03</pdfrwt>
<pdfrwt beam="1">  1       -4 0.65871767E-03 0.12500111E+03</pdfrwt>
<totfact> 0.33530716E+03</totfact>
</mgrwt>
</event>
<event>
 5    1  0.3309219E-002  0.1250000E+03  0.7818608E-02  0.1235069E+00
         -4   -1    0    0    0  501 -0.00000000000E+00  0.00000000000E+00  0.10335078500E+02  0.10412816507E+02  0.12700000000E+01 0. -1.
          4   -1    0    0  501    0  0.00000000000E+00 -0.00000000000E+00 -0.37646510974E+03  0.37646725189E+03  0.12700000000E+01 0. -1.
         25    2    1    2    0    0  0.00000000000E+00  0.00000000000E+00 -0.36613003124E+03  0.38688006840E+03  0.12499995021E+03 0.  0.
    9000005    1    3    3    0    0 -0.37867113069E+00  0.52688789573E+02 -0.28706002910E+03  0.29185734914E+03  0.10000000000E+01 0.  0.
    9000005    1    3    3    0    0  0.37867113069E+00 -0.52688789573E+02 -0.79070002136E+02  0.95022719263E+02  0.10000000000E+01 0.  0.
<mgrwt>
<rscale>  0 0.12499995E+03</rscale>
<asrwt>0</asrwt>
<pdfrwt beam="2">  1        4 0.57923843E-01 0.12499995E+03</pdfrwt>
<pdfrwt beam="1">  1       -4 0.15961570E-02 0.12499995E+03</pdfrwt>
<totfact> 0.65849215E+03</totfact>
</mgrwt>
</event>
<event>
 5    1  0.3309219E-002  0.1250003E+03  0.7818608E-02  0.1235069E+00
          4   -1    0    0  501    0  0.00000000000E+00  0.00000000000E+00  0.23060004762E+02  0.23094950089E+02  0.12700000000E+01 0.  1.
         -4   -1    0    0    0  501 -0.00000000000E+00 -0.00000000000E+00 -0.16923030023E+03  0.16923506556E+03  0.12700000000E+01 0.  1.
         25    2    1    2    0    0  0.00000000000E+00  0.00000000000E+00 -0.14617029547E+03  0.19233001565E+03  0.12500031857E+03 0.  0.
    9000005    1    3    3    0    0 -0.59281523884E+02 -0.73997545513E+01 -0.10129781501E+03  0.11760655920E+03  0.10000000000E+01 0.  0.
    9000005    1    3    3    0    0  0.59281523884E+02  0.73997545513E+01 -0.44872480460E+02  0.74723456451E+02  0.10000000000E+01 0.  0.
<mgrwt>
<rscale>  0 0.12500032E+03</rscale>
<asrwt>0</asrwt>
<pdfrwt beam="1">  1        4 0.35507478E-02 0.12500032E+03</pdfrwt>
<pdfrwt beam="2">  1       -4 0.26038485E-01 0.12500032E+03</pdfrwt>
<totfact> 0.91442821E+03</totfact>
</mgrwt>
</event>
<event>
 5    1  0.3309219E-002  0.1250033E+03  0.7818608E-02  0.1235064E+00
          4   -1    0    0  501    0  0.00000000000E+00  0.00000000000E+00  0.32511876909E+02  0.32536672235E+02  0.12700000000E+01 0.  1.
         -4   -1    0    0    0  501 -0.00000000000E+00 -0.00000000000E+00 -0.12008075135E+03  0.12008746706E+03  0.12700000000E+01 0.  1.
         25    2    1    2    0    0  0.00000000000E+00  0.00000000000E+00 -0.87568874442E+02  0.15262413930E+03  0.12500328046E+03 0.  0.
    9000005    1    3    3    0    0 -0.10691990430E+02  0.59336674168E+02 -0.63857849364E+02  0.87829291732E+02  0.10000000000E+01 0.  0.
    9000005    1    3    3    0    0  0.10691990430E+02 -0.59336674168E+02 -0.23711025078E+02  0.64794847564E+02  0.10000000000E+01 0.  0.
<mgrwt>
<rscale>  0 0.12500328E+03</rscale>
<asrwt>0</asrwt>
<pdfrwt beam="1">  1        4 0.50042512E-02 0.12500328E+03</pdfrwt>
<pdfrwt beam="2">  1       -4 0.18476385E-01 0.12500328E+03</pdfrwt>
<totfact> 0.98775874E+03</totfact>
</mgrwt>
</event>
<event>
 5    1  0.3309219E-002  0.1250026E+03  0.7818608E-02  0.1235065E+00
         -4   -1    0    0    0  501 -0.00000000000E+00  0.00000000000E+00  0.84801958014E+03  0.84802053112E+03  0.12700000000E+01 0.  1.
          4   -1    0    0  501    0  0.00000000000E+00 -0.00000000000E+00 -0.45180067022E+01  0.46931103291E+01  0.12700000000E+01 0.  1.
         25    2    1    2    0    0  0.00000000000E+00  0.00000000000E+00  0.84350157344E+03  0.85271364145E+03  0.12500259966E+03 0.  0.
    9000005    1    3    3    0    0 -0.13410382749E+02 -0.23393406916E+00  0.53825610901E+01  0.14486719936E+02  0.10000000000E+01 0.  0.
    9000005    1    3    3    0    0  0.13410382749E+02  0.23393406916E+00  0.83811901235E+03  0.83822692151E+03  0.10000000000E+01 0.  0.
<mgrwt>
<rscale>  0 0.12500260E+03</rscale>
<asrwt>0</asrwt>
<pdfrwt beam="2">  1        4 0.70862102E-03 0.12500260E+03</pdfrwt>
<pdfrwt beam="1">  1       -4 0.13047802E+00 0.12500260E+03</pdfrwt>
<totfact> 0.36014508E+03</totfact>
</mgrwt>
</event>
<event>
 5    1  0.3309219E-002  0.1249910E+03  0.7818608E-02  0.1235083E+00
          4   -1    0    0  501    0  0.00000000000E+00  0.00000000000E+00  0.11162256494E+03  0.11162978950E+03  0.12700000000E+01 0.  1.
         -4   -1    0    0    0  501 -0.00000000000E+00 -0.00000000000E+00 -0.34970257137E+02  0.34993310564E+02  0.12700000000E+01 0.  1.
         25    2    1    2    0    0  0.00000000000E+00  0.00000000000E+00  0.76652307804E+02  0.14662310006E+03  0.12499102840E+03 0.  0.
    9000005    1    3    3    0    0 -0.30275431278E+02 -0.42352973215E+02  0.78866054107E+02  0.94505188057E+02  0.10000000000E+01 0.  0.
    9000005    1    3    3    0    0  0.30275431278E+02  0.42352973215E+02 -0.22137463033E+01  0.52117912007E+02  0.10000000000E+01 0.  0.
<mgrwt>
<rscale>  0 0.12499103E+03</rscale>
<asrwt>0</asrwt>
<pdfrwt beam="1">  1        4 0.17175032E-01 0.12499103E+03</pdfrwt>
<pdfrwt beam="2">  1       -4 0.53823686E-02 0.12499103E+03</pdfrwt>
<totfact> 0.10000134E+04</totfact>
</mgrwt>
</event>
<event>
 5    1  0.3309219E-002  0.1249957E+03  0.7818608E-02  0.1235076E+00
          4   -1    0    0  501    0  0.00000000000E+00  0.00000000000E+00  0.85319200340E+02  0.85328651968E+02  0.12700000000E+01 0.  1.
         -4   -1    0    0    0  501 -0.00000000000E+00 -0.00000000000E+00 -0.45760037180E+02  0.45777657243E+02  0.12700000000E+01 0.  1.
         25    2    1    2    0    0  0.00000000000E+00  0.00000000000E+00  0.39559163160E+02  0.13110630921E+03  0.12499574763E+03 0.  0.
    9000005    1    3    3    0    0  0.37656377525E+02 -0.14875111877E+02  0.69706039355E+02  0.80617638543E+02  0.10000000000E+01 0.  0.
    9000005    1    3    3    0    0 -0.37656377525E+02  0.14875111877E+02 -0.30146876194E+02  0.50488670669E+02  0.10000000000E+01 0.  0.
<mgrwt>
<rscale>  0 0.12499575E+03</rscale>
<asrwt>0</asrwt>
<pdfrwt beam="1">  1        4 0.13128113E-01 0.12499575E+03</pdfrwt>
<pdfrwt beam="2">  1       -4 0.70420882E-02 0.12499575E+03</pdfrwt>
<totfact> 0.10321801E+04</totfact>
</mgrwt>
</event>
<event>
 5    1  0.3309219E-002  0.1249985E+03  0.7818608E-02  0.1235072E+00
          4   -1    0    0  501    0  0.00000000000E+00  0.00000000000E+00  0.91261432531E+03  0.91261520898E+03  0.12700000000E+01 0.  1.
         -4   -1    0    0    0  501 -0.00000000000E+00 -0.00000000000E+00 -0.41850671087E+01  0.43735210877E+01  0.12700000000E+01 0.  1.
         25    2    1    2    0    0  0.00000000000E+00  0.00000000000E+00  0.90842925820E+03  0.91698873006E+03  0.12499845565E+03 0.  0.
    9000005    1    3    3    0    0  0.27512419489E+02 -0.30583499557E+01  0.86521838484E+03  0.86566167767E+03  0.10000000000E+01 0.  0.
    9000005    1    3    3    0    0 -0.27512419489E+02  0.30583499557E+01  0.43210873359E+02  0.51327052390E+02  0.10000000000E+01 0.  0.
<mgrwt>
<rscale>  0 0.12499846E+03</rscale>
<asrwt>0</asrwt>
<pdfrwt beam="1">  1        4 0.14041674E+00 0.12499846E+03</pdfrwt>
<pdfrwt beam="2">  1       -4 0.65842104E-03 0.12499846E+03</pdfrwt>
<totfact> 0.33518841E+03</totfact>
</mgrwt>
</event>
<event>
 5    1  0.3309219E-002  0.1249952E+03  0.7818608E-02  0.1235077E+00
          4   -1    0    0  501    0  0.00000000000E+00  0.00000000000E+00  0.40637951356E+03  0.40638149803E+03  0.12700000000E+01 0. -1.
         -4   -1    0    0    0  501 -0.00000000000E+00 -0.00000000000E+00 -0.95676161381E+01  0.96515376271E+01  0.12700000000E+01 0. -1.
         25    2    1    2    0    0  0.00000000000E+00  0.00000000000E+00  0.39681189742E+03  0.41603303566E+03  0.12499521920E+03 0.  0.
    9000005    1    3    3    0    0  0.36930802203E+02 -0.68164295712E+01  0.32166088442E+02  0.49457103727E+02  0.10000000000E+01 0.  0.
    9000005    1    3    3    0    0 -0.36930802203E+02  0.68164295712E+01  0.36464580898E+03  0.36657593193E+03  0.10000000000E+01 0.  0.
<mgrwt>
<rscale>  0 0.12499522E+03</rscale>
<asrwt>0</asrwt>
<pdfrwt beam="1">  1        4 0.62526539E-01 0.12499522E+03</pdfrwt>
<pdfrwt beam="2">  1       -4 0.14785490E-02 0.12499522E+03</pdfrwt>
<totfact> 0.63029387E+03</totfact>
</mgrwt>
</event>
<event>
 5    1  0.3309219E-002  0.1249997E+03  0.7818608E-02  0.1235070E+00
          4   -1    0    0  501    0  0.00000000000E+00  0.00000000000E+00  0.16293982023E+03  0.16294476952E+03  0.12700000000E+01 0.  1.
         -4   -1    0    0    0  501 -0.00000000000E+00 -0.00000000000E+00 -0.23951307651E+02  0.23984954413E+02  0.12700000000E+01 0.  1.
         25    2    1    2    0    0  0.00000000000E+00  0.00000000000E+00  0.13898851257E+03  0.18692972394E+03  0.12499966025E+03 0.  0.
    9000005    1    3    3    0    0  0.49919571600E+02  0.32964007740E+02  0.42466887310E+02  0.73369107618E+02  0.10000000000E+01 0.  0.
    9000005    1    3    3    0    0 -0.49919571600E+02 -0.32964007740E+02  0.96521625264E+02  0.11356061632E+03  0.10000000000E+01 0.  0.
<mgrwt>
<rscale>  0 0.12499966E+03</rscale>
<asrwt>0</asrwt>
<pdfrwt beam="1">  1        4 0.25070633E-01 0.12499966E+03</pdfrwt>
<pdfrwt beam="2">  1       -4 0.36877856E-02 0.12499966E+03</pdfrwt>
<totfact> 0.92384997E+03</totfact>
</mgrwt>
</event>
<event>
 5    1  0.3309219E-002  0.1250005E+03  0.7818608E-02  0.1235068E+00
         -4   -1    0    0    0  501 -0.00000000000E+00  0.00000000000E+00  0.24300721202E+02  0.24333884831E+02  0.12700000000E+01 0.  1.
          4   -1    0    0  501    0  0.00000000000E+00 -0.00000000000E+00 -0.16060227037E+03  0.16060729170E+03  0.12700000000E+01 0.  1.
         25    2    1    2    0    0  0.00000000000E+00  0.00000000000E+00 -0.13630154916E+03  0.18494117653E+03  0.12500050589E+03 0.  0.
    9000005    1    3    3    0    0 -0.29676092016E+02  0.22047007145E+02  0.63934338035E+01  0.37531546160E+02  0.10000000000E+01 0.  0.
    9000005    1    3    3    0    0  0.29676092016E+02 -0.22047007145E+02 -0.14269498297E+03  0.14740963037E+03  0.10000000000E+01 0.  0.
<mgrwt>
<rscale>  0 0.12500051E+03</rscale>
<asrwt>0</asrwt>
<pdfrwt beam="2">  1        4 0.24710978E-01 0.12500051E+03</pdfrwt>
<pdfrwt beam="1">  1       -4 0.37415099E-02 0.12500051E+03</pdfrwt>
<totfact> 0.92734010E+03</totfact>
</mgrwt>
</event>
<event>
 5    1  0.3309219E-002  0.1250314E+03  0.7818608E-02  0.1235020E+00
         -4   -1    0    0    0  501 -0.00000000000E+00  0.00000000000E+00  0.17844552439E+02  0.17889688419E+02  0.12700000000E+01 0.  1.
          4   -1    0    0  501    0  0.00000000000E+00 -0.00000000000E+00 -0.21869070183E+03  0.21869438943E+03  0.12700000000E+01 0.  1.
         25    2    1    2    0    0  0.00000000000E+00  0.00000000000E+00 -0.20084614939E+03  0.23658407784E+03  0.12503139672E+03 0.  0.
    9000005    1    3    3    0    0  0.21151175288E+02 -0.42854399972E+02 -0.17666103577E+03  0.18301364259E+03  0.10000000000E+01 0.  0.
    9000005    1    3    3    0    0 -0.21151175288E+02  0.42854399972E+02 -0.24185113619E+02  0.53570435259E+02  0.10000000000E+01 0.  0.
<mgrwt>
<rscale>  0 0.12503140E+03</rscale>
<asrwt>0</asrwt>
<pdfrwt beam="2">  1        4 0.33648477E-01 0.12503140E+03</pdfrwt>
<pdfrwt beam="1">  1       -4 0.27490716E-02 0.12503140E+03</pdfrwt>
<totfact> 0.84249753E+03</totfact>
</mgrwt>
</event>
<event>
 5    1  0.3309219E-002  0.1250018E+03  0.7818608E-02  0.1235066E+00
          4   -1    0    0  501    0  0.00000000000E+00  0.00000000000E+00  0.42254571470E+02  0.42273652670E+02  0.12700000000E+01 0. -1.
         -4   -1    0    0    0  501 -0.00000000000E+00 -0.00000000000E+00 -0.92403987158E+02  0.92412714183E+02  0.12700000000E+01 0. -1.
         25    2    1    2    0    0  0.00000000000E+00  0.00000000000E+00 -0.50149415688E+02  0.13468636685E+03  0.12500181408E+03 0.  0.
    9000005    1    3    3    0    0  0.25310384562E+02  0.43802936072E+02  0.14456311773E+02  0.52624117335E+02  0.10000000000E+01 0.  0.
    9000005    1    3    3    0    0 -0.25310384562E+02 -0.43802936072E+02 -0.64605727461E+02  0.82062249518E+02  0.10000000000E+01 0.  0.
<mgrwt>
<rscale>  0 0.12500181E+03</rscale>
<asrwt>0</asrwt>
<pdfrwt beam="1">  1        4 0.65028424E-02 0.12500181E+03</pdfrwt>
<pdfrwt beam="2">  1       -4 0.14218137E-01 0.12500181E+03</pdfrwt>
<totfact> 0.10244267E+04</totfact>
</mgrwt>
</event>
<event>
 5    1  0.3309219E-002  0.1249928E+03  0.7818608E-02  0.1235081E+00
          4   -1    0    0  501    0  0.00000000000E+00  0.00000000000E+00  0.17272334146E+03  0.17272801043E+03  0.12700000000E+01 0.  1.
         -4   -1    0    0    0  501 -0.00000000000E+00 -0.00000000000E+00 -0.22590221542E+02  0.22625892453E+02  0.12700000000E+01 0.  1.
         25    2    1    2    0    0  0.00000000000E+00  0.00000000000E+00  0.15013311992E+03  0.19535390288E+03  0.12499277448E+03 0.  0.
    9000005    1    3    3    0    0 -0.47248004438E+02 -0.40805533626E+02  0.79298852429E+02  0.10092954718E+03  0.10000000000E+01 0.  0.
    9000005    1    3    3    0    0  0.47248004438E+02  0.40805533626E+02  0.70834267491E+02  0.94424355697E+02  0.10000000000E+01 0.  0.
<mgrwt>
<rscale>  0 0.12499277E+03</rscale>
<asrwt>0</asrwt>
<pdfrwt beam="1">  1        4 0.26575925E-01 0.12499277E+03</pdfrwt>
<pdfrwt beam="2">  1       -4 0.34785217E-02 0.12499277E+03</pdfrwt>
<totfact> 0.90938717E+03</totfact>
</mgrwt>
</event>
<event>
 5    1  0.3309219E-002  0.1250003E+03  0.7818608E-02  0.1235069E+00
          4   -1    0    0  501    0  0.00000000000E+00  0.00000000000E+00  0.17468395203E+02  0.17514500591E+02  0.12700000000E+01 0. -1.
         -4   -1    0    0    0  501 -0.00000000000E+00 -0.00000000000E+00 -0.22327659570E+03  0.22328020756E+03  0.12700000000E+01 0. -1.
         25    2    1    2    0    0  0.00000000000E+00  0.00000000000E+00 -0.20580820049E+03  0.24079470815E+03  0.12500030432E+03 0.  0.
    9000005    1    3    3    0    0 -0.51199293028E+02 -0.30613505719E+02 -0.13877332447E+03  0.15105492353E+03  0.10000000000E+01 0.  0.
    9000005    1    3    3    0    0  0.51199293028E+02  0.30613505719E+02 -0.67034876024E+02  0.89739784614E+02  0.10000000000E+01 0.  0.
<mgrwt>
<rscale>  0 0.12500030E+03</rscale>
<asrwt>0</asrwt>
<pdfrwt beam="1">  1        4 0.26912700E-02 0.12500030E+03</pdfrwt>
<pdfrwt beam="2">  1       -4 0.34354068E-01 0.12500030E+03</pdfrwt>
<totfact> 0.83678585E+03</totfact>
</mgrwt>
</event>
<event>
 5    1  0.3309219E-002  0.1249969E+03  0.7818608E-02  0.1235074E+00
          4   -1    0    0  501    0  0.00000000000E+00  0.00000000000E+00  0.28313620892E+03  0.28313905718E+03  0.12700000000E+01 0. -1.
         -4   -1    0    0    0  501 -0.00000000000E+00 -0.00000000000E+00 -0.13763533563E+02  0.13822002610E+02  0.12700000000E+01 0. -1.
         25    2    1    2    0    0  0.00000000000E+00  0.00000000000E+00  0.26937267536E+03  0.29696105979E+03  0.12499693118E+03 0.  0.
    9000005    1    3    3    0    0  0.38334683578E+02  0.30690171596E+02  0.22650283855E+03  0.23176706079E+03  0.10000000000E+01 0.  0.
    9000005    1    3    3    0    0 -0.38334683578E+02 -0.30690171596E+02  0.42869836810E+02  0.65193999001E+02  0.10000000000E+01 0.  0.
<mgrwt>
<rscale>  0 0.12499693E+03</rscale>
<asrwt>0</asrwt>
<pdfrwt beam="1">  1        4 0.43564125E-01 0.12499693E+03</pdfrwt>
<pdfrwt beam="2">  1       -4 0.21221838E-02 0.12499693E+03</pdfrwt>
<totfact> 0.75986808E+03</totfact>
</mgrwt>
</event>
<event>
 5    1  0.3309219E-002  0.1250006E+03  0.7818608E-02  0.1235068E+00
          4   -1    0    0  501    0  0.00000000000E+00  0.00000000000E+00  0.90195162836E+03  0.90195252248E+03  0.12700000000E+01 0.  1.
         -4   -1    0    0    0  501 -0.00000000000E+00 -0.00000000000E+00 -0.42369069772E+01  0.44231528047E+01  0.12700000000E+01 0.  1.
         25    2    1    2    0    0  0.00000000000E+00  0.00000000000E+00  0.89771472139E+03  0.90637567529E+03  0.12500057501E+03 0.  0.
    9000005    1    3    3    0    0  0.49335407588E+02 -0.12349553185E+02  0.18553703216E+03  0.19238369008E+03  0.10000000000E+01 0.  0.
    9000005    1    3    3    0    0 -0.49335407588E+02  0.12349553185E+02  0.71217768923E+03  0.71399198521E+03  0.10000000000E+01 0.  0.
<mgrwt>
<rscale>  0 0.12500058E+03</rscale>
<asrwt>0</asrwt>
<pdfrwt beam="1">  1        4 0.13877631E+00 0.12500058E+03</pdfrwt>
<pdfrwt beam="2">  1       -4 0.66622663E-03 0.12500058E+03</pdfrwt>
<totfact> 0.33916503E+03</totfact>
</mgrwt>
</event>
<event>
 5    1  0.3309219E-002  0.1249993E+03  0.7818608E-02  0.1235070E+00
          4   -1    0    0  501    0  0.00000000000E+00  0.00000000000E+00  0.98066361062E+02  0.98074584230E+02  0.12700000000E+01 0.  1.
         -4   -1    0    0    0  501 -0.00000000000E+00 -0.00000000000E+00 -0.39812257692E+02  0.39832508865E+02  0.12700000000E+01 0.  1.
         25    2    1    2    0    0  0.00000000000E+00  0.00000000000E+00  0.58254103370E+02  0.13790709310E+03  0.12499930306E+03 0.  0.
    9000005    1    3    3    0    0 -0.24714930740E+02  0.56958145062E+02  0.36939863113E+02  0.72253799742E+02  0.10000000000E+01 0.  0.
    9000005    1    3    3    0    0  0.24714930740E+02 -0.56958145062E+02  0.21314240257E+02  0.65653293353E+02  0.10000000000E+01 0.  0.
<mgrwt>
<rscale>  0 0.12499930E+03</rscale>
<asrwt>0</asrwt>
<pdfrwt beam="1">  1        4 0.15089323E-01 0.12499930E+03</pdfrwt>
<pdfrwt beam="2">  1       -4 0.61271531E-02 0.12499930E+03</pdfrwt>
<totfact> 0.10177308E+04</totfact>
</mgrwt>
</event>
<event>
 5    1  0.3309219E-002  0.1249986E+03  0.7818608E-02  0.1235072E+00
          4   -1    0    0  501    0  0.00000000000E+00  0.00000000000E+00  0.44545994512E+01  0.46321006326E+01  0.12700000000E+01 0. -1.
         -4   -1    0    0    0  501 -0.00000000000E+00 -0.00000000000E+00 -0.85957536448E+03  0.85957630267E+03  0.12700000000E+01 0. -1.
         25    2    1    2    0    0  0.00000000000E+00  0.00000000000E+00 -0.85512076502E+03  0.86420840330E+03  0.12499856625E+03 0.  0.
    9000005    1    3    3    0    0 -0.26805722338E+02 -0.39516452129E+02 -0.14885289157E+03  0.15632747700E+03  0.10000000000E+01 0.  0.
    9000005    1    3    3    0    0  0.26805722338E+02  0.39516452129E+02 -0.70626787346E+03  0.70788092630E+03  0.10000000000E+01 0.  0.
<mgrwt>
<rscale>  0 0.12499857E+03</rscale>
<asrwt>0</asrwt>
<pdfrwt beam="1">  1        4 0.69904978E-03 0.12499857E+03</pdfrwt>
<pdfrwt beam="2">  1       -4 0.13225596E+00 0.12499857E+03</pdfrwt>
<totfact> 0.35554001E+03</totfact>
</mgrwt>
</event>
<event>
 5    1  0.3309219E-002  0.1250054E+03  0.7818608E-02  0.1235061E+00
         -4   -1    0    0    0  501 -0.00000000000E+00  0.00000000000E+00  0.71932725685E+02  0.71943935981E+02  0.12700000000E+01 0.  1.
          4   -1    0    0  501    0  0.00000000000E+00 -0.00000000000E+00 -0.54286005963E+02  0.54300859509E+02  0.12700000000E+01 0.  1.
         25    2    1    2    0    0  0.00000000000E+00  0.00000000000E+00  0.17646719722E+02  0.12624479549E+03  0.12500536657E+03 0.  0.
    9000005    1    3    3    0    0  0.64259063883E+01  0.23935453982E+02  0.66762802389E+02  0.71221275003E+02  0.10000000000E+01 0.  0.
    9000005    1    3    3    0    0 -0.64259063883E+01 -0.23935453982E+02 -0.49116082667E+02  0.55023520487E+02  0.10000000000E+01 0.  0.
<mgrwt>
<rscale>  0 0.12500537E+03</rscale>
<asrwt>0</asrwt>
<pdfrwt beam="2">  1        4 0.83536981E-02 0.12500537E+03</pdfrwt>
<pdfrwt beam="1">  1       -4 0.11068578E-01 0.12500537E+03</pdfrwt>
<totfact> 0.10424337E+04</totfact>
</mgrwt>
</event>
<event>
 5    1  0.3309219E-002  0.1250017E+03  0.7818608E-02  0.1235067E+00
          4   -1    0    0  501    0  0.00000000000E+00  0.00000000000E+00  0.22202337228E+01  0.25577994026E+01  0.12700000000E+01 0. -1.
         -4   -1    0    0    0  501 -0.00000000000E+00 -0.00000000000E+00 -0.16347949223E+04  0.16347954156E+04  0.12700000000E+01 0. -1.
         25    2    1    2    0    0  0.00000000000E+00  0.00000000000E+00 -0.16325746886E+04  0.16373532150E+04  0.12500174762E+03 0.  0.
    9000005    1    3    3    0    0  0.94117306223E+01 -0.77173660099E+01 -0.13390683070E+02  0.18123156583E+02  0.10000000000E+01 0.  0.
    9000005    1    3    3    0    0 -0.94117306223E+01  0.77173660099E+01 -0.16191840055E+04  0.16192300584E+04  0.10000000000E+01 0.  0.
<mgrwt>
<rscale>  0 0.12500175E+03</rscale>
<asrwt>0</asrwt>
<pdfrwt beam="1">  1        4 0.36758026E-03 0.12500175E+03</pdfrwt>
<pdfrwt beam="2">  1       -4 0.25153202E+00 0.12500175E+03</pdfrwt>
<totfact> 0.15379877E+03</totfact>
</mgrwt>
</event>
<event>
 5    1  0.3309219E-002  0.1250040E+03  0.7818608E-02  0.1235063E+00
          4   -1    0    0  501    0  0.00000000000E+00  0.00000000000E+00  0.31630382308E+02  0.31655868097E+02  0.12700000000E+01 0. -1.
         -4   -1    0    0    0  501 -0.00000000000E+00 -0.00000000000E+00 -0.12342611982E+03  0.12343265352E+03  0.12700000000E+01 0. -1.
         25    2    1    2    0    0  0.00000000000E+00  0.00000000000E+00 -0.91795737512E+02  0.15508852161E+03  0.12500396838E+03 0.  0.
    9000005    1    3    3    0    0 -0.40047320159E+02  0.30401855904E+02  0.14811760961E+00  0.50289985416E+02  0.10000000000E+01 0.  0.
    9000005    1    3    3    0    0  0.40047320159E+02 -0.30401855904E+02 -0.91943855121E+02  0.10479853620E+03  0.10000000000E+01 0.  0.
<mgrwt>
<rscale>  0 0.12500397E+03</rscale>
<asrwt>0</asrwt>
<pdfrwt beam="1">  1        4 0.48686758E-02 0.12500397E+03</pdfrwt>
<pdfrwt beam="2">  1       -4 0.18991097E-01 0.12500397E+03</pdfrwt>
<totfact> 0.98289352E+03</totfact>
</mgrwt>
</event>
<event>
 5    1  0.3309219E-002  0.1250039E+03  0.7818608E-02  0.1235063E+00
         -4   -1    0    0    0  501 -0.00000000000E+00  0.00000000000E+00  0.25215127677E+02  0.25247090204E+02  0.12700000000E+01 0.  1.
          4   -1    0    0  501    0  0.00000000000E+00 -0.00000000000E+00 -0.15479384546E+03  0.15479905520E+03  0.12700000000E+01 0.  1.
         25    2    1    2    0    0  0.00000000000E+00  0.00000000000E+00 -0.12957871778E+03  0.18004614541E+03  0.12500388144E+03 0.  0.
    9000005    1    3    3    0    0  0.24466454919E+02 -0.48585335988E+02 -0.10909778185E+03  0.12191172337E+03  0.10000000000E+01 0.  0.
    9000005    1    3    3    0    0 -0.24466454919E+02  0.48585335988E+02 -0.20480935929E+02  0.58134422039E+02  0.10000000000E+01 0.  0.
<mgrwt>
<rscale>  0 0.12500388E+03</rscale>
<asrwt>0</asrwt>
<pdfrwt beam="2">  1        4 0.23817297E-01 0.12500388E+03</pdfrwt>
<pdfrwt beam="1">  1       -4 0.38821099E-02 0.12500388E+03</pdfrwt>
<totfact> 0.93600552E+03</totfact>
</mgrwt>
</event>
<event>
 5    1  0.3309219E-002  0.1250076E+03  0.7818608E-02  0.1235057E+00
         -4   -1    0    0    0  501 -0.00000000000E+00  0.00000000000E+00  0.38957728590E+03  0.38957935596E+03  0.12700000000E+01 0.  1.
          4   -1    0    0  501    0  0.00000000000E+00 -0.00000000000E+00 -0.99858021352E+01  0.10066237842E+02  0.12700000000E+01 0.  1.
         25    2    1    2    0    0  0.00000000000E+00  0.00000000000E+00  0.37959148377E+03  0.39964559380E+03  0.12500762416E+03 0.  0.
    9000005    1    3    3    0    0 -0.55394015765E+02 -0.28524524816E+02  0.20532032240E+03  0.21456835808E+03  0.10000000000E+01 0.  0.
    9000005    1    3    3    0    0  0.55394015765E+02  0.28524524816E+02  0.17427116137E+03  0.18507723572E+03  0.10000000000E+01 0.  0.
<mgrwt>
<rscale>  0 0.12500762E+03</rscale>
<asrwt>0</asrwt>
<pdfrwt beam="2">  1        4 0.15426240E-02 0.12500762E+03</pdfrwt>
<pdfrwt beam="1">  1       -4 0.59941308E-01 0.12500762E+03</pdfrwt>
<totfact> 0.64576404E+03</totfact>
</mgrwt>
</event>
<event>
 5    1  0.3309219E-002  0.1249391E+03  0.7818608E-02  0.1235164E+00
          4   -1    0    0  501    0  0.00000000000E+00  0.00000000000E+00  0.44140408377E+03  0.44140591077E+03  0.12700000000E+01 0.  1.
         -4   -1    0    0    0  501 -0.00000000000E+00 -0.00000000000E+00 -0.87935191753E+01  0.88847554545E+01  0.12700000000E+01 0.  1.
         25    2    1    2    0    0  0.00000000000E+00  0.00000000000E+00  0.43261056459E+03  0.45029066623E+03  0.12493911916E+03 0.  0.
    9000005    1    3    3    0    0 -0.55024693824E+02 -0.14306898179E+02  0.30952785172E+03  0.31470763457E+03  0.10000000000E+01 0.  0.
    9000005    1    3    3    0    0  0.55024693824E+02  0.14306898179E+02  0.12308271287E+03  0.13558303165E+03  0.10000000000E+01 0.  0.
<mgrwt>
<rscale>  0 0.12493912E+03</rscale>
<asrwt>0</asrwt>
<pdfrwt beam="1">  1        4 0.67915469E-01 0.12493912E+03</pdfrwt>
<pdfrwt beam="2">  1       -4 0.13600080E-02 0.12493912E+03</pdfrwt>
<totfact> 0.60019076E+03</totfact>
</mgrwt>
</event>
<event>
 5    1  0.3309219E-002  0.1249970E+03  0.7818608E-02  0.1235074E+00
         -4   -1    0    0    0  501 -0.00000000000E+00  0.00000000000E+00  0.10820160162E+03  0.10820905458E+03  0.12700000000E+01 0. -1.
          4   -1    0    0  501    0  0.00000000000E+00 -0.00000000000E+00 -0.36080002768E+02  0.36102347565E+02  0.12700000000E+01 0. -1.
         25    2    1    2    0    0  0.00000000000E+00  0.00000000000E+00  0.72121598848E+02  0.14431140214E+03  0.12499702303E+03 0.  0.
    9000005    1    3    3    0    0 -0.44401131456E+02  0.37791574641E+02  0.10105936045E+02  0.59184402774E+02  0.10000000000E+01 0.  0.
    9000005    1    3    3    0    0  0.44401131456E+02 -0.37791574641E+02  0.62015662803E+02  0.85126999367E+02  0.10000000000E+01 0.  0.
<mgrwt>
<rscale>  0 0.12499702E+03</rscale>
<asrwt>0</asrwt>
<pdfrwt beam="2">  1        4 0.55530618E-02 0.12499702E+03</pdfrwt>
<pdfrwt beam="1">  1       -4 0.16648692E-01 0.12499702E+03</pdfrwt>
<totfact> 0.10045671E+04</totfact>
</mgrwt>
</event>
<event>
 5    1  0.3309219E-002  0.1250078E+03  0.7818608E-02  0.1235057E+00
         -4   -1    0    0    0  501 -0.00000000000E+00  0.00000000000E+00  0.92053820445E+01  0.92925754549E+01  0.12700000000E+01 0.  1.
          4   -1    0    0  501    0  0.00000000000E+00 -0.00000000000E+00 -0.42230880906E+03  0.42231071868E+03  0.12700000000E+01 0.  1.
         25    2    1    2    0    0  0.00000000000E+00  0.00000000000E+00 -0.41310342702E+03  0.43160329414E+03  0.12500784813E+03 0.  0.
    9000005    1    3    3    0    0 -0.52384499778E+02  0.18121720406E+02 -0.30621246909E+03  0.31119063095E+03  0.10000000000E+01 0.  0.
    9000005    1    3    3    0    0  0.52384499778E+02 -0.18121720406E+02 -0.10689095793E+03  0.12041266318E+03  0.10000000000E+01 0.  0.
<mgrwt>
<rscale>  0 0.12500785E+03</rscale>
<asrwt>0</asrwt>
<pdfrwt beam="2">  1        4 0.64977425E-01 0.12500785E+03</pdfrwt>
<pdfrwt beam="1">  1       -4 0.14230670E-02 0.12500785E+03</pdfrwt>
<totfact> 0.61580282E+03</totfact>
</mgrwt>
</event>
<event>
 5    1  0.3309219E-002  0.1250021E+03  0.7818608E-02  0.1235066E+00
         -4   -1    0    0    0  501 -0.00000000000E+00  0.00000000000E+00  0.29929378411E+03  0.29929647860E+03  0.12700000000E+01 0. -1.
          4   -1    0    0  501    0  0.00000000000E+00 -0.00000000000E+00 -0.13018339793E+02  0.13080140327E+02  0.12700000000E+01 0. -1.
         25    2    1    2    0    0  0.00000000000E+00  0.00000000000E+00  0.28627544431E+03  0.31237661893E+03  0.12500208813E+03 0.  0.
    9000005    1    3    3    0    0  0.10702049157E+02 -0.29875466696E+02  0.27767206322E+03  0.27948139842E+03  0.10000000000E+01 0.  0.
    9000005    1    3    3    0    0 -0.10702049157E+02  0.29875466696E+02  0.86033810901E+01  0.32895220514E+02  0.10000000000E+01 0.  0.
<mgrwt>
<rscale>  0 0.12500209E+03</rscale>
<asrwt>0</asrwt>
<pdfrwt beam="2">  1        4 0.20077827E-02 0.12500209E+03</pdfrwt>
<pdfrwt beam="1">  1       -4 0.46050158E-01 0.12500209E+03</pdfrwt>
<totfact> 0.74068663E+03</totfact>
</mgrwt>
</event>
<event>
 5    1  0.3309219E-002  0.1250079E+03  0.7818608E-02  0.1235057E+00
         -4   -1    0    0    0  501 -0.00000000000E+00  0.00000000000E+00  0.17218419771E+03  0.17218888129E+03  0.12700000000E+01 0.  1.
          4   -1    0    0  501    0  0.00000000000E+00 -0.00000000000E+00 -0.22666555869E+02  0.22702106840E+02  0.12700000000E+01 0.  1.
         25    2    1    2    0    0  0.00000000000E+00  0.00000000000E+00  0.14951764184E+03  0.19489098813E+03  0.12500788789E+03 0.  0.
    9000005    1    3    3    0    0  0.39091975450E+02 -0.37768833858E+02  0.26679107304E+02  0.60559409856E+02  0.10000000000E+01 0.  0.
    9000005    1    3    3    0    0 -0.39091975450E+02  0.37768833858E+02  0.12283853454E+03  0.13433157828E+03  0.10000000000E+01 0.  0.
<mgrwt>
<rscale>  0 0.12500789E+03</rscale>
<asrwt>0</asrwt>
<pdfrwt beam="2">  1        4 0.34902574E-02 0.12500789E+03</pdfrwt>
<pdfrwt beam="1">  1       -4 0.26492972E-01 0.12500789E+03</pdfrwt>
<totfact> 0.90987124E+03</totfact>
</mgrwt>
</event>
<event>
 5    1  0.3309219E-002  0.1249989E+03  0.7818608E-02  0.1235071E+00
          4   -1    0    0  501    0  0.00000000000E+00  0.00000000000E+00  0.11443601234E+04  0.11443608281E+04  0.12700000000E+01 0.  1.
         -4   -1    0    0    0  501 -0.00000000000E+00 -0.00000000000E+00 -0.32945583007E+01  0.35308659556E+01  0.12700000000E+01 0.  1.
         25    2    1    2    0    0  0.00000000000E+00  0.00000000000E+00  0.11410655651E+04  0.11478916940E+04  0.12499886985E+03 0.  0.
    9000005    1    3    3    0    0  0.56725947585E+02  0.25699134205E+02  0.52290318377E+03  0.52659948559E+03  0.10000000000E+01 0.  0.
    9000005    1    3    3    0    0 -0.56725947585E+02 -0.25699134205E+02  0.61816238129E+03  0.62129220844E+03  0.10000000000E+01 0.  0.
<mgrwt>
<rscale>  0 0.12499887E+03</rscale>
<asrwt>0</asrwt>
<pdfrwt beam="1">  1        4 0.17607333E+00 0.12499887E+03</pdfrwt>
<pdfrwt beam="2">  1       -4 0.52508775E-03 0.12499887E+03</pdfrwt>
<totfact> 0.26119500E+03</totfact>
</mgrwt>
</event>
<event>
 5    1  0.3309219E-002  0.1249993E+03  0.7818608E-02  0.1235070E+00
          4   -1    0    0  501    0  0.00000000000E+00  0.00000000000E+00  0.11435924304E+03  0.11436629472E+03  0.12700000000E+01 0.  1.
         -4   -1    0    0    0  501 -0.00000000000E+00 -0.00000000000E+00 -0.34137420563E+02  0.34161036031E+02  0.12700000000E+01 0.  1.
         25    2    1    2    0    0  0.00000000000E+00  0.00000000000E+00  0.80221822479E+02  0.14852733076E+03  0.12499930872E+03 0.  0.
    9000005    1    3    3    0    0  0.37495853010E+02 -0.12886519812E+02  0.97506068780E+02  0.10526364441E+03  0.10000000000E+01 0.  0.
    9000005    1    3    3    0    0 -0.37495853010E+02  0.12886519812E+02 -0.17284246301E+02  0.43263686344E+02  0.10000000000E+01 0.  0.
<mgrwt>
<rscale>  0 0.12499931E+03</rscale>
<asrwt>0</asrwt>
<pdfrwt beam="1">  1        4 0.17596089E-01 0.12499931E+03</pdfrwt>
<pdfrwt beam="2">  1       -4 0.52542698E-02 0.12499931E+03</pdfrwt>
<totfact> 0.99599616E+03</totfact>
</mgrwt>
</event>
<event>
 5    1  0.3309219E-002  0.1250234E+03  0.7818608E-02  0.1235033E+00
         -4   -1    0    0    0  501 -0.00000000000E+00  0.00000000000E+00  0.11566773617E+03  0.11567470809E+03  0.12700000000E+01 0.  1.
          4   -1    0    0  501    0  0.00000000000E+00 -0.00000000000E+00 -0.33764024289E+02  0.33787900737E+02  0.12700000000E+01 0.  1.
         25    2    1    2    0    0  0.00000000000E+00  0.00000000000E+00  0.81903711884E+02  0.14946260882E+03  0.12502341147E+03 0.  0.
    9000005    1    3    3    0    0 -0.39108809519E+02  0.45739183962E+02  0.61138836710E+02  0.85793527062E+02  0.10000000000E+01 0.  0.
    9000005    1    3    3    0    0  0.39108809519E+02 -0.45739183962E+02  0.20764875174E+02  0.63669081763E+02  0.10000000000E+01 0.  0.
<mgrwt>
<rscale>  0 0.12502341E+03</rscale>
<asrwt>0</asrwt>
<pdfrwt beam="2">  1        4 0.51968383E-02 0.12502341E+03</pdfrwt>
<pdfrwt beam="1">  1       -4 0.17797409E-01 0.12502341E+03</pdfrwt>
<totfact> 0.99358563E+03</totfact>
</mgrwt>
</event>
<event>
 5    1  0.3309219E-002  0.1250001E+03  0.7818608E-02  0.1235069E+00
         -4   -1    0    0    0  501 -0.00000000000E+00  0.00000000000E+00  0.17317373207E+03  0.17317838889E+03  0.12700000000E+01 0.  1.
          4   -1    0    0  501    0  0.00000000000E+00 -0.00000000000E+00 -0.22534010493E+02  0.22569770244E+02  0.12700000000E+01 0.  1.
         25    2    1    2    0    0  0.00000000000E+00  0.00000000000E+00  0.15063972157E+03  0.19574815913E+03  0.12500006435E+03 0.  0.
    9000005    1    3    3    0    0 -0.43487872536E+02  0.31419424065E+02  0.25137968428E+02  0.59256161899E+02  0.10000000000E+01 0.  0.
    9000005    1    3    3    0    0  0.43487872536E+02 -0.31419424065E+02  0.12550175314E+03  0.13649199723E+03  0.10000000000E+01 0.  0.
<mgrwt>
<rscale>  0 0.12500006E+03</rscale>
<asrwt>0</asrwt>
<pdfrwt beam="2">  1        4 0.34698799E-02 0.12500006E+03</pdfrwt>
<pdfrwt beam="1">  1       -4 0.26645221E-01 0.12500006E+03</pdfrwt>
<totfact> 0.90856531E+03</totfact>
</mgrwt>
</event>
<event>
 5    1  0.3309219E-002  0.1249988E+03  0.7818608E-02  0.1235071E+00
         -4   -1    0    0    0  501 -0.00000000000E+00  0.00000000000E+00  0.49655975334E+02  0.49672213424E+02  0.12700000000E+01 0. -1.
          4   -1    0    0  501    0  0.00000000000E+00 -0.00000000000E+00 -0.78630530109E+02  0.78640785635E+02  0.12700000000E+01 0. -1.
         25    2    1    2    0    0  0.00000000000E+00  0.00000000000E+00 -0.28974554775E+02  0.12831299906E+03  0.12499880361E+03 0.  0.
    9000005    1    3    3    0    0  0.30202813151E+02  0.37386658855E+02 -0.55486232099E+02  0.73414536265E+02  0.10000000000E+01 0.  0.
    9000005    1    3    3    0    0 -0.30202813151E+02 -0.37386658855E+02  0.26511677323E+02  0.54898462793E+02  0.10000000000E+01 0.  0.
<mgrwt>
<rscale>  0 0.12499880E+03</rscale>
<asrwt>0</asrwt>
<pdfrwt beam="2">  1        4 0.12099043E-01 0.12499880E+03</pdfrwt>
<pdfrwt beam="1">  1       -4 0.76414188E-02 0.12499880E+03</pdfrwt>
<totfact> 0.10381014E+04</totfact>
</mgrwt>
</event>
<event>
 5    1  0.3309219E-002  0.1250004E+03  0.7818608E-02  0.1235069E+00
         -4   -1    0    0    0  501 -0.00000000000E+00  0.00000000000E+00  0.56861748092E+02  0.56875928969E+02  0.12700000000E+01 0.  1.
          4   -1    0    0  501    0  0.00000000000E+00 -0.00000000000E+00 -0.68669178570E+02  0.68680921553E+02  0.12700000000E+01 0.  1.
         25    2    1    2    0    0  0.00000000000E+00  0.00000000000E+00 -0.11807430478E+02  0.12555685052E+03  0.12500042919E+03 0.  0.
    9000005    1    3    3    0    0  0.58058371411E+02 -0.20664914194E+02  0.45088974140E+01  0.61799217838E+02  0.10000000000E+01 0.  0.
    9000005    1    3    3    0    0 -0.58058371411E+02  0.20664914194E+02 -0.16316327892E+02  0.63757632684E+02  0.10000000000E+01 0.  0.
<mgrwt>
<rscale>  0 0.12500043E+03</rscale>
<asrwt>0</asrwt>
<pdfrwt beam="2">  1        4 0.10566483E-01 0.12500043E+03</pdfrwt>
<pdfrwt beam="1">  1       -4 0.87499554E-02 0.12500043E+03</pdfrwt>
<totfact> 0.10440598E+04</totfact>
</mgrwt>
</event>
<event>
 4    1  0.3309219E-002  0.1251929E+03  0.7818608E-02  0.1234768E+00
          4   -1    0    0  501    0  0.00000000000E+00  0.00000000000E+00  0.56497713488E+03  0.56497856228E+03  0.12700000000E+01 0.  1.
         -4   -1    0    0    0  501 -0.00000000000E+00 -0.00000000000E+00 -0.68757688395E+01  0.69920738793E+01  0.12700000000E+01 0.  1.
    9000005    1    1    2    0    0 -0.48593310308E+02  0.29048127336E+02  0.40097755072E+03  0.40495567620E+03  0.10000000000E+01 0.  0.
    9000005    1    1    2    0    0  0.48593310308E+02 -0.29048127336E+02  0.15712381532E+03  0.16701495996E+03  0.10000000000E+01 0.  0.
<mgrwt>
<rscale>  0 0.12519295E+03</rscale>
<asrwt>0</asrwt>
<pdfrwt beam="1">  1        4 0.86928610E-01 0.12519295E+03</pdfrwt>
<pdfrwt beam="2">  1       -4 0.10668670E-02 0.12519295E+03</pdfrwt>
<totfact> 0.50472101E+03</totfact>
</mgrwt>
</event>
<event>
 5    1  0.3309219E-002  0.1250025E+03  0.7818608E-02  0.1235065E+00
          4   -1    0    0  501    0  0.00000000000E+00  0.00000000000E+00  0.38792686409E+02  0.38813469554E+02  0.12700000000E+01 0. -1.
         -4   -1    0    0    0  501 -0.00000000000E+00 -0.00000000000E+00 -0.10064786501E+03  0.10065587728E+03  0.12700000000E+01 0. -1.
         25    2    1    2    0    0  0.00000000000E+00  0.00000000000E+00 -0.61855178599E+02  0.13946934683E+03  0.12500254232E+03 0.  0.
    9000005    1    3    3    0    0  0.11212092494E+02  0.61671037906E+01  0.37320791955E+02  0.39466260266E+02  0.10000000000E+01 0.  0.
    9000005    1    3    3    0    0 -0.11212092494E+02 -0.61671037906E+01 -0.99175970554E+02  0.10000308657E+03  0.10000000000E+01 0.  0.
<mgrwt>
<rscale>  0 0.12500254E+03</rscale>
<asrwt>0</asrwt>
<pdfrwt beam="1">  1        4 0.59703207E-02 0.12500254E+03</pdfrwt>
<pdfrwt beam="2">  1       -4 0.15486502E-01 0.12500254E+03</pdfrwt>
<totfact> 0.10144015E+04</totfact>
</mgrwt>
</event>
<event>
 5    1  0.3309219E-002  0.1249994E+03  0.7818608E-02  0.1235070E+00
          4   -1    0    0  501    0  0.00000000000E+00  0.00000000000E+00  0.35142209098E+02  0.35165149797E+02  0.12700000000E+01 0.  1.
         -4   -1    0    0    0  501 -0.00000000000E+00 -0.00000000000E+00 -0.11109153694E+03  0.11109879603E+03  0.12700000000E+01 0.  1.
         25    2    1    2    0    0  0.00000000000E+00  0.00000000000E+00 -0.75949327844E+02  0.14626394583E+03  0.12499936580E+03 0.  0.
    9000005    1    3    3    0    0  0.38995246770E+02  0.83961121118E+01 -0.94263110090E+02  0.10236043129E+03  0.10000000000E+01 0.  0.
    9000005    1    3    3    0    0 -0.38995246770E+02 -0.83961121118E+01  0.18313782246E+02  0.43903514545E+02  0.10000000000E+01 0.  0.
<mgrwt>
<rscale>  0 0.12499937E+03</rscale>
<asrwt>0</asrwt>
<pdfrwt beam="1">  1        4 0.54088168E-02 0.12499937E+03</pdfrwt>
<pdfrwt beam="2">  1       -4 0.17093329E-01 0.12499937E+03</pdfrwt>
<totfact> 0.10005514E+04</totfact>
</mgrwt>
</event>
<event>
 5    1  0.3309219E-002  0.1250001E+03  0.7818608E-02  0.1235069E+00
         -4   -1    0    0    0  501 -0.00000000000E+00  0.00000000000E+00  0.61821259117E+01  0.63112265677E+01  0.12700000000E+01 0.  1.
          4   -1    0    0  501    0  0.00000000000E+00 -0.00000000000E+00 -0.62520339108E+03  0.62520468097E+03  0.12700000000E+01 0.  1.
         25    2    1    2    0    0  0.00000000000E+00  0.00000000000E+00 -0.61902126516E+03  0.63151590754E+03  0.12500005901E+03 0.  0.
    9000005    1    3    3    0    0  0.37890404043E+02  0.44690906341E+02 -0.19971622326E+03  0.20813584425E+03  0.10000000000E+01 0.  0.
    9000005    1    3    3    0    0 -0.37890404043E+02 -0.44690906341E+02 -0.41930504190E+03  0.42338006329E+03  0.10000000000E+01 0.  0.
<mgrwt>
<rscale>  0 0.12500006E+03</rscale>
<asrwt>0</asrwt>
<pdfrwt beam="2">  1        4 0.96195118E-01 0.12500006E+03</pdfrwt>
<pdfrwt beam="1">  1       -4 0.96112683E-03 0.12500006E+03</pdfrwt>
<totfact> 0.46936766E+03</totfact>
</mgrwt>
</event>
<event>
 5    1  0.3309219E-002  0.1250018E+03  0.7818608E-02  0.1235066E+00
          4   -1    0    0  501    0  0.00000000000E+00  0.00000000000E+00  0.13739324036E+03  0.13739910988E+03  0.12700000000E+01 0. -1.
         -4   -1    0    0    0  501 -0.00000000000E+00 -0.00000000000E+00 -0.28411332758E+02  0.28439703393E+02  0.12700000000E+01 0. -1.
         25    2    1    2    0    0  0.00000000000E+00  0.00000000000E+00  0.10898190760E+03  0.16583881327E+03  0.12500182320E+03 0.  0.
    9000005    1    3    3    0    0 -0.60940271530E+01  0.62186383253E+02  0.55870024807E+02  0.83825670895E+02  0.10000000000E+01 0.  0.
    9000005    1    3    3    0    0  0.60940271530E+01 -0.62186383253E+02  0.53111882793E+02  0.82013142379E+02  0.10000000000E+01 0.  0.
<mgrwt>
<rscale>  0 0.12500182E+03</rscale>
<asrwt>0</asrwt>
<pdfrwt beam="1">  1        4 0.21140055E-01 0.12500182E+03</pdfrwt>
<pdfrwt beam="2">  1       -4 0.43736081E-02 0.12500182E+03</pdfrwt>
<totfact> 0.96224829E+03</totfact>
</mgrwt>
</event>
<event>
 5    1  0.3309219E-002  0.1250014E+03  0.7818608E-02  0.1235067E+00
         -4   -1    0    0    0  501 -0.00000000000E+00  0.00000000000E+00  0.64357680448E+01  0.65598788347E+01  0.12700000000E+01 0. -1.
          4   -1    0    0  501    0  0.00000000000E+00 -0.00000000000E+00 -0.60105184864E+03  0.60105319037E+03  0.12700000000E+01 0. -1.
         25    2    1    2    0    0  0.00000000000E+00  0.00000000000E+00 -0.59461608060E+03  0.60761306920E+03  0.12500143425E+03 0.  0.
    9000005    1    3    3    0    0  0.29665356060E+02 -0.10630616704E+02 -0.34988955658E+02  0.47098517808E+02  0.10000000000E+01 0.  0.
    9000005    1    3    3    0    0 -0.29665356060E+02  0.10630616704E+02 -0.55962712494E+03  0.56051455140E+03  0.10000000000E+01 0.  0.
<mgrwt>
<rscale>  0 0.12500143E+03</rscale>
<asrwt>0</asrwt>
<pdfrwt beam="2">  1        4 0.92479122E-01 0.12500143E+03</pdfrwt>
<pdfrwt beam="1">  1       -4 0.99976883E-03 0.12500143E+03</pdfrwt>
<totfact> 0.48389046E+03</totfact>
</mgrwt>
</event>
<event>
 5    1  0.3309219E-002  0.1250013E+03  0.7818608E-02  0.1235067E+00
         -4   -1    0    0    0  501 -0.00000000000E+00  0.00000000000E+00  0.96919528207E+02  0.96927848671E+02  0.12700000000E+01 0. -1.
          4   -1    0    0  501    0  0.00000000000E+00 -0.00000000000E+00 -0.40284833160E+02  0.40304846889E+02  0.12700000000E+01 0. -1.
         25    2    1    2    0    0  0.00000000000E+00  0.00000000000E+00  0.56634695047E+02  0.13723269556E+03  0.12500129618E+03 0.  0.
    9000005    1    3    3    0    0 -0.22008996031E+01 -0.53971831663E+02 -0.61825562231E+01  0.54378548837E+02  0.10000000000E+01 0.  0.
    9000005    1    3    3    0    0  0.22008996031E+01  0.53971831663E+02  0.62817251270E+02  0.82854146723E+02  0.10000000000E+01 0.  0.
<mgrwt>
<rscale>  0 0.12500130E+03</rscale>
<asrwt>0</asrwt>
<pdfrwt beam="2">  1        4 0.61998463E-02 0.12500130E+03</pdfrwt>
<pdfrwt beam="1">  1       -4 0.14912876E-01 0.12500130E+03</pdfrwt>
<totfact> 0.10190925E+04</totfact>
</mgrwt>
</event>
<event>
 5    1  0.3309219E-002  0.1249888E+03  0.7818608E-02  0.1235087E+00
         -4   -1    0    0    0  501 -0.00000000000E+00  0.00000000000E+00  0.51347031308E+03  0.51347188366E+03  0.12700000000E+01 0. -1.
          4   -1    0    0  501    0  0.00000000000E+00 -0.00000000000E+00 -0.75515786770E+01  0.76576262977E+01  0.12700000000E+01 0. -1.
         25    2    1    2    0    0  0.00000000000E+00  0.00000000000E+00  0.50591873440E+03  0.52112950996E+03  0.12498880083E+03 0.  0.
    9000005    1    3    3    0    0  0.35545385760E+02 -0.22632309674E+02  0.60584858403E+02  0.73805290852E+02  0.10000000000E+01 0.  0.
    9000005    1    3    3    0    0 -0.35545385760E+02  0.22632309674E+02  0.44533387600E+03  0.44732421911E+03  0.10000000000E+01 0.  0.
<mgrwt>
<rscale>  0 0.12498880E+03</rscale>
<asrwt>0</asrwt>
<pdfrwt beam="2">  1        4 0.11700593E-02 0.12498880E+03</pdfrwt>
<pdfrwt beam="1">  1       -4 0.79003732E-01 0.12498880E+03</pdfrwt>
<totfact> 0.54274796E+03</totfact>
</mgrwt>
</event>
<event>
 5    1  0.3309219E-002  0.1250008E+03  0.7818608E-02  0.1235068E+00
          4   -1    0    0  501    0  0.00000000000E+00  0.00000000000E+00  0.27266698313E+02  0.27296258661E+02  0.12700000000E+01 0. -1.
         -4   -1    0    0    0  501 -0.00000000000E+00 -0.00000000000E+00 -0.14315267117E+03  0.14315830456E+03  0.12700000000E+01 0. -1.
         25    2    1    2    0    0  0.00000000000E+00  0.00000000000E+00 -0.11588597286E+03  0.17045456322E+03  0.12500079766E+03 0.  0.
    9000005    1    3    3    0    0  0.39350425583E+02  0.25148093320E+01  0.81686315185E+01  0.40280352536E+02  0.10000000000E+01 0.  0.
    9000005    1    3    3    0    0 -0.39350425583E+02 -0.25148093320E+01 -0.12405460438E+03  0.13017421068E+03  0.10000000000E+01 0.  0.
<mgrwt>
<rscale>  0 0.12500080E+03</rscale>
<asrwt>0</asrwt>
<pdfrwt beam="1">  1        4 0.41975840E-02 0.12500080E+03</pdfrwt>
<pdfrwt beam="2">  1       -4 0.22026195E-01 0.12500080E+03</pdfrwt>
<totfact> 0.95362273E+03</totfact>
</mgrwt>
</event>
<event>
 5    1  0.3309219E-002  0.1250022E+03  0.7818608E-02  0.1235066E+00
         -4   -1    0    0    0  501 -0.00000000000E+00  0.00000000000E+00  0.10923656360E+03  0.10924394595E+03  0.12700000000E+01 0. -1.
          4   -1    0    0  501    0  0.00000000000E+00 -0.00000000000E+00 -0.35740926481E+02  0.35763483131E+02  0.12700000000E+01 0. -1.
         25    2    1    2    0    0  0.00000000000E+00  0.00000000000E+00  0.73495637120E+02  0.14500742908E+03  0.12500218324E+03 0.  0.
    9000005    1    3    3    0    0  0.37698237233E+02 -0.28330847705E+02  0.84317804875E+02  0.96614109948E+02  0.10000000000E+01 0.  0.
    9000005    1    3    3    0    0 -0.37698237233E+02  0.28330847705E+02 -0.10822167755E+02  0.48393319136E+02  0.10000000000E+01 0.  0.
<mgrwt>
<rscale>  0 0.12500218E+03</rscale>
<asrwt>0</asrwt>
<pdfrwt beam="2">  1        4 0.55009071E-02 0.12500218E+03</pdfrwt>
<pdfrwt beam="1">  1       -4 0.16807928E-01 0.12500218E+03</pdfrwt>
<totfact> 0.10030344E+04</totfact>
</mgrwt>
</event>
<event>
 5    1  0.3309219E-002  0.1249920E+03  0.7818608E-02  0.1235082E+00
          4   -1    0    0  501    0  0.00000000000E+00  0.00000000000E+00  0.11738127708E+03  0.11738814722E+03  0.12700000000E+01 0.  1.
         -4   -1    0    0    0  501 -0.00000000000E+00 -0.00000000000E+00 -0.33254072609E+02  0.33278314938E+02  0.12700000000E+01 0.  1.
         25    2    1    2    0    0  0.00000000000E+00  0.00000000000E+00  0.84127204467E+02  0.15066646216E+03  0.12499198490E+03 0.  0.
    9000005    1    3    3    0    0  0.58294345810E+02  0.19881985637E+02  0.29350967579E+02  0.68234913381E+02  0.10000000000E+01 0.  0.
    9000005    1    3    3    0    0 -0.58294345810E+02 -0.19881985637E+02  0.54776236888E+02  0.82431548778E+02  0.10000000000E+01 0.  0.
<mgrwt>
<rscale>  0 0.12499198E+03</rscale>
<asrwt>0</asrwt>
<pdfrwt beam="1">  1        4 0.18061051E-01 0.12499198E+03</pdfrwt>
<pdfrwt beam="2">  1       -4 0.51184044E-02 0.12499198E+03</pdfrwt>
<totfact> 0.99188904E+03</totfact>
</mgrwt>
</event>
<event>
 5    1  0.3309219E-002  0.1250033E+03  0.7818608E-02  0.1235064E+00
         -4   -1    0    0    0  501 -0.00000000000E+00  0.00000000000E+00  0.19174800660E+02  0.19216812440E+02  0.12700000000E+01 0. -1.
          4   -1    0    0  501    0  0.00000000000E+00 -0.00000000000E+00 -0.20346171593E+03  0.20346567954E+03  0.12700000000E+01 0. -1.
         25    2    1    2    0    0  0.00000000000E+00  0.00000000000E+00 -0.18428691527E+03  0.22268249198E+03  0.12500330033E+03 0.  0.
    9000005    1    3    3    0    0 -0.17581732543E+02  0.19744001215E+02 -0.19301789396E+03  0.19482261237E+03  0.10000000000E+01 0.  0.
    9000005    1    3    3    0    0  0.17581732543E+02 -0.19744001215E+02  0.87309786816E+01  0.27859879611E+02  0.10000000000E+01 0.  0.
<mgrwt>
<rscale>  0 0.12500330E+03</rscale>
<asrwt>0</asrwt>
<pdfrwt beam="2">  1        4 0.31305338E-01 0.12500330E+03</pdfrwt>
<pdfrwt beam="1">  1       -4 0.29535060E-02 0.12500330E+03</pdfrwt>
<totfact> 0.86439282E+03</totfact>
</mgrwt>
</event>
<event>
 5    1  0.3309219E-002  0.1250033E+03  0.7818608E-02  0.1235064E+00
          4   -1    0    0  501    0  0.00000000000E+00  0.00000000000E+00  0.16262267253E+03  0.16262763148E+03  0.12700000000E+01 0. -1.
         -4   -1    0    0    0  501 -0.00000000000E+00 -0.00000000000E+00 -0.23999466750E+02  0.24033046089E+02  0.12700000000E+01 0. -1.
         25    2    1    2    0    0  0.00000000000E+00  0.00000000000E+00  0.13862320578E+03  0.18666067757E+03  0.12500326144E+03 0.  0.
    9000005    1    3    3    0    0 -0.49999852924E+02 -0.31823501515E+02  0.98904014417E+02  0.11530708829E+03  0.10000000000E+01 0.  0.
    9000005    1    3    3    0    0  0.49999852924E+02  0.31823501515E+02  0.39719191363E+02  0.71353589283E+02  0.10000000000E+01 0.  0.
<mgrwt>
<rscale>  0 0.12500326E+03</rscale>
<asrwt>0</asrwt>
<pdfrwt beam="1">  1        4 0.25021838E-01 0.12500326E+03</pdfrwt>
<pdfrwt beam="2">  1       -4 0.36951901E-02 0.12500326E+03</pdfrwt>
<totfact> 0.92424858E+03</totfact>
</mgrwt>
</event>
<event>
 5    1  0.3309219E-002  0.1249983E+03  0.7818608E-02  0.1235072E+00
         -4   -1    0    0    0  501 -0.00000000000E+00  0.00000000000E+00  0.32565909035E+02  0.32590663253E+02  0.12700000000E+01 0. -1.
          4   -1    0    0  501    0  0.00000000000E+00 -0.00000000000E+00 -0.11987213561E+03  0.11987886300E+03  0.12700000000E+01 0. -1.
         25    2    1    2    0    0  0.00000000000E+00  0.00000000000E+00 -0.87306226572E+02  0.15246952626E+03  0.12499831694E+03 0.  0.
    9000005    1    3    3    0    0  0.52897436964E+02 -0.55073226550E+01 -0.83677185594E+02  0.99153118100E+02  0.10000000000E+01 0.  0.
    9000005    1    3    3    0    0 -0.52897436964E+02  0.55073226550E+01 -0.36290409779E+01  0.53316408155E+02  0.10000000000E+01 0.  0.
<mgrwt>
<rscale>  0 0.12499832E+03</rscale>
<asrwt>0</asrwt>
<pdfrwt beam="2">  1        4 0.18444288E-01 0.12499832E+03</pdfrwt>
<pdfrwt beam="1">  1       -4 0.50125616E-02 0.12499832E+03</pdfrwt>
<totfact> 0.98817436E+03</totfact>
</mgrwt>
</event>
<event>
 5    1  0.3309219E-002  0.1250046E+03  0.7818608E-02  0.1235062E+00
         -4   -1    0    0    0  501 -0.00000000000E+00  0.00000000000E+00  0.12260297728E+02  0.12325899577E+02  0.12700000000E+01 0.  1.
          4   -1    0    0  501    0  0.00000000000E+00 -0.00000000000E+00 -0.31771612662E+03  0.31771866488E+03  0.12700000000E+01 0.  1.
         25    2    1    2    0    0  0.00000000000E+00  0.00000000000E+00 -0.30545582889E+03  0.33004456446E+03  0.12500460442E+03 0.  0.
    9000005    1    3    3    0    0  0.12561315947E+02  0.61179794809E+02 -0.15850268116E+03  0.17036682155E+03  0.10000000000E+01 0.  0.
    9000005    1    3    3    0    0 -0.12561315947E+02 -0.61179794809E+02 -0.14695314774E+03  0.15967774291E+03  0.10000000000E+01 0.  0.
<mgrwt>
<rscale>  0 0.12500460E+03</rscale>
<asrwt>0</asrwt>
<pdfrwt beam="2">  1        4 0.48884639E-01 0.12500460E+03</pdfrwt>
<pdfrwt beam="1">  1       -4 0.18914414E-02 0.12500460E+03</pdfrwt>
<totfact> 0.71969833E+03</totfact>
</mgrwt>
</event>
<event>
 4    1  0.3309219E-002  0.1249307E+03  0.7818608E-02  0.1235178E+00
          4   -1    0    0  501    0  0.00000000000E+00  0.00000000000E+00  0.28478527967E+03  0.28478811144E+03  0.12700000000E+01 0.  1.
         -4   -1    0    0    0  501 -0.00000000000E+00 -0.00000000000E+00 -0.13668933599E+02  0.13727805569E+02  0.12700000000E+01 0.  1.
    9000005    1    1    2    0    0  0.39433436894E+02  0.36555480672E+02  0.59634455593E+02  0.80302972587E+02  0.10000000000E+01 0.  0.
    9000005    1    1    2    0    0 -0.39433436894E+02 -0.36555480672E+02  0.21148189048E+03  0.21821294442E+03  0.10000000000E+01 0.  0.
<mgrwt>
<rscale>  0 0.12493070E+03</rscale>
<asrwt>0</asrwt>
<pdfrwt beam="1">  1        4 0.43817861E-01 0.12493070E+03</pdfrwt>
<pdfrwt beam="2">  1       -4 0.21076595E-02 0.12493070E+03</pdfrwt>
<totfact> 0.75902099E+03</totfact>
</mgrwt>
</event>
<event>
 5    1  0.3309219E-002  0.1249983E+03  0.7818608E-02  0.1235072E+00
         -4   -1    0    0    0  501 -0.00000000000E+00  0.00000000000E+00  0.22830784611E+02  0.22866080249E+02  0.12700000000E+01 0. -1.
          4   -1    0    0  501    0  0.00000000000E+00 -0.00000000000E+00 -0.17092130958E+03  0.17092602777E+03  0.12700000000E+01 0. -1.
         25    2    1    2    0    0  0.00000000000E+00  0.00000000000E+00 -0.14809052497E+03  0.19379210802E+03  0.12499831017E+03 0.  0.
    9000005    1    3    3    0    0  0.25420556572E+02  0.53155630878E+02 -0.41768815943E+02  0.72231293604E+02  0.10000000000E+01 0.  0.
    9000005    1    3    3    0    0 -0.25420556572E+02 -0.53155630878E+02 -0.10632170903E+03  0.12156081442E+03  0.10000000000E+01 0.  0.
<mgrwt>
<rscale>  0 0.12499831E+03</rscale>
<asrwt>0</asrwt>
<pdfrwt beam="2">  1        4 0.26298663E-01 0.12499831E+03</pdfrwt>
<pdfrwt beam="1">  1       -4 0.35155065E-02 0.12499831E+03</pdfrwt>
<totfact> 0.91195106E+03</totfact>
</mgrwt>
</event>
<event>
 5    1  0.3309219E-002  0.1249988E+03  0.7818608E-02  0.1235071E+00
         -4   -1    0    0    0  501 -0.00000000000E+00  0.00000000000E+00  0.64669744091E+03  0.64669868794E+03  0.12700000000E+01 0. -1.
          4   -1    0    0  501    0  0.00000000000E+00 -0.00000000000E+00 -0.59721664931E+01  0.61057081998E+01  0.12700000000E+01 0. -1.
         25    2    1    2    0    0  0.00000000000E+00  0.00000000000E+00  0.64072527442E+03  0.65280439614E+03  0.12499880935E+03 0.  0.
    9000005    1    3    3    0    0 -0.36708375664E+01  0.47963616194E+02  0.11203902596E+03  0.12193328858E+03  0.10000000000E+01 0.  0.
    9000005    1    3    3    0    0  0.36708375664E+01 -0.47963616194E+02  0.52868624846E+03  0.53087110756E+03  0.10000000000E+01 0.  0.
<mgrwt>
<rscale>  0 0.12499881E+03</rscale>
<asrwt>0</asrwt>
<pdfrwt beam="2">  1        4 0.92916262E-03 0.12499881E+03</pdfrwt>
<pdfrwt beam="1">  1       -4 0.99502346E-01 0.12499881E+03</pdfrwt>
<totfact> 0.45696480E+03</totfact>
</mgrwt>
</event>
<event>
 5    1  0.3309219E-002  0.1250008E+03  0.7818608E-02  0.1235068E+00
          4   -1    0    0  501    0  0.00000000000E+00  0.00000000000E+00  0.20752853427E+01  0.24330452634E+01  0.12700000000E+01 0. -1.
         -4   -1    0    0    0  501 -0.00000000000E+00 -0.00000000000E+00 -0.17325683191E+04  0.17325687845E+04  0.12700000000E+01 0. -1.
         25    2    1    2    0    0  0.00000000000E+00  0.00000000000E+00 -0.17304930337E+04  0.17350018298E+04  0.12500083850E+03 0.  0.
    9000005    1    3    3    0    0 -0.20816111082E+02 -0.15551564148E+02 -0.16541025224E+04  0.16543068991E+04  0.10000000000E+01 0.  0.
    9000005    1    3    3    0    0  0.20816111082E+02  0.15551564148E+02 -0.76390511333E+02  0.80694930756E+02  0.10000000000E+01 0.  0.
<mgrwt>
<rscale>  0 0.12500084E+03</rscale>
<asrwt>0</asrwt>
<pdfrwt beam="1">  1        4 0.34683185E-03 0.12500084E+03</pdfrwt>
<pdfrwt beam="2">  1       -4 0.26657546E+00 0.12500084E+03</pdfrwt>
<totfact> 0.13731800E+03</totfact>
</mgrwt>
</event>
<event>
 5    1  0.3309219E-002  0.1250011E+03  0.7818608E-02  0.1235068E+00
          4   -1    0    0  501    0  0.00000000000E+00  0.00000000000E+00  0.69946116322E+03  0.69946231617E+03  0.12700000000E+01 0.  1.
         -4   -1    0    0    0  501 -0.00000000000E+00 -0.00000000000E+00 -0.55113791934E+01  0.56558112251E+01  0.12700000000E+01 0.  1.
         25    2    1    2    0    0  0.00000000000E+00  0.00000000000E+00  0.69394978402E+03  0.70511812740E+03  0.12500108336E+03 0.  0.
    9000005    1    3    3    0    0  0.41025484163E+02  0.21285298649E+02  0.10971076599E+03  0.11905295655E+03  0.10000000000E+01 0.  0.
    9000005    1    3    3    0    0 -0.41025484163E+02 -0.21285298649E+02  0.58423901804E+03  0.58606517085E+03  0.10000000000E+01 0.  0.
<mgrwt>
<rscale>  0 0.12500108E+03</rscale>
<asrwt>0</asrwt>
<pdfrwt beam="1">  1        4 0.10762064E+00 0.12500108E+03</pdfrwt>
<pdfrwt beam="2">  1       -4 0.85910311E-03 0.12500108E+03</pdfrwt>
<totfact> 0.42816864E+03</totfact>
</mgrwt>
</event>
<event>
 5    1  0.3309219E-002  0.1249973E+03  0.7818608E-02  0.1235074E+00
          4   -1    0    0  501    0  0.00000000000E+00  0.00000000000E+00  0.81812979245E+01  0.82792835275E+01  0.12700000000E+01 0.  1.
         -4   -1    0    0    0  501 -0.00000000000E+00 -0.00000000000E+00 -0.47449920601E+03  0.47450090559E+03  0.12700000000E+01 0.  1.
         25    2    1    2    0    0  0.00000000000E+00  0.00000000000E+00 -0.46631790809E+03  0.48278018912E+03  0.12499727838E+03 0.  0.
    9000005    1    3    3    0    0 -0.56271334584E+02  0.96251383724E+01 -0.33132385662E+03  0.33620768039E+03  0.10000000000E+01 0.  0.
    9000005    1    3    3    0    0  0.56271334584E+02 -0.96251383724E+01 -0.13499405147E+03  0.14657250873E+03  0.10000000000E+01 0.  0.
<mgrwt>
<rscale>  0 0.12499728E+03</rscale>
<asrwt>0</asrwt>
<pdfrwt beam="1">  1        4 0.12663297E-02 0.12499728E+03</pdfrwt>
<pdfrwt beam="2">  1       -4 0.73007524E-01 0.12499728E+03</pdfrwt>
<totfact> 0.57229046E+03</totfact>
</mgrwt>
</event>
<event>
 5    1  0.3309219E-002  0.1249999E+03  0.7818608E-02  0.1235069E+00
         -4   -1    0    0    0  501 -0.00000000000E+00  0.00000000000E+00  0.14141058804E+03  0.14141629082E+03  0.12700000000E+01 0.  1.
          4   -1    0    0  501    0  0.00000000000E+00 -0.00000000000E+00 -0.27602560759E+02  0.27631761805E+02  0.12700000000E+01 0.  1.
         25    2    1    2    0    0  0.00000000000E+00  0.00000000000E+00  0.11380802728E+03  0.16904805263E+03  0.12499990809E+03 0.  0.
    9000005    1    3    3    0    0  0.14280023516E+02  0.63145235652E+01  0.13873676434E+03  0.13961619555E+03  0.10000000000E+01 0.  0.
    9000005    1    3    3    0    0 -0.14280023516E+02 -0.63145235652E+01 -0.24928737062E+02  0.29431857077E+02  0.10000000000E+01 0.  0.
<mgrwt>
<rscale>  0 0.12499991E+03</rscale>
<asrwt>0</asrwt>
<pdfrwt beam="2">  1        4 0.42492328E-02 0.12499991E+03</pdfrwt>
<pdfrwt beam="1">  1       -4 0.21758160E-01 0.12499991E+03</pdfrwt>
<totfact> 0.95626398E+03</totfact>
</mgrwt>
</event>
<event>
 5    1  0.3309219E-002  0.1250008E+03  0.7818608E-02  0.1235068E+00
          4   -1    0    0  501    0  0.00000000000E+00  0.00000000000E+00  0.87210046633E+02  0.87219293358E+02  0.12700000000E+01 0. -1.
         -4   -1    0    0    0  501 -0.00000000000E+00 -0.00000000000E+00 -0.44771261440E+02  0.44789270489E+02  0.12700000000E+01 0. -1.
         25    2    1    2    0    0  0.00000000000E+00  0.00000000000E+00  0.42438785194E+02  0.13200856385E+03  0.12500084176E+03 0.  0.
    9000005    1    3    3    0    0 -0.45225492608E+02 -0.43124849512E+02  0.21697291445E+02  0.66157919278E+02  0.10000000000E+01 0.  0.
    9000005    1    3    3    0    0  0.45225492608E+02  0.43124849512E+02  0.20741493749E+02  0.65850644568E+02  0.10000000000E+01 0.  0.
<mgrwt>
<rscale>  0 0.12500084E+03</rscale>
<asrwt>0</asrwt>
<pdfrwt beam="1">  1        4 0.13419027E-01 0.12500084E+03</pdfrwt>
<pdfrwt beam="2">  1       -4 0.68899830E-02 0.12500084E+03</pdfrwt>
<totfact> 0.10301320E+04</totfact>
</mgrwt>
</event>
<event>
 5    1  0.3309219E-002  0.1249993E+03  0.7818608E-02  0.1235070E+00
         -4   -1    0    0    0  501 -0.00000000000E+00  0.00000000000E+00  0.15892888392E+02  0.15943550465E+02  0.12700000000E+01 0.  1.
          4   -1    0    0  501    0  0.00000000000E+00 -0.00000000000E+00 -0.24533978868E+03  0.24534307574E+03  0.12700000000E+01 0.  1.
         25    2    1    2    0    0  0.00000000000E+00  0.00000000000E+00 -0.22944690029E+03  0.26128662620E+03  0.12499928391E+03 0.  0.
    9000005    1    3    3    0    0  0.52916911649E+02 -0.99050373813E+01 -0.48394679035E+02  0.72397197894E+02  0.10000000000E+01 0.  0.
    9000005    1    3    3    0    0 -0.52916911649E+02  0.99050373813E+01 -0.18105222126E+03  0.18888942831E+03  0.10000000000E+01 0.  0.
<mgrwt>
<rscale>  0 0.12499928E+03</rscale>
<asrwt>0</asrwt>
<pdfrwt beam="2">  1        4 0.37748730E-01 0.12499928E+03</pdfrwt>
<pdfrwt beam="1">  1       -4 0.24492099E-02 0.12499928E+03</pdfrwt>
<totfact> 0.80727127E+03</totfact>
</mgrwt>
</event>
<event>
 5    1  0.3309219E-002  0.1250000E+03  0.7818608E-02  0.1235069E+00
          4   -1    0    0  501    0  0.00000000000E+00  0.00000000000E+00  0.69190628822E+03  0.69190745376E+03  0.12700000000E+01 0.  1.
         -4   -1    0    0    0  501 -0.00000000000E+00 -0.00000000000E+00 -0.55730306813E+01  0.57159050880E+01  0.12700000000E+01 0.  1.
         25    2    1    2    0    0  0.00000000000E+00  0.00000000000E+00  0.68633325754E+03  0.69762335885E+03  0.12500004167E+03 0.  0.
    9000005    1    3    3    0    0  0.23896179796E+02  0.52274740790E+02  0.20628147474E+03  0.21414182859E+03  0.10000000000E+01 0.  0.
    9000005    1    3    3    0    0 -0.23896179796E+02 -0.52274740790E+02  0.48005178280E+03  0.48348153026E+03  0.10000000000E+01 0.  0.
<mgrwt>
<rscale>  0 0.12500004E+03</rscale>
<asrwt>0</asrwt>
<pdfrwt beam="1">  1        4 0.10645819E+00 0.12500004E+03</pdfrwt>
<pdfrwt beam="2">  1       -4 0.86846941E-03 0.12500004E+03</pdfrwt>
<totfact> 0.43212408E+03</totfact>
</mgrwt>
</event>
<event>
 5    1  0.3309219E-002  0.1249976E+03  0.7818608E-02  0.1235073E+00
         -4   -1    0    0    0  501 -0.00000000000E+00  0.00000000000E+00  0.35482478831E+02  0.35505199675E+02  0.12700000000E+01 0.  1.
          4   -1    0    0  501    0  0.00000000000E+00 -0.00000000000E+00 -0.11002366337E+03  0.11003099292E+03  0.12700000000E+01 0.  1.
         25    2    1    2    0    0  0.00000000000E+00  0.00000000000E+00 -0.74541184544E+02  0.14553619259E+03  0.12499758062E+03 0.  0.
    9000005    1    3    3    0    0  0.29538684724E+02 -0.51677564117E+02 -0.15118219794E+02  0.61422024535E+02  0.10000000000E+01 0.  0.
    9000005    1    3    3    0    0 -0.29538684724E+02  0.51677564117E+02 -0.59422964750E+02  0.84114168057E+02  0.10000000000E+01 0.  0.
<mgrwt>
<rscale>  0 0.12499758E+03</rscale>
<asrwt>0</asrwt>
<pdfrwt beam="2">  1        4 0.16929029E-01 0.12499758E+03</pdfrwt>
<pdfrwt beam="1">  1       -4 0.54611545E-02 0.12499758E+03</pdfrwt>
<totfact> 0.10020651E+04</totfact>
</mgrwt>
</event>
<event>
 5    1  0.3309219E-002  0.1250000E+03  0.7818608E-02  0.1235069E+00
          4   -1    0    0  501    0  0.00000000000E+00  0.00000000000E+00  0.38328775136E+01  0.40378026245E+01  0.12700000000E+01 0.  1.
         -4   -1    0    0    0  501 -0.00000000000E+00 -0.00000000000E+00 -0.99240298530E+03  0.99240379793E+03  0.12700000000E+01 0.  1.
         25    2    1    2    0    0  0.00000000000E+00  0.00000000000E+00 -0.98857010779E+03  0.99644160055E+03  0.12500002117E+03 0.  0.
    9000005    1    3    3    0    0 -0.38918904435E+02 -0.91513827479E+01 -0.11141725324E+03  0.11837750313E+03  0.10000000000E+01 0.  0.
    9000005    1    3    3    0    0  0.38918904435E+02  0.91513827479E+01 -0.87715285455E+03  0.87806409742E+03  0.10000000000E+01 0.  0.
<mgrwt>
<rscale>  0 0.12500002E+03</rscale>
<asrwt>0</asrwt>
<pdfrwt beam="1">  1        4 0.60550023E-03 0.12500002E+03</pdfrwt>
<pdfrwt beam="2">  1       -4 0.15269301E+00 0.12500002E+03</pdfrwt>
<totfact> 0.30722293E+03</totfact>
</mgrwt>
</event>
<event>
 5    1  0.3309219E-002  0.1250092E+03  0.7818608E-02  0.1235055E+00
          4   -1    0    0  501    0  0.00000000000E+00  0.00000000000E+00  0.47394929881E+02  0.47411942361E+02  0.12700000000E+01 0.  1.
         -4   -1    0    0    0  501 -0.00000000000E+00 -0.00000000000E+00 -0.82394624864E+02  0.82404411935E+02  0.12700000000E+01 0.  1.
         25    2    1    2    0    0  0.00000000000E+00  0.00000000000E+00 -0.34999694983E+02  0.12981635430E+03  0.12500922843E+03 0.  0.
    9000005    1    3    3    0    0 -0.15924962447E+02  0.27110254440E+02  0.38588757668E+02  0.49786168190E+02  0.10000000000E+01 0.  0.
    9000005    1    3    3    0    0  0.15924962447E+02 -0.27110254440E+02 -0.73588452650E+02  0.80030186106E+02  0.10000000000E+01 0.  0.
<mgrwt>
<rscale>  0 0.12500923E+03</rscale>
<asrwt>0</asrwt>
<pdfrwt beam="1">  1        4 0.72935892E-02 0.12500923E+03</pdfrwt>
<pdfrwt beam="2">  1       -4 0.12678158E-01 0.12500923E+03</pdfrwt>
<totfact> 0.10346282E+04</totfact>
</mgrwt>
</event>
<event>
 5    1  0.3309219E-002  0.1249915E+03  0.7818608E-02  0.1235083E+00
          4   -1    0    0  501    0  0.00000000000E+00  0.00000000000E+00  0.30660501869E+02  0.30686793167E+02  0.12700000000E+01 0. -1.
         -4   -1    0    0    0  501 -0.00000000000E+00 -0.00000000000E+00 -0.12730193295E+03  0.12730826773E+03  0.12700000000E+01 0. -1.
         25    2    1    2    0    0  0.00000000000E+00  0.00000000000E+00 -0.96641431080E+02  0.15799506090E+03  0.12499149198E+03 0.  0.
    9000005    1    3    3    0    0 -0.42092778034E+02 -0.18882205672E+02 -0.10159661939E+03  0.11158500224E+03  0.10000000000E+01 0.  0.
    9000005    1    3    3    0    0  0.42092778034E+02  0.18882205672E+02  0.49551883057E+01  0.46410058660E+02  0.10000000000E+01 0.  0.
<mgrwt>
<rscale>  0 0.12499149E+03</rscale>
<asrwt>0</asrwt>
<pdfrwt beam="1">  1        4 0.47195101E-02 0.12499149E+03</pdfrwt>
<pdfrwt beam="2">  1       -4 0.19587422E-01 0.12499149E+03</pdfrwt>
<totfact> 0.97749416E+03</totfact>
</mgrwt>
</event>
<event>
 5    1  0.3309219E-002  0.1249876E+03  0.7818608E-02  0.1235089E+00
          4   -1    0    0  501    0  0.00000000000E+00  0.00000000000E+00  0.40817065715E+03  0.40817263291E+03  0.12700000000E+01 0. -1.
         -4   -1    0    0    0  501 -0.00000000000E+00 -0.00000000000E+00 -0.95240878387E+01  0.96083895196E+01  0.12700000000E+01 0. -1.
         25    2    1    2    0    0  0.00000000000E+00  0.00000000000E+00  0.39864656931E+03  0.41778102243E+03  0.12498758130E+03 0.  0.
    9000005    1    3    3    0    0  0.46643217940E+02  0.32606235068E+02  0.11307969205E+03  0.12659689214E+03  0.10000000000E+01 0.  0.
    9000005    1    3    3    0    0 -0.46643217940E+02 -0.32606235068E+02  0.28556687726E+03  0.29118413029E+03  0.10000000000E+01 0.  0.
<mgrwt>
<rscale>  0 0.12498758E+03</rscale>
<asrwt>0</asrwt>
<pdfrwt beam="1">  1        4 0.62802128E-01 0.12498758E+03</pdfrwt>
<pdfrwt beam="2">  1       -4 0.14718809E-02 0.12498758E+03</pdfrwt>
<totfact> 0.62876621E+03</totfact>
</mgrwt>
</event>
<event>
 5    1  0.3309219E-002  0.1250083E+03  0.7818608E-02  0.1235056E+00
          4   -1    0    0  501    0  0.00000000000E+00  0.00000000000E+00  0.67909761127E+02  0.67921635406E+02  0.12700000000E+01 0. -1.
         -4   -1    0    0    0  501 -0.00000000000E+00 -0.00000000000E+00 -0.57504923994E+02  0.57518946301E+02  0.12700000000E+01 0. -1.
         25    2    1    2    0    0  0.00000000000E+00  0.00000000000E+00  0.10404837132E+02  0.12544058171E+03  0.12500831534E+03 0.  0.
    9000005    1    3    3    0    0 -0.54881427789E+00 -0.32157838286E+01  0.67829184137E+02  0.67914951840E+02  0.10000000000E+01 0.  0.
    9000005    1    3    3    0    0  0.54881427789E+00  0.32157838286E+01 -0.57424347004E+02  0.57525629867E+02  0.10000000000E+01 0.  0.
<mgrwt>
<rscale>  0 0.12500832E+03</rscale>
<asrwt>0</asrwt>
<pdfrwt beam="1">  1        4 0.10449648E-01 0.12500832E+03</pdfrwt>
<pdfrwt beam="2">  1       -4 0.88489035E-02 0.12500832E+03</pdfrwt>
<totfact> 0.10441310E+04</totfact>
</mgrwt>
</event>
<event>
 5    1  0.3309219E-002  0.1250017E+03  0.7818608E-02  0.1235067E+00
         -4   -1    0    0    0  501 -0.00000000000E+00  0.00000000000E+00  0.51927229106E+03  0.51927384410E+03  0.12700000000E+01 0.  1.
          4   -1    0    0  501    0  0.00000000000E+00 -0.00000000000E+00 -0.74675741190E+01  0.75747978998E+01  0.12700000000E+01 0.  1.
         25    2    1    2    0    0  0.00000000000E+00  0.00000000000E+00  0.51180471694E+03  0.52684864200E+03  0.12500169315E+03 0.  0.
    9000005    1    3    3    0    0 -0.50691154735E+02  0.58029622335E+01  0.40798869017E+03  0.41116789618E+03  0.10000000000E+01 0.  0.
    9000005    1    3    3    0    0  0.50691154735E+02 -0.58029622335E+01  0.10381602677E+03  0.11568074582E+03  0.10000000000E+01 0.  0.
<mgrwt>
<rscale>  0 0.12500169E+03</rscale>
<asrwt>0</asrwt>
<pdfrwt beam="2">  1        4 0.11572250E-02 0.12500169E+03</pdfrwt>
<pdfrwt beam="1">  1       -4 0.79896411E-01 0.12500169E+03</pdfrwt>
<totfact> 0.53837796E+03</totfact>
</mgrwt>
</event>
<event>
 5    1  0.3309219E-002  0.1250131E+03  0.7818608E-02  0.1235049E+00
          4   -1    0    0  501    0  0.00000000000E+00  0.00000000000E+00  0.41911482884E+02  0.41930720213E+02  0.12700000000E+01 0. -1.
         -4   -1    0    0    0  501 -0.00000000000E+00 -0.00000000000E+00 -0.93176996084E+02  0.93185650716E+02  0.12700000000E+01 0. -1.
         25    2    1    2    0    0  0.00000000000E+00  0.00000000000E+00 -0.51265513200E+02  0.13511637093E+03  0.12501312271E+03 0.  0.
    9000005    1    3    3    0    0 -0.98243711370E+01 -0.17317430786E+02 -0.89662948123E+02  0.91852359488E+02  0.10000000000E+01 0.  0.
    9000005    1    3    3    0    0  0.98243711370E+01  0.17317430786E+02  0.38397434923E+02  0.43264011441E+02  0.10000000000E+01 0.  0.
<mgrwt>
<rscale>  0 0.12501312E+03</rscale>
<asrwt>0</asrwt>
<pdfrwt beam="1">  1        4 0.64500660E-02 0.12501312E+03</pdfrwt>
<pdfrwt beam="2">  1       -4 0.14337068E-01 0.12501312E+03</pdfrwt>
<totfact> 0.10232590E+04</totfact>
</mgrwt>
</event>
<event>
 5    1  0.3309219E-002  0.1249975E+03  0.7818608E-02  0.1235073E+00
          4   -1    0    0  501    0  0.00000000000E+00  0.00000000000E+00  0.48250365905E+02  0.48267076874E+02  0.12700000000E+01 0.  1.
         -4   -1    0    0    0  501 -0.00000000000E+00 -0.00000000000E+00 -0.80918928517E+02  0.80928894051E+02  0.12700000000E+01 0.  1.
         25    2    1    2    0    0  0.00000000000E+00  0.00000000000E+00 -0.32668562612E+02  0.12919597092E+03  0.12499745565E+03 0.  0.
    9000005    1    3    3    0    0 -0.36771091753E+02  0.32168702678E+00 -0.68557365097E+02  0.77803142484E+02  0.10000000000E+01 0.  0.
    9000005    1    3    3    0    0  0.36771091753E+02 -0.32168702678E+00  0.35888802486E+02  0.51392828441E+02  0.10000000000E+01 0.  0.
<mgrwt>
<rscale>  0 0.12499746E+03</rscale>
<asrwt>0</asrwt>
<pdfrwt beam="1">  1        4 0.74251853E-02 0.12499746E+03</pdfrwt>
<pdfrwt beam="2">  1       -4 0.12451118E-01 0.12499746E+03</pdfrwt>
<totfact> 0.10362333E+04</totfact>
</mgrwt>
</event>
<event>
 5    1  0.3309219E-002  0.1249980E+03  0.7818608E-02  0.1235072E+00
          4   -1    0    0  501    0  0.00000000000E+00  0.00000000000E+00  0.25505453977E+03  0.25505770163E+03  0.12700000000E+01 0.  1.
         -4   -1    0    0    0  501 -0.00000000000E+00 -0.00000000000E+00 -0.15285280552E+02  0.15337949718E+02  0.12700000000E+01 0.  1.
         25    2    1    2    0    0  0.00000000000E+00  0.00000000000E+00  0.23976925922E+03  0.27039565134E+03  0.12499804238E+03 0.  0.
    9000005    1    3    3    0    0  0.30774073339E+02  0.42693401112E+02  0.19277376851E+03  0.19983116853E+03  0.10000000000E+01 0.  0.
    9000005    1    3    3    0    0 -0.30774073339E+02 -0.42693401112E+02  0.46995490709E+02  0.70564482818E+02  0.10000000000E+01 0.  0.
<mgrwt>
<rscale>  0 0.12499804E+03</rscale>
<asrwt>0</asrwt>
<pdfrwt beam="1">  1        4 0.39243454E-01 0.12499804E+03</pdfrwt>
<pdfrwt beam="2">  1       -4 0.23558764E-02 0.12499804E+03</pdfrwt>
<totfact> 0.79472417E+03</totfact>
</mgrwt>
</event>
<event>
 5    1  0.3309219E-002  0.1249984E+03  0.7818608E-02  0.1235072E+00
          4   -1    0    0  501    0  0.00000000000E+00  0.00000000000E+00  0.89119101265E+01  0.90019465730E+01  0.12700000000E+01 0. -1.
         -4   -1    0    0    0  501 -0.00000000000E+00 -0.00000000000E+00 -0.43601312643E+03  0.43601497603E+03  0.12700000000E+01 0. -1.
         25    2    1    2    0    0  0.00000000000E+00  0.00000000000E+00 -0.42710121630E+03  0.44501692260E+03  0.12499844972E+03 0.  0.
    9000005    1    3    3    0    0  0.62344592075E+01  0.17801505492E+02 -0.42565459068E+03  0.42607345921E+03  0.10000000000E+01 0.  0.
    9000005    1    3    3    0    0 -0.62344592075E+01 -0.17801505492E+02 -0.14466256243E+01  0.18943463386E+02  0.10000000000E+01 0.  0.
<mgrwt>
<rscale>  0 0.12499845E+03</rscale>
<asrwt>0</asrwt>
<pdfrwt beam="1">  1        4 0.13781316E-02 0.12499845E+03</pdfrwt>
<pdfrwt beam="2">  1       -4 0.67085994E-01 0.12499845E+03</pdfrwt>
<totfact> 0.60399993E+03</totfact>
</mgrwt>
</event>
<event>
 5    1  0.3309219E-002  0.1249989E+03  0.7818608E-02  0.1235071E+00
          4   -1    0    0  501    0  0.00000000000E+00  0.00000000000E+00  0.11517944858E+02  0.11587750159E+02  0.12700000000E+01 0. -1.
         -4   -1    0    0    0  501 -0.00000000000E+00 -0.00000000000E+00 -0.33804319387E+03  0.33804557950E+03  0.12700000000E+01 0. -1.
         25    2    1    2    0    0  0.00000000000E+00  0.00000000000E+00 -0.32652524901E+03  0.34963332966E+03  0.12499890787E+03 0.  0.
    9000005    1    3    3    0    0 -0.47719957738E+02 -0.18135720798E+02 -0.62447646780E+02  0.80664783665E+02  0.10000000000E+01 0.  0.
    9000005    1    3    3    0    0  0.47719957738E+02  0.18135720798E+02 -0.26407760223E+03  0.26896854599E+03  0.10000000000E+01 0.  0.
<mgrwt>
<rscale>  0 0.12499891E+03</rscale>
<asrwt>0</asrwt>
<pdfrwt beam="1">  1        4 0.17775449E-02 0.12499891E+03</pdfrwt>
<pdfrwt beam="2">  1       -4 0.52012191E-01 0.12499891E+03</pdfrwt>
<totfact> 0.69766602E+03</totfact>
</mgrwt>
</event>
<event>
 5    1  0.3309219E-002  0.1249997E+03  0.7818608E-02  0.1235070E+00
         -4   -1    0    0    0  501 -0.00000000000E+00  0.00000000000E+00  0.16214889685E+02  0.16264548795E+02  0.12700000000E+01 0.  1.
          4   -1    0    0  501    0  0.00000000000E+00 -0.00000000000E+00 -0.24048438137E+03  0.24048773479E+03  0.12700000000E+01 0.  1.
         25    2    1    2    0    0  0.00000000000E+00  0.00000000000E+00 -0.22426949168E+03  0.25675228358E+03  0.12499972089E+03 0.  0.
    9000005    1    3    3    0    0 -0.50830631053E+02  0.25514157835E+02 -0.16532193160E+03  0.17483439699E+03  0.10000000000E+01 0.  0.
    9000005    1    3    3    0    0  0.50830631053E+02 -0.25514157835E+02 -0.58947560081E+02  0.81917886586E+02  0.10000000000E+01 0.  0.
<mgrwt>
<rscale>  0 0.12499972E+03</rscale>
<asrwt>0</asrwt>
<pdfrwt beam="2">  1        4 0.37001672E-01 0.12499972E+03</pdfrwt>
<pdfrwt beam="1">  1       -4 0.24986765E-02 0.12499972E+03</pdfrwt>
<totfact> 0.81364510E+03</totfact>
</mgrwt>
</event>
<event>
 5    1  0.3309219E-002  0.1249885E+03  0.7818608E-02  0.1235087E+00
          4   -1    0    0  501    0  0.00000000000E+00  0.00000000000E+00  0.32676131419E+02  0.32700802200E+02  0.12700000000E+01 0. -1.
         -4   -1    0    0    0  501 -0.00000000000E+00 -0.00000000000E+00 -0.11944923873E+03  0.11945598994E+03  0.12700000000E+01 0. -1.
         25    2    1    2    0    0  0.00000000000E+00  0.00000000000E+00 -0.86773107312E+02  0.15215679214E+03  0.12498846844E+03 0.  0.
    9000005    1    3    3    0    0 -0.54498459588E+02 -0.27680111410E+02 -0.59177570309E+02  0.85083814517E+02  0.10000000000E+01 0.  0.
    9000005    1    3    3    0    0  0.54498459588E+02  0.27680111410E+02 -0.27595537003E+02  0.67072977626E+02  0.10000000000E+01 0.  0.
<mgrwt>
<rscale>  0 0.12498847E+03</rscale>
<asrwt>0</asrwt>
<pdfrwt beam="1">  1        4 0.50295143E-02 0.12498847E+03</pdfrwt>
<pdfrwt beam="2">  1       -4 0.18379223E-01 0.12498847E+03</pdfrwt>
<totfact> 0.98901158E+03</totfact>
</mgrwt>
</event>
<event>
 5    1  0.3309219E-002  0.1250349E+03  0.7818608E-02  0.1235015E+00
          4   -1    0    0  501    0  0.00000000000E+00  0.00000000000E+00  0.60148565538E+02  0.60161971679E+02  0.12700000000E+01 0. -1.
         -4   -1    0    0    0  501 -0.00000000000E+00 -0.00000000000E+00 -0.64952729469E+02  0.64965144235E+02  0.12700000000E+01 0. -1.
         25    2    1    2    0    0  0.00000000000E+00  0.00000000000E+00 -0.48041639309E+01  0.12512711591E+03  0.12503485572E+03 0.  0.
    9000005    1    3    3    0    0  0.38295845488E+02 -0.49258843318E+02 -0.62026941503E+01  0.62709479677E+02  0.10000000000E+01 0.  0.
    9000005    1    3    3    0    0 -0.38295845488E+02  0.49258843318E+02  0.13985302194E+01  0.62417636237E+02  0.10000000000E+01 0.  0.
<mgrwt>
<rscale>  0 0.12503486E+03</rscale>
<asrwt>0</asrwt>
<pdfrwt beam="1">  1        4 0.92556116E-02 0.12503486E+03</pdfrwt>
<pdfrwt beam="2">  1       -4 0.99947139E-02 0.12503486E+03</pdfrwt>
<totfact> 0.10441875E+04</totfact>
</mgrwt>
</event>
<event>
 5    1  0.3309219E-002  0.1249988E+03  0.7818608E-02  0.1235071E+00
          4   -1    0    0  501    0  0.00000000000E+00  0.00000000000E+00  0.66812640392E+01  0.68008962028E+01  0.12700000000E+01 0. -1.
         -4   -1    0    0    0  501 -0.00000000000E+00 -0.00000000000E+00 -0.57933815574E+03  0.57933954775E+03  0.12700000000E+01 0. -1.
         25    2    1    2    0    0  0.00000000000E+00  0.00000000000E+00 -0.57265689170E+03  0.58614044396E+03  0.12499881773E+03 0.  0.
    9000005    1    3    3    0    0  0.91984237946E+00  0.60709353033E+01 -0.57794318477E+03  0.57797666665E+03  0.10000000000E+01 0.  0.
    9000005    1    3    3    0    0 -0.91984237946E+00 -0.60709353033E+01  0.52862930753E+01  0.81637773082E+01  0.10000000000E+01 0.  0.
<mgrwt>
<rscale>  0 0.12499882E+03</rscale>
<asrwt>0</asrwt>
<pdfrwt beam="1">  1        4 0.10371968E-02 0.12499882E+03</pdfrwt>
<pdfrwt beam="2">  1       -4 0.89138218E-01 0.12499882E+03</pdfrwt>
<totfact> 0.49755624E+03</totfact>
</mgrwt>
</event>
<event>
 5    1  0.3309219E-002  0.1250002E+03  0.7818608E-02  0.1235069E+00
         -4   -1    0    0    0  501 -0.00000000000E+00  0.00000000000E+00  0.88975109611E+03  0.88975200248E+03  0.12700000000E+01 0. -1.
          4   -1    0    0  501    0  0.00000000000E+00 -0.00000000000E+00 -0.42975164733E+01  0.44812440057E+01  0.12700000000E+01 0. -1.
         25    2    1    2    0    0  0.00000000000E+00  0.00000000000E+00  0.88545357963E+03  0.89423324649E+03  0.12500022976E+03 0.  0.
    9000005    1    3    3    0    0  0.58478733746E+02 -0.84843572073E+01  0.29725222216E+03  0.30307033869E+03  0.10000000000E+01 0.  0.
    9000005    1    3    3    0    0 -0.58478733746E+02  0.84843572073E+01  0.58820135748E+03  0.59116290780E+03  0.10000000000E+01 0.  0.
<mgrwt>
<rscale>  0 0.12500023E+03</rscale>
<asrwt>0</asrwt>
<pdfrwt beam="2">  1        4 0.67535950E-03 0.12500023E+03</pdfrwt>
<pdfrwt beam="1">  1       -4 0.13689888E+00 0.12500023E+03</pdfrwt>
<totfact> 0.34381548E+03</totfact>
</mgrwt>
</event>
<event>
 5    1  0.3309219E-002  0.1250017E+03  0.7818608E-02  0.1235067E+00
          4   -1    0    0  501    0  0.00000000000E+00  0.00000000000E+00  0.10860108214E+04  0.10860115640E+04  0.12700000000E+01 0. -1.
         -4   -1    0    0    0  501 -0.00000000000E+00 -0.00000000000E+00 -0.34841105909E+01  0.37083590185E+01  0.12700000000E+01 0. -1.
         25    2    1    2    0    0  0.00000000000E+00  0.00000000000E+00  0.10825267108E+04  0.10897199230E+04  0.12500172385E+03 0.  0.
    9000005    1    3    3    0    0 -0.42643959636E+02 -0.42375107344E+02  0.39250029133E+03  0.39707887845E+03  0.10000000000E+01 0.  0.
    9000005    1    3    3    0    0  0.42643959636E+02  0.42375107344E+02  0.69002641950E+03  0.69264104457E+03  0.10000000000E+01 0.  0.
<mgrwt>
<rscale>  0 0.12500172E+03</rscale>
<asrwt>0</asrwt>
<pdfrwt beam="1">  1        4 0.16709599E+00 0.12500172E+03</pdfrwt>
<pdfrwt beam="2">  1       -4 0.55332369E-03 0.12500172E+03</pdfrwt>
<totfact> 0.27785154E+03</totfact>
</mgrwt>
</event>
<event>
 5    1  0.3309219E-002  0.1250037E+03  0.7818608E-02  0.1235063E+00
          4   -1    0    0  501    0  0.00000000000E+00  0.00000000000E+00  0.21891823136E+02  0.21928630149E+02  0.12700000000E+01 0.  1.
         -4   -1    0    0    0  501 -0.00000000000E+00 -0.00000000000E+00 -0.17825590992E+03  0.17826043397E+03  0.12700000000E+01 0.  1.
         25    2    1    2    0    0  0.00000000000E+00  0.00000000000E+00 -0.15636408678E+03  0.20018906412E+03  0.12500373498E+03 0.  0.
    9000005    1    3    3    0    0 -0.19948136991E+02  0.34483178207E+02 -0.15529328510E+03  0.16032473966E+03  0.10000000000E+01 0.  0.
    9000005    1    3    3    0    0  0.19948136991E+02 -0.34483178207E+02 -0.10708016786E+01  0.39864324464E+02  0.10000000000E+01 0.  0.
<mgrwt>
<rscale>  0 0.12500373E+03</rscale>
<asrwt>0</asrwt>
<pdfrwt beam="1">  1        4 0.33711522E-02 0.12500373E+03</pdfrwt>
<pdfrwt beam="2">  1       -4 0.27427165E-01 0.12500373E+03</pdfrwt>
<totfact> 0.90096099E+03</totfact>
</mgrwt>
</event>
<event>
 5    1  0.3309219E-002  0.1249995E+03  0.7818608E-02  0.1235070E+00
         -4   -1    0    0    0  501 -0.00000000000E+00  0.00000000000E+00  0.92667153762E+02  0.92675856006E+02  0.12700000000E+01 0.  1.
          4   -1    0    0  501    0  0.00000000000E+00 -0.00000000000E+00 -0.42132982058E+02  0.42152118299E+02  0.12700000000E+01 0.  1.
         25    2    1    2    0    0  0.00000000000E+00  0.00000000000E+00  0.50534171704E+02  0.13482797431E+03  0.12499952058E+03 0.  0.
    9000005    1    3    3    0    0 -0.29534370213E+02 -0.53682100767E+02  0.38529081416E+02  0.72384646724E+02  0.10000000000E+01 0.  0.
    9000005    1    3    3    0    0  0.29534370213E+02  0.53682100767E+02  0.12005090288E+02  0.62443327581E+02  0.10000000000E+01 0.  0.
<mgrwt>
<rscale>  0 0.12499952E+03</rscale>
<asrwt>0</asrwt>
<pdfrwt beam="2">  1        4 0.64841387E-02 0.12499952E+03</pdfrwt>
<pdfrwt beam="1">  1       -4 0.14258627E-01 0.12499952E+03</pdfrwt>
<totfact> 0.10241809E+04</totfact>
</mgrwt>
</event>
<event>
 5    1  0.3309219E-002  0.1249980E+03  0.7818608E-02  0.1235072E+00
         -4   -1    0    0    0  501 -0.00000000000E+00  0.00000000000E+00  0.71368215098E+03  0.71368328097E+03  0.12700000000E+01 0. -1.
          4   -1    0    0  501    0  0.00000000000E+00 -0.00000000000E+00 -0.53983794554E+01  0.55457552006E+01  0.12700000000E+01 0. -1.
         25    2    1    2    0    0  0.00000000000E+00  0.00000000000E+00  0.70828377153E+03  0.71922903617E+03  0.12499802181E+03 0.  0.
    9000005    1    3    3    0    0  0.18161232470E+02  0.58653295033E+02  0.28726580396E+03  0.29375615995E+03  0.10000000000E+01 0.  0.
    9000005    1    3    3    0    0 -0.18161232470E+02 -0.58653295033E+02  0.42101796757E+03  0.42547287622E+03  0.10000000000E+01 0.  0.
<mgrwt>
<rscale>  0 0.12499802E+03</rscale>
<asrwt>0</asrwt>
<pdfrwt beam="2">  1        4 0.84194345E-03 0.12499802E+03</pdfrwt>
<pdfrwt beam="1">  1       -4 0.10980868E+00 0.12499802E+03</pdfrwt>
<totfact> 0.42092679E+03</totfact>
</mgrwt>
</event>
<event>
 5    1  0.3309219E-002  0.1250024E+03  0.7818608E-02  0.1235065E+00
         -4   -1    0    0    0  501 -0.00000000000E+00  0.00000000000E+00  0.36686405901E+01  0.38822446831E+01  0.12700000000E+01 0.  1.
          4   -1    0    0  501    0  0.00000000000E+00 -0.00000000000E+00 -0.10344731083E+04  0.10344738879E+04  0.12700000000E+01 0.  1.
         25    2    1    2    0    0  0.00000000000E+00  0.00000000000E+00 -0.10308044677E+04  0.10383561325E+04  0.12500242946E+03 0.  0.
    9000005    1    3    3    0    0  0.65262276740E+01 -0.48190822942E+02 -0.18937614395E+03  0.19552307015E+03  0.10000000000E+01 0.  0.
    9000005    1    3    3    0    0 -0.65262276740E+01  0.48190822942E+02 -0.84142832375E+03  0.84283306240E+03  0.10000000000E+01 0.  0.
<mgrwt>
<rscale>  0 0.12500243E+03</rscale>
<asrwt>0</asrwt>
<pdfrwt beam="2">  1        4 0.15916597E+00 0.12500243E+03</pdfrwt>
<pdfrwt beam="1">  1       -4 0.58089812E-03 0.12500243E+03</pdfrwt>
<totfact> 0.29359627E+03</totfact>
</mgrwt>
</event>
<event>
 5    1  0.3309219E-002  0.1250072E+03  0.7818608E-02  0.1235058E+00
         -4   -1    0    0    0  501 -0.00000000000E+00  0.00000000000E+00  0.50408452458E+01  0.51983671275E+01  0.12700000000E+01 0. -1.
          4   -1    0    0  501    0  0.00000000000E+00 -0.00000000000E+00 -0.76292837391E+03  0.76292943096E+03  0.12700000000E+01 0. -1.
         25    2    1    2    0    0  0.00000000000E+00  0.00000000000E+00 -0.75788752867E+03  0.76812779808E+03  0.12500723212E+03 0.  0.
    9000005    1    3    3    0    0 -0.24940344686E+02 -0.39066247848E+02 -0.63654455070E+03  0.63823048935E+03  0.10000000000E+01 0.  0.
    9000005    1    3    3    0    0  0.24940344686E+02  0.39066247848E+02 -0.12134297797E+03  0.12989730873E+03  0.10000000000E+01 0.  0.
<mgrwt>
<rscale>  0 0.12500723E+03</rscale>
<asrwt>0</asrwt>
<pdfrwt beam="2">  1        4 0.11738570E+00 0.12500723E+03</pdfrwt>
<pdfrwt beam="1">  1       -4 0.78771364E-03 0.12500723E+03</pdfrwt>
<totfact> 0.39715473E+03</totfact>
</mgrwt>
</event>
<event>
 5    1  0.3309219E-002  0.1249997E+03  0.7818608E-02  0.1235070E+00
         -4   -1    0    0    0  501 -0.00000000000E+00  0.00000000000E+00  0.42942328600E+03  0.42942516398E+03  0.12700000000E+01 0.  1.
          4   -1    0    0  501    0  0.00000000000E+00 -0.00000000000E+00 -0.90502264751E+01  0.91389003305E+01  0.12700000000E+01 0.  1.
         25    2    1    2    0    0  0.00000000000E+00  0.00000000000E+00  0.42037305952E+03  0.43856406431E+03  0.12499971732E+03 0.  0.
    9000005    1    3    3    0    0  0.78641344188E+01 -0.52530236092E+02  0.32569957803E+03  0.33000376580E+03  0.10000000000E+01 0.  0.
    9000005    1    3    3    0    0 -0.78641344188E+01  0.52530236092E+02  0.94673481494E+02  0.10856029851E+03  0.10000000000E+01 0.  0.
<mgrwt>
<rscale>  0 0.12499972E+03</rscale>
<asrwt>0</asrwt>
<pdfrwt beam="2">  1        4 0.13993085E-02 0.12499972E+03</pdfrwt>
<pdfrwt beam="1">  1       -4 0.66072066E-01 0.12499972E+03</pdfrwt>
<totfact> 0.60967699E+03</totfact>
</mgrwt>
</event>
<event>
 5    1  0.3309219E-002  0.1249898E+03  0.7818608E-02  0.1235085E+00
          4   -1    0    0  501    0  0.00000000000E+00  0.00000000000E+00  0.18245954020E+03  0.18246396003E+03  0.12700000000E+01 0. -1.
         -4   -1    0    0    0  501 -0.00000000000E+00 -0.00000000000E+00 -0.21381842440E+02  0.21419525815E+02  0.12700000000E+01 0. -1.
         25    2    1    2    0    0  0.00000000000E+00  0.00000000000E+00  0.16107769776E+03  0.20388348584E+03  0.12498980392E+03 0.  0.
    9000005    1    3    3    0    0  0.26810622689E+02 -0.39567921126E+02  0.14619712644E+03  0.15381492012E+03  0.10000000000E+01 0.  0.
    9000005    1    3    3    0    0 -0.26810622689E+02  0.39567921126E+02  0.14880571318E+02  0.50068565727E+02  0.10000000000E+01 0.  0.
<mgrwt>
<rscale>  0 0.12498980E+03</rscale>
<asrwt>0</asrwt>
<pdfrwt beam="1">  1        4 0.28073938E-01 0.12498980E+03</pdfrwt>
<pdfrwt beam="2">  1       -4 0.32927528E-02 0.12498980E+03</pdfrwt>
<totfact> 0.89505044E+03</totfact>
</mgrwt>
</event>
<event>
 4    1  0.3309219E-002  0.1249147E+03  0.7818608E-02  0.1235203E+00
          4   -1    0    0  501    0  0.00000000000E+00  0.00000000000E+00  0.90216739690E+02  0.90225678275E+02  0.12700000000E+01 0.  1.
         -4   -1    0    0    0  501 -0.00000000000E+00 -0.00000000000E+00 -0.43219047790E+02  0.43237703360E+02  0.12700000000E+01 0.  1.
    9000005    1    1    2    0    0  0.11829121898E+01  0.54932672575E+02 -0.82127368348E+01  0.55564798603E+02  0.10000000000E+01 0.  0.
    9000005    1    1    2    0    0 -0.11829121898E+01 -0.54932672575E+02  0.55210428735E+02  0.77898583033E+02  0.10000000000E+01 0.  0.
<mgrwt>
<rscale>  0 0.12491474E+03</rscale>
<asrwt>0</asrwt>
<pdfrwt beam="1">  1        4 0.13881621E-01 0.12491474E+03</pdfrwt>
<pdfrwt beam="2">  1       -4 0.66512070E-02 0.12491474E+03</pdfrwt>
<totfact> 0.10290339E+04</totfact>
</mgrwt>
</event>
<event>
 5    1  0.3309219E-002  0.1250010E+03  0.7818608E-02  0.1235068E+00
         -4   -1    0    0    0  501 -0.00000000000E+00  0.00000000000E+00  0.26399261320E+03  0.26399566800E+03  0.12700000000E+01 0.  1.
          4   -1    0    0  501    0  0.00000000000E+00 -0.00000000000E+00 -0.14766657259E+02  0.14821169543E+02  0.12700000000E+01 0.  1.
         25    2    1    2    0    0  0.00000000000E+00  0.00000000000E+00  0.24922595594E+03  0.27881683754E+03  0.12500100713E+03 0.  0.
    9000005    1    3    3    0    0  0.20227918341E+01 -0.62227821977E+02  0.13660798090E+03  0.15013038986E+03  0.10000000000E+01 0.  0.
    9000005    1    3    3    0    0 -0.20227918341E+01  0.62227821977E+02  0.11261797504E+03  0.12868644768E+03  0.10000000000E+01 0.  0.
<mgrwt>
<rscale>  0 0.12500101E+03</rscale>
<asrwt>0</asrwt>
<pdfrwt beam="2">  1        4 0.22762215E-02 0.12500101E+03</pdfrwt>
<pdfrwt beam="1">  1       -4 0.40618680E-01 0.12500101E+03</pdfrwt>
<totfact> 0.78333488E+03</totfact>
</mgrwt>
</event>
<event>
 5    1  0.3309219E-002  0.1249997E+03  0.7818608E-02  0.1235070E+00
         -4   -1    0    0    0  501 -0.00000000000E+00  0.00000000000E+00  0.24021165640E+04  0.24021168997E+04  0.12700000000E+01 0. -1.
          4   -1    0    0  501    0  0.00000000000E+00 -0.00000000000E+00 -0.13778146627E+01  0.18738391726E+01  0.12700000000E+01 0. -1.
         25    2    1    2    0    0  0.00000000000E+00  0.00000000000E+00  0.24007387493E+04  0.24039907389E+04  0.12499972054E+03 0.  0.
    9000005    1    3    3    0    0  0.22632159107E+02 -0.57404867571E+02  0.10102751158E+04  0.10121582599E+04  0.10000000000E+01 0.  0.
    9000005    1    3    3    0    0 -0.22632159107E+02  0.57404867571E+02  0.13904636335E+04  0.13918324790E+04  0.10000000000E+01 0.  0.
<mgrwt>
<rscale>  0 0.12499972E+03</rscale>
<asrwt>0</asrwt>
<pdfrwt beam="2">  1        4 0.25015204E-03 0.12499972E+03</pdfrwt>
<pdfrwt beam="1">  1       -4 0.36959605E+00 0.12499972E+03</pdfrwt>
<totfact> 0.54680832E+02</totfact>
</mgrwt>
</event>
<event>
 5    1  0.3309219E-002  0.1249999E+03  0.7818608E-02  0.1235069E+00
          4   -1    0    0  501    0  0.00000000000E+00  0.00000000000E+00  0.38417865461E+03  0.38418075376E+03  0.12700000000E+01 0.  1.
         -4   -1    0    0    0  501 -0.00000000000E+00 -0.00000000000E+00 -0.10125992453E+02  0.10205323275E+02  0.12700000000E+01 0.  1.
         25    2    1    2    0    0  0.00000000000E+00  0.00000000000E+00  0.37405266216E+03  0.39438607703E+03  0.12499993476E+03 0.  0.
    9000005    1    3    3    0    0  0.58546959017E+02 -0.48087406918E+01  0.11977215547E+03  0.13340629529E+03  0.10000000000E+01 0.  0.
    9000005    1    3    3    0    0 -0.58546959017E+02  0.48087406918E+01  0.25428050669E+03  0.26097978175E+03  0.10000000000E+01 0.  0.
<mgrwt>
<rscale>  0 0.12499993E+03</rscale>
<asrwt>0</asrwt>
<pdfrwt beam="1">  1        4 0.59110679E-01 0.12499993E+03</pdfrwt>
<pdfrwt beam="2">  1       -4 0.15641086E-02 0.12499993E+03</pdfrwt>
<totfact> 0.65102567E+03</totfact>
</mgrwt>
</event>
<event>
 5    1  0.3309219E-002  0.1249991E+03  0.7818608E-02  0.1235071E+00
         -4   -1    0    0    0  501 -0.00000000000E+00  0.00000000000E+00  0.22474028234E+03  0.22474387068E+03  0.12700000000E+01 0.  1.
          4   -1    0    0  501    0  0.00000000000E+00 -0.00000000000E+00 -0.17353997570E+02  0.17400406078E+02  0.12700000000E+01 0.  1.
         25    2    1    2    0    0  0.00000000000E+00  0.00000000000E+00  0.20738628477E+03  0.24214427675E+03  0.12499911861E+03 0.  0.
    9000005    1    3    3    0    0 -0.32780750682E+02  0.21152884865E+02  0.19826132022E+03  0.20206576466E+03  0.10000000000E+01 0.  0.
    9000005    1    3    3    0    0  0.32780750682E+02 -0.21152884865E+02  0.91249645502E+01  0.40078512091E+02  0.10000000000E+01 0.  0.
<mgrwt>
<rscale>  0 0.12499912E+03</rscale>
<asrwt>0</asrwt>
<pdfrwt beam="2">  1        4 0.26736919E-02 0.12499912E+03</pdfrwt>
<pdfrwt beam="1">  1       -4 0.34579271E-01 0.12499912E+03</pdfrwt>
<totfact> 0.83480690E+03</totfact>
</mgrwt>
</event>
<event>
 5    1  0.3309219E-002  0.1249996E+03  0.7818608E-02  0.1235070E+00
          4   -1    0    0  501    0  0.00000000000E+00  0.00000000000E+00  0.18757084336E+03  0.18757514275E+03  0.12700000000E+01 0.  1.
         -4   -1    0    0    0  501 -0.00000000000E+00 -0.00000000000E+00 -0.20801433086E+02  0.20840165988E+02  0.12700000000E+01 0.  1.
         25    2    1    2    0    0  0.00000000000E+00  0.00000000000E+00  0.16676941027E+03  0.20841530874E+03  0.12499961886E+03 0.  0.
    9000005    1    3    3    0    0 -0.31251777295E+02  0.51855733175E+02  0.10918982608E+03  0.12485635253E+03  0.10000000000E+01 0.  0.
    9000005    1    3    3    0    0  0.31251777295E+02 -0.51855733175E+02  0.57579584186E+02  0.83558956206E+02  0.10000000000E+01 0.  0.
<mgrwt>
<rscale>  0 0.12499962E+03</rscale>
<asrwt>0</asrwt>
<pdfrwt beam="1">  1        4 0.28860364E-01 0.12499962E+03</pdfrwt>
<pdfrwt beam="2">  1       -4 0.32035305E-02 0.12499962E+03</pdfrwt>
<totfact> 0.88736092E+03</totfact>
</mgrwt>
</event>
<event>
 5    1  0.3309219E-002  0.1250025E+03  0.7818608E-02  0.1235065E+00
          4   -1    0    0  501    0  0.00000000000E+00  0.00000000000E+00  0.53394471072E+03  0.53394622108E+03  0.12700000000E+01 0. -1.
         -4   -1    0    0    0  501 -0.00000000000E+00 -0.00000000000E+00 -0.72594738960E+01  0.73697259954E+01  0.12700000000E+01 0. -1.
         25    2    1    2    0    0  0.00000000000E+00  0.00000000000E+00  0.52668523682E+03  0.54131594707E+03  0.12500246346E+03 0.  0.
    9000005    1    3    3    0    0 -0.33460553116E+02 -0.51389451513E+02  0.21121164292E+03  0.21993599625E+03  0.10000000000E+01 0.  0.
    9000005    1    3    3    0    0  0.33460553116E+02  0.51389451513E+02  0.31547359390E+03  0.32137995082E+03  0.10000000000E+01 0.  0.
<mgrwt>
<rscale>  0 0.12500246E+03</rscale>
<asrwt>0</asrwt>
<pdfrwt beam="1">  1        4 0.82153926E-01 0.12500246E+03</pdfrwt>
<pdfrwt beam="2">  1       -4 0.11254394E-02 0.12500246E+03</pdfrwt>
<totfact> 0.52792599E+03</totfact>
</mgrwt>
</event>
<event>
 5    1  0.3309219E-002  0.1249989E+03  0.7818608E-02  0.1235071E+00
         -4   -1    0    0    0  501 -0.00000000000E+00  0.00000000000E+00  0.41817677700E+03  0.41817870549E+03  0.12700000000E+01 0.  1.
          4   -1    0    0  501    0  0.00000000000E+00 -0.00000000000E+00 -0.92958537278E+01  0.93822063785E+01  0.12700000000E+01 0.  1.
         25    2    1    2    0    0  0.00000000000E+00  0.00000000000E+00  0.40888092328E+03  0.42756091187E+03  0.12499889575E+03 0.  0.
    9000005    1    3    3    0    0 -0.58261522007E+02  0.22380407663E+02  0.19368164754E+03  0.20349169071E+03  0.10000000000E+01 0.  0.
    9000005    1    3    3    0    0  0.58261522007E+02 -0.22380407663E+02  0.21519927573E+03  0.22406922116E+03  0.10000000000E+01 0.  0.
<mgrwt>
<rscale>  0 0.12499890E+03</rscale>
<asrwt>0</asrwt>
<pdfrwt beam="2">  1        4 0.14369227E-02 0.12499890E+03</pdfrwt>
<pdfrwt beam="1">  1       -4 0.64341659E-01 0.12499890E+03</pdfrwt>
<totfact> 0.61959222E+03</totfact>
</mgrwt>
</event>
<event>
 5    1  0.3309219E-002  0.1249960E+03  0.7818608E-02  0.1235076E+00
          4   -1    0    0  501    0  0.00000000000E+00  0.00000000000E+00  0.43257075995E+02  0.43275715172E+02  0.12700000000E+01 0. -1.
         -4   -1    0    0    0  501 -0.00000000000E+00 -0.00000000000E+00 -0.90254815439E+02  0.90263750254E+02  0.12700000000E+01 0. -1.
         25    2    1    2    0    0  0.00000000000E+00  0.00000000000E+00 -0.46997739443E+02  0.13353946543E+03  0.12499600519E+03 0.  0.
    9000005    1    3    3    0    0  0.59334329490E+02 -0.19599787915E+02 -0.22927541180E+02  0.66568659945E+02  0.10000000000E+01 0.  0.
    9000005    1    3    3    0    0 -0.59334329490E+02  0.19599787915E+02 -0.24070198264E+02  0.66970805481E+02  0.10000000000E+01 0.  0.
<mgrwt>
<rscale>  0 0.12499601E+03</rscale>
<asrwt>0</asrwt>
<pdfrwt beam="1">  1        4 0.66570559E-02 0.12499601E+03</pdfrwt>
<pdfrwt beam="2">  1       -4 0.13887477E-01 0.12499601E+03</pdfrwt>
<totfact> 0.10269873E+04</totfact>
</mgrwt>
</event>
<event>
 5    1  0.3309219E-002  0.1249988E+03  0.7818608E-02  0.1235071E+00
          4   -1    0    0  501    0  0.00000000000E+00  0.00000000000E+00  0.10384844610E+04  0.10384852375E+04  0.12700000000E+01 0. -1.
         -4   -1    0    0    0  501 -0.00000000000E+00 -0.00000000000E+00 -0.36534189076E+01  0.38678637145E+01  0.12700000000E+01 0. -1.
         25    2    1    2    0    0  0.00000000000E+00  0.00000000000E+00  0.10348310420E+04  0.10423531012E+04  0.12499880826E+03 0.  0.
    9000005    1    3    3    0    0  0.13165486690E+02 -0.54839661943E+02  0.29296775693E+03  0.29834849617E+03  0.10000000000E+01 0.  0.
    9000005    1    3    3    0    0 -0.13165486690E+02  0.54839661943E+02  0.74186328512E+03  0.74400460507E+03  0.10000000000E+01 0.  0.
<mgrwt>
<rscale>  0 0.12499881E+03</rscale>
<asrwt>0</asrwt>
<pdfrwt beam="1">  1        4 0.15978350E+00 0.12499881E+03</pdfrwt>
<pdfrwt beam="2">  1       -4 0.57861957E-03 0.12499881E+03</pdfrwt>
<totfact> 0.29235478E+03</totfact>
</mgrwt>
</event>
<event>
 5    1  0.3309219E-002  0.1250040E+03  0.7818608E-02  0.1235063E+00
         -4   -1    0    0    0  501 -0.00000000000E+00  0.00000000000E+00  0.58241579463E+02  0.58255424454E+02  0.12700000000E+01 0.  1.
          4   -1    0    0  501    0  0.00000000000E+00 -0.00000000000E+00 -0.67046235862E+02  0.67058263050E+02  0.12700000000E+01 0.  1.
         25    2    1    2    0    0  0.00000000000E+00  0.00000000000E+00 -0.88046563991E+01  0.12531368750E+03  0.12500399314E+03 0.  0.
    9000005    1    3    3    0    0  0.37089439942E+02 -0.45763975971E+02  0.16518767238E+02  0.61186908101E+02  0.10000000000E+01 0.  0.
    9000005    1    3    3    0    0 -0.37089439942E+02  0.45763975971E+02 -0.25323423637E+02  0.64126779403E+02  0.10000000000E+01 0.  0.
<mgrwt>
<rscale>  0 0.12500399E+03</rscale>
<asrwt>0</asrwt>
<pdfrwt beam="2">  1        4 0.10316796E-01 0.12500399E+03</pdfrwt>
<pdfrwt beam="1">  1       -4 0.89622331E-02 0.12500399E+03</pdfrwt>
<totfact> 0.10445110E+04</totfact>
</mgrwt>
</event>
<event>
 5    1  0.3309219E-002  0.1249983E+03  0.7818608E-02  0.1235072E+00
          4   -1    0    0  501    0  0.00000000000E+00  0.00000000000E+00  0.30417201777E+02  0.30443703191E+02  0.12700000000E+01 0. -1.
         -4   -1    0    0    0  501 -0.00000000000E+00 -0.00000000000E+00 -0.12833342339E+03  0.12833970726E+03  0.12700000000E+01 0. -1.
         25    2    1    2    0    0  0.00000000000E+00  0.00000000000E+00 -0.97916221613E+02  0.15878341045E+03  0.12499833990E+03 0.  0.
    9000005    1    3    3    0    0  0.19049933150E+02  0.54989142737E+02 -0.20034645157E+02  0.61555607206E+02  0.10000000000E+01 0.  0.
    9000005    1    3    3    0    0 -0.19049933150E+02 -0.54989142737E+02 -0.77881576457E+02  0.97227803242E+02  0.10000000000E+01 0.  0.
<mgrwt>
<rscale>  0 0.12499834E+03</rscale>
<asrwt>0</asrwt>
<pdfrwt beam="1">  1        4 0.46820915E-02 0.12499834E+03</pdfrwt>
<pdfrwt beam="2">  1       -4 0.19746125E-01 0.12499834E+03</pdfrwt>
<totfact> 0.97581489E+03</totfact>
</mgrwt>
</event>
<event>
 5    1  0.3309219E-002  0.1250011E+03  0.7818608E-02  0.1235068E+00
          4   -1    0    0  501    0  0.00000000000E+00  0.00000000000E+00  0.45532765972E+03  0.45532943086E+03  0.12700000000E+01 0. -1.
         -4   -1    0    0    0  501 -0.00000000000E+00 -0.00000000000E+00 -0.85303350143E+01  0.86243559444E+01  0.12700000000E+01 0. -1.
         25    2    1    2    0    0  0.00000000000E+00  0.00000000000E+00  0.44679732471E+03  0.46395378680E+03  0.12500106769E+03 0.  0.
    9000005    1    3    3    0    0  0.33462520811E+02  0.49950752073E+02  0.16013808194E+03  0.17105561440E+03  0.10000000000E+01 0.  0.
    9000005    1    3    3    0    0 -0.33462520811E+02 -0.49950752073E+02  0.28665924277E+03  0.29289817240E+03  0.10000000000E+01 0.  0.
<mgrwt>
<rscale>  0 0.12500107E+03</rscale>
<asrwt>0</asrwt>
<pdfrwt beam="1">  1        4 0.70057788E-01 0.12500107E+03</pdfrwt>
<pdfrwt beam="2">  1       -4 0.13197277E-02 0.12500107E+03</pdfrwt>
<totfact> 0.58772367E+03</totfact>
</mgrwt>
</event>
<event>
 5    1  0.3309219E-002  0.1250047E+03  0.7818608E-02  0.1235062E+00
         -4   -1    0    0    0  501 -0.00000000000E+00  0.00000000000E+00  0.41375391921E+03  0.41375586831E+03  0.12700000000E+01 0. -1.
          4   -1    0    0  501    0  0.00000000000E+00 -0.00000000000E+00 -0.93970226805E+01  0.94824540736E+01  0.12700000000E+01 0. -1.
         25    2    1    2    0    0  0.00000000000E+00  0.00000000000E+00  0.40435689653E+03  0.42323832238E+03  0.12500471097E+03 0.  0.
    9000005    1    3    3    0    0  0.24629100550E+02  0.31242609367E+02  0.36535933911E+03  0.36752025782E+03  0.10000000000E+01 0.  0.
    9000005    1    3    3    0    0 -0.24629100550E+02 -0.31242609367E+02  0.38997557419E+02  0.55718064562E+02  0.10000000000E+01 0.  0.
<mgrwt>
<rscale>  0 0.12500471E+03</rscale>
<asrwt>0</asrwt>
<pdfrwt beam="2">  1        4 0.14524174E-02 0.12500471E+03</pdfrwt>
<pdfrwt beam="1">  1       -4 0.63661169E-01 0.12500471E+03</pdfrwt>
<totfact> 0.62347236E+03</totfact>
</mgrwt>
</event>
<event>
 5    1  0.3309219E-002  0.1249852E+03  0.7818608E-02  0.1235092E+00
         -4   -1    0    0    0  501 -0.00000000000E+00  0.00000000000E+00  0.30112961531E+03  0.30113229338E+03  0.12700000000E+01 0.  1.
          4   -1    0    0  501    0  0.00000000000E+00 -0.00000000000E+00 -0.12935084173E+02  0.12997280583E+02  0.12700000000E+01 0.  1.
         25    2    1    2    0    0  0.00000000000E+00  0.00000000000E+00  0.28819453113E+03  0.31412957396E+03  0.12498520497E+03 0.  0.
    9000005    1    3    3    0    0  0.61012060606E+02 -0.12755249729E+02  0.15509792821E+03  0.16715721722E+03  0.10000000000E+01 0.  0.
    9000005    1    3    3    0    0 -0.61012060606E+02  0.12755249729E+02  0.13309660292E+03  0.14697235674E+03  0.10000000000E+01 0.  0.
<mgrwt>
<rscale>  0 0.12498520E+03</rscale>
<asrwt>0</asrwt>
<pdfrwt beam="2">  1        4 0.19950033E-02 0.12498520E+03</pdfrwt>
<pdfrwt beam="1">  1       -4 0.46332624E-01 0.12498520E+03</pdfrwt>
<totfact> 0.73884053E+03</totfact>
</mgrwt>
</event>
<event>
 5    1  0.3309219E-002  0.1249986E+03  0.7818608E-02  0.1235071E+00
          4   -1    0    0  501    0  0.00000000000E+00  0.00000000000E+00  0.65856905749E+02  0.65869150099E+02  0.12700000000E+01 0.  1.
         -4   -1    0    0    0  501 -0.00000000000E+00 -0.00000000000E+00 -0.59288360678E+02  0.59301961282E+02  0.12700000000E+01 0.  1.
         25    2    1    2    0    0  0.00000000000E+00  0.00000000000E+00  0.65685450702E+01  0.12517111138E+03  0.12499864535E+03 0.  0.
    9000005    1    3    3    0    0  0.23937178227E+02 -0.40401326063E+02  0.44571120315E+02  0.64752146028E+02  0.10000000000E+01 0.  0.
    9000005    1    3    3    0    0 -0.23937178227E+02  0.40401326063E+02 -0.38002575245E+02  0.60418965353E+02  0.10000000000E+01 0.  0.
<mgrwt>
<rscale>  0 0.12499865E+03</rscale>
<asrwt>0</asrwt>
<pdfrwt beam="1">  1        4 0.10133820E-01 0.12499865E+03</pdfrwt>
<pdfrwt beam="2">  1       -4 0.91232743E-02 0.12499865E+03</pdfrwt>
<totfact> 0.10449467E+04</totfact>
</mgrwt>
</event>
<event>
 5    1  0.3309219E-002  0.1250001E+03  0.7818608E-02  0.1235069E+00
          4   -1    0    0  501    0  0.00000000000E+00  0.00000000000E+00  0.38242982204E+02  0.38264063922E+02  0.12700000000E+01 0. -1.
         -4   -1    0    0    0  501 -0.00000000000E+00 -0.00000000000E+00 -0.10208992345E+03  0.10209782255E+03  0.12700000000E+01 0. -1.
         25    2    1    2    0    0  0.00000000000E+00  0.00000000000E+00 -0.63846941247E+02  0.14036188648E+03  0.12500010907E+03 0.  0.
    9000005    1    3    3    0    0 -0.39996083547E+02 -0.44911101178E+02 -0.12848705069E+02  0.61504332612E+02  0.10000000000E+01 0.  0.
    9000005    1    3    3    0    0  0.39996083547E+02  0.44911101178E+02 -0.50998236178E+02  0.78857553864E+02  0.10000000000E+01 0.  0.
<mgrwt>
<rscale>  0 0.12500011E+03</rscale>
<asrwt>0</asrwt>
<pdfrwt beam="1">  1        4 0.58857650E-02 0.12500011E+03</pdfrwt>
<pdfrwt beam="2">  1       -4 0.15708371E-01 0.12500011E+03</pdfrwt>
<totfact> 0.10126066E+04</totfact>
</mgrwt>
</event>
<event>
 5    1  0.3309219E-002  0.1250012E+03  0.7818608E-02  0.1235067E+00
         -4   -1    0    0    0  501 -0.00000000000E+00  0.00000000000E+00  0.72810821613E+02  0.72821896734E+02  0.12700000000E+01 0. -1.
          4   -1    0    0  501    0  0.00000000000E+00 -0.00000000000E+00 -0.53627697218E+02  0.53642733049E+02  0.12700000000E+01 0. -1.
         25    2    1    2    0    0  0.00000000000E+00  0.00000000000E+00  0.19183124395E+02  0.12646462978E+03  0.12500124129E+03 0.  0.
    9000005    1    3    3    0    0 -0.38643515127E+02  0.20955487177E+02  0.54528597064E+02  0.70048708781E+02  0.10000000000E+01 0.  0.
    9000005    1    3    3    0    0  0.38643515127E+02 -0.20955487177E+02 -0.35345472669E+02  0.56415921001E+02  0.10000000000E+01 0.  0.
<mgrwt>
<rscale>  0 0.12500124E+03</rscale>
<asrwt>0</asrwt>
<pdfrwt beam="2">  1        4 0.82524235E-02 0.12500124E+03</pdfrwt>
<pdfrwt beam="1">  1       -4 0.11203673E-01 0.12500124E+03</pdfrwt>
<totfact> 0.10420508E+04</totfact>
</mgrwt>
</event>
<event>
 5    1  0.3309219E-002  0.1250004E+03  0.7818608E-02  0.1235069E+00
         -4   -1    0    0    0  501 -0.00000000000E+00  0.00000000000E+00  0.31575600046E+02  0.31601130016E+02  0.12700000000E+01 0. -1.
          4   -1    0    0  501    0  0.00000000000E+00 -0.00000000000E+00 -0.12363297708E+03  0.12363949984E+03  0.12700000000E+01 0. -1.
         25    2    1    2    0    0  0.00000000000E+00  0.00000000000E+00 -0.92057377029E+02  0.15524062985E+03  0.12500036997E+03 0.  0.
    9000005    1    3    3    0    0  0.52755095686E+02 -0.29409531705E+02 -0.26109398485E+02  0.65808216548E+02  0.10000000000E+01 0.  0.
    9000005    1    3    3    0    0 -0.52755095686E+02  0.29409531705E+02 -0.65947978544E+02  0.89432413307E+02  0.10000000000E+01 0.  0.
<mgrwt>
<rscale>  0 0.12500037E+03</rscale>
<asrwt>0</asrwt>
<pdfrwt beam="2">  1        4 0.19022923E-01 0.12500037E+03</pdfrwt>
<pdfrwt beam="1">  1       -4 0.48602503E-02 0.12500037E+03</pdfrwt>
<totfact> 0.98267463E+03</totfact>
</mgrwt>
</event>
<event>
 5    1  0.3309219E-002  0.1250137E+03  0.7818608E-02  0.1235048E+00
          4   -1    0    0  501    0  0.00000000000E+00  0.00000000000E+00  0.88683283192E+02  0.88692376322E+02  0.12700000000E+01 0.  1.
         -4   -1    0    0    0  501 -0.00000000000E+00 -0.00000000000E+00 -0.44036360864E+02  0.44054670333E+02  0.12700000000E+01 0.  1.
         25    2    1    2    0    0  0.00000000000E+00  0.00000000000E+00  0.44646922327E+02  0.13274704666E+03  0.12501372214E+03 0.  0.
    9000005    1    3    3    0    0  0.16397089405E+02  0.21375500611E+02 -0.37559511446E+02  0.46233034374E+02  0.10000000000E+01 0.  0.
    9000005    1    3    3    0    0 -0.16397089405E+02 -0.21375500611E+02  0.82206433773E+02  0.86514012282E+02  0.10000000000E+01 0.  0.
<mgrwt>
<rscale>  0 0.12501372E+03</rscale>
<asrwt>0</asrwt>
<pdfrwt beam="1">  1        4 0.13645690E-01 0.12501372E+03</pdfrwt>
<pdfrwt beam="2">  1       -4 0.67769327E-02 0.12501372E+03</pdfrwt>
<totfact> 0.10282596E+04</totfact>
</mgrwt>
</event>
<event>
 5    1  0.3309219E-002  0.1249922E+03  0.7818608E-02  0.1235081E+00
          4   -1    0    0  501    0  0.00000000000E+00  0.00000000000E+00  0.24262386981E+01  0.27385277469E+01  0.12700000000E+01 0.  1.
         -4   -1    0    0    0  501 -0.00000000000E+00 -0.00000000000E+00 -0.15121514650E+04  0.15121519983E+04  0.12700000000E+01 0.  1.
         25    2    1    2    0    0  0.00000000000E+00  0.00000000000E+00 -0.15097252263E+04  0.15148905260E+04  0.12499218781E+03 0.  0.
    9000005    1    3    3    0    0 -0.91787080672E+01 -0.58665221029E+02 -0.99078192784E+03  0.99256016713E+03  0.10000000000E+01 0.  0.
    9000005    1    3    3    0    0  0.91787080672E+01  0.58665221029E+02 -0.51894329842E+03  0.52233035889E+03  0.10000000000E+01 0.  0.
<mgrwt>
<rscale>  0 0.12499219E+03</rscale>
<asrwt>0</asrwt>
<pdfrwt beam="1">  1        4 0.39733196E-03 0.12499219E+03</pdfrwt>
<pdfrwt beam="2">  1       -4 0.23266204E+00 0.12499219E+03</pdfrwt>
<totfact> 0.17642645E+03</totfact>
</mgrwt>
</event>
<event>
 5    1  0.3309219E-002  0.1250068E+03  0.7818608E-02  0.1235059E+00
         -4   -1    0    0    0  501 -0.00000000000E+00  0.00000000000E+00  0.55622999670E+01  0.57054430961E+01  0.12700000000E+01 0.  1.
          4   -1    0    0  501    0  0.00000000000E+00 -0.00000000000E+00 -0.69328240035E+03  0.69328356358E+03  0.12700000000E+01 0.  1.
         25    2    1    2    0    0  0.00000000000E+00  0.00000000000E+00 -0.68772010038E+03  0.69898900668E+03  0.12500677977E+03 0.  0.
    9000005    1    3    3    0    0  0.29201888110E+02 -0.44738341207E+02 -0.16255009399E+03  0.17110757581E+03  0.10000000000E+01 0.  0.
    9000005    1    3    3    0    0 -0.29201888110E+02  0.44738341207E+02 -0.52517000639E+03  0.52788143086E+03  0.10000000000E+01 0.  0.
<mgrwt>
<rscale>  0 0.12500678E+03</rscale>
<asrwt>0</asrwt>
<pdfrwt beam="2">  1        4 0.10666986E+00 0.12500678E+03</pdfrwt>
<pdfrwt beam="1">  1       -4 0.86683949E-03 0.12500678E+03</pdfrwt>
<totfact> 0.43133735E+03</totfact>
</mgrwt>
</event>
<event>
 5    1  0.3309219E-002  0.1250046E+03  0.7818608E-02  0.1235062E+00
          4   -1    0    0  501    0  0.00000000000E+00  0.00000000000E+00  0.19147575947E+03  0.19147997119E+03  0.12700000000E+01 0.  1.
         -4   -1    0    0    0  501 -0.00000000000E+00 -0.00000000000E+00 -0.20378045948E+02  0.20417582047E+02  0.12700000000E+01 0.  1.
         25    2    1    2    0    0  0.00000000000E+00  0.00000000000E+00  0.17109771352E+03  0.21189755323E+03  0.12500458189E+03 0.  0.
    9000005    1    3    3    0    0  0.58161880152E+02 -0.21923707496E+02  0.96545344033E+02  0.11482794393E+03  0.10000000000E+01 0.  0.
    9000005    1    3    3    0    0 -0.58161880152E+02  0.21923707496E+02  0.74552369492E+02  0.97069609302E+02  0.10000000000E+01 0.  0.
<mgrwt>
<rscale>  0 0.12500458E+03</rscale>
<asrwt>0</asrwt>
<pdfrwt beam="1">  1        4 0.29461174E-01 0.12500458E+03</pdfrwt>
<pdfrwt beam="2">  1       -4 0.31384493E-02 0.12500458E+03</pdfrwt>
<totfact> 0.88157891E+03</totfact>
</mgrwt>
</event>
<event>
 5    1  0.3309219E-002  0.1249958E+03  0.7818608E-02  0.1235076E+00
         -4   -1    0    0    0  501 -0.00000000000E+00  0.00000000000E+00  0.43704288577E+02  0.43722737106E+02  0.12700000000E+01 0.  1.
          4   -1    0    0  501    0  0.00000000000E+00 -0.00000000000E+00 -0.89331258558E+02  0.89340285737E+02  0.12700000000E+01 0.  1.
         25    2    1    2    0    0  0.00000000000E+00  0.00000000000E+00 -0.45626969981E+02  0.13306302284E+03  0.12499579056E+03 0.  0.
    9000005    1    3    3    0    0 -0.56145070457E+01 -0.54339750004E+02  0.94871189840E+01  0.55455716986E+02  0.10000000000E+01 0.  0.
    9000005    1    3    3    0    0  0.56145070457E+01  0.54339750004E+02 -0.55114088965E+02  0.77607305856E+02  0.10000000000E+01 0.  0.
<mgrwt>
<rscale>  0 0.12499579E+03</rscale>
<asrwt>0</asrwt>
<pdfrwt beam="2">  1        4 0.13745384E-01 0.12499579E+03</pdfrwt>
<pdfrwt beam="1">  1       -4 0.67258503E-02 0.12499579E+03</pdfrwt>
<totfact> 0.10280037E+04</totfact>
</mgrwt>
</event>
<event>
 5    1  0.3309219E-002  0.1250018E+03  0.7818608E-02  0.1235066E+00
          4   -1    0    0  501    0  0.00000000000E+00  0.00000000000E+00  0.16949874770E+03  0.16950350549E+03  0.12700000000E+01 0.  1.
         -4   -1    0    0    0  501 -0.00000000000E+00 -0.00000000000E+00 -0.23023979607E+02  0.23058979530E+02  0.12700000000E+01 0.  1.
         25    2    1    2    0    0  0.00000000000E+00  0.00000000000E+00  0.14647476809E+03  0.19256248501E+03  0.12500181178E+03 0.  0.
    9000005    1    3    3    0    0  0.30790018061E+02 -0.43460432843E+01 -0.10268008473E+02  0.32761949002E+02  0.10000000000E+01 0.  0.
    9000005    1    3    3    0    0 -0.30790018061E+02  0.43460432843E+01  0.15674277657E+03  0.15980053601E+03  0.10000000000E+01 0.  0.
<mgrwt>
<rscale>  0 0.12500181E+03</rscale>
<asrwt>0</asrwt>
<pdfrwt beam="1">  1        4 0.26079788E-01 0.12500181E+03</pdfrwt>
<pdfrwt beam="2">  1       -4 0.35452091E-02 0.12500181E+03</pdfrwt>
<totfact> 0.91399645E+03</totfact>
</mgrwt>
</event>
<event>
 5    1  0.3309219E-002  0.1249997E+03  0.7818608E-02  0.1235070E+00
         -4   -1    0    0    0  501 -0.00000000000E+00  0.00000000000E+00  0.11468843030E+03  0.11469546175E+03  0.12700000000E+01 0.  1.
          4   -1    0    0  501    0  0.00000000000E+00 -0.00000000000E+00 -0.34039566511E+02  0.34063249820E+02  0.12700000000E+01 0.  1.
         25    2    1    2    0    0  0.00000000000E+00  0.00000000000E+00  0.80648863791E+02  0.14875871157E+03  0.12499966014E+03 0.  0.
    9000005    1    3    3    0    0 -0.44402116570E+02 -0.12516842802E+02 -0.98426043392E+01  0.47181523606E+02  0.10000000000E+01 0.  0.
    9000005    1    3    3    0    0  0.44402116570E+02  0.12516842802E+02  0.90491468130E+02  0.10157718796E+03  0.10000000000E+01 0.  0.
<mgrwt>
<rscale>  0 0.12499966E+03</rscale>
<asrwt>0</asrwt>
<pdfrwt beam="2">  1        4 0.52392190E-02 0.12499966E+03</pdfrwt>
<pdfrwt beam="1">  1       -4 0.17646737E-01 0.12499966E+03</pdfrwt>
<totfact> 0.99552469E+03</totfact>
</mgrwt>
</event>
<event>
 5    1  0.3309219E-002  0.1249999E+03  0.7818608E-02  0.1235069E+00
          4   -1    0    0  501    0  0.00000000000E+00  0.00000000000E+00  0.10213009367E+02  0.10291669462E+02  0.12700000000E+01 0.  1.
         -4   -1    0    0    0  501 -0.00000000000E+00 -0.00000000000E+00 -0.38093044367E+03  0.38093256072E+03  0.12700000000E+01 0.  1.
         25    2    1    2    0    0  0.00000000000E+00  0.00000000000E+00 -0.37071743430E+03  0.39122423018E+03  0.12499992873E+03 0.  0.
    9000005    1    3    3    0    0 -0.25206333717E+02 -0.31738663362E+02 -0.33423120685E+03  0.33668115724E+03  0.10000000000E+01 0.  0.
    9000005    1    3    3    0    0  0.25206333717E+02  0.31738663362E+02 -0.36486227456E+02  0.54543072937E+02  0.10000000000E+01 0.  0.
<mgrwt>
<rscale>  0 0.12499993E+03</rscale>
<asrwt>0</asrwt>
<pdfrwt beam="1">  1        4 0.15774461E-02 0.12499993E+03</pdfrwt>
<pdfrwt beam="2">  1       -4 0.58610886E-01 0.12499993E+03</pdfrwt>
<totfact> 0.65415461E+03</totfact>
</mgrwt>
</event>
<event>
 5    1  0.3309219E-002  0.1250019E+03  0.7818608E-02  0.1235066E+00
         -4   -1    0    0    0  501 -0.00000000000E+00  0.00000000000E+00  0.19185923460E+03  0.19186343789E+03  0.12700000000E+01 0. -1.
          4   -1    0    0  501    0  0.00000000000E+00 -0.00000000000E+00 -0.20336369743E+02  0.20375986708E+02  0.12700000000E+01 0. -1.
         25    2    1    2    0    0  0.00000000000E+00  0.00000000000E+00  0.17152286485E+03  0.21223942460E+03  0.12500192073E+03 0.  0.
    9000005    1    3    3    0    0  0.45920077611E+02  0.60655513274E+01  0.14532484725E+02  0.48555510017E+02  0.10000000000E+01 0.  0.
    9000005    1    3    3    0    0 -0.45920077611E+02 -0.60655513274E+01  0.15699038013E+03  0.16368391458E+03  0.10000000000E+01 0.  0.
<mgrwt>
<rscale>  0 0.12500192E+03</rscale>
<asrwt>0</asrwt>
<pdfrwt beam="2">  1        4 0.31320430E-02 0.12500192E+03</pdfrwt>
<pdfrwt beam="1">  1       -4 0.29520176E-01 0.12500192E+03</pdfrwt>
<totfact> 0.88107671E+03</totfact>
</mgrwt>
</event>
<event>
 5    1  0.3309219E-002  0.1250032E+03  0.7818608E-02  0.1235064E+00
          4   -1    0    0  501    0  0.00000000000E+00  0.00000000000E+00  0.59775549200E+02  0.59789038980E+02  0.12700000000E+01 0. -1.
         -4   -1    0    0    0  501 -0.00000000000E+00 -0.00000000000E+00 -0.65324915024E+02  0.65337259070E+02  0.12700000000E+01 0. -1.
         25    2    1    2    0    0  0.00000000000E+00  0.00000000000E+00 -0.55493658238E+01  0.12512629805E+03  0.12500317997E+03 0.  0.
    9000005    1    3    3    0    0  0.45784725567E+02 -0.27038540749E+01 -0.45265246847E+02  0.64447610461E+02  0.10000000000E+01 0.  0.
    9000005    1    3    3    0    0 -0.45784725567E+02  0.27038540749E+01  0.39715881023E+02  0.60678687589E+02  0.10000000000E+01 0.  0.
<mgrwt>
<rscale>  0 0.12500318E+03</rscale>
<asrwt>0</asrwt>
<pdfrwt beam="1">  1        4 0.91982256E-02 0.12500318E+03</pdfrwt>
<pdfrwt beam="2">  1       -4 0.10051974E-01 0.12500318E+03</pdfrwt>
<totfact> 0.10449369E+04</totfact>
</mgrwt>
</event>
<event>
 5    1  0.3309219E-002  0.1250003E+03  0.7818608E-02  0.1235069E+00
          4   -1    0    0  501    0  0.00000000000E+00  0.00000000000E+00  0.40247150698E+01  0.42203354598E+01  0.12700000000E+01 0. -1.
         -4   -1    0    0    0  501 -0.00000000000E+00 -0.00000000000E+00 -0.94734682630E+03  0.94734767757E+03  0.12700000000E+01 0. -1.
         25    2    1    2    0    0  0.00000000000E+00  0.00000000000E+00 -0.94332211123E+03  0.95156801303E+03  0.12500031156E+03 0.  0.
    9000005    1    3    3    0    0 -0.19793668210E+02  0.32449541677E+02 -0.94053149672E+02  0.10144829727E+03  0.10000000000E+01 0.  0.
    9000005    1    3    3    0    0  0.19793668210E+02 -0.32449541677E+02 -0.84926896156E+03  0.85011971576E+03  0.10000000000E+01 0.  0.
<mgrwt>
<rscale>  0 0.12500031E+03</rscale>
<asrwt>0</asrwt>
<pdfrwt beam="1">  1        4 0.63430089E-03 0.12500031E+03</pdfrwt>
<pdfrwt beam="2">  1       -4 0.14576061E+00 0.12500031E+03</pdfrwt>
<totfact> 0.32260183E+03</totfact>
</mgrwt>
</event>
<event>
 5    1  0.3309219E-002  0.1249995E+03  0.7818608E-02  0.1235070E+00
         -4   -1    0    0    0  501 -0.00000000000E+00  0.00000000000E+00  0.11912651025E+03  0.11913327975E+03  0.12700000000E+01 0. -1.
          4   -1    0    0  501    0  0.00000000000E+00 -0.00000000000E+00 -0.32770483518E+02  0.32795083321E+02  0.12700000000E+01 0. -1.
         25    2    1    2    0    0  0.00000000000E+00  0.00000000000E+00  0.86356026735E+02  0.15192836307E+03  0.12499945661E+03 0.  0.
    9000005    1    3    3    0    0  0.44100259701E+02 -0.43947067113E+02  0.49727650814E+02  0.79686993098E+02  0.10000000000E+01 0.  0.
    9000005    1    3    3    0    0 -0.44100259701E+02  0.43947067113E+02  0.36628375920E+02  0.72241369977E+02  0.10000000000E+01 0.  0.
<mgrwt>
<rscale>  0 0.12499946E+03</rscale>
<asrwt>0</asrwt>
<pdfrwt beam="2">  1        4 0.50440258E-02 0.12499946E+03</pdfrwt>
<pdfrwt beam="1">  1       -4 0.18329569E-01 0.12499946E+03</pdfrwt>
<totfact> 0.98921897E+03</totfact>
</mgrwt>
</event>
<event>
 5    1  0.3309219E-002  0.1249962E+03  0.7818608E-02  0.1235075E+00
          4   -1    0    0  501    0  0.00000000000E+00  0.00000000000E+00  0.37754156025E+01  0.39832980019E+01  0.12700000000E+01 0. -1.
         -4   -1    0    0    0  501 -0.00000000000E+00 -0.00000000000E+00 -0.10066629493E+04  0.10066637504E+04  0.12700000000E+01 0. -1.
         25    2    1    2    0    0  0.00000000000E+00  0.00000000000E+00 -0.10028875337E+04  0.10106470484E+04  0.12499620483E+03 0.  0.
    9000005    1    3    3    0    0 -0.46851965988E+02 -0.40874685597E+02 -0.45084287002E+03  0.45511112938E+03  0.10000000000E+01 0.  0.
    9000005    1    3    3    0    0  0.46851965988E+02  0.40874685597E+02 -0.55204466368E+03  0.55553591903E+03  0.10000000000E+01 0.  0.
<mgrwt>
<rscale>  0 0.12499620E+03</rscale>
<asrwt>0</asrwt>
<pdfrwt beam="1">  1        4 0.59688655E-03 0.12499620E+03</pdfrwt>
<pdfrwt beam="2">  1       -4 0.15488707E+00 0.12499620E+03</pdfrwt>
<totfact> 0.30258042E+03</totfact>
</mgrwt>
</event>
<event>
 5    1  0.3309219E-002  0.1249967E+03  0.7818608E-02  0.1235074E+00
         -4   -1    0    0    0  501 -0.00000000000E+00  0.00000000000E+00  0.30283221973E+02  0.30309840532E+02  0.12700000000E+01 0.  1.
          4   -1    0    0  501    0  0.00000000000E+00 -0.00000000000E+00 -0.12889734647E+03  0.12890360284E+03  0.12700000000E+01 0.  1.
         25    2    1    2    0    0  0.00000000000E+00  0.00000000000E+00 -0.98614124492E+02  0.15921344338E+03  0.12499669996E+03 0.  0.
    9000005    1    3    3    0    0 -0.43334686679E+02 -0.44992127345E+02 -0.51460083455E+02  0.80940266752E+02  0.10000000000E+01 0.  0.
    9000005    1    3    3    0    0  0.43334686679E+02  0.44992127345E+02 -0.47154041037E+02  0.78273176624E+02  0.10000000000E+01 0.  0.
<mgrwt>
<rscale>  0 0.12499670E+03</rscale>
<asrwt>0</asrwt>
<pdfrwt beam="2">  1        4 0.19832890E-01 0.12499670E+03</pdfrwt>
<pdfrwt beam="1">  1       -4 0.46614861E-02 0.12499670E+03</pdfrwt>
<totfact> 0.97501874E+03</totfact>
</mgrwt>
</event>
<event>
 5    1  0.3309219E-002  0.1249998E+03  0.7818608E-02  0.1235070E+00
         -4   -1    0    0    0  501 -0.00000000000E+00  0.00000000000E+00  0.10928231765E+03  0.10928969691E+03  0.12700000000E+01 0. -1.
          4   -1    0    0  501    0  0.00000000000E+00 -0.00000000000E+00 -0.35724563629E+02  0.35747130605E+02  0.12700000000E+01 0. -1.
         25    2    1    2    0    0  0.00000000000E+00  0.00000000000E+00  0.73557754016E+02  0.14503682751E+03  0.12499975263E+03 0.  0.
    9000005    1    3    3    0    0 -0.14412295359E+01  0.36100481710E+02 -0.22383894950E+02  0.42513064761E+02  0.10000000000E+01 0.  0.
    9000005    1    3    3    0    0  0.14412295359E+01 -0.36100481710E+02  0.95941648966E+02  0.10252376275E+03  0.10000000000E+01 0.  0.
<mgrwt>
<rscale>  0 0.12499975E+03</rscale>
<asrwt>0</asrwt>
<pdfrwt beam="2">  1        4 0.54983903E-02 0.12499975E+03</pdfrwt>
<pdfrwt beam="1">  1       -4 0.16814968E-01 0.12499975E+03</pdfrwt>
<totfact> 0.10030296E+04</totfact>
</mgrwt>
</event>
<event>
 5    1  0.3309219E-002  0.1249963E+03  0.7818608E-02  0.1235075E+00
         -4   -1    0    0    0  501 -0.00000000000E+00  0.00000000000E+00  0.57267979197E+01  0.58659282652E+01  0.12700000000E+01 0.  1.
          4   -1    0    0  501    0  0.00000000000E+00 -0.00000000000E+00 -0.67373428881E+03  0.67373548580E+03  0.12700000000E+01 0.  1.
         25    2    1    2    0    0  0.00000000000E+00  0.00000000000E+00 -0.66800749089E+03  0.67960141406E+03  0.12499629637E+03 0.  0.
    9000005    1    3    3    0    0 -0.48874301646E+02  0.36192202496E+02 -0.41212334172E+03  0.41658759184E+03  0.10000000000E+01 0.  0.
    9000005    1    3    3    0    0  0.48874301646E+02 -0.36192202496E+02 -0.25588414917E+03  0.26301382223E+03  0.10000000000E+01 0.  0.
<mgrwt>
<rscale>  0 0.12499630E+03</rscale>
<asrwt>0</asrwt>
<pdfrwt beam="2">  1        4 0.10366216E+00 0.12499630E+03</pdfrwt>
<pdfrwt beam="1">  1       -4 0.89184078E-03 0.12499630E+03</pdfrwt>
<totfact> 0.44189212E+03</totfact>
</mgrwt>
</event>
<event>
 5    1  0.3309219E-002  0.1250064E+03  0.7818608E-02  0.1235059E+00
          4   -1    0    0  501    0  0.00000000000E+00  0.00000000000E+00  0.62056945330E+02  0.62069939292E+02  0.12700000000E+01 0. -1.
         -4   -1    0    0    0  501 -0.00000000000E+00 -0.00000000000E+00 -0.62926633919E+02  0.62939448333E+02  0.12700000000E+01 0. -1.
         25    2    1    2    0    0  0.00000000000E+00  0.00000000000E+00 -0.86968858891E+00  0.12500938762E+03  0.12500636238E+03 0.  0.
    9000005    1    3    3    0    0 -0.18402743689E+02  0.55208807904E+02  0.22346712564E+02  0.62346202835E+02  0.10000000000E+01 0.  0.
    9000005    1    3    3    0    0  0.18402743689E+02 -0.55208807904E+02 -0.23216401153E+02  0.62663184790E+02  0.10000000000E+01 0.  0.
<mgrwt>
<rscale>  0 0.12500636E+03</rscale>
<asrwt>0</asrwt>
<pdfrwt beam="1">  1        4 0.95492076E-02 0.12500636E+03</pdfrwt>
<pdfrwt beam="2">  1       -4 0.96830059E-02 0.12500636E+03</pdfrwt>
<totfact> 0.10451156E+04</totfact>
</mgrwt>
</event>
<event>
 5    1  0.3309219E-002  0.1249982E+03  0.7818608E-02  0.1235072E+00
         -4   -1    0    0    0  501 -0.00000000000E+00  0.00000000000E+00  0.31410520952E+02  0.31436184986E+02  0.12700000000E+01 0.  1.
          4   -1    0    0  501    0  0.00000000000E+00 -0.00000000000E+00 -0.12427787802E+03  0.12428436693E+03  0.12700000000E+01 0.  1.
         25    2    1    2    0    0  0.00000000000E+00  0.00000000000E+00 -0.92867357064E+02  0.15572055192E+03  0.12499817711E+03 0.  0.
    9000005    1    3    3    0    0  0.49141825532E+02 -0.33948096993E+02 -0.23538927532E+02  0.64206490446E+02  0.10000000000E+01 0.  0.
    9000005    1    3    3    0    0 -0.49141825532E+02  0.33948096993E+02 -0.69328429532E+02  0.91514061473E+02  0.10000000000E+01 0.  0.
<mgrwt>
<rscale>  0 0.12499818E+03</rscale>
<asrwt>0</asrwt>
<pdfrwt beam="2">  1        4 0.19122147E-01 0.12499818E+03</pdfrwt>
<pdfrwt beam="1">  1       -4 0.48348612E-02 0.12499818E+03</pdfrwt>
<totfact> 0.98178256E+03</totfact>
</mgrwt>
</event>
<event>
 5    1  0.3309219E-002  0.1250011E+03  0.7818608E-02  0.1235067E+00
          4   -1    0    0  501    0  0.00000000000E+00  0.00000000000E+00  0.45034110733E+01  0.46790609416E+01  0.12700000000E+01 0.  1.
         -4   -1    0    0    0  501 -0.00000000000E+00 -0.00000000000E+00 -0.85064520970E+03  0.85064615774E+03  0.12700000000E+01 0.  1.
         25    2    1    2    0    0  0.00000000000E+00  0.00000000000E+00 -0.84614179863E+03  0.85532521869E+03  0.12500114534E+03 0.  0.
    9000005    1    3    3    0    0  0.13721546922E+02 -0.52666191206E+02 -0.21291324937E+03  0.21976137127E+03  0.10000000000E+01 0.  0.
    9000005    1    3    3    0    0 -0.13721546922E+02  0.52666191206E+02 -0.63322854926E+03  0.63556384742E+03  0.10000000000E+01 0.  0.
<mgrwt>
<rscale>  0 0.12500115E+03</rscale>
<asrwt>0</asrwt>
<pdfrwt beam="1">  1        4 0.70641760E-03 0.12500115E+03</pdfrwt>
<pdfrwt beam="2">  1       -4 0.13088195E+00 0.12500115E+03</pdfrwt>
<totfact> 0.35909529E+03</totfact>
</mgrwt>
</event>
<event>
 5    1  0.3309219E-002  0.1250002E+03  0.7818608E-02  0.1235069E+00
          4   -1    0    0  501    0  0.00000000000E+00  0.00000000000E+00  0.48966592873E+02  0.48983059496E+02  0.12700000000E+01 0.  1.
         -4   -1    0    0    0  501 -0.00000000000E+00 -0.00000000000E+00 -0.79739060233E+02  0.79749173205E+02  0.12700000000E+01 0.  1.
         25    2    1    2    0    0  0.00000000000E+00  0.00000000000E+00 -0.30772467359E+02  0.12873223270E+03  0.12500017196E+03 0.  0.
    9000005    1    3    3    0    0  0.37543019862E+02 -0.86368932923E+01  0.35288422569E+02  0.52252722738E+02  0.10000000000E+01 0.  0.
    9000005    1    3    3    0    0 -0.37543019862E+02  0.86368932923E+01 -0.66060889928E+02  0.76479509963E+02  0.10000000000E+01 0.  0.
<mgrwt>
<rscale>  0 0.12500017E+03</rscale>
<asrwt>0</asrwt>
<pdfrwt beam="1">  1        4 0.75353666E-02 0.12500017E+03</pdfrwt>
<pdfrwt beam="2">  1       -4 0.12269592E-01 0.12500017E+03</pdfrwt>
<totfact> 0.10371664E+04</totfact>
</mgrwt>
</event>
<event>
 5    1  0.3309219E-002  0.1249974E+03  0.7818608E-02  0.1235073E+00
         -4   -1    0    0    0  501 -0.00000000000E+00  0.00000000000E+00  0.10739251632E+03  0.10740002543E+03  0.12700000000E+01 0. -1.
          4   -1    0    0  501    0  0.00000000000E+00 -0.00000000000E+00 -0.36352193997E+02  0.36374371587E+02  0.12700000000E+01 0. -1.
         25    2    1    2    0    0  0.00000000000E+00  0.00000000000E+00  0.71040322324E+02  0.14377439701E+03  0.12499739934E+03 0.  0.
    9000005    1    3    3    0    0 -0.21758556158E+02 -0.42516846790E+02 -0.10831962506E+02  0.48984165184E+02  0.10000000000E+01 0.  0.
    9000005    1    3    3    0    0  0.21758556158E+02  0.42516846790E+02  0.81872284830E+02  0.94790231830E+02  0.10000000000E+01 0.  0.
<mgrwt>
<rscale>  0 0.12499740E+03</rscale>
<asrwt>0</asrwt>
<pdfrwt beam="2">  1        4 0.55949289E-02 0.12499740E+03</pdfrwt>
<pdfrwt beam="1">  1       -4 0.16524209E-01 0.12499740E+03</pdfrwt>
<totfact> 0.10056539E+04</totfact>
</mgrwt>
</event>
<event>
 5    1  0.3309219E-002  0.1250055E+03  0.7818608E-02  0.1235061E+00
          4   -1    0    0  501    0  0.00000000000E+00  0.00000000000E+00  0.55511850619E+03  0.55511995894E+03  0.12700000000E+01 0. -1.
         -4   -1    0    0    0  501 -0.00000000000E+00 -0.00000000000E+00 -0.69786365513E+01  0.70932551142E+01  0.12700000000E+01 0. -1.
         25    2    1    2    0    0  0.00000000000E+00  0.00000000000E+00  0.54813986964E+03  0.56221321405E+03  0.12500552536E+03 0.  0.
    9000005    1    3    3    0    0  0.33025559228E+02 -0.24422529440E+02  0.48590431671E+03  0.48763834191E+03  0.10000000000E+01 0.  0.
    9000005    1    3    3    0    0 -0.33025559228E+02  0.24422529440E+02  0.62235552926E+02  0.74574872139E+02  0.10000000000E+01 0.  0.
<mgrwt>
<rscale>  0 0.12500553E+03</rscale>
<asrwt>0</asrwt>
<pdfrwt beam="1">  1        4 0.85411821E-01 0.12500553E+03</pdfrwt>
<pdfrwt beam="2">  1       -4 0.10825644E-02 0.12500553E+03</pdfrwt>
<totfact> 0.51336883E+03</totfact>
</mgrwt>
</event>
<event>
 5    1  0.3309219E-002  0.1250022E+03  0.7818608E-02  0.1235066E+00
          4   -1    0    0  501    0  0.00000000000E+00  0.00000000000E+00  0.78386793660E+01  0.79408937912E+01  0.12700000000E+01 0. -1.
         -4   -1    0    0    0  501 -0.00000000000E+00 -0.00000000000E+00 -0.49501685901E+03  0.49501848814E+03  0.12700000000E+01 0. -1.
         25    2    1    2    0    0  0.00000000000E+00  0.00000000000E+00 -0.48717817964E+03  0.50295938193E+03  0.12500224460E+03 0.  0.
    9000005    1    3    3    0    0 -0.17829588466E+02 -0.50396596501E+02 -0.37382454958E+03  0.37762879264E+03  0.10000000000E+01 0.  0.
    9000005    1    3    3    0    0  0.17829588466E+02  0.50396596501E+02 -0.11335363006E+03  0.12533058929E+03  0.10000000000E+01 0.  0.
<mgrwt>
<rscale>  0 0.12500224E+03</rscale>
<asrwt>0</asrwt>
<pdfrwt beam="1">  1        4 0.12139390E-02 0.12500224E+03</pdfrwt>
<pdfrwt beam="2">  1       -4 0.76164403E-01 0.12500224E+03</pdfrwt>
<totfact> 0.55632749E+03</totfact>
</mgrwt>
</event>
<event>
 5    1  0.3309219E-002  0.1249994E+03  0.7818608E-02  0.1235070E+00
          4   -1    0    0  501    0  0.00000000000E+00  0.00000000000E+00  0.46776334087E+02  0.46793571467E+02  0.12700000000E+01 0.  1.
         -4   -1    0    0    0  501 -0.00000000000E+00 -0.00000000000E+00 -0.83470893952E+02  0.83480554844E+02  0.12700000000E+01 0.  1.
         25    2    1    2    0    0  0.00000000000E+00  0.00000000000E+00 -0.36694559865E+02  0.13027412631E+03  0.12499942905E+03 0.  0.
    9000005    1    3    3    0    0  0.56871936443E+02  0.23647503441E+02 -0.29356793071E+02  0.68238133571E+02  0.10000000000E+01 0.  0.
    9000005    1    3    3    0    0 -0.56871936443E+02 -0.23647503441E+02 -0.73377667937E+01  0.62035992740E+02  0.10000000000E+01 0.  0.
<mgrwt>
<rscale>  0 0.12499943E+03</rscale>
<asrwt>0</asrwt>
<pdfrwt beam="1">  1        4 0.71984282E-02 0.12499943E+03</pdfrwt>
<pdfrwt beam="2">  1       -4 0.12843745E-01 0.12499943E+03</pdfrwt>
<totfact> 0.10338780E+04</totfact>
</mgrwt>
</event>
<event>
 5    1  0.3309219E-002  0.1250043E+03  0.7818608E-02  0.1235063E+00
          4   -1    0    0  501    0  0.00000000000E+00  0.00000000000E+00  0.19071015621E+04  0.19071019850E+04  0.12700000000E+01 0.  1.
         -4   -1    0    0    0  501 -0.00000000000E+00 -0.00000000000E+00 -0.18510952317E+01  0.22448727262E+01  0.12700000000E+01 0.  1.
         25    2    1    2    0    0  0.00000000000E+00  0.00000000000E+00  0.19052504669E+04  0.19093468577E+04  0.12500432585E+03 0.  0.
    9000005    1    3    3    0    0  0.19685208900E+02  0.36614528574E+02  0.16653598010E+04  0.16658788665E+04  0.10000000000E+01 0.  0.
    9000005    1    3    3    0    0 -0.19685208900E+02 -0.36614528574E+02  0.23989066589E+03  0.24346799119E+03  0.10000000000E+01 0.  0.
<mgrwt>
<rscale>  0 0.12500433E+03</rscale>
<asrwt>0</asrwt>
<pdfrwt beam="1">  1        4 0.29343252E+00 0.12500433E+03</pdfrwt>
<pdfrwt beam="2">  1       -4 0.31510489E-03 0.12500433E+03</pdfrwt>
<totfact> 0.11089996E+03</totfact>
</mgrwt>
</event>
<event>
 5    1  0.3309219E-002  0.1250089E+03  0.7818608E-02  0.1235055E+00
         -4   -1    0    0    0  501 -0.00000000000E+00  0.00000000000E+00  0.55762675041E+02  0.55777135349E+02  0.12700000000E+01 0. -1.
          4   -1    0    0  501    0  0.00000000000E+00 -0.00000000000E+00 -0.70032068476E+02  0.70043582969E+02  0.12700000000E+01 0. -1.
         25    2    1    2    0    0  0.00000000000E+00  0.00000000000E+00 -0.14269393435E+02  0.12582071832E+03  0.12500894996E+03 0.  0.
    9000005    1    3    3    0    0  0.45528067872E+02  0.18160020626E+02 -0.46157821999E+02  0.67335992196E+02  0.10000000000E+01 0.  0.
    9000005    1    3    3    0    0 -0.45528067872E+02 -0.18160020626E+02  0.31888428563E+02  0.58484726122E+02  0.10000000000E+01 0.  0.
<mgrwt>
<rscale>  0 0.12500895E+03</rscale>
<asrwt>0</asrwt>
<pdfrwt beam="2">  1        4 0.10776162E-01 0.12500895E+03</pdfrwt>
<pdfrwt beam="1">  1       -4 0.85808712E-02 0.12500895E+03</pdfrwt>
<totfact> 0.10432783E+04</totfact>
</mgrwt>
</event>
<event>
 5    1  0.3309219E-002  0.1249914E+03  0.7818608E-02  0.1235083E+00
         -4   -1    0    0    0  501 -0.00000000000E+00  0.00000000000E+00  0.12629521342E+04  0.12629527728E+04  0.12700000000E+01 0.  1.
          4   -1    0    0  501    0  0.00000000000E+00 -0.00000000000E+00 -0.29614727721E+01  0.32223005726E+01  0.12700000000E+01 0.  1.
         25    2    1    2    0    0  0.00000000000E+00  0.00000000000E+00  0.12599906615E+04  0.12661750734E+04  0.12499139731E+03 0.  0.
    9000005    1    3    3    0    0 -0.29807531818E+02 -0.50738665197E+02  0.41706769976E+03  0.42119991368E+03  0.10000000000E+01 0.  0.
    9000005    1    3    3    0    0  0.29807531818E+02  0.50738665197E+02  0.84292296170E+03  0.84497515967E+03  0.10000000000E+01 0.  0.
<mgrwt>
<rscale>  0 0.12499140E+03</rscale>
<asrwt>0</asrwt>
<pdfrwt beam="2">  1        4 0.47572371E-03 0.12499140E+03</pdfrwt>
<pdfrwt beam="1">  1       -4 0.19432056E+00 0.12499140E+03</pdfrwt>
<totfact> 0.23045495E+03</totfact>
</mgrwt>
</event>
<event>
 5    1  0.3309219E-002  0.1250016E+03  0.7818608E-02  0.1235067E+00
         -4   -1    0    0    0  501 -0.00000000000E+00  0.00000000000E+00  0.13745383616E+02  0.13803929540E+02  0.12700000000E+01 0. -1.
          4   -1    0    0  501    0  0.00000000000E+00 -0.00000000000E+00 -0.28352973871E+03  0.28353258302E+03  0.12700000000E+01 0. -1.
         25    2    1    2    0    0  0.00000000000E+00  0.00000000000E+00 -0.26978435509E+03  0.29733651256E+03  0.12500161378E+03 0.  0.
    9000005    1    3    3    0    0  0.26145735571E+02 -0.32306173738E+02 -0.23880722888E+02  0.47943480013E+02  0.10000000000E+01 0.  0.
    9000005    1    3    3    0    0 -0.26145735571E+02  0.32306173738E+02 -0.24590363220E+03  0.24939303254E+03  0.10000000000E+01 0.  0.
<mgrwt>
<rscale>  0 0.12500161E+03</rscale>
<asrwt>0</asrwt>
<pdfrwt beam="2">  1        4 0.43624678E-01 0.12500161E+03</pdfrwt>
<pdfrwt beam="1">  1       -4 0.21193969E-02 0.12500161E+03</pdfrwt>
<totfact> 0.75931442E+03</totfact>
</mgrwt>
</event>
<event>
 5    1  0.3309219E-002  0.1249993E+03  0.7818608E-02  0.1235070E+00
         -4   -1    0    0    0  501 -0.00000000000E+00  0.00000000000E+00  0.39035534988E+03  0.39035741581E+03  0.12700000000E+01 0.  1.
          4   -1    0    0  501    0  0.00000000000E+00 -0.00000000000E+00 -0.99644064013E+01  0.10045013436E+02  0.12700000000E+01 0.  1.
         25    2    1    2    0    0  0.00000000000E+00  0.00000000000E+00  0.38039094348E+03  0.40040242925E+03  0.12499934187E+03 0.  0.
    9000005    1    3    3    0    0 -0.36169456357E+00 -0.59044377884E+02  0.12463942060E+03  0.13792155216E+03  0.10000000000E+01 0.  0.
    9000005    1    3    3    0    0  0.36169456357E+00  0.59044377884E+02  0.25575152288E+03  0.26248087709E+03  0.10000000000E+01 0.  0.
<mgrwt>
<rscale>  0 0.12499934E+03</rscale>
<asrwt>0</asrwt>
<pdfrwt beam="2">  1        4 0.15393451E-02 0.12499934E+03</pdfrwt>
<pdfrwt beam="1">  1       -4 0.60061027E-01 0.12499934E+03</pdfrwt>
<totfact> 0.64514605E+03</totfact>
</mgrwt>
</event>
<event>
 5    1  0.3309219E-002  0.1250003E+03  0.7818608E-02  0.1235069E+00
          4   -1    0    0  501    0  0.00000000000E+00  0.00000000000E+00  0.13695813206E+03  0.13696402023E+03  0.12700000000E+01 0.  1.
         -4   -1    0    0    0  501 -0.00000000000E+00 -0.00000000000E+00 -0.28500970163E+02  0.28529251659E+02  0.12700000000E+01 0.  1.
         25    2    1    2    0    0  0.00000000000E+00  0.00000000000E+00  0.10845716190E+03  0.16549327189E+03  0.12500026830E+03 0.  0.
    9000005    1    3    3    0    0  0.51299889957E+02 -0.19742706398E+02  0.14869065982E+02  0.56952105217E+02  0.10000000000E+01 0.  0.
    9000005    1    3    3    0    0 -0.51299889957E+02  0.19742706398E+02  0.93588095919E+02  0.10854116668E+03  0.10000000000E+01 0.  0.
<mgrwt>
<rscale>  0 0.12500027E+03</rscale>
<asrwt>0</asrwt>
<pdfrwt beam="1">  1        4 0.21073110E-01 0.12500027E+03</pdfrwt>
<pdfrwt beam="2">  1       -4 0.43873932E-02 0.12500027E+03</pdfrwt>
<totfact> 0.96293476E+03</totfact>
</mgrwt>
</event>
<event>
 5    1  0.3309219E-002  0.1250033E+03  0.7818608E-02  0.1235064E+00
         -4   -1    0    0    0  501 -0.00000000000E+00  0.00000000000E+00  0.10422298003E+03  0.10423071748E+03  0.12700000000E+01 0.  1.
          4   -1    0    0  501    0  0.00000000000E+00 -0.00000000000E+00 -0.37461826924E+02  0.37483347990E+02  0.12700000000E+01 0.  1.
         25    2    1    2    0    0  0.00000000000E+00  0.00000000000E+00  0.66761153103E+02  0.14171406547E+03  0.12500329911E+03 0.  0.
    9000005    1    3    3    0    0  0.27459545732E+02  0.54456527630E+01  0.96722644855E+02  0.10069732774E+03  0.10000000000E+01 0.  0.
    9000005    1    3    3    0    0 -0.27459545732E+02 -0.54456527630E+01 -0.29961491752E+02  0.41016737728E+02  0.10000000000E+01 0.  0.
<mgrwt>
<rscale>  0 0.12500330E+03</rscale>
<asrwt>0</asrwt>
<pdfrwt beam="2">  1        4 0.57656088E-02 0.12500330E+03</pdfrwt>
<pdfrwt beam="1">  1       -4 0.16036555E-01 0.12500330E+03</pdfrwt>
<totfact> 0.10097433E+04</totfact>
</mgrwt>
</event>
<event>
 5    1  0.3309219E-002  0.1250119E+03  0.7818608E-02  0.1235051E+00
          4   -1    0    0  501    0  0.00000000000E+00  0.00000000000E+00  0.36846940636E+03  0.36847159500E+03  0.12700000000E+01 0. -1.
         -4   -1    0    0    0  501 -0.00000000000E+00 -0.00000000000E+00 -0.10563048142E+02  0.10639120548E+02  0.12700000000E+01 0. -1.
         25    2    1    2    0    0  0.00000000000E+00  0.00000000000E+00  0.35790635822E+03  0.37911071555E+03  0.12501189300E+03 0.  0.
    9000005    1    3    3    0    0  0.15667002671E+02 -0.14814529845E+02  0.10591543487E+01  0.21611271947E+02  0.10000000000E+01 0.  0.
    9000005    1    3    3    0    0 -0.15667002671E+02  0.14814529845E+02  0.35684720387E+03  0.35749944360E+03  0.10000000000E+01 0.  0.
<mgrwt>
<rscale>  0 0.12501189E+03</rscale>
<asrwt>0</asrwt>
<pdfrwt beam="1">  1        4 0.56693623E-01 0.12501189E+03</pdfrwt>
<pdfrwt beam="2">  1       -4 0.16311044E-02 0.12501189E+03</pdfrwt>
<totfact> 0.66618922E+03</totfact>
</mgrwt>
</event>
<event>
 5    1  0.3309219E-002  0.1250023E+03  0.7818608E-02  0.1235066E+00
         -4   -1    0    0    0  501 -0.00000000000E+00  0.00000000000E+00  0.26412717151E+02  0.26443232165E+02  0.12700000000E+01 0.  1.
          4   -1    0    0  501    0  0.00000000000E+00 -0.00000000000E+00 -0.14777949957E+03  0.14778495659E+03  0.12700000000E+01 0.  1.
         25    2    1    2    0    0  0.00000000000E+00  0.00000000000E+00 -0.12136678242E+03  0.17422818875E+03  0.12500226350E+03 0.  0.
    9000005    1    3    3    0    0  0.16679898424E+02  0.57085334520E+02 -0.33929793780E+02  0.68477626526E+02  0.10000000000E+01 0.  0.
    9000005    1    3    3    0    0 -0.16679898424E+02 -0.57085334520E+02 -0.87436988639E+02  0.10575056223E+03  0.10000000000E+01 0.  0.
<mgrwt>
<rscale>  0 0.12500226E+03</rscale>
<asrwt>0</asrwt>
<pdfrwt beam="2">  1        4 0.22738074E-01 0.12500226E+03</pdfrwt>
<pdfrwt beam="1">  1       -4 0.40662621E-02 0.12500226E+03</pdfrwt>
<totfact> 0.94661579E+03</totfact>
</mgrwt>
</event>
<event>
 5    1  0.3309219E-002  0.1249973E+03  0.7818608E-02  0.1235073E+00
         -4   -1    0    0    0  501 -0.00000000000E+00  0.00000000000E+00  0.20644598075E+03  0.20644988706E+03  0.12700000000E+01 0.  1.
          4   -1    0    0  501    0  0.00000000000E+00 -0.00000000000E+00 -0.18895198614E+02  0.18937830675E+02  0.12700000000E+01 0.  1.
         25    2    1    2    0    0  0.00000000000E+00  0.00000000000E+00  0.18755078213E+03  0.22538771774E+03  0.12499730968E+03 0.  0.
    9000005    1    3    3    0    0 -0.55705042364E+02  0.36872096755E+01  0.14440591443E+03  0.15482478930E+03  0.10000000000E+01 0.  0.
    9000005    1    3    3    0    0  0.55705042364E+02 -0.36872096755E+01  0.43144867707E+02  0.70562928436E+02  0.10000000000E+01 0.  0.
<mgrwt>
<rscale>  0 0.12499731E+03</rscale>
<asrwt>0</asrwt>
<pdfrwt beam="2">  1        4 0.29105335E-02 0.12499731E+03</pdfrwt>
<pdfrwt beam="1">  1       -4 0.31764500E-01 0.12499731E+03</pdfrwt>
<totfact> 0.86028051E+03</totfact>
</mgrwt>
</event>
<event>
 5    1  0.3309219E-002  0.1249991E+03  0.7818608E-02  0.1235071E+00
          4   -1    0    0  501    0  0.00000000000E+00  0.00000000000E+00  0.34957124575E+03  0.34957355271E+03  0.12700000000E+01 0.  1.
         -4   -1    0    0    0  501 -0.00000000000E+00 -0.00000000000E+00 -0.11135810815E+02  0.11207996365E+02  0.12700000000E+01 0.  1.
         25    2    1    2    0    0  0.00000000000E+00  0.00000000000E+00  0.33843543493E+03  0.36078154907E+03  0.12499913013E+03 0.  0.
    9000005    1    3    3    0    0 -0.47112131049E+02 -0.33017528843E+02  0.98785244896E+02  0.11432075364E+03  0.10000000000E+01 0.  0.
    9000005    1    3    3    0    0  0.47112131049E+02  0.33017528843E+02  0.23965019003E+03  0.24646079543E+03  0.10000000000E+01 0.  0.
<mgrwt>
<rscale>  0 0.12499913E+03</rscale>
<asrwt>0</asrwt>
<pdfrwt beam="1">  1        4 0.53785916E-01 0.12499913E+03</pdfrwt>
<pdfrwt beam="2">  1       -4 0.17189321E-02 0.12499913E+03</pdfrwt>
<totfact> 0.68555837E+03</totfact>
</mgrwt>
</event>
<event>
 5    1  0.3309219E-002  0.1249997E+03  0.7818608E-02  0.1235070E+00
          4   -1    0    0  501    0  0.00000000000E+00  0.00000000000E+00  0.18687249206E+03  0.18687680752E+03  0.12700000000E+01 0. -1.
         -4   -1    0    0    0  501 -0.00000000000E+00 -0.00000000000E+00 -0.20879331890E+02  0.20917920551E+02  0.12700000000E+01 0. -1.
         25    2    1    2    0    0  0.00000000000E+00  0.00000000000E+00  0.16599316017E+03  0.20779472807E+03  0.12499967916E+03 0.  0.
    9000005    1    3    3    0    0  0.42047314854E+02 -0.16429996681E+02  0.11161982989E+02  0.46513560836E+02  0.10000000000E+01 0.  0.
    9000005    1    3    3    0    0 -0.42047314854E+02  0.16429996681E+02  0.15483117718E+03  0.16128116723E+03  0.10000000000E+01 0.  0.
<mgrwt>
<rscale>  0 0.12499968E+03</rscale>
<asrwt>0</asrwt>
<pdfrwt beam="1">  1        4 0.28752914E-01 0.12499968E+03</pdfrwt>
<pdfrwt beam="2">  1       -4 0.32155053E-02 0.12499968E+03</pdfrwt>
<totfact> 0.88837939E+03</totfact>
</mgrwt>
</event>
<event>
 5    1  0.3309219E-002  0.1249981E+03  0.7818608E-02  0.1235072E+00
          4   -1    0    0  501    0  0.00000000000E+00  0.00000000000E+00  0.20459499548E+02  0.20498878548E+02  0.12700000000E+01 0.  1.
         -4   -1    0    0    0  501 -0.00000000000E+00 -0.00000000000E+00 -0.19069506764E+03  0.19069929660E+03  0.12700000000E+01 0.  1.
         25    2    1    2    0    0  0.00000000000E+00  0.00000000000E+00 -0.17023556810E+03  0.21119817515E+03  0.12499808215E+03 0.  0.
    9000005    1    3    3    0    0  0.47054022686E+01  0.56374221144E+02 -0.40257521053E+02  0.69439625730E+02  0.10000000000E+01 0.  0.
    9000005    1    3    3    0    0 -0.47054022686E+01 -0.56374221144E+02 -0.12997804704E+03  0.14175854942E+03  0.10000000000E+01 0.  0.
<mgrwt>
<rscale>  0 0.12499808E+03</rscale>
<asrwt>0</asrwt>
<pdfrwt beam="1">  1        4 0.31509699E-02 0.12499808E+03</pdfrwt>
<pdfrwt beam="2">  1       -4 0.29341056E-01 0.12499808E+03</pdfrwt>
<totfact> 0.88284362E+03</totfact>
</mgrwt>
</event>
<event>
 5    1  0.3309219E-002  0.1249940E+03  0.7818608E-02  0.1235079E+00
         -4   -1    0    0    0  501 -0.00000000000E+00  0.00000000000E+00  0.10961877443E+02  0.11035200817E+02  0.12700000000E+01 0. -1.
          4   -1    0    0  501    0  0.00000000000E+00 -0.00000000000E+00 -0.35505209213E+03  0.35505436348E+03  0.12700000000E+01 0. -1.
         25    2    1    2    0    0  0.00000000000E+00  0.00000000000E+00 -0.34409021469E+03  0.36608956430E+03  0.12499397283E+03 0.  0.
    9000005    1    3    3    0    0 -0.48904120772E+01  0.57823454381E+02 -0.23994189876E+03  0.24686146477E+03  0.10000000000E+01 0.  0.
    9000005    1    3    3    0    0  0.48904120772E+01 -0.57823454381E+02 -0.10414831593E+03  0.11922809953E+03  0.10000000000E+01 0.  0.
<mgrwt>
<rscale>  0 0.12499397E+03</rscale>
<asrwt>0</asrwt>
<pdfrwt beam="2">  1        4 0.54629205E-01 0.12499397E+03</pdfrwt>
<pdfrwt beam="1">  1       -4 0.16922579E-02 0.12499397E+03</pdfrwt>
<totfact> 0.67999102E+03</totfact>
</mgrwt>
</event>
<event>
 5    1  0.3309219E-002  0.1250010E+03  0.7818608E-02  0.1235068E+00
          4   -1    0    0  501    0  0.00000000000E+00  0.00000000000E+00  0.13808456797E+04  0.13808462637E+04  0.12700000000E+01 0. -1.
         -4   -1    0    0    0  501 -0.00000000000E+00 -0.00000000000E+00 -0.26857780651E+01  0.29709095938E+01  0.12700000000E+01 0. -1.
         25    2    1    2    0    0  0.00000000000E+00  0.00000000000E+00  0.13781599016E+04  0.13838171733E+04  0.12500101880E+03 0.  0.
    9000005    1    3    3    0    0  0.39839847594E+02 -0.29125445968E+02  0.26466022769E+03  0.26922396100E+03  0.10000000000E+01 0.  0.
    9000005    1    3    3    0    0 -0.39839847594E+02  0.29125445968E+02  0.11134996739E+04  0.11145932123E+04  0.10000000000E+01 0.  0.
<mgrwt>
<rscale>  0 0.12500102E+03</rscale>
<asrwt>0</asrwt>
<pdfrwt beam="1">  1        4 0.21245929E+00 0.12500102E+03</pdfrwt>
<pdfrwt beam="2">  1       -4 0.43517574E-03 0.12500102E+03</pdfrwt>
<totfact> 0.20330496E+03</totfact>
</mgrwt>
</event>
<event>
 5    1  0.3309219E-002  0.1250015E+03  0.7818608E-02  0.1235067E+00
         -4   -1    0    0    0  501 -0.00000000000E+00  0.00000000000E+00  0.40386951127E+01  0.42336695919E+01  0.12700000000E+01 0. -1.
          4   -1    0    0  501    0  0.00000000000E+00 -0.00000000000E+00 -0.94423678100E+03  0.94423763508E+03  0.12700000000E+01 0. -1.
         25    2    1    2    0    0  0.00000000000E+00  0.00000000000E+00 -0.94019808589E+03  0.94847130467E+03  0.12500150028E+03 0.  0.
    9000005    1    3    3    0    0 -0.19330449064E+02 -0.24517395616E+02 -0.88085642524E+03  0.88141012635E+03  0.10000000000E+01 0.  0.
    9000005    1    3    3    0    0  0.19330449064E+02  0.24517395616E+02 -0.59341660652E+02  0.67061178321E+02  0.10000000000E+01 0.  0.
<mgrwt>
<rscale>  0 0.12500150E+03</rscale>
<asrwt>0</asrwt>
<pdfrwt beam="2">  1        4 0.14528209E+00 0.12500150E+03</pdfrwt>
<pdfrwt beam="1">  1       -4 0.63640220E-03 0.12500150E+03</pdfrwt>
<totfact> 0.32369286E+03</totfact>
</mgrwt>
</event>
<event>
 5    1  0.3309219E-002  0.1250197E+03  0.7818608E-02  0.1235038E+00
          4   -1    0    0  501    0  0.00000000000E+00  0.00000000000E+00  0.62141356905E+02  0.62154333220E+02  0.12700000000E+01 0. -1.
         -4   -1    0    0    0  501 -0.00000000000E+00 -0.00000000000E+00 -0.62854613337E+02  0.62867442430E+02  0.12700000000E+01 0. -1.
         25    2    1    2    0    0  0.00000000000E+00  0.00000000000E+00 -0.71325643181E+00  0.12502177565E+03  0.12501974105E+03 0.  0.
    9000005    1    3    3    0    0 -0.51224861116E+02 -0.34446416876E+02  0.94385238443E+01  0.62455005918E+02  0.10000000000E+01 0.  0.
    9000005    1    3    3    0    0  0.51224861116E+02  0.34446416876E+02 -0.10151780276E+02  0.62566769732E+02  0.10000000000E+01 0.  0.
<mgrwt>
<rscale>  0 0.12501974E+03</rscale>
<asrwt>0</asrwt>
<pdfrwt beam="1">  1        4 0.95621938E-02 0.12501974E+03</pdfrwt>
<pdfrwt beam="2">  1       -4 0.96719256E-02 0.12501974E+03</pdfrwt>
<totfact> 0.10447727E+04</totfact>
</mgrwt>
</event>
<event>
 5    1  0.3309219E-002  0.1249953E+03  0.7818608E-02  0.1235077E+00
         -4   -1    0    0    0  501 -0.00000000000E+00  0.00000000000E+00  0.16519813431E+02  0.16568558652E+02  0.12700000000E+01 0. -1.
          4   -1    0    0  501    0  0.00000000000E+00 -0.00000000000E+00 -0.23604185725E+03  0.23604527378E+03  0.12700000000E+01 0. -1.
         25    2    1    2    0    0  0.00000000000E+00  0.00000000000E+00 -0.21952204382E+03  0.25261383243E+03  0.12499528237E+03 0.  0.
    9000005    1    3    3    0    0 -0.55629491070E+02 -0.28424515863E+02 -0.10665515579E+03  0.12360791089E+03  0.10000000000E+01 0.  0.
    9000005    1    3    3    0    0  0.55629491070E+02  0.28424515863E+02 -0.11286688802E+03  0.12900592154E+03  0.10000000000E+01 0.  0.
<mgrwt>
<rscale>  0 0.12499528E+03</rscale>
<asrwt>0</asrwt>
<pdfrwt beam="2">  1        4 0.36318142E-01 0.12499528E+03</pdfrwt>
<pdfrwt beam="1">  1       -4 0.25455224E-02 0.12499528E+03</pdfrwt>
<totfact> 0.81962522E+03</totfact>
</mgrwt>
</event>
<event>
 5    1  0.3309219E-002  0.1250012E+03  0.7818608E-02  0.1235067E+00
         -4   -1    0    0    0  501 -0.00000000000E+00  0.00000000000E+00  0.42502566409E+03  0.42502756150E+03  0.12700000000E+01 0. -1.
          4   -1    0    0  501    0  0.00000000000E+00 -0.00000000000E+00 -0.91450054439E+01  0.92327690629E+01  0.12700000000E+01 0. -1.
         25    2    1    2    0    0  0.00000000000E+00  0.00000000000E+00  0.41588065864E+03  0.43426033056E+03  0.12500124985E+03 0.  0.
    9000005    1    3    3    0    0  0.37051119526E+01  0.57390167876E+02  0.12298803759E+03  0.13577340172E+03  0.10000000000E+01 0.  0.
    9000005    1    3    3    0    0 -0.37051119526E+01 -0.57390167876E+02  0.29289262105E+03  0.29848692884E+03  0.10000000000E+01 0.  0.
<mgrwt>
<rscale>  0 0.12500125E+03</rscale>
<asrwt>0</asrwt>
<pdfrwt beam="2">  1        4 0.14138209E-02 0.12500125E+03</pdfrwt>
<pdfrwt beam="1">  1       -4 0.65395463E-01 0.12500125E+03</pdfrwt>
<totfact> 0.61350015E+03</totfact>
</mgrwt>
</event>
<event>
 5    1  0.3309219E-002  0.1249995E+03  0.7818608E-02  0.1235070E+00
         -4   -1    0    0    0  501 -0.00000000000E+00  0.00000000000E+00  0.44624343566E+02  0.44642411882E+02  0.12700000000E+01 0. -1.
          4   -1    0    0  501    0  0.00000000000E+00 -0.00000000000E+00 -0.87495263946E+02  0.87504480531E+02  0.12700000000E+01 0. -1.
         25    2    1    2    0    0  0.00000000000E+00  0.00000000000E+00 -0.42870920380E+02  0.13214689241E+03  0.12499954144E+03 0.  0.
    9000005    1    3    3    0    0  0.59572606887E+02 -0.16313253495E+02 -0.11394841087E+02  0.62816081813E+02  0.10000000000E+01 0.  0.
    9000005    1    3    3    0    0 -0.59572606887E+02  0.16313253495E+02 -0.31476079293E+02  0.69330810601E+02  0.10000000000E+01 0.  0.
<mgrwt>
<rscale>  0 0.12499954E+03</rscale>
<asrwt>0</asrwt>
<pdfrwt beam="2">  1        4 0.13462909E-01 0.12499954E+03</pdfrwt>
<pdfrwt beam="1">  1       -4 0.68673825E-02 0.12499954E+03</pdfrwt>
<totfact> 0.10298671E+04</totfact>
</mgrwt>
</event>
<event>
 5    1  0.3309219E-002  0.1250013E+03  0.7818608E-02  0.1235067E+00
          4   -1    0    0  501    0  0.00000000000E+00  0.00000000000E+00  0.93602005558E+02  0.93610620896E+02  0.12700000000E+01 0.  1.
         -4   -1    0    0    0  501 -0.00000000000E+00 -0.00000000000E+00 -0.41713236924E+02  0.41732565637E+02  0.12700000000E+01 0.  1.
         25    2    1    2    0    0  0.00000000000E+00  0.00000000000E+00  0.51888768634E+02  0.13534318653E+03  0.12500133531E+03 0.  0.
    9000005    1    3    3    0    0  0.36823866058E+02 -0.63301367114E+01  0.80181310873E+02  0.88465305943E+02  0.10000000000E+01 0.  0.
    9000005    1    3    3    0    0 -0.36823866058E+02  0.63301367114E+01 -0.28292542239E+02  0.46877880590E+02  0.10000000000E+01 0.  0.
<mgrwt>
<rscale>  0 0.12500134E+03</rscale>
<asrwt>0</asrwt>
<pdfrwt beam="1">  1        4 0.14402458E-01 0.12500134E+03</pdfrwt>
<pdfrwt beam="2">  1       -4 0.64195706E-02 0.12500134E+03</pdfrwt>
<totfact> 0.10230534E+04</totfact>
</mgrwt>
</event>
<event>
 5    1  0.3309219E-002  0.1249966E+03  0.7818608E-02  0.1235075E+00
          4   -1    0    0  501    0  0.00000000000E+00  0.00000000000E+00  0.19627903104E+02  0.19668947106E+02  0.12700000000E+01 0.  1.
         -4   -1    0    0    0  501 -0.00000000000E+00 -0.00000000000E+00 -0.19875334367E+03  0.19875740117E+03  0.12700000000E+01 0.  1.
         25    2    1    2    0    0  0.00000000000E+00  0.00000000000E+00 -0.17912544057E+03  0.21842634828E+03  0.12499658461E+03 0.  0.
    9000005    1    3    3    0    0 -0.33850674005E+02  0.85859354499E+00  0.22151464761E+01  0.33948669891E+02  0.10000000000E+01 0.  0.
    9000005    1    3    3    0    0  0.33850674005E+02 -0.85859354499E+00 -0.18134058704E+03  0.18447767838E+03  0.10000000000E+01 0.  0.
<mgrwt>
<rscale>  0 0.12499658E+03</rscale>
<asrwt>0</asrwt>
<pdfrwt beam="1">  1        4 0.30231469E-02 0.12499658E+03</pdfrwt>
<pdfrwt beam="2">  1       -4 0.30580905E-01 0.12499658E+03</pdfrwt>
<totfact> 0.87124621E+03</totfact>
</mgrwt>
</event>
<event>
 5    1  0.3309219E-002  0.1250041E+03  0.7818608E-02  0.1235063E+00
         -4   -1    0    0    0  501 -0.00000000000E+00  0.00000000000E+00  0.96485952821E+01  0.97318184795E+01  0.12700000000E+01 0. -1.
          4   -1    0    0  501    0  0.00000000000E+00 -0.00000000000E+00 -0.40305546030E+03  0.40305746114E+03  0.12700000000E+01 0. -1.
         25    2    1    2    0    0  0.00000000000E+00  0.00000000000E+00 -0.39340686502E+03  0.41278927962E+03  0.12500411162E+03 0.  0.
    9000005    1    3    3    0    0 -0.22794486261E+02 -0.52981141832E+02 -0.27615679080E+03  0.28211728606E+03  0.10000000000E+01 0.  0.
    9000005    1    3    3    0    0  0.22794486261E+02  0.52981141832E+02 -0.11725007422E+03  0.13067199355E+03  0.10000000000E+01 0.  0.
<mgrwt>
<rscale>  0 0.12500411E+03</rscale>
<asrwt>0</asrwt>
<pdfrwt beam="2">  1        4 0.62015075E-01 0.12500411E+03</pdfrwt>
<pdfrwt beam="1">  1       -4 0.14909553E-02 0.12500411E+03</pdfrwt>
<totfact> 0.63321901E+03</totfact>
</mgrwt>
</event>
<event>
 5    1  0.3309219E-002  0.1249991E+03  0.7818608E-02  0.1235071E+00
          4   -1    0    0  501    0  0.00000000000E+00  0.00000000000E+00  0.26465516755E+01  0.29354958305E+01  0.12700000000E+01 0.  1.
         -4   -1    0    0    0  501 -0.00000000000E+00 -0.00000000000E+00 -0.13992662122E+04  0.13992667885E+04  0.12700000000E+01 0.  1.
         25    2    1    2    0    0  0.00000000000E+00  0.00000000000E+00 -0.13966196605E+04  0.14022022843E+04  0.12499908049E+03 0.  0.
    9000005    1    3    3    0    0  0.48368665123E+02  0.71155795969E+01 -0.26167845465E+03  0.26620813824E+03  0.10000000000E+01 0.  0.
    9000005    1    3    3    0    0 -0.48368665123E+02 -0.71155795969E+01 -0.11349412058E+04  0.11359941461E+04  0.10000000000E+01 0.  0.
<mgrwt>
<rscale>  0 0.12499908E+03</rscale>
<asrwt>0</asrwt>
<pdfrwt beam="1">  1        4 0.42943372E-03 0.12499908E+03</pdfrwt>
<pdfrwt beam="2">  1       -4 0.21529344E+00 0.12499908E+03</pdfrwt>
<totfact> 0.19934192E+03</totfact>
</mgrwt>
</event>
<event>
 5    1  0.3309219E-002  0.1249964E+03  0.7818608E-02  0.1235075E+00
         -4   -1    0    0    0  501 -0.00000000000E+00  0.00000000000E+00  0.14865572603E+02  0.14919723483E+02  0.12700000000E+01 0.  1.
          4   -1    0    0  501    0  0.00000000000E+00 -0.00000000000E+00 -0.26222305626E+03  0.26222613167E+03  0.12700000000E+01 0.  1.
         25    2    1    2    0    0  0.00000000000E+00  0.00000000000E+00 -0.24735748365E+03  0.27714585516E+03  0.12499640119E+03 0.  0.
    9000005    1    3    3    0    0 -0.30880653664E+02 -0.24267106605E+02 -0.15908606717E+02  0.42386212397E+02  0.10000000000E+01 0.  0.
    9000005    1    3    3    0    0  0.30880653664E+02  0.24267106605E+02 -0.23144887694E+03  0.23475964276E+03  0.10000000000E+01 0.  0.
<mgrwt>
<rscale>  0 0.12499640E+03</rscale>
<asrwt>0</asrwt>
<pdfrwt beam="2">  1        4 0.40346407E-01 0.12499640E+03</pdfrwt>
<pdfrwt beam="1">  1       -4 0.22914134E-02 0.12499640E+03</pdfrwt>
<totfact> 0.78564360E+03</totfact>
</mgrwt>
</event>
<event>
 5    1  0.3309219E-002  0.1249984E+03  0.7818608E-02  0.1235072E+00
          4   -1    0    0  501    0  0.00000000000E+00  0.00000000000E+00  0.37657913356E+02  0.37679322424E+02  0.12700000000E+01 0. -1.
         -4   -1    0    0    0  501 -0.00000000000E+00 -0.00000000000E+00 -0.10367246891E+03  0.10368024744E+03  0.12700000000E+01 0. -1.
         25    2    1    2    0    0  0.00000000000E+00  0.00000000000E+00 -0.66014555555E+02  0.14135956987E+03  0.12499842578E+03 0.  0.
    9000005    1    3    3    0    0 -0.59009678072E+02 -0.46809442092E+01 -0.55656123021E+02  0.81256737411E+02  0.10000000000E+01 0.  0.
    9000005    1    3    3    0    0  0.59009678072E+02  0.46809442092E+01 -0.10358432534E+02  0.60102832458E+02  0.10000000000E+01 0.  0.
<mgrwt>
<rscale>  0 0.12499843E+03</rscale>
<asrwt>0</asrwt>
<pdfrwt beam="1">  1        4 0.57957704E-02 0.12499843E+03</pdfrwt>
<pdfrwt beam="2">  1       -4 0.15951856E-01 0.12499843E+03</pdfrwt>
<totfact> 0.10105844E+04</totfact>
</mgrwt>
</event>
<event>
 5    1  0.3309219E-002  0.1250009E+03  0.7818608E-02  0.1235068E+00
         -4   -1    0    0    0  501 -0.00000000000E+00  0.00000000000E+00  0.42370972999E+02  0.42390001803E+02  0.12700000000E+01 0.  1.
          4   -1    0    0  501    0  0.00000000000E+00 -0.00000000000E+00 -0.92148862292E+02  0.92157613477E+02  0.12700000000E+01 0.  1.
         25    2    1    2    0    0  0.00000000000E+00  0.00000000000E+00 -0.49777889293E+02  0.13454761528E+03  0.12500089006E+03 0.  0.
    9000005    1    3    3    0    0  0.49915220674E+02  0.16141807666E+02 -0.61441579203E+02  0.80796997869E+02  0.10000000000E+01 0.  0.
    9000005    1    3    3    0    0 -0.49915220674E+02 -0.16141807666E+02  0.11663689910E+02  0.53750617410E+02  0.10000000000E+01 0.  0.
<mgrwt>
<rscale>  0 0.12500089E+03</rscale>
<asrwt>0</asrwt>
<pdfrwt beam="2">  1        4 0.14178885E-01 0.12500089E+03</pdfrwt>
<pdfrwt beam="1">  1       -4 0.65207482E-02 0.12500089E+03</pdfrwt>
<totfact> 0.10247409E+04</totfact>
</mgrwt>
</event>
<event>
 5    1  0.3309219E-002  0.1249820E+03  0.7818608E-02  0.1235097E+00
         -4   -1    0    0    0  501 -0.00000000000E+00  0.00000000000E+00  0.62095356326E+02  0.62108342252E+02  0.12700000000E+01 0. -1.
          4   -1    0    0  501    0  0.00000000000E+00 -0.00000000000E+00 -0.62863194931E+02  0.62876022274E+02  0.12700000000E+01 0. -1.
         25    2    1    2    0    0  0.00000000000E+00  0.00000000000E+00 -0.76783860495E+00  0.12498436453E+03  0.12498200590E+03 0.  0.
    9000005    1    3    3    0    0  0.30344847912E+02  0.51669442942E+02  0.17324727090E+02  0.62383389596E+02  0.10000000000E+01 0.  0.
    9000005    1    3    3    0    0 -0.30344847912E+02 -0.51669442942E+02 -0.18092565695E+02  0.62600974930E+02  0.10000000000E+01 0.  0.
<mgrwt>
<rscale>  0 0.12498201E+03</rscale>
<asrwt>0</asrwt>
<pdfrwt beam="2">  1        4 0.96732464E-02 0.12498201E+03</pdfrwt>
<pdfrwt beam="1">  1       -4 0.95551173E-02 0.12498201E+03</pdfrwt>
<totfact> 0.10457454E+04</totfact>
</mgrwt>
</event>
<event>
 5    1  0.3309219E-002  0.1249968E+03  0.7818608E-02  0.1235074E+00
          4   -1    0    0  501    0  0.00000000000E+00  0.00000000000E+00  0.17323187418E+02  0.17369678245E+02  0.12700000000E+01 0.  1.
         -4   -1    0    0    0  501 -0.00000000000E+00 -0.00000000000E+00 -0.22513072741E+03  0.22513430952E+03  0.12700000000E+01 0.  1.
         25    2    1    2    0    0  0.00000000000E+00  0.00000000000E+00 -0.20780753999E+03  0.24250398777E+03  0.12499684158E+03 0.  0.
    9000005    1    3    3    0    0 -0.55814508009E+02  0.24813007600E+02 -0.78304407662E+02  0.99315280344E+02  0.10000000000E+01 0.  0.
    9000005    1    3    3    0    0  0.55814508009E+02 -0.24813007600E+02 -0.12950313233E+03  0.14318870742E+03  0.10000000000E+01 0.  0.
<mgrwt>
<rscale>  0 0.12499684E+03</rscale>
<asrwt>0</asrwt>
<pdfrwt beam="1">  1        4 0.26689577E-02 0.12499684E+03</pdfrwt>
<pdfrwt beam="2">  1       -4 0.34639346E-01 0.12499684E+03</pdfrwt>
<totfact> 0.83431725E+03</totfact>
</mgrwt>
</event>
<event>
 5    1  0.3309219E-002  0.1250005E+03  0.7818608E-02  0.1235069E+00
          4   -1    0    0  501    0  0.00000000000E+00  0.00000000000E+00  0.12829862666E+03  0.12830491224E+03  0.12700000000E+01 0.  1.
         -4   -1    0    0    0  501 -0.00000000000E+00 -0.00000000000E+00 -0.30426505190E+02  0.30452998507E+02  0.12700000000E+01 0.  1.
         25    2    1    2    0    0  0.00000000000E+00  0.00000000000E+00  0.97872121475E+02  0.15875791074E+03  0.12500048825E+03 0.  0.
    9000005    1    3    3    0    0  0.10241710716E+02  0.59180520860E+02  0.27009474702E+02  0.65861509331E+02  0.10000000000E+01 0.  0.
    9000005    1    3    3    0    0 -0.10241710716E+02 -0.59180520860E+02  0.70862646773E+02  0.92896401412E+02  0.10000000000E+01 0.  0.
<mgrwt>
<rscale>  0 0.12500049E+03</rscale>
<asrwt>0</asrwt>
<pdfrwt beam="1">  1        4 0.19740772E-01 0.12500049E+03</pdfrwt>
<pdfrwt beam="2">  1       -4 0.46835222E-02 0.12500049E+03</pdfrwt>
<totfact> 0.97581714E+03</totfact>
</mgrwt>
</event>
<event>
 5    1  0.3309219E-002  0.1249992E+03  0.7818608E-02  0.1235070E+00
         -4   -1    0    0    0  501 -0.00000000000E+00  0.00000000000E+00  0.66621003696E+01  0.67820705787E+01  0.12700000000E+01 0.  1.
          4   -1    0    0  501    0  0.00000000000E+00 -0.00000000000E+00 -0.58097917644E+03  0.58098056453E+03  0.12700000000E+01 0.  1.
         25    2    1    2    0    0  0.00000000000E+00  0.00000000000E+00 -0.57431707607E+03  0.58776263511E+03  0.12499924543E+03 0.  0.
    9000005    1    3    3    0    0  0.39654973702E+02  0.30583789829E+02 -0.11138958627E+03  0.12213322672E+03  0.10000000000E+01 0.  0.
    9000005    1    3    3    0    0 -0.39654973702E+02 -0.30583789829E+02 -0.46292748980E+03  0.46562940839E+03  0.10000000000E+01 0.  0.
<mgrwt>
<rscale>  0 0.12499925E+03</rscale>
<asrwt>0</asrwt>
<pdfrwt beam="2">  1        4 0.89390707E-01 0.12499925E+03</pdfrwt>
<pdfrwt beam="1">  1       -4 0.10342742E-02 0.12499925E+03</pdfrwt>
<totfact> 0.49650130E+03</totfact>
</mgrwt>
</event>
<event>
 5    1  0.3309219E-002  0.1250056E+03  0.7818608E-02  0.1235060E+00
         -4   -1    0    0    0  501 -0.00000000000E+00  0.00000000000E+00  0.89195863516E+02  0.89204904396E+02  0.12700000000E+01 0. -1.
          4   -1    0    0  501    0  0.00000000000E+00 -0.00000000000E+00 -0.43777547974E+02  0.43795965644E+02  0.12700000000E+01 0. -1.
         25    2    1    2    0    0  0.00000000000E+00  0.00000000000E+00  0.45418315541E+02  0.13300087004E+03  0.12500563205E+03 0.  0.
    9000005    1    3    3    0    0 -0.38716785086E+02 -0.37110674571E+02  0.56845672364E+02  0.78157674486E+02  0.10000000000E+01 0.  0.
    9000005    1    3    3    0    0  0.38716785086E+02  0.37110674571E+02 -0.11427356823E+02  0.54843195553E+02  0.10000000000E+01 0.  0.
<mgrwt>
<rscale>  0 0.12500563E+03</rscale>
<asrwt>0</asrwt>
<pdfrwt beam="2">  1        4 0.67371196E-02 0.12500563E+03</pdfrwt>
<pdfrwt beam="1">  1       -4 0.13724553E-01 0.12500563E+03</pdfrwt>
<totfact> 0.10279076E+04</totfact>
</mgrwt>
</event>
<event>
 5    1  0.3309219E-002  0.1249973E+03  0.7818608E-02  0.1235073E+00
          4   -1    0    0  501    0  0.00000000000E+00  0.00000000000E+00  0.12895252339E+04  0.12895258593E+04  0.12700000000E+01 0.  1.
         -4   -1    0    0    0  501 -0.00000000000E+00 -0.00000000000E+00 -0.28953149795E+01  0.31616054198E+01  0.12700000000E+01 0.  1.
         25    2    1    2    0    0  0.00000000000E+00  0.00000000000E+00  0.12866299189E+04  0.12926874647E+04  0.12499733254E+03 0.  0.
    9000005    1    3    3    0    0 -0.36231410967E+02 -0.41842532791E+02  0.94332657417E+03  0.94494948977E+03  0.10000000000E+01 0.  0.
    9000005    1    3    3    0    0  0.36231410967E+02  0.41842532791E+02  0.34330334472E+03  0.34773797490E+03  0.10000000000E+01 0.  0.
<mgrwt>
<rscale>  0 0.12499733E+03</rscale>
<asrwt>0</asrwt>
<pdfrwt beam="1">  1        4 0.19840934E+00 0.12499733E+03</pdfrwt>
<pdfrwt beam="2">  1       -4 0.46596432E-03 0.12499733E+03</pdfrwt>
<totfact> 0.22403019E+03</totfact>
</mgrwt>
</event>
<event>
 5    1  0.3309219E-002  0.1250016E+03  0.7818608E-02  0.1235067E+00
          4   -1    0    0  501    0  0.00000000000E+00  0.00000000000E+00  0.47800524020E+02  0.47817392198E+02  0.12700000000E+01 0. -1.
         -4   -1    0    0    0  501 -0.00000000000E+00 -0.00000000000E+00 -0.81685699877E+02  0.81695571877E+02  0.12700000000E+01 0. -1.
         25    2    1    2    0    0  0.00000000000E+00  0.00000000000E+00 -0.33885175856E+02  0.12951296408E+03  0.12500161087E+03 0.  0.
    9000005    1    3    3    0    0  0.55528925562E+02 -0.24867192769E+02 -0.21619743546E+01  0.60889350328E+02  0.10000000000E+01 0.  0.
    9000005    1    3    3    0    0 -0.55528925562E+02  0.24867192769E+02 -0.31723201502E+02  0.68623613747E+02  0.10000000000E+01 0.  0.
<mgrwt>
<rscale>  0 0.12500161E+03</rscale>
<asrwt>0</asrwt>
<pdfrwt beam="1">  1        4 0.73559837E-02 0.12500161E+03</pdfrwt>
<pdfrwt beam="2">  1       -4 0.12569088E-01 0.12500161E+03</pdfrwt>
<totfact> 0.10354561E+04</totfact>
</mgrwt>
</event>
<event>
 5    1  0.3309219E-002  0.1250001E+03  0.7818608E-02  0.1235069E+00
         -4   -1    0    0    0  501 -0.00000000000E+00  0.00000000000E+00  0.88337099990E+01  0.89245354134E+01  0.12700000000E+01 0. -1.
          4   -1    0    0  501    0  0.00000000000E+00 -0.00000000000E+00 -0.43984568363E+03  0.43984751711E+03  0.12700000000E+01 0. -1.
         25    2    1    2    0    0  0.00000000000E+00  0.00000000000E+00 -0.43101197363E+03  0.44877205252E+03  0.12500013485E+03 0.  0.
    9000005    1    3    3    0    0 -0.58567150608E+02 -0.90493706391E+01 -0.14431039496E+03  0.15600798804E+03  0.10000000000E+01 0.  0.
    9000005    1    3    3    0    0  0.58567150608E+02  0.90493706391E+01 -0.28670157867E+03  0.29276406448E+03  0.10000000000E+01 0.  0.
<mgrwt>
<rscale>  0 0.12500013E+03</rscale>
<asrwt>0</asrwt>
<pdfrwt beam="2">  1        4 0.67675678E-01 0.12500013E+03</pdfrwt>
<pdfrwt beam="1">  1       -4 0.13661603E-02 0.12500013E+03</pdfrwt>
<totfact> 0.60070148E+03</totfact>
</mgrwt>
</event>
<event>
 5    1  0.3309219E-002  0.1249995E+03  0.7818608E-02  0.1235070E+00
          4   -1    0    0  501    0  0.00000000000E+00  0.00000000000E+00  0.29229573902E+02  0.29257151100E+02  0.12700000000E+01 0.  1.
         -4   -1    0    0    0  501 -0.00000000000E+00 -0.00000000000E+00 -0.13354561477E+03  0.13355165339E+03  0.12700000000E+01 0.  1.
         25    2    1    2    0    0  0.00000000000E+00  0.00000000000E+00 -0.10431604087E+03  0.16280880449E+03  0.12499948175E+03 0.  0.
    9000005    1    3    3    0    0 -0.25124551507E+01 -0.33936824669E+02 -0.12042561260E+03  0.12514531022E+03  0.10000000000E+01 0.  0.
    9000005    1    3    3    0    0  0.25124551507E+01  0.33936824669E+02  0.16109571735E+02  0.37663494274E+02  0.10000000000E+01 0.  0.
<mgrwt>
<rscale>  0 0.12499948E+03</rscale>
<asrwt>0</asrwt>
<pdfrwt beam="1">  1        4 0.44994434E-02 0.12499948E+03</pdfrwt>
<pdfrwt beam="2">  1       -4 0.20548065E-01 0.12499948E+03</pdfrwt>
<totfact> 0.96805114E+03</totfact>
</mgrwt>
</event>
<event>
 5    1  0.3309219E-002  0.1250056E+03  0.7818608E-02  0.1235061E+00
         -4   -1    0    0    0  501 -0.00000000000E+00  0.00000000000E+00  0.77713915952E+01  0.78744794956E+01  0.12700000000E+01 0. -1.
          4   -1    0    0  501    0  0.00000000000E+00 -0.00000000000E+00 -0.49927359815E+03  0.49927521340E+03  0.12700000000E+01 0. -1.
         25    2    1    2    0    0  0.00000000000E+00  0.00000000000E+00 -0.49150220656E+03  0.50714969289E+03  0.12500556768E+03 0.  0.
    9000005    1    3    3    0    0 -0.36199147395E+02  0.38991951912E+01 -0.39679566841E+02  0.53861396379E+02  0.10000000000E+01 0.  0.
    9000005    1    3    3    0    0  0.36199147395E+02 -0.38991951912E+01 -0.45182263972E+03  0.45328829652E+03  0.10000000000E+01 0.  0.
<mgrwt>
<rscale>  0 0.12500557E+03</rscale>
<asrwt>0</asrwt>
<pdfrwt beam="2">  1        4 0.76819352E-01 0.12500557E+03</pdfrwt>
<pdfrwt beam="1">  1       -4 0.12036532E-02 0.12500557E+03</pdfrwt>
<totfact> 0.55307116E+03</totfact>
</mgrwt>
</event>
<event>
 5    1  0.3309219E-002  0.1249959E+03  0.7818608E-02  0.1235076E+00
          4   -1    0    0  501    0  0.00000000000E+00  0.00000000000E+00  0.23812583323E+02  0.23846425823E+02  0.12700000000E+01 0.  1.
         -4   -1    0    0    0  501 -0.00000000000E+00 -0.00000000000E+00 -0.16387783755E+03  0.16388275852E+03  0.12700000000E+01 0.  1.
         25    2    1    2    0    0  0.00000000000E+00  0.00000000000E+00 -0.14006525422E+03  0.18772918434E+03  0.12499588478E+03 0.  0.
    9000005    1    3    3    0    0 -0.46336503250E+02 -0.37241537289E+02 -0.41104741333E+02  0.72281418035E+02  0.10000000000E+01 0.  0.
    9000005    1    3    3    0    0  0.46336503250E+02  0.37241537289E+02 -0.98960512889E+02  0.11544776630E+03  0.10000000000E+01 0.  0.
<mgrwt>
<rscale>  0 0.12499588E+03</rscale>
<asrwt>0</asrwt>
<pdfrwt beam="1">  1        4 0.36664563E-02 0.12499588E+03</pdfrwt>
<pdfrwt beam="2">  1       -4 0.25214956E-01 0.12499588E+03</pdfrwt>
<totfact> 0.92252443E+03</totfact>
</mgrwt>
</event>
<event>
 5    1  0.3309219E-002  0.1250012E+03  0.7818608E-02  0.1235067E+00
          4   -1    0    0  501    0  0.00000000000E+00  0.00000000000E+00  0.16637702476E+03  0.16638187181E+03  0.12700000000E+01 0.  1.
         -4   -1    0    0    0  501 -0.00000000000E+00 -0.00000000000E+00 -0.23456379290E+02  0.23490734969E+02  0.12700000000E+01 0.  1.
         25    2    1    2    0    0  0.00000000000E+00  0.00000000000E+00  0.14292064547E+03  0.18987260678E+03  0.12500118361E+03 0.  0.
    9000005    1    3    3    0    0  0.51404477519E+02  0.31268749275E+02  0.45809616127E+02  0.75628539057E+02  0.10000000000E+01 0.  0.
    9000005    1    3    3    0    0 -0.51404477519E+02 -0.31268749275E+02  0.97111029340E+02  0.11424406772E+03  0.10000000000E+01 0.  0.
<mgrwt>
<rscale>  0 0.12500118E+03</rscale>
<asrwt>0</asrwt>
<pdfrwt beam="1">  1        4 0.25599481E-01 0.12500118E+03</pdfrwt>
<pdfrwt beam="2">  1       -4 0.36116894E-02 0.12500118E+03</pdfrwt>
<totfact> 0.91867049E+03</totfact>
</mgrwt>
</event>
<event>
 5    1  0.3309219E-002  0.1250083E+03  0.7818608E-02  0.1235056E+00
         -4   -1    0    0    0  501 -0.00000000000E+00  0.00000000000E+00  0.22898667012E+02  0.22933858178E+02  0.12700000000E+01 0. -1.
          4   -1    0    0  501    0  0.00000000000E+00 -0.00000000000E+00 -0.17044274928E+03  0.17044748071E+03  0.12700000000E+01 0. -1.
         25    2    1    2    0    0  0.00000000000E+00  0.00000000000E+00 -0.14754408227E+03  0.19338133889E+03  0.12500834380E+03 0.  0.
    9000005    1    3    3    0    0  0.13803709400E+02 -0.56108428324E+02 -0.11060996897E+03  0.12479688842E+03  0.10000000000E+01 0.  0.
    9000005    1    3    3    0    0 -0.13803709400E+02  0.56108428324E+02 -0.36934113295E+02  0.68584450476E+02  0.10000000000E+01 0.  0.
<mgrwt>
<rscale>  0 0.12500834E+03</rscale>
<asrwt>0</asrwt>
<pdfrwt beam="2">  1        4 0.26225032E-01 0.12500834E+03</pdfrwt>
<pdfrwt beam="1">  1       -4 0.35259429E-02 0.12500834E+03</pdfrwt>
<totfact> 0.91245230E+03</totfact>
</mgrwt>
</event>
<event>
 5    1  0.3309219E-002  0.1249958E+03  0.7818608E-02  0.1235076E+00
          4   -1    0    0  501    0  0.00000000000E+00  0.00000000000E+00  0.54561790422E+02  0.54576568911E+02  0.12700000000E+01 0. -1.
         -4   -1    0    0    0  501 -0.00000000000E+00 -0.00000000000E+00 -0.71558278945E+02  0.71569547892E+02  0.12700000000E+01 0. -1.
         25    2    1    2    0    0  0.00000000000E+00  0.00000000000E+00 -0.16996488522E+02  0.12614611680E+03  0.12499584858E+03 0.  0.
    9000005    1    3    3    0    0 -0.62216476192E+01 -0.59765007388E+02  0.88184915794E+01  0.60739861713E+02  0.10000000000E+01 0.  0.
    9000005    1    3    3    0    0  0.62216476192E+01  0.59765007388E+02 -0.25814980102E+02  0.65406255090E+02  0.10000000000E+01 0.  0.
<mgrwt>
<rscale>  0 0.12499585E+03</rscale>
<asrwt>0</asrwt>
<pdfrwt beam="1">  1        4 0.83961252E-02 0.12499585E+03</pdfrwt>
<pdfrwt beam="2">  1       -4 0.11010970E-01 0.12499585E+03</pdfrwt>
<totfact> 0.10428734E+04</totfact>
</mgrwt>
</event>
<event>
 5    1  0.3309219E-002  0.1249967E+03  0.7818608E-02  0.1235074E+00
         -4   -1    0    0    0  501 -0.00000000000E+00  0.00000000000E+00  0.15773815754E+02  0.15824859034E+02  0.12700000000E+01 0. -1.
          4   -1    0    0  501    0  0.00000000000E+00 -0.00000000000E+00 -0.24717566004E+03  0.24717892268E+03  0.12700000000E+01 0. -1.
         25    2    1    2    0    0  0.00000000000E+00  0.00000000000E+00 -0.23140184428E+03  0.26300378171E+03  0.12499670258E+03 0.  0.
    9000005    1    3    3    0    0 -0.42539858714E+02 -0.45543177264E+02 -0.10600765248E+03  0.12297334247E+03  0.10000000000E+01 0.  0.
    9000005    1    3    3    0    0  0.42539858714E+02  0.45543177264E+02 -0.12539419181E+03  0.14003043924E+03  0.10000000000E+01 0.  0.
<mgrwt>
<rscale>  0 0.12499670E+03</rscale>
<asrwt>0</asrwt>
<pdfrwt beam="2">  1        4 0.38031199E-01 0.12499670E+03</pdfrwt>
<pdfrwt beam="1">  1       -4 0.24309184E-02 0.12499670E+03</pdfrwt>
<totfact> 0.80492270E+03</totfact>
</mgrwt>
</event>
<event>
 5    1  0.3309219E-002  0.1250022E+03  0.7818608E-02  0.1235066E+00
          4   -1    0    0  501    0  0.00000000000E+00  0.00000000000E+00  0.25720988117E+03  0.25721301653E+03  0.12700000000E+01 0.  1.
         -4   -1    0    0    0  501 -0.00000000000E+00 -0.00000000000E+00 -0.15157759710E+02  0.15210870436E+02  0.12700000000E+01 0.  1.
         25    2    1    2    0    0  0.00000000000E+00  0.00000000000E+00  0.24205212146E+03  0.27242388697E+03  0.12500217872E+03 0.  0.
    9000005    1    3    3    0    0 -0.47574210157E+01 -0.58194994934E+02  0.72484881144E+02  0.93082482157E+02  0.10000000000E+01 0.  0.
    9000005    1    3    3    0    0  0.47574210157E+01  0.58194994934E+02  0.16956724032E+03  0.17934140481E+03  0.10000000000E+01 0.  0.
<mgrwt>
<rscale>  0 0.12500218E+03</rscale>
<asrwt>0</asrwt>
<pdfrwt beam="1">  1        4 0.39575078E-01 0.12500218E+03</pdfrwt>
<pdfrwt beam="2">  1       -4 0.23362896E-02 0.12500218E+03</pdfrwt>
<totfact> 0.79189648E+03</totfact>
</mgrwt>
</event>
<event>
 5    1  0.3309219E-002  0.1249989E+03  0.7818608E-02  0.1235071E+00
         -4   -1    0    0    0  501 -0.00000000000E+00  0.00000000000E+00  0.11445875698E+03  0.11446580253E+03  0.12700000000E+01 0. -1.
          4   -1    0    0  501    0  0.00000000000E+00 -0.00000000000E+00 -0.34107499239E+02  0.34131135410E+02  0.12700000000E+01 0. -1.
         25    2    1    2    0    0  0.00000000000E+00  0.00000000000E+00  0.80351257740E+02  0.14859693794E+03  0.12499890138E+03 0.  0.
    9000005    1    3    3    0    0  0.24046561218E+02 -0.46087891210E-01 -0.28393129594E+02  0.37221083255E+02  0.10000000000E+01 0.  0.
    9000005    1    3    3    0    0 -0.24046561218E+02  0.46087891210E-01  0.10874438733E+03  0.11137585469E+03  0.10000000000E+01 0.  0.
<mgrwt>
<rscale>  0 0.12499890E+03</rscale>
<asrwt>0</asrwt>
<pdfrwt beam="2">  1        4 0.52496677E-02 0.12499890E+03</pdfrwt>
<pdfrwt beam="1">  1       -4 0.17611400E-01 0.12499890E+03</pdfrwt>
<totfact> 0.99586578E+03</totfact>
</mgrwt>
</event>
<event>
 5    1  0.3309219E-002  0.1249968E+03  0.7818608E-02  0.1235074E+00
         -4   -1    0    0    0  501 -0.00000000000E+00  0.00000000000E+00  0.35674613974E+02  0.35697212527E+02  0.12700000000E+01 0.  1.
          4   -1    0    0  501    0  0.00000000000E+00 -0.00000000000E+00 -0.10942999975E+03  0.10943736905E+03  0.12700000000E+01 0.  1.
         25    2    1    2    0    0  0.00000000000E+00  0.00000000000E+00 -0.73755385774E+02  0.14513458158E+03  0.12499675932E+03 0.  0.
    9000005    1    3    3    0    0  0.18885259649E+02  0.45296351243E+02 -0.81796694936E+02  0.95394505976E+02  0.10000000000E+01 0.  0.
    9000005    1    3    3    0    0 -0.18885259649E+02 -0.45296351243E+02  0.80413091618E+01  0.49740075603E+02  0.10000000000E+01 0.  0.
<mgrwt>
<rscale>  0 0.12499676E+03</rscale>
<asrwt>0</asrwt>
<pdfrwt beam="2">  1        4 0.16837690E-01 0.12499676E+03</pdfrwt>
<pdfrwt beam="1">  1       -4 0.54907074E-02 0.12499676E+03</pdfrwt>
<totfact> 0.10028987E+04</totfact>
</mgrwt>
</event>
<event>
 5    1  0.3309219E-002  0.1249975E+03  0.7818608E-02  0.1235073E+00
         -4   -1    0    0    0  501 -0.00000000000E+00  0.00000000000E+00  0.23173820053E+01  0.26425668125E+01  0.12700000000E+01 0.  1.
          4   -1    0    0  501    0  0.00000000000E+00 -0.00000000000E+00 -0.15747277179E+04  0.15747282300E+04  0.12700000000E+01 0.  1.
         25    2    1    2    0    0  0.00000000000E+00  0.00000000000E+00 -0.15724103359E+04  0.15773707968E+04  0.12499746506E+03 0.  0.
    9000005    1    3    3    0    0 -0.75568323183E+01  0.14127395910E+02 -0.15484315300E+04  0.15485147375E+04  0.10000000000E+01 0.  0.
    9000005    1    3    3    0    0  0.75568323183E+01 -0.14127395910E+02 -0.23978805838E+02  0.28856059317E+02  0.10000000000E+01 0.  0.
<mgrwt>
<rscale>  0 0.12499747E+03</rscale>
<asrwt>0</asrwt>
<pdfrwt beam="2">  1        4 0.24229006E+00 0.12499747E+03</pdfrwt>
<pdfrwt beam="1">  1       -4 0.38157518E-03 0.12499747E+03</pdfrwt>
<totfact> 0.16459671E+03</totfact>
</mgrwt>
</event>
<event>
 5    1  0.3309219E-002  0.1249996E+03  0.7818608E-02  0.1235070E+00
         -4   -1    0    0    0  501 -0.00000000000E+00  0.00000000000E+00  0.13833072666E+02  0.13891249022E+02  0.12700000000E+01 0. -1.
          4   -1    0    0  501    0  0.00000000000E+00 -0.00000000000E+00 -0.28173102584E+03  0.28173388831E+03  0.12700000000E+01 0. -1.
         25    2    1    2    0    0  0.00000000000E+00  0.00000000000E+00 -0.26789795317E+03  0.29562513733E+03  0.12499963402E+03 0.  0.
    9000005    1    3    3    0    0 -0.22885939336E+02  0.45502223108E+02 -0.21958083879E+03  0.22541287295E+03  0.10000000000E+01 0.  0.
    9000005    1    3    3    0    0  0.22885939336E+02 -0.45502223108E+02 -0.48317114384E+02  0.70212264381E+02  0.10000000000E+01 0.  0.
<mgrwt>
<rscale>  0 0.12499963E+03</rscale>
<asrwt>0</asrwt>
<pdfrwt beam="2">  1        4 0.43347926E-01 0.12499963E+03</pdfrwt>
<pdfrwt beam="1">  1       -4 0.21328605E-02 0.12499963E+03</pdfrwt>
<totfact> 0.76151531E+03</totfact>
</mgrwt>
</event>
<event>
 5    1  0.3309219E-002  0.1250014E+03  0.7818608E-02  0.1235067E+00
          4   -1    0    0  501    0  0.00000000000E+00  0.00000000000E+00  0.29969447271E+02  0.29996344273E+02  0.12700000000E+01 0. -1.
         -4   -1    0    0    0  501 -0.00000000000E+00 -0.00000000000E+00 -0.13025547310E+03  0.13026166425E+03  0.12700000000E+01 0. -1.
         25    2    1    2    0    0  0.00000000000E+00  0.00000000000E+00 -0.10028602583E+03  0.16025800852E+03  0.12500136927E+03 0.  0.
    9000005    1    3    3    0    0 -0.37044207296E+01  0.37268933113E+02 -0.11427934455E+03  0.12026414553E+03  0.10000000000E+01 0.  0.
    9000005    1    3    3    0    0  0.37044207296E+01 -0.37268933113E+02  0.13993318722E+02  0.39993862994E+02  0.10000000000E+01 0.  0.
<mgrwt>
<rscale>  0 0.12500137E+03</rscale>
<asrwt>0</asrwt>
<pdfrwt beam="1">  1        4 0.46132295E-02 0.12500137E+03</pdfrwt>
<pdfrwt beam="2">  1       -4 0.20041848E-01 0.12500137E+03</pdfrwt>
<totfact> 0.97290072E+03</totfact>
</mgrwt>
</event>
<event>
 5    1  0.3309219E-002  0.1249994E+03  0.7818608E-02  0.1235070E+00
         -4   -1    0    0    0  501 -0.00000000000E+00  0.00000000000E+00  0.24403641995E+02  0.24436665947E+02  0.12700000000E+01 0. -1.
          4   -1    0    0  501    0  0.00000000000E+00 -0.00000000000E+00 -0.15992305887E+03  0.15992810153E+03  0.12700000000E+01 0. -1.
         25    2    1    2    0    0  0.00000000000E+00  0.00000000000E+00 -0.13551941687E+03  0.18436476747E+03  0.12499942054E+03 0.  0.
    9000005    1    3    3    0    0 -0.78759845822E+01 -0.48671162787E+02 -0.12439184493E+03  0.13381047905E+03  0.10000000000E+01 0.  0.
    9000005    1    3    3    0    0  0.78759845822E+01  0.48671162787E+02 -0.11127571946E+02  0.50554288419E+02  0.10000000000E+01 0.  0.
<mgrwt>
<rscale>  0 0.12499942E+03</rscale>
<asrwt>0</asrwt>
<pdfrwt beam="2">  1        4 0.24606475E-01 0.12499942E+03</pdfrwt>
<pdfrwt beam="1">  1       -4 0.37573348E-02 0.12499942E+03</pdfrwt>
<totfact> 0.92838385E+03</totfact>
</mgrwt>
</event>
<event>
 5    1  0.3309219E-002  0.1249990E+03  0.7818608E-02  0.1235071E+00
         -4   -1    0    0    0  501 -0.00000000000E+00  0.00000000000E+00  0.14828786698E+02  0.14883071422E+02  0.12700000000E+01 0. -1.
          4   -1    0    0  501    0  0.00000000000E+00 -0.00000000000E+00 -0.26288204091E+03  0.26288510862E+03  0.12700000000E+01 0. -1.
         25    2    1    2    0    0  0.00000000000E+00  0.00000000000E+00 -0.24805325421E+03  0.27776818004E+03  0.12499897967E+03 0.  0.
    9000005    1    3    3    0    0  0.54680213259E+02  0.10987235055E+02 -0.18666410016E+03  0.19482076724E+03  0.10000000000E+01 0.  0.
    9000005    1    3    3    0    0 -0.54680213259E+02 -0.10987235055E+02 -0.61389154047E+02  0.82947412803E+02  0.10000000000E+01 0.  0.
<mgrwt>
<rscale>  0 0.12499898E+03</rscale>
<asrwt>0</asrwt>
<pdfrwt beam="2">  1        4 0.40447799E-01 0.12499898E+03</pdfrwt>
<pdfrwt beam="1">  1       -4 0.22857637E-02 0.12499898E+03</pdfrwt>
<totfact> 0.78476743E+03</totfact>
</mgrwt>
</event>
<event>
 5    1  0.3309219E-002  0.1249941E+03  0.7818608E-02  0.1235079E+00
          4   -1    0    0  501    0  0.00000000000E+00  0.00000000000E+00  0.52432240013E+03  0.52432393821E+03  0.12700000000E+01 0. -1.
         -4   -1    0    0    0  501 -0.00000000000E+00 -0.00000000000E+00 -0.73936945086E+01  0.75019743059E+01  0.12700000000E+01 0. -1.
         25    2    1    2    0    0  0.00000000000E+00  0.00000000000E+00  0.51692870563E+03  0.53182591252E+03  0.12499405796E+03 0.  0.
    9000005    1    3    3    0    0 -0.17799833371E+02 -0.28500148617E+01  0.51304002960E+03  0.51335760307E+03  0.10000000000E+01 0.  0.
    9000005    1    3    3    0    0  0.17799833371E+02  0.28500148617E+01  0.38886760226E+01  0.18468309450E+02  0.10000000000E+01 0.  0.
<mgrwt>
<rscale>  0 0.12499406E+03</rscale>
<asrwt>0</asrwt>
<pdfrwt beam="1">  1        4 0.80673447E-01 0.12499406E+03</pdfrwt>
<pdfrwt beam="2">  1       -4 0.11459388E-02 0.12499406E+03</pdfrwt>
<totfact> 0.53483914E+03</totfact>
</mgrwt>
</event>
<event>
 5    1  0.3309219E-002  0.1250034E+03  0.7818608E-02  0.1235064E+00
         -4   -1    0    0    0  501 -0.00000000000E+00  0.00000000000E+00  0.10800282561E+02  0.10874695554E+02  0.12700000000E+01 0. -1.
          4   -1    0    0  501    0  0.00000000000E+00 -0.00000000000E+00 -0.36038245630E+03  0.36038469406E+03  0.12700000000E+01 0. -1.
         25    2    1    2    0    0  0.00000000000E+00  0.00000000000E+00 -0.34958217374E+03  0.37125938961E+03  0.12500335266E+03 0.  0.
    9000005    1    3    3    0    0  0.29150203496E+02 -0.31169742428E+02 -0.39202667246E+02  0.57958056611E+02  0.10000000000E+01 0.  0.
    9000005    1    3    3    0    0 -0.29150203496E+02  0.31169742428E+02 -0.31037950650E+03  0.31330133300E+03  0.10000000000E+01 0.  0.
<mgrwt>
<rscale>  0 0.12500335E+03</rscale>
<asrwt>0</asrwt>
<pdfrwt beam="2">  1        4 0.55449342E-01 0.12500335E+03</pdfrwt>
<pdfrwt beam="1">  1       -4 0.16674784E-02 0.12500335E+03</pdfrwt>
<totfact> 0.67442392E+03</totfact>
</mgrwt>
</event>
<event>
 5    1  0.3309219E-002  0.1250029E+03  0.7818608E-02  0.1235065E+00
         -4   -1    0    0    0  501 -0.00000000000E+00  0.00000000000E+00  0.12560590048E+03  0.12561232079E+03  0.12700000000E+01 0. -1.
          4   -1    0    0  501    0  0.00000000000E+00 -0.00000000000E+00 -0.31080529048E+02  0.31106465339E+02  0.12700000000E+01 0. -1.
         25    2    1    2    0    0  0.00000000000E+00  0.00000000000E+00  0.94525371427E+02  0.15671878613E+03  0.12500292829E+03 0.  0.
    9000005    1    3    3    0    0  0.28808780905E+02 -0.41751487082E+02  0.15010050578E+01  0.50758108190E+02  0.10000000000E+01 0.  0.
    9000005    1    3    3    0    0 -0.28808780905E+02  0.41751487082E+02  0.93024366369E+02  0.10596067794E+03  0.10000000000E+01 0.  0.
<mgrwt>
<rscale>  0 0.12500293E+03</rscale>
<asrwt>0</asrwt>
<pdfrwt beam="2">  1        4 0.47841089E-02 0.12500293E+03</pdfrwt>
<pdfrwt beam="1">  1       -4 0.19326473E-01 0.12500293E+03</pdfrwt>
<totfact> 0.97972682E+03</totfact>
</mgrwt>
</event>
<event>
 5    1  0.3309219E-002  0.1250024E+03  0.7818608E-02  0.1235066E+00
          4   -1    0    0  501    0  0.00000000000E+00  0.00000000000E+00  0.33137017402E+01  0.35487348764E+01  0.12700000000E+01 0.  1.
         -4   -1    0    0    0  501 -0.00000000000E+00 -0.00000000000E+00 -0.11382523043E+04  0.11382530128E+04  0.12700000000E+01 0.  1.
         25    2    1    2    0    0  0.00000000000E+00  0.00000000000E+00 -0.11349386025E+04  0.11418017476E+04  0.12500239762E+03 0.  0.
    9000005    1    3    3    0    0 -0.84274469815E+01 -0.18686784484E+02 -0.28225581077E+02  0.34898441285E+02  0.10000000000E+01 0.  0.
    9000005    1    3    3    0    0  0.84274469815E+01  0.18686784484E+02 -0.11067130214E+04  0.11069033064E+04  0.10000000000E+01 0.  0.
<mgrwt>
<rscale>  0 0.12500240E+03</rscale>
<asrwt>0</asrwt>
<pdfrwt beam="1">  1        4 0.52793515E-03 0.12500240E+03</pdfrwt>
<pdfrwt beam="2">  1       -4 0.17513357E+00 0.12500240E+03</pdfrwt>
<totfact> 0.26287482E+03</totfact>
</mgrwt>
</event>
<event>
 5    1  0.3309219E-002  0.1249959E+03  0.7818608E-02  0.1235076E+00
         -4   -1    0    0    0  501 -0.00000000000E+00  0.00000000000E+00  0.11567719925E+03  0.11568417060E+03  0.12700000000E+01 0. -1.
          4   -1    0    0  501    0  0.00000000000E+00 -0.00000000000E+00 -0.33746391230E+02  0.33770280145E+02  0.12700000000E+01 0. -1.
         25    2    1    2    0    0  0.00000000000E+00  0.00000000000E+00  0.81930808022E+02  0.14945445074E+03  0.12499590211E+03 0.  0.
    9000005    1    3    3    0    0  0.49498721711E+02  0.17822737702E+02  0.81286786018E+02  0.96831374107E+02  0.10000000000E+01 0.  0.
    9000005    1    3    3    0    0 -0.49498721711E+02 -0.17822737702E+02  0.64402200385E+00  0.52623076636E+02  0.10000000000E+01 0.  0.
<mgrwt>
<rscale>  0 0.12499590E+03</rscale>
<asrwt>0</asrwt>
<pdfrwt beam="2">  1        4 0.51941263E-02 0.12499590E+03</pdfrwt>
<pdfrwt beam="1">  1       -4 0.17798866E-01 0.12499590E+03</pdfrwt>
<totfact> 0.99421725E+03</totfact>
</mgrwt>
</event>
<event>
 5    1  0.3309219E-002  0.1249982E+03  0.7818608E-02  0.1235072E+00
         -4   -1    0    0    0  501 -0.00000000000E+00  0.00000000000E+00  0.17892498025E+02  0.17937513361E+02  0.12700000000E+01 0.  1.
          4   -1    0    0  501    0  0.00000000000E+00 -0.00000000000E+00 -0.21799027141E+03  0.21799397086E+03  0.12700000000E+01 0.  1.
         25    2    1    2    0    0  0.00000000000E+00  0.00000000000E+00 -0.20009777339E+03  0.23593148422E+03  0.12499818531E+03 0.  0.
    9000005    1    3    3    0    0 -0.48395150208E+02  0.20067912569E+02 -0.16434311656E+03  0.17249484525E+03  0.10000000000E+01 0.  0.
    9000005    1    3    3    0    0  0.48395150208E+02 -0.20067912569E+02 -0.35754656829E+02  0.63436638967E+02  0.10000000000E+01 0.  0.
<mgrwt>
<rscale>  0 0.12499819E+03</rscale>
<asrwt>0</asrwt>
<pdfrwt beam="2">  1        4 0.33540710E-01 0.12499819E+03</pdfrwt>
<pdfrwt beam="1">  1       -4 0.27564395E-02 0.12499819E+03</pdfrwt>
<totfact> 0.84410473E+03</totfact>
</mgrwt>
</event>
<event>
 5    1  0.3309219E-002  0.1250292E+03  0.7818608E-02  0.1235024E+00
          4   -1    0    0  501    0  0.00000000000E+00  0.00000000000E+00  0.16710552376E+02  0.16758742814E+02  0.12700000000E+01 0.  1.
         -4   -1    0    0    0  501 -0.00000000000E+00 -0.00000000000E+00 -0.23348206334E+03  0.23348551732E+03  0.12700000000E+01 0.  1.
         25    2    1    2    0    0  0.00000000000E+00  0.00000000000E+00 -0.21677151096E+03  0.25024426014E+03  0.12502920366E+03 0.  0.
    9000005    1    3    3    0    0 -0.57000459221E+02 -0.23125190843E+02 -0.13060573866E+03  0.14436996147E+03  0.10000000000E+01 0.  0.
    9000005    1    3    3    0    0  0.57000459221E+02  0.23125190843E+02 -0.86165772302E+02  0.10587429867E+03  0.10000000000E+01 0.  0.
<mgrwt>
<rscale>  0 0.12502920E+03</rscale>
<asrwt>0</asrwt>
<pdfrwt beam="1">  1        4 0.25748270E-02 0.12502920E+03</pdfrwt>
<pdfrwt beam="2">  1       -4 0.35924288E-01 0.12502920E+03</pdfrwt>
<totfact> 0.82241425E+03</totfact>
</mgrwt>
</event>
<event>
 5    1  0.3309219E-002  0.1249932E+03  0.7818608E-02  0.1235080E+00
          4   -1    0    0  501    0  0.00000000000E+00  0.00000000000E+00  0.40089217775E+03  0.40089418938E+03  0.12700000000E+01 0. -1.
         -4   -1    0    0    0  501 -0.00000000000E+00 -0.00000000000E+00 -0.96994012961E+01  0.97821922647E+01  0.12700000000E+01 0. -1.
         25    2    1    2    0    0  0.00000000000E+00  0.00000000000E+00  0.39119277645E+03  0.41067638165E+03  0.12499320819E+03 0.  0.
    9000005    1    3    3    0    0  0.26059787576E+02  0.24182873539E+02  0.36444186214E+03  0.36617317595E+03  0.10000000000E+01 0.  0.
    9000005    1    3    3    0    0 -0.26059787576E+02 -0.24182873539E+02  0.26750914309E+02  0.44503205699E+02  0.10000000000E+01 0.  0.
<mgrwt>
<rscale>  0 0.12499321E+03</rscale>
<asrwt>0</asrwt>
<pdfrwt beam="1">  1        4 0.61682246E-01 0.12499321E+03</pdfrwt>
<pdfrwt beam="2">  1       -4 0.14987388E-02 0.12499321E+03</pdfrwt>
<totfact> 0.63537014E+03</totfact>
</mgrwt>
</event>
<event>
 5    1  0.3309219E-002  0.1249961E+03  0.7818608E-02  0.1235075E+00
          4   -1    0    0  501    0  0.00000000000E+00  0.00000000000E+00  0.22332889017E+03  0.22333250119E+03  0.12700000000E+01 0. -1.
         -4   -1    0    0    0  501 -0.00000000000E+00 -0.00000000000E+00 -0.17463119009E+02  0.17509238291E+02  0.12700000000E+01 0. -1.
         25    2    1    2    0    0  0.00000000000E+00  0.00000000000E+00  0.20586577116E+03  0.24084173948E+03  0.12499611089E+03 0.  0.
    9000005    1    3    3    0    0 -0.53939138501E+02  0.14535964902E+02  0.15689281556E+03  0.16654453012E+03  0.10000000000E+01 0.  0.
    9000005    1    3    3    0    0  0.53939138501E+02 -0.14535964902E+02  0.48972955605E+02  0.74297209360E+02  0.10000000000E+01 0.  0.
<mgrwt>
<rscale>  0 0.12499611E+03</rscale>
<asrwt>0</asrwt>
<pdfrwt beam="1">  1        4 0.34362118E-01 0.12499611E+03</pdfrwt>
<pdfrwt beam="2">  1       -4 0.26904590E-02 0.12499611E+03</pdfrwt>
<totfact> 0.83679417E+03</totfact>
</mgrwt>
</event>
<event>
 5    1  0.3309219E-002  0.1250022E+03  0.7818608E-02  0.1235066E+00
         -4   -1    0    0    0  501 -0.00000000000E+00  0.00000000000E+00  0.27487853868E+02  0.27517176641E+02  0.12700000000E+01 0. -1.
          4   -1    0    0  501    0  0.00000000000E+00 -0.00000000000E+00 -0.14200537797E+03  0.14201105687E+03  0.12700000000E+01 0. -1.
         25    2    1    2    0    0  0.00000000000E+00  0.00000000000E+00 -0.11451752411E+03  0.16952823351E+03  0.12500223450E+03 0.  0.
    9000005    1    3    3    0    0 -0.60606409594E+02  0.11636871093E+02 -0.70604503042E+02  0.93779259448E+02  0.10000000000E+01 0.  0.
    9000005    1    3    3    0    0  0.60606409594E+02 -0.11636871093E+02 -0.43913021064E+02  0.75748974064E+02  0.10000000000E+01 0.  0.
<mgrwt>
<rscale>  0 0.12500223E+03</rscale>
<asrwt>0</asrwt>
<pdfrwt beam="2">  1        4 0.21849673E-01 0.12500223E+03</pdfrwt>
<pdfrwt beam="1">  1       -4 0.42315931E-02 0.12500223E+03</pdfrwt>
<totfact> 0.95531830E+03</totfact>
</mgrwt>
</event>
<event>
 5    1  0.3309219E-002  0.1250043E+03  0.7818608E-02  0.1235063E+00
         -4   -1    0    0    0  501 -0.00000000000E+00  0.00000000000E+00  0.51833773479E+02  0.51849329534E+02  0.12700000000E+01 0.  1.
          4   -1    0    0  501    0  0.00000000000E+00 -0.00000000000E+00 -0.75334072126E+02  0.75344776349E+02  0.12700000000E+01 0.  1.
         25    2    1    2    0    0  0.00000000000E+00  0.00000000000E+00 -0.23500298647E+02  0.12719410588E+03  0.12500430607E+03 0.  0.
    9000005    1    3    3    0    0 -0.53537567912E+02  0.29664621334E+02 -0.24590973826E+02  0.65969515161E+02  0.10000000000E+01 0.  0.
    9000005    1    3    3    0    0  0.53537567912E+02 -0.29664621334E+02  0.10906751797E+01  0.61224590723E+02  0.10000000000E+01 0.  0.
<mgrwt>
<rscale>  0 0.12500431E+03</rscale>
<asrwt>0</asrwt>
<pdfrwt beam="2">  1        4 0.11591877E-01 0.12500431E+03</pdfrwt>
<pdfrwt beam="1">  1       -4 0.79764467E-02 0.12500431E+03</pdfrwt>
<totfact> 0.10403920E+04</totfact>
</mgrwt>
</event>
<event>
 5    1  0.3309219E-002  0.1250163E+03  0.7818608E-02  0.1235044E+00
         -4   -1    0    0    0  501 -0.00000000000E+00  0.00000000000E+00  0.78817593302E+02  0.78827824490E+02  0.12700000000E+01 0.  1.
          4   -1    0    0  501    0  0.00000000000E+00 -0.00000000000E+00 -0.49551961703E+02  0.49568233866E+02  0.12700000000E+01 0.  1.
         25    2    1    2    0    0  0.00000000000E+00  0.00000000000E+00  0.29265631599E+02  0.12839605836E+03  0.12501628137E+03 0.  0.
    9000005    1    3    3    0    0 -0.42565313562E+02 -0.40307835202E+02 -0.76266100520E+01  0.59124383110E+02  0.10000000000E+01 0.  0.
    9000005    1    3    3    0    0  0.42565313562E+02  0.40307835202E+02  0.36892241651E+02  0.69271675246E+02  0.10000000000E+01 0.  0.
<mgrwt>
<rscale>  0 0.12501628E+03</rscale>
<asrwt>0</asrwt>
<pdfrwt beam="2">  1        4 0.76254175E-02 0.12501628E+03</pdfrwt>
<pdfrwt beam="1">  1       -4 0.12127822E-01 0.12501628E+03</pdfrwt>
<totfact> 0.10375129E+04</totfact>
</mgrwt>
</event>
<event>
 5    1  0.3309219E-002  0.1250003E+03  0.7818608E-02  0.1235069E+00
          4   -1    0    0  501    0  0.00000000000E+00  0.00000000000E+00  0.17771878475E+03  0.17772332248E+03  0.12700000000E+01 0. -1.
         -4   -1    0    0    0  501 -0.00000000000E+00 -0.00000000000E+00 -0.21956889336E+02  0.21993587459E+02  0.12700000000E+01 0. -1.
         25    2    1    2    0    0  0.00000000000E+00  0.00000000000E+00  0.15576189541E+03  0.19971690994E+03  0.12500030421E+03 0.  0.
    9000005    1    3    3    0    0 -0.22771487327E+02  0.49258558041E+02  0.12739316738E+03  0.13847369884E+03  0.10000000000E+01 0.  0.
    9000005    1    3    3    0    0  0.22771487327E+02 -0.49258558041E+02  0.28368728034E+02  0.61243211098E+02  0.10000000000E+01 0.  0.
<mgrwt>
<rscale>  0 0.12500030E+03</rscale>
<asrwt>0</asrwt>
<pdfrwt beam="1">  1        4 0.27344524E-01 0.12500030E+03</pdfrwt>
<pdfrwt beam="2">  1       -4 0.33811549E-02 0.12500030E+03</pdfrwt>
<totfact> 0.90182659E+03</totfact>
</mgrwt>
</event>
<event>
 5    1  0.3309219E-002  0.1249994E+03  0.7818608E-02  0.1235070E+00
          4   -1    0    0  501    0  0.00000000000E+00  0.00000000000E+00  0.24898179744E+03  0.24898503641E+03  0.12700000000E+01 0.  1.
         -4   -1    0    0    0  501 -0.00000000000E+00 -0.00000000000E+00 -0.15659705142E+02  0.15711119156E+02  0.12700000000E+01 0.  1.
         25    2    1    2    0    0  0.00000000000E+00  0.00000000000E+00  0.23332209230E+03  0.26469615556E+03  0.12499942407E+03 0.  0.
    9000005    1    3    3    0    0  0.18109135611E+02  0.41400549829E+02  0.25254510828E+02  0.51775830615E+02  0.10000000000E+01 0.  0.
    9000005    1    3    3    0    0 -0.18109135611E+02 -0.41400549829E+02  0.20806758147E+03  0.21292032495E+03  0.10000000000E+01 0.  0.
<mgrwt>
<rscale>  0 0.12499942E+03</rscale>
<asrwt>0</asrwt>
<pdfrwt beam="1">  1        4 0.38309095E-01 0.12499942E+03</pdfrwt>
<pdfrwt beam="2">  1       -4 0.24133895E-02 0.12499942E+03</pdfrwt>
<totfact> 0.80252534E+03</totfact>
</mgrwt>
</event>
<event>
 5    1  0.3309219E-002  0.1250054E+03  0.7818608E-02  0.1235061E+00
         -4   -1    0    0    0  501 -0.00000000000E+00  0.00000000000E+00  0.19068561780E+01  0.22910697247E+01  0.12700000000E+01 0.  1.
          4   -1    0    0  501    0  0.00000000000E+00 -0.00000000000E+00 -0.18608156804E+04  0.18608161138E+04  0.12700000000E+01 0.  1.
         25    2    1    2    0    0  0.00000000000E+00  0.00000000000E+00 -0.18589088243E+04  0.18631071835E+04  0.12500544179E+03 0.  0.
    9000005    1    3    3    0    0 -0.37980962663E+02 -0.11103802223E+02 -0.16503841203E+04  0.16508587440E+04  0.10000000000E+01 0.  0.
    9000005    1    3    3    0    0  0.37980962663E+02  0.11103802223E+02 -0.20852470395E+03  0.21224843958E+03  0.10000000000E+01 0.  0.
<mgrwt>
<rscale>  0 0.12500544E+03</rscale>
<asrwt>0</asrwt>
<pdfrwt beam="2">  1        4 0.28630760E+00 0.12500544E+03</pdfrwt>
<pdfrwt beam="1">  1       -4 0.32295220E-03 0.12500544E+03</pdfrwt>
<totfact> 0.11754390E+03</totfact>
</mgrwt>
</event>
<event>
 5    1  0.3309219E-002  0.1249990E+03  0.7818608E-02  0.1235071E+00
         -4   -1    0    0    0  501 -0.00000000000E+00  0.00000000000E+00  0.10901652485E+02  0.10975378213E+02  0.12700000000E+01 0. -1.
          4   -1    0    0  501    0  0.00000000000E+00 -0.00000000000E+00 -0.35702937784E+03  0.35703163662E+03  0.12700000000E+01 0. -1.
         25    2    1    2    0    0  0.00000000000E+00  0.00000000000E+00 -0.34612772536E+03  0.36800701483E+03  0.12499904280E+03 0.  0.
    9000005    1    3    3    0    0 -0.44790776416E+02  0.41898706358E+02 -0.13779938802E+03  0.15083562770E+03  0.10000000000E+01 0.  0.
    9000005    1    3    3    0    0  0.44790776416E+02 -0.41898706358E+02 -0.20832833734E+03  0.21717138713E+03  0.10000000000E+01 0.  0.
<mgrwt>
<rscale>  0 0.12499904E+03</rscale>
<asrwt>0</asrwt>
<pdfrwt beam="2">  1        4 0.54933433E-01 0.12499904E+03</pdfrwt>
<pdfrwt beam="1">  1       -4 0.16830225E-02 0.12499904E+03</pdfrwt>
<totfact> 0.67789396E+03</totfact>
</mgrwt>
</event>
<event>
 5    1  0.3309219E-002  0.1250026E+03  0.7818608E-02  0.1235065E+00
          4   -1    0    0  501    0  0.00000000000E+00  0.00000000000E+00  0.16688481185E+03  0.16688964415E+03  0.12700000000E+01 0. -1.
         -4   -1    0    0    0  501 -0.00000000000E+00 -0.00000000000E+00 -0.23385452156E+02  0.23419911882E+02  0.12700000000E+01 0. -1.
         25    2    1    2    0    0  0.00000000000E+00  0.00000000000E+00  0.14349935969E+03  0.19030955603E+03  0.12500264352E+03 0.  0.
    9000005    1    3    3    0    0 -0.94549117484E-01 -0.59117888707E+02  0.40904436425E+02  0.71896499386E+02  0.10000000000E+01 0.  0.
    9000005    1    3    3    0    0  0.94549117484E-01  0.59117888707E+02  0.10259492326E+03  0.11841305665E+03  0.10000000000E+01 0.  0.
<mgrwt>
<rscale>  0 0.12500264E+03</rscale>
<asrwt>0</asrwt>
<pdfrwt beam="1">  1        4 0.25677609E-01 0.12500264E+03</pdfrwt>
<pdfrwt beam="2">  1       -4 0.36007843E-02 0.12500264E+03</pdfrwt>
<totfact> 0.91788045E+03</totfact>
</mgrwt>
</event>
<event>
 5    1  0.3309219E-002  0.1249976E+03  0.7818608E-02  0.1235073E+00
         -4   -1    0    0    0  501 -0.00000000000E+00  0.00000000000E+00  0.27249295106E+01  0.30063500857E+01  0.12700000000E+01 0.  1.
          4   -1    0    0  501    0  0.00000000000E+00 -0.00000000000E+00 -0.13627988102E+04  0.13627994020E+04  0.12700000000E+01 0.  1.
         25    2    1    2    0    0  0.00000000000E+00  0.00000000000E+00 -0.13600738807E+04  0.13658057521E+04  0.12499756553E+03 0.  0.
    9000005    1    3    3    0    0  0.46853630513E+02  0.41185180965E+02 -0.63971768229E+03  0.64275282563E+03  0.10000000000E+01 0.  0.
    9000005    1    3    3    0    0 -0.46853630513E+02 -0.41185180965E+02 -0.72035619842E+03  0.72305292644E+03  0.10000000000E+01 0.  0.
<mgrwt>
<rscale>  0 0.12499757E+03</rscale>
<asrwt>0</asrwt>
<pdfrwt beam="2">  1        4 0.20968253E+00 0.12499757E+03</pdfrwt>
<pdfrwt beam="1">  1       -4 0.44091427E-03 0.12499757E+03</pdfrwt>
<totfact> 0.20727661E+03</totfact>
</mgrwt>
</event>
<event>
 5    1  0.3309219E-002  0.1249968E+03  0.7818608E-02  0.1235074E+00
          4   -1    0    0  501    0  0.00000000000E+00  0.00000000000E+00  0.82610435762E+02  0.82620197270E+02  0.12700000000E+01 0.  1.
         -4   -1    0    0    0  501 -0.00000000000E+00 -0.00000000000E+00 -0.47261662017E+02  0.47278722452E+02  0.12700000000E+01 0.  1.
         25    2    1    2    0    0  0.00000000000E+00  0.00000000000E+00  0.35348773745E+02  0.12989891972E+03  0.12499677412E+03 0.  0.
    9000005    1    3    3    0    0  0.35238792530E+02 -0.37679204511E+02  0.54321431732E+02  0.74922045467E+02  0.10000000000E+01 0.  0.
    9000005    1    3    3    0    0 -0.35238792530E+02  0.37679204511E+02 -0.18972657987E+02  0.54976874254E+02  0.10000000000E+01 0.  0.
<mgrwt>
<rscale>  0 0.12499677E+03</rscale>
<asrwt>0</asrwt>
<pdfrwt beam="1">  1        4 0.12711361E-01 0.12499677E+03</pdfrwt>
<pdfrwt beam="2">  1       -4 0.72730882E-02 0.12499677E+03</pdfrwt>
<totfact> 0.10347424E+04</totfact>
</mgrwt>
</event>
<event>
 5    1  0.3309219E-002  0.1249878E+03  0.7818608E-02  0.1235088E+00
          4   -1    0    0  501    0  0.00000000000E+00  0.00000000000E+00  0.23258484846E+02  0.23293132407E+02  0.12700000000E+01 0. -1.
         -4   -1    0    0    0  501 -0.00000000000E+00 -0.00000000000E+00 -0.16775476058E+03  0.16775956783E+03  0.12700000000E+01 0. -1.
         25    2    1    2    0    0  0.00000000000E+00  0.00000000000E+00 -0.14449627573E+03  0.19105270023E+03  0.12498784167E+03 0.  0.
    9000005    1    3    3    0    0 -0.39910041999E+01  0.62357065640E+02 -0.72856484904E+02  0.95986452911E+02  0.10000000000E+01 0.  0.
    9000005    1    3    3    0    0  0.39910041999E+01 -0.62357065640E+02 -0.71639790830E+02  0.95066247322E+02  0.10000000000E+01 0.  0.
<mgrwt>
<rscale>  0 0.12498784E+03</rscale>
<asrwt>0</asrwt>
<pdfrwt beam="1">  1        4 0.35812635E-02 0.12498784E+03</pdfrwt>
<pdfrwt beam="2">  1       -4 0.25811459E-01 0.12498784E+03</pdfrwt>
<totfact> 0.91689437E+03</totfact>
</mgrwt>
</event>
<event>
 5    1  0.3309219E-002  0.1250028E+03  0.7818608E-02  0.1235065E+00
         -4   -1    0    0    0  501 -0.00000000000E+00  0.00000000000E+00  0.21189244451E+03  0.21189625041E+03  0.12700000000E+01 0.  1.
          4   -1    0    0  501    0  0.00000000000E+00 -0.00000000000E+00 -0.18410035548E+02  0.18453788469E+02  0.12700000000E+01 0.  1.
         25    2    1    2    0    0  0.00000000000E+00  0.00000000000E+00  0.19348240896E+03  0.23035003888E+03  0.12500279132E+03 0.  0.
    9000005    1    3    3    0    0  0.23321791677E+02  0.35871689865E+02  0.18067762727E+03  0.18567737907E+03  0.10000000000E+01 0.  0.
    9000005    1    3    3    0    0 -0.23321791677E+02 -0.35871689865E+02  0.12804781686E+02  0.44672659814E+02  0.10000000000E+01 0.  0.
<mgrwt>
<rscale>  0 0.12500279E+03</rscale>
<asrwt>0</asrwt>
<pdfrwt beam="2">  1        4 0.28359717E-02 0.12500279E+03</pdfrwt>
<pdfrwt beam="1">  1       -4 0.32602495E-01 0.12500279E+03</pdfrwt>
<totfact> 0.85250568E+03</totfact>
</mgrwt>
</event>
<event>
 5    1  0.3309219E-002  0.1250019E+03  0.7818608E-02  0.1235066E+00
          4   -1    0    0  501    0  0.00000000000E+00  0.00000000000E+00  0.10528378956E+02  0.10604700064E+02  0.12700000000E+01 0.  1.
         -4   -1    0    0    0  501 -0.00000000000E+00 -0.00000000000E+00 -0.36961501927E+03  0.36961720113E+03  0.12700000000E+01 0.  1.
         25    2    1    2    0    0  0.00000000000E+00  0.00000000000E+00 -0.35908664031E+03  0.38022190119E+03  0.12500191556E+03 0.  0.
    9000005    1    3    3    0    0 -0.46905464870E+02 -0.41084708009E+02 -0.16689402318E+03  0.17816478564E+03  0.10000000000E+01 0.  0.
    9000005    1    3    3    0    0  0.46905464870E+02  0.41084708009E+02 -0.19219261713E+03  0.20205711555E+03  0.10000000000E+01 0.  0.
<mgrwt>
<rscale>  0 0.12500192E+03</rscale>
<asrwt>0</asrwt>
<pdfrwt beam="1">  1        4 0.16257896E-02 0.12500192E+03</pdfrwt>
<pdfrwt beam="2">  1       -4 0.56869878E-01 0.12500192E+03</pdfrwt>
<totfact> 0.66520111E+03</totfact>
</mgrwt>
</event>
<event>
 5    1  0.3309219E-002  0.1250030E+03  0.7818608E-02  0.1235065E+00
         -4   -1    0    0    0  501 -0.00000000000E+00  0.00000000000E+00  0.12784996487E+03  0.12785627250E+03  0.12700000000E+01 0. -1.
          4   -1    0    0  501    0  0.00000000000E+00 -0.00000000000E+00 -0.30534589903E+02  0.30560989522E+02  0.12700000000E+01 0. -1.
         25    2    1    2    0    0  0.00000000000E+00  0.00000000000E+00  0.97315374965E+02  0.15841726202E+03  0.12500298677E+03 0.  0.
    9000005    1    3    3    0    0  0.35114312002E+02  0.39307086024E+02  0.61060511164E+01  0.53069254557E+02  0.10000000000E+01 0.  0.
    9000005    1    3    3    0    0 -0.35114312002E+02 -0.39307086024E+02  0.91209323849E+02  0.10534800746E+03  0.10000000000E+01 0.  0.
<mgrwt>
<rscale>  0 0.12500299E+03</rscale>
<asrwt>0</asrwt>
<pdfrwt beam="2">  1        4 0.47001453E-02 0.12500299E+03</pdfrwt>
<pdfrwt beam="1">  1       -4 0.19671741E-01 0.12500299E+03</pdfrwt>
<totfact> 0.97642239E+03</totfact>
</mgrwt>
</event>
<event>
 5    1  0.3309219E-002  0.1250004E+03  0.7818608E-02  0.1235069E+00
          4   -1    0    0  501    0  0.00000000000E+00  0.00000000000E+00  0.78334944956E+01  0.79357757033E+01  0.12700000000E+01 0.  1.
         -4   -1    0    0    0  501 -0.00000000000E+00 -0.00000000000E+00 -0.49532562648E+03  0.49532725459E+03  0.12700000000E+01 0.  1.
         25    2    1    2    0    0  0.00000000000E+00  0.00000000000E+00 -0.48749213198E+03  0.50326303030E+03  0.12500039569E+03 0.  0.
    9000005    1    3    3    0    0  0.41846535871E+02  0.42926028184E+02 -0.17268831460E+03  0.18280052095E+03  0.10000000000E+01 0.  0.
    9000005    1    3    3    0    0 -0.41846535871E+02 -0.42926028184E+02 -0.31480381739E+03  0.32046250935E+03  0.10000000000E+01 0.  0.
<mgrwt>
<rscale>  0 0.12500040E+03</rscale>
<asrwt>0</asrwt>
<pdfrwt beam="1">  1        4 0.12131464E-02 0.12500040E+03</pdfrwt>
<pdfrwt beam="2">  1       -4 0.76211911E-01 0.12500040E+03</pdfrwt>
<totfact> 0.55611608E+03</totfact>
</mgrwt>
</event>
<event>
 5    1  0.3309219E-002  0.1250015E+03  0.7818608E-02  0.1235067E+00
         -4   -1    0    0    0  501 -0.00000000000E+00  0.00000000000E+00  0.21660026977E+02  0.21697227211E+02  0.12700000000E+01 0. -1.
          4   -1    0    0  501    0  0.00000000000E+00 -0.00000000000E+00 -0.18015378964E+03  0.18015826603E+03  0.12700000000E+01 0. -1.
         25    2    1    2    0    0  0.00000000000E+00  0.00000000000E+00 -0.15849376266E+03  0.20185549324E+03  0.12500146940E+03 0.  0.
    9000005    1    3    3    0    0 -0.54963554728E+02 -0.15109731874E+02 -0.37885747799E+02  0.68451634253E+02  0.10000000000E+01 0.  0.
    9000005    1    3    3    0    0  0.54963554728E+02  0.15109731874E+02 -0.12060801486E+03  0.13340385899E+03  0.10000000000E+01 0.  0.
<mgrwt>
<rscale>  0 0.12500147E+03</rscale>
<asrwt>0</asrwt>
<pdfrwt beam="2">  1        4 0.27719172E-01 0.12500147E+03</pdfrwt>
<pdfrwt beam="1">  1       -4 0.33355179E-02 0.12500147E+03</pdfrwt>
<totfact> 0.89820551E+03</totfact>
</mgrwt>
</event>
<event>
 5    1  0.3309219E-002  0.1250010E+03  0.7818608E-02  0.1235068E+00
          4   -1    0    0  501    0  0.00000000000E+00  0.00000000000E+00  0.79550082140E+02  0.79560219133E+02  0.12700000000E+01 0.  1.
         -4   -1    0    0    0  501 -0.00000000000E+00 -0.00000000000E+00 -0.49083586418E+02  0.49100013805E+02  0.12700000000E+01 0.  1.
         25    2    1    2    0    0  0.00000000000E+00  0.00000000000E+00  0.30466495723E+02  0.12866023294E+03  0.12500099271E+03 0.  0.
    9000005    1    3    3    0    0 -0.48905538820E+02  0.37553944644E+02  0.47740059001E+01  0.61853388088E+02  0.10000000000E+01 0.  0.
    9000005    1    3    3    0    0  0.48905538820E+02 -0.37553944644E+02  0.25692489822E+02  0.66806844851E+02  0.10000000000E+01 0.  0.
<mgrwt>
<rscale>  0 0.12500099E+03</rscale>
<asrwt>0</asrwt>
<pdfrwt beam="1">  1        4 0.12240518E-01 0.12500099E+03</pdfrwt>
<pdfrwt beam="2">  1       -4 0.75533644E-02 0.12500099E+03</pdfrwt>
<totfact> 0.10373021E+04</totfact>
</mgrwt>
</event>
<event>
 5    1  0.3309219E-002  0.1250029E+03  0.7818608E-02  0.1235065E+00
          4   -1    0    0  501    0  0.00000000000E+00  0.00000000000E+00  0.85178167126E+02  0.85187634402E+02  0.12700000000E+01 0.  1.
         -4   -1    0    0    0  501 -0.00000000000E+00 -0.00000000000E+00 -0.45841081269E+02  0.45858670194E+02  0.12700000000E+01 0.  1.
         25    2    1    2    0    0  0.00000000000E+00  0.00000000000E+00  0.39337085857E+02  0.13104630460E+03  0.12500291046E+03 0.  0.
    9000005    1    3    3    0    0 -0.60523384807E+02 -0.46792788432E+01  0.35234139147E+02  0.70195586189E+02  0.10000000000E+01 0.  0.
    9000005    1    3    3    0    0  0.60523384807E+02  0.46792788432E+01  0.41029467101E+01  0.60850718407E+02  0.10000000000E+01 0.  0.
<mgrwt>
<rscale>  0 0.12500291E+03</rscale>
<asrwt>0</asrwt>
<pdfrwt beam="1">  1        4 0.13106414E-01 0.12500291E+03</pdfrwt>
<pdfrwt beam="2">  1       -4 0.70545554E-02 0.12500291E+03</pdfrwt>
<totfact> 0.10321419E+04</totfact>
</mgrwt>
</event>
<event>
 5    1  0.3309219E-002  0.1250010E+03  0.7818608E-02  0.1235068E+00
         -4   -1    0    0    0  501 -0.00000000000E+00  0.00000000000E+00  0.64527256940E+02  0.64539753550E+02  0.12700000000E+01 0.  1.
          4   -1    0    0  501    0  0.00000000000E+00 -0.00000000000E+00 -0.60512417407E+02  0.60525742957E+02  0.12700000000E+01 0.  1.
         25    2    1    2    0    0  0.00000000000E+00  0.00000000000E+00  0.40148395333E+01  0.12506549651E+03  0.12500103792E+03 0.  0.
    9000005    1    3    3    0    0 -0.24334104059E+02  0.31396260041E+02  0.50275857500E+02  0.64082256610E+02  0.10000000000E+01 0.  0.
    9000005    1    3    3    0    0  0.24334104059E+02 -0.31396260041E+02 -0.46261017967E+02  0.60983239896E+02  0.10000000000E+01 0.  0.
<mgrwt>
<rscale>  0 0.12500104E+03</rscale>
<asrwt>0</asrwt>
<pdfrwt beam="2">  1        4 0.93115890E-02 0.12500104E+03</pdfrwt>
<pdfrwt beam="1">  1       -4 0.99292566E-02 0.12500104E+03</pdfrwt>
<totfact> 0.10451195E+04</totfact>
</mgrwt>
</event>
<event>
 5    1  0.3309219E-002  0.1250036E+03  0.7818608E-02  0.1235064E+00
          4   -1    0    0  501    0  0.00000000000E+00  0.00000000000E+00  0.22428666539E+03  0.22429026098E+03  0.12700000000E+01 0. -1.
         -4   -1    0    0    0  501 -0.00000000000E+00 -0.00000000000E+00 -0.17390428911E+02  0.17436740455E+02  0.12700000000E+01 0. -1.
         25    2    1    2    0    0  0.00000000000E+00  0.00000000000E+00  0.20689623648E+03  0.24172700144E+03  0.12500356217E+03 0.  0.
    9000005    1    3    3    0    0  0.14050801264E+01  0.61755752683E+02  0.85130859712E+02  0.10518560032E+03  0.10000000000E+01 0.  0.
    9000005    1    3    3    0    0 -0.14050801264E+01 -0.61755752683E+02  0.12176537677E+03  0.13654140112E+03  0.10000000000E+01 0.  0.
<mgrwt>
<rscale>  0 0.12500356E+03</rscale>
<asrwt>0</asrwt>
<pdfrwt beam="1">  1        4 0.34509480E-01 0.12500356E+03</pdfrwt>
<pdfrwt beam="2">  1       -4 0.26792896E-02 0.12500356E+03</pdfrwt>
<totfact> 0.83534198E+03</totfact>
</mgrwt>
</event>
<event>
 5    1  0.3309219E-002  0.1250008E+03  0.7818608E-02  0.1235068E+00
         -4   -1    0    0    0  501 -0.00000000000E+00  0.00000000000E+00  0.17747902778E+03  0.17748357164E+03  0.12700000000E+01 0. -1.
          4   -1    0    0  501    0  0.00000000000E+00 -0.00000000000E+00 -0.21986760576E+02  0.22023408924E+02  0.12700000000E+01 0. -1.
         25    2    1    2    0    0  0.00000000000E+00  0.00000000000E+00  0.15549226720E+03  0.19950698056E+03  0.12500076053E+03 0.  0.
    9000005    1    3    3    0    0 -0.15455150937E+02 -0.59615375817E+02  0.60821811442E+02  0.86562968245E+02  0.10000000000E+01 0.  0.
    9000005    1    3    3    0    0  0.15455150937E+02  0.59615375817E+02  0.94670455761E+02  0.11294401232E+03  0.10000000000E+01 0.  0.
<mgrwt>
<rscale>  0 0.12500076E+03</rscale>
<asrwt>0</asrwt>
<pdfrwt beam="2">  1        4 0.33857472E-02 0.12500076E+03</pdfrwt>
<pdfrwt beam="1">  1       -4 0.27307634E-01 0.12500076E+03</pdfrwt>
<totfact> 0.90217189E+03</totfact>
</mgrwt>
</event>
<event>
 5    1  0.3309219E-002  0.1249955E+03  0.7818608E-02  0.1235076E+00
         -4   -1    0    0    0  501 -0.00000000000E+00  0.00000000000E+00  0.41781651904E+03  0.41781844919E+03  0.12700000000E+01 0.  1.
          4   -1    0    0  501    0  0.00000000000E+00 -0.00000000000E+00 -0.93034339605E+01  0.93897168998E+01  0.12700000000E+01 0.  1.
         25    2    1    2    0    0  0.00000000000E+00  0.00000000000E+00  0.40851308508E+03  0.42720816609E+03  0.12499550589E+03 0.  0.
    9000005    1    3    3    0    0  0.51406570498E+02 -0.14531831010E+02  0.93446413390E+02  0.10764312230E+03  0.10000000000E+01 0.  0.
    9000005    1    3    3    0    0 -0.51406570498E+02  0.14531831010E+02  0.31506667169E+03  0.31956504379E+03  0.10000000000E+01 0.  0.
<mgrwt>
<rscale>  0 0.12499551E+03</rscale>
<asrwt>0</asrwt>
<pdfrwt beam="2">  1        4 0.14380831E-02 0.12499551E+03</pdfrwt>
<pdfrwt beam="1">  1       -4 0.64286253E-01 0.12499551E+03</pdfrwt>
<totfact> 0.61996011E+03</totfact>
</mgrwt>
</event>
<event>
 5    1  0.3309219E-002  0.1249950E+03  0.7818608E-02  0.1235077E+00
          4   -1    0    0  501    0  0.00000000000E+00  0.00000000000E+00  0.36403614132E+02  0.36425760416E+02  0.12700000000E+01 0.  1.
         -4   -1    0    0    0  501 -0.00000000000E+00 -0.00000000000E+00 -0.10723679415E+03  0.10724431416E+03  0.12700000000E+01 0.  1.
         25    2    1    2    0    0  0.00000000000E+00  0.00000000000E+00 -0.70833180015E+02  0.14367007457E+03  0.12499500365E+03 0.  0.
    9000005    1    3    3    0    0 -0.38950306111E+02  0.47142503058E+02 -0.20634498256E+02  0.64547071653E+02  0.10000000000E+01 0.  0.
    9000005    1    3    3    0    0  0.38950306111E+02 -0.47142503058E+02 -0.50198681759E+02  0.79123002920E+02  0.10000000000E+01 0.  0.
<mgrwt>
<rscale>  0 0.12499500E+03</rscale>
<asrwt>0</asrwt>
<pdfrwt beam="1">  1        4 0.56028381E-02 0.12499500E+03</pdfrwt>
<pdfrwt beam="2">  1       -4 0.16500250E-01 0.12499500E+03</pdfrwt>
<totfact> 0.10059212E+04</totfact>
</mgrwt>
</event>
<event>
 4    1  0.3309219E-002  0.1250669E+03  0.7818608E-02  0.1234965E+00
         -4   -1    0    0    0  501 -0.00000000000E+00  0.00000000000E+00  0.53566590992E+02  0.53581643970E+02  0.12700000000E+01 0. -1.
          4   -1    0    0  501    0  0.00000000000E+00 -0.00000000000E+00 -0.72970523874E+02  0.72981574760E+02  0.12700000000E+01 0. -1.
    9000005    1    1    2    0    0  0.55086255888E+02  0.29574449455E+02 -0.91567415827E+01  0.63198018677E+02  0.10000000000E+01 0.  0.
    9000005    1    1    2    0    0 -0.55086255888E+02 -0.29574449455E+02 -0.10247191299E+02  0.63365200053E+02  0.10000000000E+01 0.  0.
<mgrwt>
<rscale>  0 0.12506692E+03</rscale>
<asrwt>0</asrwt>
<pdfrwt beam="2">  1        4 0.11228242E-01 0.12506692E+03</pdfrwt>
<pdfrwt beam="1">  1       -4 0.82430220E-02 0.12506692E+03</pdfrwt>
<totfact> 0.10402927E+04</totfact>
</mgrwt>
</event>
<event>
 5    1  0.3309219E-002  0.1249978E+03  0.7818608E-02  0.1235073E+00
         -4   -1    0    0    0  501 -0.00000000000E+00  0.00000000000E+00  0.80679465681E+02  0.80689460790E+02  0.12700000000E+01 0. -1.
          4   -1    0    0  501    0  0.00000000000E+00 -0.00000000000E+00 -0.48393867902E+02  0.48410529335E+02  0.12700000000E+01 0. -1.
         25    2    1    2    0    0  0.00000000000E+00  0.00000000000E+00  0.32285597780E+02  0.12909999013E+03  0.12499779049E+03 0.  0.
    9000005    1    3    3    0    0  0.32688905273E+02  0.39482677258E+02  0.53060314697E+02  0.73782405268E+02  0.10000000000E+01 0.  0.
    9000005    1    3    3    0    0 -0.32688905273E+02 -0.39482677258E+02 -0.20774716917E+02  0.55317584857E+02  0.10000000000E+01 0.  0.
<mgrwt>
<rscale>  0 0.12499779E+03</rscale>
<asrwt>0</asrwt>
<pdfrwt beam="2">  1        4 0.74472611E-02 0.12499779E+03</pdfrwt>
<pdfrwt beam="1">  1       -4 0.12414276E-01 0.12499779E+03</pdfrwt>
<totfact> 0.10364316E+04</totfact>
</mgrwt>
</event>
<event>
 5    1  0.3309219E-002  0.1249909E+03  0.7818608E-02  0.1235084E+00
          4   -1    0    0  501    0  0.00000000000E+00  0.00000000000E+00  0.22622251660E+03  0.22622608143E+03  0.12700000000E+01 0.  1.
         -4   -1    0    0    0  501 -0.00000000000E+00 -0.00000000000E+00 -0.17237711539E+02  0.17284432276E+02  0.12700000000E+01 0.  1.
         25    2    1    2    0    0  0.00000000000E+00  0.00000000000E+00  0.20898480506E+03  0.24351051370E+03  0.12499088581E+03 0.  0.
    9000005    1    3    3    0    0  0.41063114489E+02  0.39650778846E+02  0.15402168956E+03  0.16426212129E+03  0.10000000000E+01 0.  0.
    9000005    1    3    3    0    0 -0.41063114489E+02 -0.39650778846E+02  0.54963115499E+02  0.79248392413E+02  0.10000000000E+01 0.  0.
<mgrwt>
<rscale>  0 0.12499089E+03</rscale>
<asrwt>0</asrwt>
<pdfrwt beam="1">  1        4 0.34807331E-01 0.12499089E+03</pdfrwt>
<pdfrwt beam="2">  1       -4 0.26558238E-02 0.12499089E+03</pdfrwt>
<totfact> 0.83294220E+03</totfact>
</mgrwt>
</event>
<event>
 5    1  0.3309219E-002  0.1250045E+03  0.7818608E-02  0.1235062E+00
         -4   -1    0    0    0  501 -0.00000000000E+00  0.00000000000E+00  0.30433135472E+02  0.30459623022E+02  0.12700000000E+01 0. -1.
          4   -1    0    0  501    0  0.00000000000E+00 -0.00000000000E+00 -0.12827902520E+03  0.12828531173E+03  0.12700000000E+01 0. -1.
         25    2    1    2    0    0  0.00000000000E+00  0.00000000000E+00 -0.97845889725E+02  0.15874493475E+03  0.12500454461E+03 0.  0.
    9000005    1    3    3    0    0 -0.49510180131E+02 -0.22930886398E+02 -0.10228068388E+02  0.55522039503E+02  0.10000000000E+01 0.  0.
    9000005    1    3    3    0    0  0.49510180131E+02  0.22930886398E+02 -0.87617821337E+02  0.10322289525E+03  0.10000000000E+01 0.  0.
<mgrwt>
<rscale>  0 0.12500454E+03</rscale>
<asrwt>0</asrwt>
<pdfrwt beam="2">  1        4 0.19737755E-01 0.12500454E+03</pdfrwt>
<pdfrwt beam="1">  1       -4 0.46845420E-02 0.12500454E+03</pdfrwt>
<totfact> 0.97575330E+03</totfact>
</mgrwt>
</event>
<event>
 5    1  0.3309219E-002  0.1249997E+03  0.7818608E-02  0.1235070E+00
          4   -1    0    0  501    0  0.00000000000E+00  0.00000000000E+00  0.73345024944E+02  0.73356019413E+02  0.12700000000E+01 0. -1.
         -4   -1    0    0    0  501 -0.00000000000E+00 -0.00000000000E+00 -0.53235698822E+02  0.53250845337E+02  0.12700000000E+01 0. -1.
         25    2    1    2    0    0  0.00000000000E+00  0.00000000000E+00  0.20109326122E+02  0.12660686475E+03  0.12499965282E+03 0.  0.
    9000005    1    3    3    0    0  0.16100878643E+02 -0.37844763943E+02  0.57710279659E+02  0.70872708635E+02  0.10000000000E+01 0.  0.
    9000005    1    3    3    0    0 -0.16100878643E+02  0.37844763943E+02 -0.37600953536E+02  0.55734156115E+02  0.10000000000E+01 0.  0.
<mgrwt>
<rscale>  0 0.12499965E+03</rscale>
<asrwt>0</asrwt>
<pdfrwt beam="1">  1        4 0.11285861E-01 0.12499965E+03</pdfrwt>
<pdfrwt beam="2">  1       -4 0.81921184E-02 0.12499965E+03</pdfrwt>
<totfact> 0.10417780E+04</totfact>
</mgrwt>
</event>
<event>
 5    1  0.3309219E-002  0.1249936E+03  0.7818608E-02  0.1235079E+00
          4   -1    0    0  501    0  0.00000000000E+00  0.00000000000E+00  0.47388492970E+03  0.47388663149E+03  0.12700000000E+01 0.  1.
         -4   -1    0    0    0  501 -0.00000000000E+00 -0.00000000000E+00 -0.81915462066E+01  0.82894106699E+01  0.12700000000E+01 0.  1.
         25    2    1    2    0    0  0.00000000000E+00  0.00000000000E+00  0.46569338350E+03  0.48217604216E+03  0.12499363262E+03 0.  0.
    9000005    1    3    3    0    0 -0.23571237348E+02 -0.41756766169E+02  0.38742170701E+03  0.39037905913E+03  0.10000000000E+01 0.  0.
    9000005    1    3    3    0    0  0.23571237348E+02  0.41756766169E+02  0.78271676493E+02  0.91796983022E+02  0.10000000000E+01 0.  0.
<mgrwt>
<rscale>  0 0.12499363E+03</rscale>
<asrwt>0</asrwt>
<pdfrwt beam="1">  1        4 0.72913023E-01 0.12499363E+03</pdfrwt>
<pdfrwt beam="2">  1       -4 0.12678970E-02 0.12499363E+03</pdfrwt>
<totfact> 0.57282329E+03</totfact>
</mgrwt>
</event>
<event>
 5    1  0.3309219E-002  0.1249805E+03  0.7818608E-02  0.1235100E+00
         -4   -1    0    0    0  501 -0.00000000000E+00  0.00000000000E+00  0.74723857952E+03  0.74723965876E+03  0.12700000000E+01 0. -1.
          4   -1    0    0  501    0  0.00000000000E+00 -0.00000000000E+00 -0.51476957532E+01  0.53020440933E+01  0.12700000000E+01 0. -1.
         25    2    1    2    0    0  0.00000000000E+00  0.00000000000E+00  0.74209088377E+03  0.75254170285E+03  0.12498053754E+03 0.  0.
    9000005    1    3    3    0    0 -0.17970590259E+02 -0.53005485025E+02  0.20379818591E+03  0.21134621865E+03  0.10000000000E+01 0.  0.
    9000005    1    3    3    0    0  0.17970590259E+02  0.53005485025E+02  0.53829269785E+03  0.54119548420E+03  0.10000000000E+01 0.  0.
<mgrwt>
<rscale>  0 0.12498054E+03</rscale>
<asrwt>0</asrwt>
<pdfrwt beam="2">  1        4 0.80390939E-03 0.12498054E+03</pdfrwt>
<pdfrwt beam="1">  1       -4 0.11497171E+00 0.12498054E+03</pdfrwt>
<totfact> 0.40470086E+03</totfact>
</mgrwt>
</event>
<event>
 5    1  0.3309219E-002  0.1249988E+03  0.7818608E-02  0.1235071E+00
         -4   -1    0    0    0  501 -0.00000000000E+00  0.00000000000E+00  0.39523613066E+02  0.39544012060E+02  0.12700000000E+01 0.  1.
          4   -1    0    0  501    0  0.00000000000E+00 -0.00000000000E+00 -0.98781496026E+02  0.98789659667E+02  0.12700000000E+01 0.  1.
         25    2    1    2    0    0  0.00000000000E+00  0.00000000000E+00 -0.59257882960E+02  0.13833367173E+03  0.12499883216E+03 0.  0.
    9000005    1    3    3    0    0  0.26983234221E+02  0.53774458311E+02 -0.10933268304E+02  0.61158185482E+02  0.10000000000E+01 0.  0.
    9000005    1    3    3    0    0 -0.26983234221E+02 -0.53774458311E+02 -0.48324614656E+02  0.77175486245E+02  0.10000000000E+01 0.  0.
<mgrwt>
<rscale>  0 0.12499883E+03</rscale>
<asrwt>0</asrwt>
<pdfrwt beam="2">  1        4 0.15199350E-01 0.12499883E+03</pdfrwt>
<pdfrwt beam="1">  1       -4 0.60827530E-02 0.12499883E+03</pdfrwt>
<totfact> 0.10168506E+04</totfact>
</mgrwt>
</event>
<event>
 5    1  0.3309219E-002  0.1249986E+03  0.7818608E-02  0.1235071E+00
         -4   -1    0    0    0  501 -0.00000000000E+00  0.00000000000E+00  0.53434381551E+02  0.53449471763E+02  0.12700000000E+01 0. -1.
          4   -1    0    0  501    0  0.00000000000E+00 -0.00000000000E+00 -0.73071120380E+02  0.73082156054E+02  0.12700000000E+01 0. -1.
         25    2    1    2    0    0  0.00000000000E+00  0.00000000000E+00 -0.19636738829E+02  0.12653162782E+03  0.12499860530E+03 0.  0.
    9000005    1    3    3    0    0 -0.22721466154E+02  0.50603218944E+02 -0.38949993539E+02  0.67786818692E+02  0.10000000000E+01 0.  0.
    9000005    1    3    3    0    0  0.22721466154E+02 -0.50603218944E+02  0.19313254711E+02  0.58744809125E+02  0.10000000000E+01 0.  0.
<mgrwt>
<rscale>  0 0.12499861E+03</rscale>
<asrwt>0</asrwt>
<pdfrwt beam="2">  1        4 0.11243721E-01 0.12499861E+03</pdfrwt>
<pdfrwt beam="1">  1       -4 0.82226838E-02 0.12499861E+03</pdfrwt>
<totfact> 0.10419666E+04</totfact>
</mgrwt>
</event>
<event>
 5    1  0.3309219E-002  0.1250005E+03  0.7818608E-02  0.1235069E+00
         -4   -1    0    0    0  501 -0.00000000000E+00  0.00000000000E+00  0.11567478532E+03  0.11568175681E+03  0.12700000000E+01 0.  1.
          4   -1    0    0  501    0  0.00000000000E+00 -0.00000000000E+00 -0.33749577778E+02  0.33773464439E+02  0.12700000000E+01 0.  1.
         25    2    1    2    0    0  0.00000000000E+00  0.00000000000E+00  0.81925207544E+02  0.14945522125E+03  0.12500049411E+03 0.  0.
    9000005    1    3    3    0    0 -0.31778484850E+02 -0.41814080587E+02  0.81455557002E+02  0.96924182747E+02  0.10000000000E+01 0.  0.
    9000005    1    3    3    0    0  0.31778484850E+02  0.41814080587E+02  0.46965054255E+00  0.52531038505E+02  0.10000000000E+01 0.  0.
<mgrwt>
<rscale>  0 0.12500049E+03</rscale>
<asrwt>0</asrwt>
<pdfrwt beam="2">  1        4 0.51946165E-02 0.12500049E+03</pdfrwt>
<pdfrwt beam="1">  1       -4 0.17798494E-01 0.12500049E+03</pdfrwt>
<totfact> 0.99411297E+03</totfact>
</mgrwt>
</event>
<event>
 5    1  0.3309219E-002  0.1249983E+03  0.7818608E-02  0.1235072E+00
         -4   -1    0    0    0  501 -0.00000000000E+00  0.00000000000E+00  0.11370689944E+03  0.11371399157E+03  0.12700000000E+01 0.  1.
          4   -1    0    0  501    0  0.00000000000E+00 -0.00000000000E+00 -0.34332855612E+02  0.34356336744E+02  0.12700000000E+01 0.  1.
         25    2    1    2    0    0  0.00000000000E+00  0.00000000000E+00  0.79374043826E+02  0.14807032832E+03  0.12499833317E+03 0.  0.
    9000005    1    3    3    0    0 -0.44025612899E+02  0.92487305346E+01  0.91067586510E+02  0.10157804350E+03  0.10000000000E+01 0.  0.
    9000005    1    3    3    0    0  0.44025612899E+02 -0.92487305346E+01 -0.11693542683E+02  0.46492284824E+02  0.10000000000E+01 0.  0.
<mgrwt>
<rscale>  0 0.12499833E+03</rscale>
<asrwt>0</asrwt>
<pdfrwt beam="2">  1        4 0.52843296E-02 0.12499833E+03</pdfrwt>
<pdfrwt beam="1">  1       -4 0.17495721E-01 0.12499833E+03</pdfrwt>
<totfact> 0.99693489E+03</totfact>
</mgrwt>
</event>
<event>
 5    1  0.3309219E-002  0.1250005E+03  0.7818608E-02  0.1235069E+00
          4   -1    0    0  501    0  0.00000000000E+00  0.00000000000E+00  0.13555657198E+02  0.13615018989E+02  0.12700000000E+01 0. -1.
         -4   -1    0    0    0  501 -0.00000000000E+00 -0.00000000000E+00 -0.28747569420E+03  0.28747849946E+03  0.12700000000E+01 0. -1.
         25    2    1    2    0    0  0.00000000000E+00  0.00000000000E+00 -0.27392003700E+03  0.30109351845E+03  0.12500048074E+03 0.  0.
    9000005    1    3    3    0    0  0.57012430120E+02  0.19269781545E+02 -0.96400233123E+02  0.11364746638E+03  0.10000000000E+01 0.  0.
    9000005    1    3    3    0    0 -0.57012430120E+02 -0.19269781545E+02 -0.17751980387E+03  0.18744605207E+03  0.10000000000E+01 0.  0.
<mgrwt>
<rscale>  0 0.12500048E+03</rscale>
<asrwt>0</asrwt>
<pdfrwt beam="1">  1        4 0.20902680E-02 0.12500048E+03</pdfrwt>
<pdfrwt beam="2">  1       -4 0.44231807E-01 0.12500048E+03</pdfrwt>
<totfact> 0.75461071E+03</totfact>
</mgrwt>
</event>
<event>
 5    1  0.3309219E-002  0.1249990E+03  0.7818608E-02  0.1235071E+00
         -4   -1    0    0    0  501 -0.00000000000E+00  0.00000000000E+00  0.49750223879E+03  0.49750385978E+03  0.12700000000E+01 0.  1.
          4   -1    0    0  501    0  0.00000000000E+00 -0.00000000000E+00 -0.77985951503E+01  0.79013281364E+01  0.12700000000E+01 0.  1.
         25    2    1    2    0    0  0.00000000000E+00  0.00000000000E+00  0.48970364364E+03  0.50540518792E+03  0.12499898153E+03 0.  0.
    9000005    1    3    3    0    0 -0.23005485188E+02 -0.54808855824E+02  0.16687600615E+03  0.17714927168E+03  0.10000000000E+01 0.  0.
    9000005    1    3    3    0    0  0.23005485188E+02  0.54808855824E+02  0.32282763749E+03  0.32825591625E+03  0.10000000000E+01 0.  0.
<mgrwt>
<rscale>  0 0.12499898E+03</rscale>
<asrwt>0</asrwt>
<pdfrwt beam="2">  1        4 0.12078104E-02 0.12499898E+03</pdfrwt>
<pdfrwt beam="1">  1       -4 0.76546879E-01 0.12499898E+03</pdfrwt>
<totfact> 0.55448634E+03</totfact>
</mgrwt>
</event>
<event>
 5    1  0.3309219E-002  0.1250011E+03  0.7818608E-02  0.1235068E+00
          4   -1    0    0  501    0  0.00000000000E+00  0.00000000000E+00  0.14478153572E+04  0.14478159143E+04  0.12700000000E+01 0.  1.
         -4   -1    0    0    0  501 -0.00000000000E+00 -0.00000000000E+00 -0.25480394759E+01  0.28469993275E+01  0.12700000000E+01 0.  1.
         25    2    1    2    0    0  0.00000000000E+00  0.00000000000E+00  0.14452673178E+04  0.14506629136E+04  0.12500107614E+03 0.  0.
    9000005    1    3    3    0    0 -0.47069119444E+02 -0.39335723875E+02  0.58409062548E+03  0.58730372036E+03  0.10000000000E+01 0.  0.
    9000005    1    3    3    0    0  0.47069119444E+02  0.39335723875E+02  0.86117669230E+03  0.86335919323E+03  0.10000000000E+01 0.  0.
<mgrwt>
<rscale>  0 0.12500108E+03</rscale>
<asrwt>0</asrwt>
<pdfrwt beam="1">  1        4 0.22276386E+00 0.12500108E+03</pdfrwt>
<pdfrwt beam="2">  1       -4 0.41504584E-03 0.12500108E+03</pdfrwt>
<totfact> 0.18918713E+03</totfact>
</mgrwt>
</event>
<event>
 5    1  0.3309219E-002  0.1249972E+03  0.7818608E-02  0.1235074E+00
          4   -1    0    0  501    0  0.00000000000E+00  0.00000000000E+00  0.14399987183E+03  0.14400547208E+03  0.12700000000E+01 0. -1.
         -4   -1    0    0    0  501 -0.00000000000E+00 -0.00000000000E+00 -0.27104553987E+02  0.27134290978E+02  0.12700000000E+01 0. -1.
         25    2    1    2    0    0  0.00000000000E+00  0.00000000000E+00  0.11689531785E+03  0.17113976305E+03  0.12499721263E+03 0.  0.
    9000005    1    3    3    0    0 -0.23734348874E+02  0.13332653372E+02 -0.18566152561E+02  0.32966361391E+02  0.10000000000E+01 0.  0.
    9000005    1    3    3    0    0  0.23734348874E+02 -0.13332653372E+02  0.13546147041E+03  0.13817340166E+03  0.10000000000E+01 0.  0.
<mgrwt>
<rscale>  0 0.12499721E+03</rscale>
<asrwt>0</asrwt>
<pdfrwt beam="1">  1        4 0.22156545E-01 0.12499721E+03</pdfrwt>
<pdfrwt beam="2">  1       -4 0.41726496E-02 0.12499721E+03</pdfrwt>
<totfact> 0.95242583E+03</totfact>
</mgrwt>
</event>
<event>
 5    1  0.3309219E-002  0.1250052E+03  0.7818608E-02  0.1235061E+00
         -4   -1    0    0    0  501 -0.00000000000E+00  0.00000000000E+00  0.38461647700E+01  0.40504176868E+01  0.12700000000E+01 0.  1.
          4   -1    0    0  501    0  0.00000000000E+00 -0.00000000000E+00 -0.98923004570E+03  0.98923086093E+03  0.12700000000E+01 0.  1.
         25    2    1    2    0    0  0.00000000000E+00  0.00000000000E+00 -0.98538388093E+03  0.99328127861E+03  0.12500522250E+03 0.  0.
    9000005    1    3    3    0    0 -0.56953058299E+02  0.17569325490E+02 -0.34335002609E+03  0.34848611517E+03  0.10000000000E+01 0.  0.
    9000005    1    3    3    0    0  0.56953058299E+02 -0.17569325490E+02 -0.64203385483E+03  0.64479516344E+03  0.10000000000E+01 0.  0.
<mgrwt>
<rscale>  0 0.12500522E+03</rscale>
<asrwt>0</asrwt>
<pdfrwt beam="2">  1        4 0.15220482E+00 0.12500522E+03</pdfrwt>
<pdfrwt beam="1">  1       -4 0.60749292E-03 0.12500522E+03</pdfrwt>
<totfact> 0.30823893E+03</totfact>
</mgrwt>
</event>
<event>
 5    1  0.3309219E-002  0.1249992E+03  0.7818608E-02  0.1235071E+00
         -4   -1    0    0    0  501 -0.00000000000E+00  0.00000000000E+00  0.20454955463E+03  0.20455349715E+03  0.12700000000E+01 0.  1.
          4   -1    0    0  501    0  0.00000000000E+00 -0.00000000000E+00 -0.19071336533E+02  0.19113575730E+02  0.12700000000E+01 0.  1.
         25    2    1    2    0    0  0.00000000000E+00  0.00000000000E+00  0.18547821809E+03  0.22366707288E+03  0.12499916042E+03 0.  0.
    9000005    1    3    3    0    0  0.55780542334E+02  0.17341929575E+02  0.13246853556E+03  0.14477957155E+03  0.10000000000E+01 0.  0.
    9000005    1    3    3    0    0 -0.55780542334E+02 -0.17341929575E+02  0.53009682531E+02  0.78887501332E+02  0.10000000000E+01 0.  0.
<mgrwt>
<rscale>  0 0.12499916E+03</rscale>
<asrwt>0</asrwt>
<pdfrwt beam="2">  1        4 0.29376042E-02 0.12499916E+03</pdfrwt>
<pdfrwt beam="1">  1       -4 0.31472715E-01 0.12499916E+03</pdfrwt>
<totfact> 0.86293006E+03</totfact>
</mgrwt>
</event>
<event>
 5    1  0.3309219E-002  0.1250019E+03  0.7818608E-02  0.1235066E+00
         -4   -1    0    0    0  501 -0.00000000000E+00  0.00000000000E+00  0.38288978211E+03  0.38289188832E+03  0.12700000000E+01 0.  1.
          4   -1    0    0  501    0  0.00000000000E+00 -0.00000000000E+00 -0.10160672207E+02  0.10239734356E+02  0.12700000000E+01 0.  1.
         25    2    1    2    0    0  0.00000000000E+00  0.00000000000E+00  0.37272910990E+03  0.39313162268E+03  0.12500193351E+03 0.  0.
    9000005    1    3    3    0    0  0.10668941141E+02 -0.48556407604E+02  0.30545270207E+03  0.30947359213E+03  0.10000000000E+01 0.  0.
    9000005    1    3    3    0    0 -0.10668941141E+02  0.48556407604E+02  0.67276407835E+02  0.83658030551E+02  0.10000000000E+01 0.  0.
<mgrwt>
<rscale>  0 0.12500193E+03</rscale>
<asrwt>0</asrwt>
<pdfrwt beam="2">  1        4 0.15694241E-02 0.12500193E+03</pdfrwt>
<pdfrwt beam="1">  1       -4 0.58912364E-01 0.12500193E+03</pdfrwt>
<totfact> 0.65223539E+03</totfact>
</mgrwt>
</event>
<event>
 5    1  0.3309219E-002  0.1249987E+03  0.7818608E-02  0.1235071E+00
         -4   -1    0    0    0  501 -0.00000000000E+00  0.00000000000E+00  0.17818505509E+03  0.17818958094E+03  0.12700000000E+01 0.  1.
          4   -1    0    0  501    0  0.00000000000E+00 -0.00000000000E+00 -0.21898780166E+02  0.21935575505E+02  0.12700000000E+01 0.  1.
         25    2    1    2    0    0  0.00000000000E+00  0.00000000000E+00  0.15628627492E+03  0.20012515645E+03  0.12499871405E+03 0.  0.
    9000005    1    3    3    0    0  0.11320521779E+02  0.42631017483E+02  0.14901619323E+03  0.15541037195E+03  0.10000000000E+01 0.  0.
    9000005    1    3    3    0    0 -0.11320521779E+02 -0.42631017483E+02  0.72700816945E+01  0.44714784500E+02  0.10000000000E+01 0.  0.
<mgrwt>
<rscale>  0 0.12499871E+03</rscale>
<asrwt>0</asrwt>
<pdfrwt beam="2">  1        4 0.33722216E-02 0.12499871E+03</pdfrwt>
<pdfrwt beam="1">  1       -4 0.27416265E-01 0.12499871E+03</pdfrwt>
<totfact> 0.90116994E+03</totfact>
</mgrwt>
</event>
<event>
 5    1  0.3309219E-002  0.1250056E+03  0.7818608E-02  0.1235060E+00
          4   -1    0    0  501    0  0.00000000000E+00  0.00000000000E+00  0.66940722737E+02  0.66952768879E+02  0.12700000000E+01 0.  1.
         -4   -1    0    0    0  501 -0.00000000000E+00 -0.00000000000E+00 -0.58334926939E+02  0.58348749781E+02  0.12700000000E+01 0.  1.
         25    2    1    2    0    0  0.00000000000E+00  0.00000000000E+00  0.86057957973E+01  0.12530151866E+03  0.12500564330E+03 0.  0.
    9000005    1    3    3    0    0  0.21313735094E+02  0.57347057519E+02  0.17086216365E+02  0.63528726569E+02  0.10000000000E+01 0.  0.
    9000005    1    3    3    0    0 -0.21313735094E+02 -0.57347057519E+02 -0.84804205674E+01  0.61772792091E+02  0.10000000000E+01 0.  0.
<mgrwt>
<rscale>  0 0.12500564E+03</rscale>
<asrwt>0</asrwt>
<pdfrwt beam="1">  1        4 0.10300563E-01 0.12500564E+03</pdfrwt>
<pdfrwt beam="2">  1       -4 0.89765941E-02 0.12500564E+03</pdfrwt>
<totfact> 0.10444985E+04</totfact>
</mgrwt>
</event>
<event>
 5    1  0.3309219E-002  0.1249991E+03  0.7818608E-02  0.1235071E+00
          4   -1    0    0  501    0  0.00000000000E+00  0.00000000000E+00  0.43011557343E+02  0.43030302870E+02  0.12700000000E+01 0. -1.
         -4   -1    0    0    0  501 -0.00000000000E+00 -0.00000000000E+00 -0.90774400819E+02  0.90783284497E+02  0.12700000000E+01 0. -1.
         25    2    1    2    0    0  0.00000000000E+00  0.00000000000E+00 -0.47762843476E+02  0.13381358737E+03  0.12499914779E+03 0.  0.
    9000005    1    3    3    0    0  0.16197587654E+02  0.16578367507E+02  0.38245341439E+02  0.44731535373E+02  0.10000000000E+01 0.  0.
    9000005    1    3    3    0    0 -0.16197587654E+02 -0.16578367507E+02 -0.86008184916E+02  0.89082051994E+02  0.10000000000E+01 0.  0.
<mgrwt>
<rscale>  0 0.12499915E+03</rscale>
<asrwt>0</asrwt>
<pdfrwt beam="1">  1        4 0.66192880E-02 0.12499915E+03</pdfrwt>
<pdfrwt beam="2">  1       -4 0.13967418E-01 0.12499915E+03</pdfrwt>
<totfact> 0.10263336E+04</totfact>
</mgrwt>
</event>
<event>
 5    1  0.3309219E-002  0.1250047E+03  0.7818608E-02  0.1235062E+00
         -4   -1    0    0    0  501 -0.00000000000E+00  0.00000000000E+00  0.68100650375E+01  0.69274732634E+01  0.12700000000E+01 0. -1.
          4   -1    0    0  501    0  0.00000000000E+00 -0.00000000000E+00 -0.56862207087E+03  0.56862348912E+03  0.12700000000E+01 0. -1.
         25    2    1    2    0    0  0.00000000000E+00  0.00000000000E+00 -0.56181200583E+03  0.57555096238E+03  0.12500472153E+03 0.  0.
    9000005    1    3    3    0    0  0.61777138126E+02 -0.74908712648E+01 -0.30736218579E+03  0.31360012946E+03  0.10000000000E+01 0.  0.
    9000005    1    3    3    0    0 -0.61777138126E+02  0.74908712648E+01 -0.25444982004E+03  0.26195083292E+03  0.10000000000E+01 0.  0.
<mgrwt>
<rscale>  0 0.12500472E+03</rscale>
<asrwt>0</asrwt>
<pdfrwt beam="2">  1        4 0.87489422E-01 0.12500472E+03</pdfrwt>
<pdfrwt beam="1">  1       -4 0.10568433E-02 0.12500472E+03</pdfrwt>
<totfact> 0.50442979E+03</totfact>
</mgrwt>
</event>
<event>
 5    1  0.3309219E-002  0.1249842E+03  0.7818608E-02  0.1235094E+00
          4   -1    0    0  501    0  0.00000000000E+00  0.00000000000E+00  0.10090109100E+03  0.10090908316E+03  0.12700000000E+01 0. -1.
         -4   -1    0    0    0  501 -0.00000000000E+00 -0.00000000000E+00 -0.38683929236E+02  0.38704770781E+02  0.12700000000E+01 0. -1.
         25    2    1    2    0    0  0.00000000000E+00  0.00000000000E+00  0.62217161763E+02  0.13961385394E+03  0.12498421098E+03 0.  0.
    9000005    1    3    3    0    0  0.14488729532E+02 -0.20944126388E+02  0.94845997139E+02  0.98210706580E+02  0.10000000000E+01 0.  0.
    9000005    1    3    3    0    0 -0.14488729532E+02  0.20944126388E+02 -0.32628835376E+02  0.41403147364E+02  0.10000000000E+01 0.  0.
<mgrwt>
<rscale>  0 0.12498421E+03</rscale>
<asrwt>0</asrwt>
<pdfrwt beam="1">  1        4 0.15525463E-01 0.12498421E+03</pdfrwt>
<pdfrwt beam="2">  1       -4 0.59535917E-02 0.12498421E+03</pdfrwt>
<totfact> 0.10145204E+04</totfact>
</mgrwt>
</event>
<event>
 5    1  0.3309219E-002  0.1249999E+03  0.7818608E-02  0.1235069E+00
         -4   -1    0    0    0  501 -0.00000000000E+00  0.00000000000E+00  0.41103806231E+01  0.43021074913E+01  0.12700000000E+01 0.  1.
          4   -1    0    0  501    0  0.00000000000E+00 -0.00000000000E+00 -0.92848589881E+03  0.92848676738E+03  0.12700000000E+01 0.  1.
         25    2    1    2    0    0  0.00000000000E+00  0.00000000000E+00 -0.92437551819E+03  0.93278887487E+03  0.12499994580E+03 0.  0.
    9000005    1    3    3    0    0 -0.62133583154E+02  0.52644516914E+01 -0.49291039339E+03  0.49683996671E+03  0.10000000000E+01 0.  0.
    9000005    1    3    3    0    0  0.62133583154E+02 -0.52644516914E+01 -0.43146512480E+03  0.43594890816E+03  0.10000000000E+01 0.  0.
<mgrwt>
<rscale>  0 0.12499995E+03</rscale>
<asrwt>0</asrwt>
<pdfrwt beam="2">  1        4 0.14285864E+00 0.12499995E+03</pdfrwt>
<pdfrwt beam="1">  1       -4 0.64718202E-03 0.12499995E+03</pdfrwt>
<totfact> 0.32935102E+03</totfact>
</mgrwt>
</event>
<event>
 5    1  0.3309219E-002  0.1250023E+03  0.7818608E-02  0.1235066E+00
          4   -1    0    0  501    0  0.00000000000E+00  0.00000000000E+00  0.17093382175E+03  0.17093853959E+03  0.12700000000E+01 0.  1.
         -4   -1    0    0    0  501 -0.00000000000E+00 -0.00000000000E+00 -0.22830578065E+02  0.22865874022E+02  0.12700000000E+01 0.  1.
         25    2    1    2    0    0  0.00000000000E+00  0.00000000000E+00  0.14810324368E+03  0.19380441361E+03  0.12500231976E+03 0.  0.
    9000005    1    3    3    0    0 -0.40198250695E+02  0.42612052160E+02  0.40307258179E+02  0.71115127858E+02  0.10000000000E+01 0.  0.
    9000005    1    3    3    0    0  0.40198250695E+02 -0.42612052160E+02  0.10779598551E+03  0.12268928576E+03  0.10000000000E+01 0.  0.
<mgrwt>
<rscale>  0 0.12500232E+03</rscale>
<asrwt>0</asrwt>
<pdfrwt beam="1">  1        4 0.26300589E-01 0.12500232E+03</pdfrwt>
<pdfrwt beam="2">  1       -4 0.35154747E-02 0.12500232E+03</pdfrwt>
<totfact> 0.91184804E+03</totfact>
</mgrwt>
</event>
<event>
 5    1  0.3309219E-002  0.1249970E+03  0.7818608E-02  0.1235074E+00
         -4   -1    0    0    0  501 -0.00000000000E+00  0.00000000000E+00  0.13998555732E+03  0.13999131816E+03  0.12700000000E+01 0.  1.
          4   -1    0    0  501    0  0.00000000000E+00 -0.00000000000E+00 -0.27882525816E+02  0.27911433963E+02  0.12700000000E+01 0.  1.
         25    2    1    2    0    0  0.00000000000E+00  0.00000000000E+00  0.11210303151E+03  0.16790275212E+03  0.12499697795E+03 0.  0.
    9000005    1    3    3    0    0 -0.61105882688E+02  0.82304191011E+01  0.42393026501E+02  0.74832061268E+02  0.10000000000E+01 0.  0.
    9000005    1    3    3    0    0  0.61105882688E+02 -0.82304191011E+01  0.69710005007E+02  0.93070690853E+02  0.10000000000E+01 0.  0.
<mgrwt>
<rscale>  0 0.12499698E+03</rscale>
<asrwt>0</asrwt>
<pdfrwt beam="2">  1        4 0.42922861E-02 0.12499698E+03</pdfrwt>
<pdfrwt beam="1">  1       -4 0.21538907E-01 0.12499698E+03</pdfrwt>
<totfact> 0.95846968E+03</totfact>
</mgrwt>
</event>
<event>
 5    1  0.3309219E-002  0.1249986E+03  0.7818608E-02  0.1235072E+00
         -4   -1    0    0    0  501 -0.00000000000E+00  0.00000000000E+00  0.15989563384E+01  0.20419503844E+01  0.12700000000E+01 0.  1.
          4   -1    0    0  501    0  0.00000000000E+00 -0.00000000000E+00 -0.21452643168E+04  0.21452646927E+04  0.12700000000E+01 0.  1.
         25    2    1    2    0    0  0.00000000000E+00  0.00000000000E+00 -0.21436653605E+04  0.21473066431E+04  0.12499856752E+03 0.  0.
    9000005    1    3    3    0    0 -0.28496301283E+02  0.50442815666E+02 -0.14742106572E+04  0.14753489684E+04  0.10000000000E+01 0.  0.
    9000005    1    3    3    0    0  0.28496301283E+02 -0.50442815666E+02 -0.66945470330E+03  0.67195767471E+03  0.10000000000E+01 0.  0.
<mgrwt>
<rscale>  0 0.12499857E+03</rscale>
<asrwt>0</asrwt>
<pdfrwt beam="2">  1        4 0.33007275E+00 0.12499857E+03</pdfrwt>
<pdfrwt beam="1">  1       -4 0.28010038E-03 0.12499857E+03</pdfrwt>
<totfact> 0.80593909E+02</totfact>
</mgrwt>
</event>
<event>
 5    1  0.3309219E-002  0.1250009E+03  0.7818608E-02  0.1235068E+00
          4   -1    0    0  501    0  0.00000000000E+00  0.00000000000E+00  0.20125084383E+02  0.20165116449E+02  0.12700000000E+01 0. -1.
         -4   -1    0    0    0  501 -0.00000000000E+00 -0.00000000000E+00 -0.19386639255E+03  0.19387055233E+03  0.12700000000E+01 0. -1.
         25    2    1    2    0    0  0.00000000000E+00  0.00000000000E+00 -0.17374130817E+03  0.21403566878E+03  0.12500090138E+03 0.  0.
    9000005    1    3    3    0    0  0.55874221173E+02  0.22993843564E+02 -0.11419527506E+03  0.12919832151E+03  0.10000000000E+01 0.  0.
    9000005    1    3    3    0    0 -0.55874221173E+02 -0.22993843564E+02 -0.59546033103E+02  0.84837347270E+02  0.10000000000E+01 0.  0.
<mgrwt>
<rscale>  0 0.12500090E+03</rscale>
<asrwt>0</asrwt>
<pdfrwt beam="1">  1        4 0.30995663E-02 0.12500090E+03</pdfrwt>
<pdfrwt beam="2">  1       -4 0.29828997E-01 0.12500090E+03</pdfrwt>
<totfact> 0.87819247E+03</totfact>
</mgrwt>
</event>
<event>
 5    1  0.3309219E-002  0.1249996E+03  0.7818608E-02  0.1235070E+00
         -4   -1    0    0    0  501 -0.00000000000E+00  0.00000000000E+00  0.15941833287E+04  0.15941838346E+04  0.12700000000E+01 0.  1.
          4   -1    0    0  501    0  0.00000000000E+00 -0.00000000000E+00 -0.22851978895E+01  0.26143889141E+01  0.12700000000E+01 0.  1.
         25    2    1    2    0    0  0.00000000000E+00  0.00000000000E+00  0.15918981309E+04  0.15967982235E+04  0.12499963058E+03 0.  0.
    9000005    1    3    3    0    0  0.19284793583E+02  0.35166831069E+02  0.14081382594E+04  0.14087096816E+04  0.10000000000E+01 0.  0.
    9000005    1    3    3    0    0 -0.19284793583E+02 -0.35166831069E+02  0.18375987142E+03  0.18808854196E+03  0.10000000000E+01 0.  0.
<mgrwt>
<rscale>  0 0.12499963E+03</rscale>
<asrwt>0</asrwt>
<pdfrwt beam="2">  1        4 0.37693080E-03 0.12499963E+03</pdfrwt>
<pdfrwt beam="1">  1       -4 0.24528395E+00 0.12499963E+03</pdfrwt>
<totfact> 0.16104200E+03</totfact>
</mgrwt>
</event>
<event>
 5    1  0.3309219E-002  0.1250017E+03  0.7818608E-02  0.1235067E+00
          4   -1    0    0  501    0  0.00000000000E+00  0.00000000000E+00  0.85422258885E+01  0.86361173643E+01  0.12700000000E+01 0.  1.
         -4   -1    0    0    0  501 -0.00000000000E+00 -0.00000000000E+00 -0.45470547666E+03  0.45470725022E+03  0.12700000000E+01 0.  1.
         25    2    1    2    0    0  0.00000000000E+00  0.00000000000E+00 -0.44616325077E+03  0.46334336759E+03  0.12500171978E+03 0.  0.
    9000005    1    3    3    0    0 -0.59513116093E+02  0.86903294551E+01 -0.16017421475E+03  0.17109679098E+03  0.10000000000E+01 0.  0.
    9000005    1    3    3    0    0  0.59513116093E+02 -0.86903294551E+01 -0.28598903602E+03  0.29224657660E+03  0.10000000000E+01 0.  0.
<mgrwt>
<rscale>  0 0.12500172E+03</rscale>
<asrwt>0</asrwt>
<pdfrwt beam="1">  1        4 0.13215478E-02 0.12500172E+03</pdfrwt>
<pdfrwt beam="2">  1       -4 0.69962029E-01 0.12500172E+03</pdfrwt>
<totfact> 0.58822822E+03</totfact>
</mgrwt>
</event>
<event>
 5    1  0.3309219E-002  0.1249988E+03  0.7818608E-02  0.1235071E+00
         -4   -1    0    0    0  501 -0.00000000000E+00  0.00000000000E+00  0.33388695497E+02  0.33412840151E+02  0.12700000000E+01 0. -1.
          4   -1    0    0  501    0  0.00000000000E+00 -0.00000000000E+00 -0.11692105669E+03  0.11692795388E+03  0.12700000000E+01 0. -1.
         25    2    1    2    0    0  0.00000000000E+00  0.00000000000E+00 -0.83532361196E+02  0.15034079403E+03  0.12499879592E+03 0.  0.
    9000005    1    3    3    0    0  0.40955138580E+01 -0.62205309118E+02 -0.36537239633E+02  0.72265092515E+02  0.10000000000E+01 0.  0.
    9000005    1    3    3    0    0 -0.40955138580E+01  0.62205309118E+02 -0.46995121563E+02  0.78075701515E+02  0.10000000000E+01 0.  0.
<mgrwt>
<rscale>  0 0.12499880E+03</rscale>
<asrwt>0</asrwt>
<pdfrwt beam="2">  1        4 0.17990242E-01 0.12499880E+03</pdfrwt>
<pdfrwt beam="1">  1       -4 0.51391103E-02 0.12499880E+03</pdfrwt>
<totfact> 0.99238498E+03</totfact>
</mgrwt>
</event>
<event>
 5    1  0.3309219E-002  0.1249977E+03  0.7818608E-02  0.1235073E+00
         -4   -1    0    0    0  501 -0.00000000000E+00  0.00000000000E+00  0.42029651040E+02  0.42048834306E+02  0.12700000000E+01 0. -1.
          4   -1    0    0  501    0  0.00000000000E+00 -0.00000000000E+00 -0.92892241825E+02  0.92900922984E+02  0.12700000000E+01 0. -1.
         25    2    1    2    0    0  0.00000000000E+00  0.00000000000E+00 -0.50862590785E+02  0.13494975729E+03  0.12499773539E+03 0.  0.
    9000005    1    3    3    0    0 -0.56318002308E+02 -0.52596081526E+00  0.38005242907E+01  0.56457399901E+02  0.10000000000E+01 0.  0.
    9000005    1    3    3    0    0  0.56318002308E+02  0.52596081526E+00 -0.54663115076E+02  0.78492357389E+02  0.10000000000E+01 0.  0.
<mgrwt>
<rscale>  0 0.12499774E+03</rscale>
<asrwt>0</asrwt>
<pdfrwt beam="2">  1        4 0.14293258E-01 0.12499774E+03</pdfrwt>
<pdfrwt beam="1">  1       -4 0.64682436E-02 0.12499774E+03</pdfrwt>
<totfact> 0.10239653E+04</totfact>
</mgrwt>
</event>
<event>
 5    1  0.3309219E-002  0.1249788E+03  0.7818608E-02  0.1235102E+00
         -4   -1    0    0    0  501 -0.00000000000E+00  0.00000000000E+00  0.52981881465E+02  0.52997100520E+02  0.12700000000E+01 0. -1.
          4   -1    0    0  501    0  0.00000000000E+00 -0.00000000000E+00 -0.73671696870E+02  0.73682642595E+02  0.12700000000E+01 0. -1.
         25    2    1    2    0    0  0.00000000000E+00  0.00000000000E+00 -0.20689815406E+02  0.12667974311E+03  0.12497875361E+03 0.  0.
    9000005    1    3    3    0    0  0.99501050478E+00  0.57748730954E+02  0.13812557434E+02  0.59394382862E+02  0.10000000000E+01 0.  0.
    9000005    1    3    3    0    0 -0.99501050478E+00 -0.57748730954E+02 -0.34502372840E+02  0.67285360252E+02  0.10000000000E+01 0.  0.
<mgrwt>
<rscale>  0 0.12497875E+03</rscale>
<asrwt>0</asrwt>
<pdfrwt beam="2">  1        4 0.11336120E-01 0.12497875E+03</pdfrwt>
<pdfrwt beam="1">  1       -4 0.81530713E-02 0.12497875E+03</pdfrwt>
<totfact> 0.10421108E+04</totfact>
</mgrwt>
</event>
<event>
 5    1  0.3309219E-002  0.1249999E+03  0.7818608E-02  0.1235069E+00
         -4   -1    0    0    0  501 -0.00000000000E+00  0.00000000000E+00  0.84415709609E+02  0.84425262385E+02  0.12700000000E+01 0.  1.
          4   -1    0    0  501    0  0.00000000000E+00 -0.00000000000E+00 -0.46253031195E+02  0.46270463524E+02  0.12700000000E+01 0.  1.
         25    2    1    2    0    0  0.00000000000E+00  0.00000000000E+00  0.38162678414E+02  0.13069572591E+03  0.12499993099E+03 0.  0.
    9000005    1    3    3    0    0  0.34092915911E+02  0.51582932127E+02  0.96064142839E+01  0.62581219207E+02  0.10000000000E+01 0.  0.
    9000005    1    3    3    0    0 -0.34092915911E+02 -0.51582932127E+02  0.28556264130E+02  0.68114506701E+02  0.10000000000E+01 0.  0.
<mgrwt>
<rscale>  0 0.12499993E+03</rscale>
<asrwt>0</asrwt>
<pdfrwt beam="2">  1        4 0.71179268E-02 0.12499993E+03</pdfrwt>
<pdfrwt beam="1">  1       -4 0.12989108E-01 0.12499993E+03</pdfrwt>
<totfact> 0.10329633E+04</totfact>
</mgrwt>
</event>
<event>
 5    1  0.3309219E-002  0.1250010E+03  0.7818608E-02  0.1235068E+00
          4   -1    0    0  501    0  0.00000000000E+00  0.00000000000E+00  0.23538046094E+03  0.23538388708E+03  0.12700000000E+01 0.  1.
         -4   -1    0    0    0  501 -0.00000000000E+00 -0.00000000000E+00 -0.16567891634E+02  0.16616495816E+02  0.12700000000E+01 0.  1.
         25    2    1    2    0    0  0.00000000000E+00  0.00000000000E+00  0.21881256931E+03  0.25200038289E+03  0.12500100995E+03 0.  0.
    9000005    1    3    3    0    0  0.36196577276E+00 -0.39592228338E+02  0.11935094966E+02  0.41365711112E+02  0.10000000000E+01 0.  0.
    9000005    1    3    3    0    0 -0.36196577276E+00  0.39592228338E+02  0.20687747434E+03  0.21063467178E+03  0.10000000000E+01 0.  0.
<mgrwt>
<rscale>  0 0.12500101E+03</rscale>
<asrwt>0</asrwt>
<pdfrwt beam="1">  1        4 0.36216378E-01 0.12500101E+03</pdfrwt>
<pdfrwt beam="2">  1       -4 0.25529089E-02 0.12500101E+03</pdfrwt>
<totfact> 0.82040123E+03</totfact>
</mgrwt>
</event>
<event>
 5    1  0.3309219E-002  0.1250017E+03  0.7818608E-02  0.1235067E+00
         -4   -1    0    0    0  501 -0.00000000000E+00  0.00000000000E+00  0.32704961755E+03  0.32705208337E+03  0.12700000000E+01 0.  1.
          4   -1    0    0  501    0  0.00000000000E+00 -0.00000000000E+00 -0.11907949627E+02  0.11975481799E+02  0.12700000000E+01 0.  1.
         25    2    1    2    0    0  0.00000000000E+00  0.00000000000E+00  0.31514166792E+03  0.33902756517E+03  0.12500167633E+03 0.  0.
    9000005    1    3    3    0    0  0.30050866971E+02  0.38121454303E+02  0.26431707155E+03  0.26873930527E+03  0.10000000000E+01 0.  0.
    9000005    1    3    3    0    0 -0.30050866971E+02 -0.38121454303E+02  0.50824596376E+02  0.70288259906E+02  0.10000000000E+01 0.  0.
<mgrwt>
<rscale>  0 0.12500168E+03</rscale>
<asrwt>0</asrwt>
<pdfrwt beam="2">  1        4 0.18373765E-02 0.12500168E+03</pdfrwt>
<pdfrwt beam="1">  1       -4 0.50320717E-01 0.12500168E+03</pdfrwt>
<totfact> 0.70946128E+03</totfact>
</mgrwt>
</event>
<event>
 4    1  0.3309219E-002  0.1249352E+03  0.7818608E-02  0.1235171E+00
          4   -1    0    0  501    0  0.00000000000E+00  0.00000000000E+00  0.50311461645E+03  0.50311621936E+03  0.12700000000E+01 0.  1.
         -4   -1    0    0    0  501 -0.00000000000E+00 -0.00000000000E+00 -0.77024772014E+01  0.78064751993E+01  0.12700000000E+01 0.  1.
    9000005    1    1    2    0    0 -0.31544982869E+02 -0.49414136195E+02  0.33583079456E+03  0.34091078800E+03  0.10000000000E+01 0.  0.
    9000005    1    1    2    0    0  0.31544982869E+02  0.49414136195E+02  0.15958134469E+03  0.17001190656E+03  0.10000000000E+01 0.  0.
<mgrwt>
<rscale>  0 0.12493523E+03</rscale>
<asrwt>0</asrwt>
<pdfrwt beam="1">  1        4 0.77410358E-01 0.12493523E+03</pdfrwt>
<pdfrwt beam="2">  1       -4 0.11931199E-02 0.12493523E+03</pdfrwt>
<totfact> 0.55105167E+03</totfact>
</mgrwt>
</event>
<event>
 5    1  0.3309219E-002  0.1250010E+03  0.7818608E-02  0.1235068E+00
         -4   -1    0    0    0  501 -0.00000000000E+00  0.00000000000E+00  0.23782435067E+02  0.23816320407E+02  0.12700000000E+01 0. -1.
          4   -1    0    0  501    0  0.00000000000E+00 -0.00000000000E+00 -0.16409862106E+03  0.16410353541E+03  0.12700000000E+01 0. -1.
         25    2    1    2    0    0  0.00000000000E+00  0.00000000000E+00 -0.14031618599E+03  0.18791985582E+03  0.12500096063E+03 0.  0.
    9000005    1    3    3    0    0  0.46261718834E+02  0.41489451770E+02 -0.80106209248E+02  0.10138799731E+03  0.10000000000E+01 0.  0.
    9000005    1    3    3    0    0 -0.46261718834E+02 -0.41489451770E+02 -0.60209976746E+02  0.86531858511E+02  0.10000000000E+01 0.  0.
<mgrwt>
<rscale>  0 0.12500096E+03</rscale>
<asrwt>0</asrwt>
<pdfrwt beam="2">  1        4 0.25248926E-01 0.12500096E+03</pdfrwt>
<pdfrwt beam="1">  1       -4 0.36618209E-02 0.12500096E+03</pdfrwt>
<totfact> 0.92208533E+03</totfact>
</mgrwt>
</event>
<event>
 5    1  0.3309219E-002  0.1249980E+03  0.7818608E-02  0.1235072E+00
         -4   -1    0    0    0  501 -0.00000000000E+00  0.00000000000E+00  0.63753885060E+03  0.63754011554E+03  0.12700000000E+01 0.  1.
          4   -1    0    0  501    0  0.00000000000E+00 -0.00000000000E+00 -0.60597804408E+01  0.61914327090E+01  0.12700000000E+01 0.  1.
         25    2    1    2    0    0  0.00000000000E+00  0.00000000000E+00  0.63147907016E+03  0.64373154825E+03  0.12499796064E+03 0.  0.
    9000005    1    3    3    0    0  0.40242323563E+02  0.28793121809E+02  0.11918770207E+03  0.12905501460E+03  0.10000000000E+01 0.  0.
    9000005    1    3    3    0    0 -0.40242323563E+02 -0.28793121809E+02  0.51229136809E+03  0.51467653365E+03  0.10000000000E+01 0.  0.
<mgrwt>
<rscale>  0 0.12499796E+03</rscale>
<asrwt>0</asrwt>
<pdfrwt beam="2">  1        4 0.94249889E-03 0.12499796E+03</pdfrwt>
<pdfrwt beam="1">  1       -4 0.98093064E-01 0.12499796E+03</pdfrwt>
<totfact> 0.46220581E+03</totfact>
</mgrwt>
</event>
<event>
 5    1  0.3309219E-002  0.1249659E+03  0.7818608E-02  0.1235123E+00
          4   -1    0    0  501    0  0.00000000000E+00  0.00000000000E+00  0.87093121238E+02  0.87102380375E+02  0.12700000000E+01 0.  1.
         -4   -1    0    0    0  501 -0.00000000000E+00 -0.00000000000E+00 -0.44806335468E+02  0.44824330425E+02  0.12700000000E+01 0.  1.
         25    2    1    2    0    0  0.00000000000E+00  0.00000000000E+00  0.42286785770E+02  0.13192671080E+03  0.12496593445E+03 0.  0.
    9000005    1    3    3    0    0 -0.24301891492E+02 -0.44740669994E+01 -0.39433282676E+02  0.46546567953E+02  0.10000000000E+01 0.  0.
    9000005    1    3    3    0    0  0.24301891492E+02  0.44740669994E+01  0.81720068446E+02  0.85380142847E+02  0.10000000000E+01 0.  0.
<mgrwt>
<rscale>  0 0.12496593E+03</rscale>
<asrwt>0</asrwt>
<pdfrwt beam="1">  1        4 0.13401038E-01 0.12496593E+03</pdfrwt>
<pdfrwt beam="2">  1       -4 0.68953790E-02 0.12496593E+03</pdfrwt>
<totfact> 0.10311185E+04</totfact>
</mgrwt>
</event>
<event>
 5    1  0.3309219E-002  0.1250023E+03  0.7818608E-02  0.1235066E+00
         -4   -1    0    0    0  501 -0.00000000000E+00  0.00000000000E+00  0.14023991630E+01  0.18919892738E+01  0.12700000000E+01 0.  1.
          4   -1    0    0  501    0  0.00000000000E+00 -0.00000000000E+00 -0.23710537779E+04  0.23710541180E+04  0.12700000000E+01 0.  1.
         25    2    1    2    0    0  0.00000000000E+00  0.00000000000E+00 -0.23696513787E+04  0.23729461073E+04  0.12500228552E+03 0.  0.
    9000005    1    3    3    0    0 -0.20471060968E+02  0.59005440130E+02 -0.12259213799E+04  0.12275116846E+04  0.10000000000E+01 0.  0.
    9000005    1    3    3    0    0  0.20471060968E+02 -0.59005440130E+02 -0.11437299989E+04  0.11454344227E+04  0.10000000000E+01 0.  0.
<mgrwt>
<rscale>  0 0.12500229E+03</rscale>
<asrwt>0</asrwt>
<pdfrwt beam="2">  1        4 0.36481246E+00 0.12500229E+03</pdfrwt>
<pdfrwt beam="1">  1       -4 0.25344256E-03 0.12500229E+03</pdfrwt>
<totfact> 0.57456480E+02</totfact>
</mgrwt>
</event>
<event>
 5    1  0.3309219E-002  0.1249782E+03  0.7818608E-02  0.1235103E+00
          4   -1    0    0  501    0  0.00000000000E+00  0.00000000000E+00  0.41044107866E+01  0.42964040668E+01  0.12700000000E+01 0. -1.
         -4   -1    0    0    0  501 -0.00000000000E+00 -0.00000000000E+00 -0.92945212243E+03  0.92945299009E+03  0.12700000000E+01 0. -1.
         25    2    1    2    0    0  0.00000000000E+00  0.00000000000E+00 -0.92534771164E+03  0.93374939416E+03  0.12497817268E+03 0.  0.
    9000005    1    3    3    0    0  0.27512801426E+02 -0.49584131213E+02 -0.65869342631E+03  0.66113052431E+03  0.10000000000E+01 0.  0.
    9000005    1    3    3    0    0 -0.27512801426E+02  0.49584131213E+02 -0.26665428533E+03  0.27261886984E+03  0.10000000000E+01 0.  0.
<mgrwt>
<rscale>  0 0.12497817E+03</rscale>
<asrwt>0</asrwt>
<pdfrwt beam="1">  1        4 0.64628401E-03 0.12497817E+03</pdfrwt>
<pdfrwt beam="2">  1       -4 0.14300731E+00 0.12497817E+03</pdfrwt>
<totfact> 0.32915763E+03</totfact>
</mgrwt>
</event>
<event>
 5    1  0.3309219E-002  0.1250001E+03  0.7818608E-02  0.1235069E+00
         -4   -1    0    0    0  501 -0.00000000000E+00  0.00000000000E+00  0.24310965290E+02  0.24344114963E+02  0.12700000000E+01 0.  1.
          4   -1    0    0  501    0  0.00000000000E+00 -0.00000000000E+00 -0.16053353916E+03  0.16053856264E+03  0.12700000000E+01 0.  1.
         25    2    1    2    0    0  0.00000000000E+00  0.00000000000E+00 -0.13622257387E+03  0.18488267760E+03  0.12500005939E+03 0.  0.
    9000005    1    3    3    0    0 -0.96464720122E+00  0.56384157448E+02 -0.28282239894E+02  0.63095077849E+02  0.10000000000E+01 0.  0.
    9000005    1    3    3    0    0  0.96464720122E+00 -0.56384157448E+02 -0.10794033397E+03  0.12178759975E+03  0.10000000000E+01 0.  0.
<mgrwt>
<rscale>  0 0.12500006E+03</rscale>
<asrwt>0</asrwt>
<pdfrwt beam="2">  1        4 0.24700403E-01 0.12500006E+03</pdfrwt>
<pdfrwt beam="1">  1       -4 0.37430850E-02 0.12500006E+03</pdfrwt>
<totfact> 0.92745292E+03</totfact>
</mgrwt>
</event>
<event>
 5    1  0.3309219E-002  0.1249995E+03  0.7818608E-02  0.1235070E+00
         -4   -1    0    0    0  501 -0.00000000000E+00  0.00000000000E+00  0.21082951256E+02  0.21121167905E+02  0.12700000000E+01 0. -1.
          4   -1    0    0  501    0  0.00000000000E+00 -0.00000000000E+00 -0.18507038717E+03  0.18507474465E+03  0.12700000000E+01 0. -1.
         25    2    1    2    0    0  0.00000000000E+00  0.00000000000E+00 -0.16398743592E+03  0.20619591256E+03  0.12499950087E+03 0.  0.
    9000005    1    3    3    0    0 -0.50601902715E+02 -0.32564290359E+02 -0.10980424411E+03  0.12521564435E+03  0.10000000000E+01 0.  0.
    9000005    1    3    3    0    0  0.50601902715E+02  0.32564290359E+02 -0.54183191807E+02  0.80980268210E+02  0.10000000000E+01 0.  0.
<mgrwt>
<rscale>  0 0.12499950E+03</rscale>
<asrwt>0</asrwt>
<pdfrwt beam="2">  1        4 0.28475641E-01 0.12499950E+03</pdfrwt>
<pdfrwt beam="1">  1       -4 0.32468060E-02 0.12499950E+03</pdfrwt>
<totfact> 0.89101926E+03</totfact>
</mgrwt>
</event>
<event>
 5    1  0.3309219E-002  0.1250031E+03  0.7818608E-02  0.1235064E+00
         -4   -1    0    0    0  501 -0.00000000000E+00  0.00000000000E+00  0.11211177134E+04  0.11211184328E+04  0.12700000000E+01 0.  1.
          4   -1    0    0  501    0  0.00000000000E+00 -0.00000000000E+00 -0.33679515566E+01  0.35994440804E+01  0.12700000000E+01 0.  1.
         25    2    1    2    0    0  0.00000000000E+00  0.00000000000E+00  0.11177497619E+04  0.11247178768E+04  0.12500308920E+03 0.  0.
    9000005    1    3    3    0    0  0.75478039698E+01 -0.52198423974E+02  0.25725009182E+03  0.26260284567E+03  0.10000000000E+01 0.  0.
    9000005    1    3    3    0    0 -0.75478039698E+01  0.52198423974E+02  0.86049967006E+03  0.86211503118E+03  0.10000000000E+01 0.  0.
<mgrwt>
<rscale>  0 0.12500309E+03</rscale>
<asrwt>0</asrwt>
<pdfrwt beam="2">  1        4 0.53600818E-03 0.12500309E+03</pdfrwt>
<pdfrwt beam="1">  1       -4 0.17249772E+00 0.12500309E+03</pdfrwt>
<totfact> 0.26769154E+03</totfact>
</mgrwt>
</event>
<event>
 5    1  0.3309219E-002  0.1249977E+03  0.7818608E-02  0.1235073E+00
          4   -1    0    0  501    0  0.00000000000E+00  0.00000000000E+00  0.17158793581E+03  0.17159263567E+03  0.12700000000E+01 0.  1.
         -4   -1    0    0    0  501 -0.00000000000E+00 -0.00000000000E+00 -0.22741716023E+02  0.22777149683E+02  0.12700000000E+01 0.  1.
         25    2    1    2    0    0  0.00000000000E+00  0.00000000000E+00  0.14884621979E+03  0.19436978535E+03  0.12499766523E+03 0.  0.
    9000005    1    3    3    0    0 -0.29104413711E+02  0.53318900387E+02  0.97230700239E+02  0.11465069169E+03  0.10000000000E+01 0.  0.
    9000005    1    3    3    0    0  0.29104413711E+02 -0.53318900387E+02  0.51615519547E+02  0.79719093660E+02  0.10000000000E+01 0.  0.
<mgrwt>
<rscale>  0 0.12499767E+03</rscale>
<asrwt>0</asrwt>
<pdfrwt beam="1">  1        4 0.26401231E-01 0.12499767E+03</pdfrwt>
<pdfrwt beam="2">  1       -4 0.35018127E-02 0.12499767E+03</pdfrwt>
<totfact> 0.91097258E+03</totfact>
</mgrwt>
</event>
<event>
 5    1  0.3309219E-002  0.1249975E+03  0.7818608E-02  0.1235073E+00
          4   -1    0    0  501    0  0.00000000000E+00  0.00000000000E+00  0.24052927406E+03  0.24053262685E+03  0.12700000000E+01 0.  1.
         -4   -1    0    0    0  501 -0.00000000000E+00 -0.00000000000E+00 -0.16211265640E+02  0.16260935817E+02  0.12700000000E+01 0.  1.
         25    2    1    2    0    0  0.00000000000E+00  0.00000000000E+00  0.22431800842E+03  0.25679356267E+03  0.12499745968E+03 0.  0.
    9000005    1    3    3    0    0  0.14690998218E+02 -0.50370514440E+02  0.18188965422E+03  0.18930890224E+03  0.10000000000E+01 0.  0.
    9000005    1    3    3    0    0 -0.14690998218E+02  0.50370514440E+02  0.42428354200E+02  0.67484660433E+02  0.10000000000E+01 0.  0.
<mgrwt>
<rscale>  0 0.12499746E+03</rscale>
<asrwt>0</asrwt>
<pdfrwt beam="1">  1        4 0.37008581E-01 0.12499746E+03</pdfrwt>
<pdfrwt beam="2">  1       -4 0.24981197E-02 0.12499746E+03</pdfrwt>
<totfact> 0.81362757E+03</totfact>
</mgrwt>
</event>
<event>
 5    1  0.3309219E-002  0.1250137E+03  0.7818608E-02  0.1235048E+00
         -4   -1    0    0    0  501 -0.00000000000E+00  0.00000000000E+00  0.59384237724E+02  0.59397816374E+02  0.12700000000E+01 0.  1.
          4   -1    0    0  501    0  0.00000000000E+00 -0.00000000000E+00 -0.65766429212E+02  0.65778690404E+02  0.12700000000E+01 0.  1.
         25    2    1    2    0    0  0.00000000000E+00  0.00000000000E+00 -0.63821914883E+01  0.12517650678E+03  0.12501370117E+03 0.  0.
    9000005    1    3    3    0    0  0.44308309348E+02  0.31971533284E+02 -0.33573669302E+02  0.64137325235E+02  0.10000000000E+01 0.  0.
    9000005    1    3    3    0    0 -0.44308309348E+02 -0.31971533284E+02  0.27191477814E+02  0.61039181544E+02  0.10000000000E+01 0.  0.
<mgrwt>
<rscale>  0 0.12501370E+03</rscale>
<asrwt>0</asrwt>
<pdfrwt beam="2">  1        4 0.10119900E-01 0.12501370E+03</pdfrwt>
<pdfrwt beam="1">  1       -4 0.91380242E-02 0.12501370E+03</pdfrwt>
<totfact> 0.10445795E+04</totfact>
</mgrwt>
</event>
<event>
 5    1  0.3309219E-002  0.1250003E+03  0.7818608E-02  0.1235069E+00
          4   -1    0    0  501    0  0.00000000000E+00  0.00000000000E+00  0.70431838120E+03  0.70431952621E+03  0.12700000000E+01 0. -1.
         -4   -1    0    0    0  501 -0.00000000000E+00 -0.00000000000E+00 -0.54722993828E+01  0.56177362465E+01  0.12700000000E+01 0. -1.
         25    2    1    2    0    0  0.00000000000E+00  0.00000000000E+00  0.69884608182E+03  0.70993726245E+03  0.12500028219E+03 0.  0.
    9000005    1    3    3    0    0  0.28444748657E+02  0.44220735392E+01  0.66444813044E+03  0.66507215887E+03  0.10000000000E+01 0.  0.
    9000005    1    3    3    0    0 -0.28444748657E+02 -0.44220735392E+01  0.34397951381E+02  0.44865103586E+02  0.10000000000E+01 0.  0.
<mgrwt>
<rscale>  0 0.12500028E+03</rscale>
<asrwt>0</asrwt>
<pdfrwt beam="1">  1        4 0.10836795E+00 0.12500028E+03</pdfrwt>
<pdfrwt beam="2">  1       -4 0.85316770E-03 0.12500028E+03</pdfrwt>
<totfact> 0.42567024E+03</totfact>
</mgrwt>
</event>
<event>
 4    1  0.3309219E-002  0.1248900E+03  0.7818608E-02  0.1235241E+00
         -4   -1    0    0    0  501 -0.00000000000E+00  0.00000000000E+00  0.85020197503E+01  0.85963503787E+01  0.12700000000E+01 0.  1.
          4   -1    0    0  501    0  0.00000000000E+00 -0.00000000000E+00 -0.45601577351E+03  0.45601754197E+03  0.12700000000E+01 0.  1.
    9000005    1    1    2    0    0  0.10037665285E+02  0.59244822754E+02 -0.16065903167E+03  0.17153142046E+03  0.10000000000E+01 0.  0.
    9000005    1    1    2    0    0 -0.10037665285E+02 -0.59244822754E+02 -0.28685472208E+03  0.29308247189E+03  0.10000000000E+01 0.  0.
<mgrwt>
<rscale>  0 0.12488999E+03</rscale>
<asrwt>0</asrwt>
<pdfrwt beam="2">  1        4 0.70163646E-01 0.12488999E+03</pdfrwt>
<pdfrwt beam="1">  1       -4 0.13153956E-02 0.12488999E+03</pdfrwt>
<totfact> 0.58860823E+03</totfact>
</mgrwt>
</event>
<event>
 5    1  0.3309219E-002  0.1249898E+03  0.7818608E-02  0.1235085E+00
         -4   -1    0    0    0  501 -0.00000000000E+00  0.00000000000E+00  0.12826510687E+01  0.18050190481E+01  0.12700000000E+01 0.  1.
          4   -1    0    0  501    0  0.00000000000E+00 -0.00000000000E+00 -0.25292888720E+04  0.25292891908E+04  0.12700000000E+01 0.  1.
         25    2    1    2    0    0  0.00000000000E+00  0.00000000000E+00 -0.25280062209E+04  0.25310942099E+04  0.12498978472E+03 0.  0.
    9000005    1    3    3    0    0  0.42465071406E+02 -0.40016793583E+02 -0.81119676863E+03  0.81329319651E+03  0.10000000000E+01 0.  0.
    9000005    1    3    3    0    0 -0.42465071406E+02  0.40016793583E+02 -0.17168094523E+04  0.17178010134E+04  0.10000000000E+01 0.  0.
<mgrwt>
<rscale>  0 0.12498978E+03</rscale>
<asrwt>0</asrwt>
<pdfrwt beam="2">  1        4 0.38915825E+00 0.12498978E+03</pdfrwt>
<pdfrwt beam="1">  1       -4 0.23753964E-03 0.12498978E+03</pdfrwt>
<totfact> 0.44307981E+02</totfact>
</mgrwt>
</event>
<event>
 5    1  0.3309219E-002  0.1249999E+03  0.7818608E-02  0.1235069E+00
          4   -1    0    0  501    0  0.00000000000E+00  0.00000000000E+00  0.22365915094E+04  0.22365918700E+04  0.12700000000E+01 0.  1.
         -4   -1    0    0    0  501 -0.00000000000E+00 -0.00000000000E+00 -0.15152356362E+01  0.19770784085E+01  0.12700000000E+01 0.  1.
         25    2    1    2    0    0  0.00000000000E+00  0.00000000000E+00  0.22350762738E+04  0.22385689484E+04  0.12499994843E+03 0.  0.
    9000005    1    3    3    0    0 -0.99370404930E+01 -0.55252933334E+02  0.16091648950E+04  0.16101441832E+04  0.10000000000E+01 0.  0.
    9000005    1    3    3    0    0  0.99370404930E+01  0.55252933334E+02  0.62591137876E+03  0.62842476517E+03  0.10000000000E+01 0.  0.
<mgrwt>
<rscale>  0 0.12499995E+03</rscale>
<asrwt>0</asrwt>
<pdfrwt beam="1">  1        4 0.34412619E+00 0.12499995E+03</pdfrwt>
<pdfrwt beam="2">  1       -4 0.26866756E-03 0.12499995E+03</pdfrwt>
<totfact> 0.70599181E+02</totfact>
</mgrwt>
</event>
<event>
 5    1  0.3309219E-002  0.1250005E+03  0.7818608E-02  0.1235068E+00
         -4   -1    0    0    0  501 -0.00000000000E+00  0.00000000000E+00  0.35554721245E+03  0.35554948063E+03  0.12700000000E+01 0.  1.
          4   -1    0    0  501    0  0.00000000000E+00 -0.00000000000E+00 -0.10947668028E+02  0.11021085938E+02  0.12700000000E+01 0.  1.
         25    2    1    2    0    0  0.00000000000E+00  0.00000000000E+00  0.34459954442E+03  0.36657056657E+03  0.12500053705E+03 0.  0.
    9000005    1    3    3    0    0 -0.35909487129E+02  0.13794440054E+02  0.31672626455E+03  0.31905533141E+03  0.10000000000E+01 0.  0.
    9000005    1    3    3    0    0  0.35909487129E+02 -0.13794440054E+02  0.27873279868E+02  0.47515235166E+02  0.10000000000E+01 0.  0.
<mgrwt>
<rscale>  0 0.12500054E+03</rscale>
<asrwt>0</asrwt>
<pdfrwt beam="2">  1        4 0.16900786E-02 0.12500054E+03</pdfrwt>
<pdfrwt beam="1">  1       -4 0.54705394E-01 0.12500054E+03</pdfrwt>
<totfact> 0.67938443E+03</totfact>
</mgrwt>
</event>
<event>
 5    1  0.3309219E-002  0.1249985E+03  0.7818608E-02  0.1235072E+00
          4   -1    0    0  501    0  0.00000000000E+00  0.00000000000E+00  0.26268187942E+03  0.26268494946E+03  0.12700000000E+01 0. -1.
         -4   -1    0    0    0  501 -0.00000000000E+00 -0.00000000000E+00 -0.14840004138E+02  0.14894247978E+02  0.12700000000E+01 0. -1.
         25    2    1    2    0    0  0.00000000000E+00  0.00000000000E+00  0.24784187528E+03  0.27757919744E+03  0.12499846283E+03 0.  0.
    9000005    1    3    3    0    0 -0.24503985344E+01 -0.46413482325E+02  0.21668339826E+03  0.22161432913E+03  0.10000000000E+01 0.  0.
    9000005    1    3    3    0    0  0.24503985344E+01  0.46413482325E+02  0.31158477015E+02  0.55964868305E+02  0.10000000000E+01 0.  0.
<mgrwt>
<rscale>  0 0.12499846E+03</rscale>
<asrwt>0</asrwt>
<pdfrwt beam="1">  1        4 0.40417002E-01 0.12499846E+03</pdfrwt>
<pdfrwt beam="2">  1       -4 0.22874865E-02 0.12499846E+03</pdfrwt>
<totfact> 0.78502869E+03</totfact>
</mgrwt>
</event>
<event>
 5    1  0.3309219E-002  0.1250025E+03  0.7818608E-02  0.1235065E+00
         -4   -1    0    0    0  501 -0.00000000000E+00  0.00000000000E+00  0.25948209781E+02  0.25979270407E+02  0.12700000000E+01 0.  1.
          4   -1    0    0  501    0  0.00000000000E+00 -0.00000000000E+00 -0.15042245817E+03  0.15042781930E+03  0.12700000000E+01 0.  1.
         25    2    1    2    0    0  0.00000000000E+00  0.00000000000E+00 -0.12447424838E+03  0.17640708971E+03  0.12500249113E+03 0.  0.
    9000005    1    3    3    0    0 -0.25262619277E+02  0.17206329661E+02 -0.13916070789E+03  0.14248143856E+03  0.10000000000E+01 0.  0.
    9000005    1    3    3    0    0  0.25262619277E+02 -0.17206329661E+02  0.14686459508E+02  0.33925651151E+02  0.10000000000E+01 0.  0.
<mgrwt>
<rscale>  0 0.12500249E+03</rscale>
<asrwt>0</asrwt>
<pdfrwt beam="2">  1        4 0.23144718E-01 0.12500249E+03</pdfrwt>
<pdfrwt beam="1">  1       -4 0.39948340E-02 0.12500249E+03</pdfrwt>
<totfact> 0.94262499E+03</totfact>
</mgrwt>
</event>
<event>
 5    1  0.3309219E-002  0.1250037E+03  0.7818608E-02  0.1235064E+00
          4   -1    0    0  501    0  0.00000000000E+00  0.00000000000E+00  0.55117724924E+02  0.55132354392E+02  0.12700000000E+01 0.  1.
         -4   -1    0    0    0  501 -0.00000000000E+00 -0.00000000000E+00 -0.70845465158E+02  0.70856847470E+02  0.12700000000E+01 0.  1.
         25    2    1    2    0    0  0.00000000000E+00  0.00000000000E+00 -0.15727740234E+02  0.12598920186E+03  0.12500366864E+03 0.  0.
    9000005    1    3    3    0    0 -0.48260960453E+02  0.42625552211E+01 -0.47648994314E+02  0.67961138454E+02  0.10000000000E+01 0.  0.
    9000005    1    3    3    0    0  0.48260960453E+02 -0.42625552211E+01  0.31921254080E+02  0.58028063408E+02  0.10000000000E+01 0.  0.
<mgrwt>
<rscale>  0 0.12500367E+03</rscale>
<asrwt>0</asrwt>
<pdfrwt beam="1">  1        4 0.84816508E-02 0.12500367E+03</pdfrwt>
<pdfrwt beam="2">  1       -4 0.10901303E-01 0.12500367E+03</pdfrwt>
<totfact> 0.10430330E+04</totfact>
</mgrwt>
</event>
<event>
 5    1  0.3309219E-002  0.1250009E+03  0.7818608E-02  0.1235068E+00
         -4   -1    0    0    0  501 -0.00000000000E+00  0.00000000000E+00  0.35006102184E+01  0.37238651830E+01  0.12700000000E+01 0. -1.
          4   -1    0    0  501    0  0.00000000000E+00 -0.00000000000E+00 -0.10811847489E+04  0.10811854948E+04  0.12700000000E+01 0. -1.
         25    2    1    2    0    0  0.00000000000E+00  0.00000000000E+00 -0.10776841387E+04  0.10849093600E+04  0.12500086640E+03 0.  0.
    9000005    1    3    3    0    0 -0.58036535974E+02  0.19138195249E+02 -0.42541495155E+03  0.42978295805E+03  0.10000000000E+01 0.  0.
    9000005    1    3    3    0    0  0.58036535974E+02 -0.19138195249E+02 -0.65226918713E+03  0.65512640193E+03  0.10000000000E+01 0.  0.
<mgrwt>
<rscale>  0 0.12500087E+03</rscale>
<asrwt>0</asrwt>
<pdfrwt beam="2">  1        4 0.16635309E+00 0.12500087E+03</pdfrwt>
<pdfrwt beam="1">  1       -4 0.55578712E-03 0.12500087E+03</pdfrwt>
<totfact> 0.27928818E+03</totfact>
</mgrwt>
</event>
<event>
 5    1  0.3309219E-002  0.1249994E+03  0.7818608E-02  0.1235070E+00
         -4   -1    0    0    0  501 -0.00000000000E+00  0.00000000000E+00  0.44842654741E+02  0.44860635129E+02  0.12700000000E+01 0. -1.
          4   -1    0    0  501    0  0.00000000000E+00 -0.00000000000E+00 -0.87069276484E+02  0.87078538157E+02  0.12700000000E+01 0. -1.
         25    2    1    2    0    0  0.00000000000E+00  0.00000000000E+00 -0.42226621743E+02  0.13193917329E+03  0.12499943145E+03 0.  0.
    9000005    1    3    3    0    0  0.27001988152E+01 -0.51882411041E+02  0.15544317836E+02  0.54237454458E+02  0.10000000000E+01 0.  0.
    9000005    1    3    3    0    0 -0.27001988152E+01  0.51882411041E+02 -0.57770939579E+02  0.77701718828E+02  0.10000000000E+01 0.  0.
<mgrwt>
<rscale>  0 0.12499943E+03</rscale>
<asrwt>0</asrwt>
<pdfrwt beam="2">  1        4 0.13397369E-01 0.12499943E+03</pdfrwt>
<pdfrwt beam="1">  1       -4 0.69009655E-02 0.12499943E+03</pdfrwt>
<totfact> 0.10303129E+04</totfact>
</mgrwt>
</event>
<event>
 5    1  0.3309219E-002  0.1249982E+03  0.7818608E-02  0.1235072E+00
          4   -1    0    0  501    0  0.00000000000E+00  0.00000000000E+00  0.86234369066E+02  0.86243720399E+02  0.12700000000E+01 0.  1.
         -4   -1    0    0    0  501 -0.00000000000E+00 -0.00000000000E+00 -0.45276064515E+02  0.45293872852E+02  0.12700000000E+01 0.  1.
         25    2    1    2    0    0  0.00000000000E+00  0.00000000000E+00  0.40958304551E+02  0.13153759325E+03  0.12499822289E+03 0.  0.
    9000005    1    3    3    0    0  0.29199425144E+02 -0.46051664834E+02 -0.11642802663E+02  0.55766630852E+02  0.10000000000E+01 0.  0.
    9000005    1    3    3    0    0 -0.29199425144E+02  0.46051664834E+02  0.52601107214E+02  0.75770962399E+02  0.10000000000E+01 0.  0.
<mgrwt>
<rscale>  0 0.12499822E+03</rscale>
<asrwt>0</asrwt>
<pdfrwt beam="1">  1        4 0.13268915E-01 0.12499822E+03</pdfrwt>
<pdfrwt beam="2">  1       -4 0.69676376E-02 0.12499822E+03</pdfrwt>
<totfact> 0.10311991E+04</totfact>
</mgrwt>
</event>
<event>
 5    1  0.3309219E-002  0.1250024E+03  0.7818608E-02  0.1235066E+00
          4   -1    0    0  501    0  0.00000000000E+00  0.00000000000E+00  0.53397483502E+02  0.53412584138E+02  0.12700000000E+01 0.  1.
         -4   -1    0    0    0  501 -0.00000000000E+00 -0.00000000000E+00 -0.73126064884E+02  0.73137092268E+02  0.12700000000E+01 0.  1.
         25    2    1    2    0    0  0.00000000000E+00  0.00000000000E+00 -0.19728581382E+02  0.12654967641E+03  0.12500241468E+03 0.  0.
    9000005    1    3    3    0    0 -0.52556172102E+02 -0.24114318017E+01 -0.44007620346E+02  0.68597644842E+02  0.10000000000E+01 0.  0.
    9000005    1    3    3    0    0  0.52556172102E+02  0.24114318017E+01  0.24279038964E+02  0.57952031564E+02  0.10000000000E+01 0.  0.
<mgrwt>
<rscale>  0 0.12500241E+03</rscale>
<asrwt>0</asrwt>
<pdfrwt beam="1">  1        4 0.82170074E-02 0.12500241E+03</pdfrwt>
<pdfrwt beam="2">  1       -4 0.11252174E-01 0.12500241E+03</pdfrwt>
<totfact> 0.10418377E+04</totfact>
</mgrwt>
</event>
<event>
 5    1  0.3309219E-002  0.1249916E+03  0.7818608E-02  0.1235082E+00
          4   -1    0    0  501    0  0.00000000000E+00  0.00000000000E+00  0.14429819487E+02  0.14485599416E+02  0.12700000000E+01 0. -1.
         -4   -1    0    0    0  501 -0.00000000000E+00 -0.00000000000E+00 -0.27009079223E+03  0.27009377806E+03  0.12700000000E+01 0. -1.
         25    2    1    2    0    0  0.00000000000E+00  0.00000000000E+00 -0.25566097274E+03  0.28457937748E+03  0.12499155612E+03 0.  0.
    9000005    1    3    3    0    0  0.31462339938E+02  0.49838079479E+02 -0.17509835915E+03  0.18475429190E+03  0.10000000000E+01 0.  0.
    9000005    1    3    3    0    0 -0.31462339938E+02 -0.49838079479E+02 -0.80562613597E+02  0.99825085575E+02  0.10000000000E+01 0.  0.
<mgrwt>
<rscale>  0 0.12499156E+03</rscale>
<asrwt>0</asrwt>
<pdfrwt beam="1">  1        4 0.22244929E-02 0.12499156E+03</pdfrwt>
<pdfrwt beam="2">  1       -4 0.41556946E-01 0.12499156E+03</pdfrwt>
<totfact> 0.77589364E+03</totfact>
</mgrwt>
</event>
<event>
 5    1  0.3309219E-002  0.1249991E+03  0.7818608E-02  0.1235071E+00
          4   -1    0    0  501    0  0.00000000000E+00  0.00000000000E+00  0.11941048844E+02  0.12008394876E+02  0.12700000000E+01 0.  1.
         -4   -1    0    0    0  501 -0.00000000000E+00 -0.00000000000E+00 -0.32613456602E+03  0.32613703876E+03  0.12700000000E+01 0.  1.
         25    2    1    2    0    0  0.00000000000E+00  0.00000000000E+00 -0.31419351718E+03  0.33814543364E+03  0.12499907222E+03 0.  0.
    9000005    1    3    3    0    0 -0.56760085895E+02 -0.25616156880E+02 -0.14296306907E+03  0.15594016148E+03  0.10000000000E+01 0.  0.
    9000005    1    3    3    0    0  0.56760085895E+02  0.25616156880E+02 -0.17123044811E+03  0.18220527216E+03  0.10000000000E+01 0.  0.
<mgrwt>
<rscale>  0 0.12499907E+03</rscale>
<asrwt>0</asrwt>
<pdfrwt beam="1">  1        4 0.18424554E-02 0.12499907E+03</pdfrwt>
<pdfrwt beam="2">  1       -4 0.50179913E-01 0.12499907E+03</pdfrwt>
<totfact> 0.71050161E+03</totfact>
</mgrwt>
</event>
<event>
 5    1  0.3309219E-002  0.1250038E+03  0.7818608E-02  0.1235063E+00
          4   -1    0    0  501    0  0.00000000000E+00  0.00000000000E+00  0.10445295889E+03  0.10446067931E+03  0.12700000000E+01 0.  1.
         -4   -1    0    0    0  501 -0.00000000000E+00 -0.00000000000E+00 -0.37379616397E+02  0.37401184767E+02  0.12700000000E+01 0.  1.
         25    2    1    2    0    0  0.00000000000E+00  0.00000000000E+00  0.67073342494E+02  0.14186186407E+03  0.12500382076E+03 0.  0.
    9000005    1    3    3    0    0  0.26803507179E+02 -0.32546247551E+02 -0.18812286536E+02  0.46179956166E+02  0.10000000000E+01 0.  0.
    9000005    1    3    3    0    0 -0.26803507179E+02  0.32546247551E+02  0.85885629030E+02  0.95681907906E+02  0.10000000000E+01 0.  0.
<mgrwt>
<rscale>  0 0.12500382E+03</rscale>
<asrwt>0</asrwt>
<pdfrwt beam="1">  1        4 0.16071939E-01 0.12500382E+03</pdfrwt>
<pdfrwt beam="2">  1       -4 0.57529633E-02 0.12500382E+03</pdfrwt>
<totfact> 0.10094274E+04</totfact>
</mgrwt>
</event>
<event>
 5    1  0.3309219E-002  0.1249435E+03  0.7818608E-02  0.1235158E+00
          4   -1    0    0  501    0  0.00000000000E+00  0.00000000000E+00  0.70223847277E+01  0.71363006707E+01  0.12700000000E+01 0.  1.
         -4   -1    0    0    0  501 -0.00000000000E+00 -0.00000000000E+00 -0.55116842051E+03  0.55116988367E+03  0.12700000000E+01 0.  1.
         25    2    1    2    0    0  0.00000000000E+00  0.00000000000E+00 -0.54414603578E+03  0.55830618434E+03  0.12494353612E+03 0.  0.
    9000005    1    3    3    0    0  0.40280212219E+02 -0.26541152253E+02 -0.94747817836E+02  0.10632533679E+03  0.10000000000E+01 0.  0.
    9000005    1    3    3    0    0 -0.40280212219E+02  0.26541152253E+02 -0.44939821795E+03  0.45198084755E+03  0.10000000000E+01 0.  0.
<mgrwt>
<rscale>  0 0.12494354E+03</rscale>
<asrwt>0</asrwt>
<pdfrwt beam="1">  1        4 0.10892426E-02 0.12494354E+03</pdfrwt>
<pdfrwt beam="2">  1       -4 0.84803983E-01 0.12494354E+03</pdfrwt>
<totfact> 0.51673879E+03</totfact>
</mgrwt>
</event>
<event>
 5    1  0.3309219E-002  0.1249956E+03  0.7818608E-02  0.1235076E+00
          4   -1    0    0  501    0  0.00000000000E+00  0.00000000000E+00  0.80365915480E+02  0.80375949580E+02  0.12700000000E+01 0. -1.
         -4   -1    0    0    0  501 -0.00000000000E+00 -0.00000000000E+00 -0.48581039787E+02  0.48597637050E+02  0.12700000000E+01 0. -1.
         25    2    1    2    0    0  0.00000000000E+00  0.00000000000E+00  0.31784875692E+02  0.12897358663E+03  0.12499563082E+03 0.  0.
    9000005    1    3    3    0    0 -0.18706211915E+02 -0.57536146415E+01  0.77127134061E+02  0.79577768592E+02  0.10000000000E+01 0.  0.
    9000005    1    3    3    0    0  0.18706211915E+02  0.57536146415E+01 -0.45342258368E+02  0.49395818038E+02  0.10000000000E+01 0.  0.
<mgrwt>
<rscale>  0 0.12499563E+03</rscale>
<asrwt>0</asrwt>
<pdfrwt beam="1">  1        4 0.12366036E-01 0.12499563E+03</pdfrwt>
<pdfrwt beam="2">  1       -4 0.74760547E-02 0.12499563E+03</pdfrwt>
<totfact> 0.10367537E+04</totfact>
</mgrwt>
</event>
<event>
 5    1  0.3309219E-002  0.1250002E+03  0.7818608E-02  0.1235069E+00
         -4   -1    0    0    0  501 -0.00000000000E+00  0.00000000000E+00  0.20967847627E+03  0.20968232236E+03  0.12700000000E+01 0. -1.
          4   -1    0    0  501    0  0.00000000000E+00 -0.00000000000E+00 -0.18604109356E+02  0.18647406922E+02  0.12700000000E+01 0. -1.
         25    2    1    2    0    0  0.00000000000E+00  0.00000000000E+00  0.19107436691E+03  0.22832972928E+03  0.12500020633E+03 0.  0.
    9000005    1    3    3    0    0  0.50589028036E+02  0.14343445851E+02  0.33855355214E+02  0.62547336260E+02  0.10000000000E+01 0.  0.
    9000005    1    3    3    0    0 -0.50589028036E+02 -0.14343445851E+02  0.15721901170E+03  0.16578239302E+03  0.10000000000E+01 0.  0.
<mgrwt>
<rscale>  0 0.12500021E+03</rscale>
<asrwt>0</asrwt>
<pdfrwt beam="2">  1        4 0.28657973E-02 0.12500021E+03</pdfrwt>
<pdfrwt beam="1">  1       -4 0.32261852E-01 0.12500021E+03</pdfrwt>
<totfact> 0.85566337E+03</totfact>
</mgrwt>
</event>
<event>
 5    1  0.3309219E-002  0.1249998E+03  0.7818608E-02  0.1235070E+00
          4   -1    0    0  501    0  0.00000000000E+00  0.00000000000E+00  0.77269942742E+01  0.78306666711E+01  0.12700000000E+01 0.  1.
         -4   -1    0    0    0  501 -0.00000000000E+00 -0.00000000000E+00 -0.50205783261E+03  0.50205943890E+03  0.12700000000E+01 0.  1.
         25    2    1    2    0    0  0.00000000000E+00  0.00000000000E+00 -0.49433083834E+03  0.50989010557E+03  0.12499976810E+03 0.  0.
    9000005    1    3    3    0    0 -0.15733558709E+02 -0.53635934460E+02 -0.13317752236E+03  0.14443549009E+03  0.10000000000E+01 0.  0.
    9000005    1    3    3    0    0  0.15733558709E+02  0.53635934460E+02 -0.36115331597E+03  0.36545461548E+03  0.10000000000E+01 0.  0.
<mgrwt>
<rscale>  0 0.12499977E+03</rscale>
<asrwt>0</asrwt>
<pdfrwt beam="1">  1        4 0.11968671E-02 0.12499977E+03</pdfrwt>
<pdfrwt beam="2">  1       -4 0.77247740E-01 0.12499977E+03</pdfrwt>
<totfact> 0.55105391E+03</totfact>
</mgrwt>
</event>
<event>
 5    1  0.3309219E-002  0.1250009E+03  0.7818608E-02  0.1235068E+00
         -4   -1    0    0    0  501 -0.00000000000E+00  0.00000000000E+00  0.33170031464E+01  0.35518178265E+01  0.12700000000E+01 0.  1.
          4   -1    0    0  501    0  0.00000000000E+00 -0.00000000000E+00 -0.11371676655E+04  0.11371683746E+04  0.12700000000E+01 0.  1.
         25    2    1    2    0    0  0.00000000000E+00  0.00000000000E+00 -0.11338506623E+04  0.11407201925E+04  0.12500093223E+03 0.  0.
    9000005    1    3    3    0    0  0.23933624797E+02  0.36259135555E+02 -0.15700338960E+03  0.16290674526E+03  0.10000000000E+01 0.  0.
    9000005    1    3    3    0    0 -0.23933624797E+02 -0.36259135555E+02 -0.97684727272E+03  0.97781344720E+03  0.10000000000E+01 0.  0.
<mgrwt>
<rscale>  0 0.12500093E+03</rscale>
<asrwt>0</asrwt>
<pdfrwt beam="2">  1        4 0.17496669E+00 0.12500093E+03</pdfrwt>
<pdfrwt beam="1">  1       -4 0.52842630E-03 0.12500093E+03</pdfrwt>
<totfact> 0.26318641E+03</totfact>
</mgrwt>
</event>
<event>
 5    1  0.3309219E-002  0.1250011E+03  0.7818608E-02  0.1235067E+00
         -4   -1    0    0    0  501 -0.00000000000E+00  0.00000000000E+00  0.46002371439E+03  0.46002546745E+03  0.12700000000E+01 0.  1.
          4   -1    0    0  501    0  0.00000000000E+00 -0.00000000000E+00 -0.84423007446E+01  0.85372912486E+01  0.12700000000E+01 0.  1.
         25    2    1    2    0    0  0.00000000000E+00  0.00000000000E+00  0.45158141365E+03  0.46856275870E+03  0.12500114275E+03 0.  0.
    9000005    1    3    3    0    0 -0.55005815663E+02  0.29367132531E+02  0.24136070330E+03  0.24928709820E+03  0.10000000000E+01 0.  0.
    9000005    1    3    3    0    0  0.55005815663E+02 -0.29367132531E+02  0.21022071034E+03  0.21927566050E+03  0.10000000000E+01 0.  0.
<mgrwt>
<rscale>  0 0.12500114E+03</rscale>
<asrwt>0</asrwt>
<pdfrwt beam="2">  1        4 0.13062573E-02 0.12500114E+03</pdfrwt>
<pdfrwt beam="1">  1       -4 0.70780321E-01 0.12500114E+03</pdfrwt>
<totfact> 0.58387299E+03</totfact>
</mgrwt>
</event>
<event>
 5    1  0.3309219E-002  0.1249981E+03  0.7818608E-02  0.1235072E+00
         -4   -1    0    0    0  501 -0.00000000000E+00  0.00000000000E+00  0.30206951862E+02  0.30233637571E+02  0.12700000000E+01 0.  1.
          4   -1    0    0  501    0  0.00000000000E+00 -0.00000000000E+00 -0.12922550661E+03  0.12923174710E+03  0.12700000000E+01 0.  1.
         25    2    1    2    0    0  0.00000000000E+00  0.00000000000E+00 -0.99018554751E+02  0.15946538467E+03  0.12499813888E+03 0.  0.
    9000005    1    3    3    0    0  0.54172004972E+02 -0.25679516064E+02 -0.27008065315E+02  0.65760772958E+02  0.10000000000E+01 0.  0.
    9000005    1    3    3    0    0 -0.54172004972E+02  0.25679516064E+02 -0.72010489436E+02  0.93704611716E+02  0.10000000000E+01 0.  0.
<mgrwt>
<rscale>  0 0.12499814E+03</rscale>
<asrwt>0</asrwt>
<pdfrwt beam="2">  1        4 0.19883380E-01 0.12499814E+03</pdfrwt>
<pdfrwt beam="1">  1       -4 0.46497562E-02 0.12499814E+03</pdfrwt>
<totfact> 0.97450030E+03</totfact>
</mgrwt>
</event>
<event>
 5    1  0.3309219E-002  0.1249956E+03  0.7818608E-02  0.1235076E+00
          4   -1    0    0  501    0  0.00000000000E+00  0.00000000000E+00  0.39961648300E+01  0.41931173783E+01  0.12700000000E+01 0.  1.
         -4   -1    0    0    0  501 -0.00000000000E+00 -0.00000000000E+00 -0.95372594460E+03  0.95372679018E+03  0.12700000000E+01 0.  1.
         25    2    1    2    0    0  0.00000000000E+00  0.00000000000E+00 -0.94972977977E+03  0.95791990756E+03  0.12499557876E+03 0.  0.
    9000005    1    3    3    0    0  0.60257008242E+02 -0.13891209767E+02 -0.40584926011E+03  0.41053440134E+03  0.10000000000E+01 0.  0.
    9000005    1    3    3    0    0 -0.60257008242E+02  0.13891209767E+02 -0.54388051966E+03  0.54738550622E+03  0.10000000000E+01 0.  0.
<mgrwt>
<rscale>  0 0.12499558E+03</rscale>
<asrwt>0</asrwt>
<pdfrwt beam="1">  1        4 0.63001059E-03 0.12499558E+03</pdfrwt>
<pdfrwt beam="2">  1       -4 0.14674211E+00 0.12499558E+03</pdfrwt>
<totfact> 0.32039569E+03</totfact>
</mgrwt>
</event>
<event>
 5    1  0.3309219E-002  0.1250046E+03  0.7818608E-02  0.1235062E+00
          4   -1    0    0  501    0  0.00000000000E+00  0.00000000000E+00  0.17349955410E+03  0.17350420217E+03  0.12700000000E+01 0. -1.
         -4   -1    0    0    0  501 -0.00000000000E+00 -0.00000000000E+00 -0.22493260091E+02  0.22529084524E+02  0.12700000000E+01 0. -1.
         25    2    1    2    0    0  0.00000000000E+00  0.00000000000E+00  0.15100629400E+03  0.19603328670E+03  0.12500459457E+03 0.  0.
    9000005    1    3    3    0    0 -0.15008976695E+02  0.59473082396E+02  0.56735662475E+02  0.83559872592E+02  0.10000000000E+01 0.  0.
    9000005    1    3    3    0    0  0.15008976695E+02 -0.59473082396E+02  0.94270631530E+02  0.11247341410E+03  0.10000000000E+01 0.  0.
<mgrwt>
<rscale>  0 0.12500459E+03</rscale>
<asrwt>0</asrwt>
<pdfrwt beam="1">  1        4 0.26695352E-01 0.12500459E+03</pdfrwt>
<pdfrwt beam="2">  1       -4 0.34636148E-02 0.12500459E+03</pdfrwt>
<totfact> 0.90798671E+03</totfact>
</mgrwt>
</event>
<event>
 5    1  0.3309219E-002  0.1249996E+03  0.7818608E-02  0.1235070E+00
         -4   -1    0    0    0  501 -0.00000000000E+00  0.00000000000E+00  0.90686114135E+02  0.90695006460E+02  0.12700000000E+01 0.  1.
          4   -1    0    0  501    0  0.00000000000E+00 -0.00000000000E+00 -0.43053782930E+02  0.43072510080E+02  0.12700000000E+01 0.  1.
         25    2    1    2    0    0  0.00000000000E+00  0.00000000000E+00  0.47632331204E+02  0.13376751654E+03  0.12499963802E+03 0.  0.
    9000005    1    3    3    0    0  0.62608251257E+01  0.60352680999E+02  0.39817700020E+02  0.72581631767E+02  0.10000000000E+01 0.  0.
    9000005    1    3    3    0    0 -0.62608251257E+01 -0.60352680999E+02  0.78146311845E+01  0.61185884774E+02  0.10000000000E+01 0.  0.
<mgrwt>
<rscale>  0 0.12499964E+03</rscale>
<asrwt>0</asrwt>
<pdfrwt beam="2">  1        4 0.66257835E-02 0.12499964E+03</pdfrwt>
<pdfrwt beam="1">  1       -4 0.13953834E-01 0.12499964E+03</pdfrwt>
<totfact> 0.10264198E+04</totfact>
</mgrwt>
</event>
<event>
 5    1  0.3309219E-002  0.1250002E+03  0.7818608E-02  0.1235069E+00
         -4   -1    0    0    0  501 -0.00000000000E+00  0.00000000000E+00  0.18684067305E+02  0.18727180008E+02  0.12700000000E+01 0. -1.
          4   -1    0    0  501    0  0.00000000000E+00 -0.00000000000E+00 -0.20878309928E+03  0.20878696186E+03  0.12700000000E+01 0. -1.
         25    2    1    2    0    0  0.00000000000E+00  0.00000000000E+00 -0.19009903197E+03  0.22751414187E+03  0.12500017118E+03 0.  0.
    9000005    1    3    3    0    0 -0.54753339847E+02 -0.20590732265E+02 -0.13506522773E+03  0.14719212690E+03  0.10000000000E+01 0.  0.
    9000005    1    3    3    0    0  0.54753339847E+02  0.20590732265E+02 -0.55033804241E+02  0.80322014970E+02  0.10000000000E+01 0.  0.
<mgrwt>
<rscale>  0 0.12500017E+03</rscale>
<asrwt>0</asrwt>
<pdfrwt beam="2">  1        4 0.32124089E-01 0.12500017E+03</pdfrwt>
<pdfrwt beam="1">  1       -4 0.28780855E-02 0.12500017E+03</pdfrwt>
<totfact> 0.85692443E+03</totfact>
</mgrwt>
</event>
<event>
 5    1  0.3309219E-002  0.1249923E+03  0.7818608E-02  0.1235081E+00
          4   -1    0    0  501    0  0.00000000000E+00  0.00000000000E+00  0.43874775783E+03  0.43874959590E+03  0.12700000000E+01 0. -1.
         -4   -1    0    0    0  501 -0.00000000000E+00 -0.00000000000E+00 -0.88549207142E+01  0.89455307754E+01  0.12700000000E+01 0. -1.
         25    2    1    2    0    0  0.00000000000E+00  0.00000000000E+00  0.42989283712E+03  0.44769512668E+03  0.12499229994E+03 0.  0.
    9000005    1    3    3    0    0  0.61384121830E+02 -0.65076336459E+01  0.18014428039E+03  0.19042930832E+03  0.10000000000E+01 0.  0.
    9000005    1    3    3    0    0 -0.61384121830E+02  0.65076336459E+01  0.24974855673E+03  0.25726581836E+03  0.10000000000E+01 0.  0.
<mgrwt>
<rscale>  0 0.12499230E+03</rscale>
<asrwt>0</asrwt>
<pdfrwt beam="1">  1        4 0.67506744E-01 0.12499230E+03</pdfrwt>
<pdfrwt beam="2">  1       -4 0.13694073E-02 0.12499230E+03</pdfrwt>
<totfact> 0.60174204E+03</totfact>
</mgrwt>
</event>
<event>
 5    1  0.3309219E-002  0.1250047E+03  0.7818608E-02  0.1235062E+00
          4   -1    0    0  501    0  0.00000000000E+00  0.00000000000E+00  0.11207088620E+01  0.16937793107E+01  0.12700000000E+01 0.  1.
         -4   -1    0    0    0  501 -0.00000000000E+00 -0.00000000000E+00 -0.27754492777E+04  0.27754495683E+04  0.12700000000E+01 0.  1.
         25    2    1    2    0    0  0.00000000000E+00  0.00000000000E+00 -0.27743285689E+04  0.27771433476E+04  0.12500466038E+03 0.  0.
    9000005    1    3    3    0    0  0.48574063898E+02  0.85446246437E+01 -0.22398458593E+04  0.22403890117E+04  0.10000000000E+01 0.  0.
    9000005    1    3    3    0    0 -0.48574063898E+02 -0.85446246437E+01 -0.53448270955E+03  0.53675433589E+03  0.10000000000E+01 0.  0.
<mgrwt>
<rscale>  0 0.12500466E+03</rscale>
<asrwt>0</asrwt>
<pdfrwt beam="1">  1        4 0.21652366E-03 0.12500466E+03</pdfrwt>
<pdfrwt beam="2">  1       -4 0.42703192E+00 0.12500466E+03</pdfrwt>
<totfact> 0.28393892E+02</totfact>
</mgrwt>
</event>
<event>
 5    1  0.3309219E-002  0.1250092E+03  0.7818608E-02  0.1235055E+00
         -4   -1    0    0    0  501 -0.00000000000E+00  0.00000000000E+00  0.21944002725E+03  0.21944370226E+03  0.12700000000E+01 0.  1.
          4   -1    0    0  501    0  0.00000000000E+00 -0.00000000000E+00 -0.17777146012E+02  0.17822452702E+02  0.12700000000E+01 0.  1.
         25    2    1    2    0    0  0.00000000000E+00  0.00000000000E+00  0.20166288124E+03  0.23726615496E+03  0.12500924213E+03 0.  0.
    9000005    1    3    3    0    0  0.31212128042E+01  0.51185972910E+02  0.16863194708E+03  0.17625969298E+03  0.10000000000E+01 0.  0.
    9000005    1    3    3    0    0 -0.31212128042E+01 -0.51185972910E+02  0.33030934158E+02  0.61006461981E+02  0.10000000000E+01 0.  0.
<mgrwt>
<rscale>  0 0.12500924E+03</rscale>
<asrwt>0</asrwt>
<pdfrwt beam="2">  1        4 0.27387133E-02 0.12500924E+03</pdfrwt>
<pdfrwt beam="1">  1       -4 0.33763773E-01 0.12500924E+03</pdfrwt>
<totfact> 0.84188864E+03</totfact>
</mgrwt>
</event>
<event>
 5    1  0.3309219E-002  0.1250021E+03  0.7818608E-02  0.1235066E+00
          4   -1    0    0  501    0  0.00000000000E+00  0.00000000000E+00  0.14063969669E+04  0.14063975403E+04  0.12700000000E+01 0.  1.
         -4   -1    0    0    0  501 -0.00000000000E+00 -0.00000000000E+00 -0.26318048516E+01  0.29222075178E+01  0.12700000000E+01 0.  1.
         25    2    1    2    0    0  0.00000000000E+00  0.00000000000E+00  0.14037651620E+04  0.14093197478E+04  0.12500208579E+03 0.  0.
    9000005    1    3    3    0    0 -0.18691376111E+02 -0.10480563074E+01  0.13740954951E+04  0.13742233791E+04  0.10000000000E+01 0.  0.
    9000005    1    3    3    0    0  0.18691376111E+02  0.10480563074E+01  0.29669666975E+02  0.35096368778E+02  0.10000000000E+01 0.  0.
<mgrwt>
<rscale>  0 0.12500209E+03</rscale>
<asrwt>0</asrwt>
<pdfrwt beam="1">  1        4 0.21639122E+00 0.12500209E+03</pdfrwt>
<pdfrwt beam="2">  1       -4 0.42727568E-03 0.12500209E+03</pdfrwt>
<totfact> 0.19780896E+03</totfact>
</mgrwt>
</event>
<event>
 5    1  0.3309219E-002  0.1250374E+03  0.7818608E-02  0.1235011E+00
          4   -1    0    0  501    0  0.00000000000E+00  0.00000000000E+00  0.25227918453E+02  0.25259864795E+02  0.12700000000E+01 0.  1.
         -4   -1    0    0    0  501 -0.00000000000E+00 -0.00000000000E+00 -0.15479846002E+03  0.15480366961E+03  0.12700000000E+01 0.  1.
         25    2    1    2    0    0  0.00000000000E+00  0.00000000000E+00 -0.12957054156E+03  0.18006353440E+03  0.12503739912E+03 0.  0.
    9000005    1    3    3    0    0 -0.27798168596E+02  0.35745432659E+02 -0.27262267316E+01  0.45375174330E+02  0.10000000000E+01 0.  0.
    9000005    1    3    3    0    0  0.27798168596E+02 -0.35745432659E+02 -0.12684431483E+03  0.13468836007E+03  0.10000000000E+01 0.  0.
<mgrwt>
<rscale>  0 0.12503740E+03</rscale>
<asrwt>0</asrwt>
<pdfrwt beam="1">  1        4 0.38840765E-02 0.12503740E+03</pdfrwt>
<pdfrwt beam="2">  1       -4 0.23818005E-01 0.12503740E+03</pdfrwt>
<totfact> 0.93527118E+03</totfact>
</mgrwt>
</event>
<event>
 5    1  0.3309219E-002  0.1249996E+03  0.7818608E-02  0.1235070E+00
         -4   -1    0    0    0  501 -0.00000000000E+00  0.00000000000E+00  0.12836073747E+03  0.12836702000E+03  0.12700000000E+01 0.  1.
          4   -1    0    0  501    0  0.00000000000E+00 -0.00000000000E+00 -0.30411340011E+02  0.30437846528E+02  0.12700000000E+01 0.  1.
         25    2    1    2    0    0  0.00000000000E+00  0.00000000000E+00  0.97949397454E+02  0.15880486652E+03  0.12499960468E+03 0.  0.
    9000005    1    3    3    0    0 -0.24489413164E+02 -0.41273062109E+02 -0.18752192408E+01  0.48038666304E+02  0.10000000000E+01 0.  0.
    9000005    1    3    3    0    0  0.24489413164E+02  0.41273062109E+02  0.99824616695E+02  0.11076620022E+03  0.10000000000E+01 0.  0.
<mgrwt>
<rscale>  0 0.12499960E+03</rscale>
<asrwt>0</asrwt>
<pdfrwt beam="2">  1        4 0.46811899E-02 0.12499960E+03</pdfrwt>
<pdfrwt beam="1">  1       -4 0.19750328E-01 0.12499960E+03</pdfrwt>
<totfact> 0.97574560E+03</totfact>
</mgrwt>
</event>
<event>
 5    1  0.3309219E-002  0.1250014E+03  0.7818608E-02  0.1235067E+00
         -4   -1    0    0    0  501 -0.00000000000E+00  0.00000000000E+00  0.16000753288E+02  0.16051074911E+02  0.12700000000E+01 0. -1.
          4   -1    0    0  501    0  0.00000000000E+00 -0.00000000000E+00 -0.24369940463E+03  0.24370271381E+03  0.12700000000E+01 0. -1.
         25    2    1    2    0    0  0.00000000000E+00  0.00000000000E+00 -0.22769865134E+03  0.25975378872E+03  0.12500141972E+03 0.  0.
    9000005    1    3    3    0    0 -0.15367591075E+02 -0.39038163080E+02 -0.17603787200E+02  0.45508618479E+02  0.10000000000E+01 0.  0.
    9000005    1    3    3    0    0  0.15367591075E+02  0.39038163080E+02 -0.21009486414E+03  0.21424517024E+03  0.10000000000E+01 0.  0.
<mgrwt>
<rscale>  0 0.12500142E+03</rscale>
<asrwt>0</asrwt>
<pdfrwt beam="2">  1        4 0.37496339E-01 0.12500142E+03</pdfrwt>
<pdfrwt beam="1">  1       -4 0.24657800E-02 0.12500142E+03</pdfrwt>
<totfact> 0.80938069E+03</totfact>
</mgrwt>
</event>
<event>
 5    1  0.3309219E-002  0.1250031E+03  0.7818608E-02  0.1235064E+00
         -4   -1    0    0    0  501 -0.00000000000E+00  0.00000000000E+00  0.26087395900E+01  0.29014517484E+01  0.12700000000E+01 0.  1.
          4   -1    0    0  501    0  0.00000000000E+00 -0.00000000000E+00 -0.14176043310E+04  0.14176048999E+04  0.12700000000E+01 0.  1.
         25    2    1    2    0    0  0.00000000000E+00  0.00000000000E+00 -0.14149955914E+04  0.14205063516E+04  0.12500308521E+03 0.  0.
    9000005    1    3    3    0    0  0.29265492320E+02 -0.54537183701E+02 -0.60930181207E+03  0.61243813698E+03  0.10000000000E+01 0.  0.
    9000005    1    3    3    0    0 -0.29265492320E+02  0.54537183701E+02 -0.80569377936E+03  0.80806821466E+03  0.10000000000E+01 0.  0.
<mgrwt>
<rscale>  0 0.12500309E+03</rscale>
<asrwt>0</asrwt>
<pdfrwt beam="2">  1        4 0.21811495E+00 0.12500309E+03</pdfrwt>
<pdfrwt beam="1">  1       -4 0.42390577E-03 0.12500309E+03</pdfrwt>
<totfact> 0.19543864E+03</totfact>
</mgrwt>
</event>
<event>
 5    1  0.3309219E-002  0.1250007E+03  0.7818608E-02  0.1235068E+00
          4   -1    0    0  501    0  0.00000000000E+00  0.00000000000E+00  0.12352866831E+04  0.12352873359E+04  0.12700000000E+01 0.  1.
         -4   -1    0    0    0  501 -0.00000000000E+00 -0.00000000000E+00 -0.30340656552E+01  0.32891418942E+01  0.12700000000E+01 0.  1.
         25    2    1    2    0    0  0.00000000000E+00  0.00000000000E+00  0.12322526174E+04  0.12385764778E+04  0.12500071302E+03 0.  0.
    9000005    1    3    3    0    0 -0.10937663662E+02 -0.60281162779E+02  0.73822427442E+03  0.74076280307E+03  0.10000000000E+01 0.  0.
    9000005    1    3    3    0    0  0.10937663662E+02  0.60281162779E+02  0.49402834303E+03  0.49781367477E+03  0.10000000000E+01 0.  0.
<mgrwt>
<rscale>  0 0.12500071E+03</rscale>
<asrwt>0</asrwt>
<pdfrwt beam="1">  1        4 0.19006413E+00 0.12500071E+03</pdfrwt>
<pdfrwt beam="2">  1       -4 0.48644989E-03 0.12500071E+03</pdfrwt>
<totfact> 0.23724324E+03</totfact>
</mgrwt>
</event>
<event>
 5    1  0.3309219E-002  0.1250201E+03  0.7818608E-02  0.1235038E+00
         -4   -1    0    0    0  501 -0.00000000000E+00  0.00000000000E+00  0.83968942993E+02  0.83978546590E+02  0.12700000000E+01 0. -1.
          4   -1    0    0  501    0  0.00000000000E+00 -0.00000000000E+00 -0.46514204299E+02  0.46531538784E+02  0.12700000000E+01 0. -1.
         25    2    1    2    0    0  0.00000000000E+00  0.00000000000E+00  0.37454738693E+02  0.13051008537E+03  0.12502009812E+03 0.  0.
    9000005    1    3    3    0    0  0.53676661091E+02  0.15091878901E+02  0.48208574590E+02  0.73715774557E+02  0.10000000000E+01 0.  0.
    9000005    1    3    3    0    0 -0.53676661091E+02 -0.15091878901E+02 -0.10753835896E+02  0.56794310816E+02  0.10000000000E+01 0.  0.
<mgrwt>
<rscale>  0 0.12502010E+03</rscale>
<asrwt>0</asrwt>
<pdfrwt beam="2">  1        4 0.71581037E-02 0.12502010E+03</pdfrwt>
<pdfrwt beam="1">  1       -4 0.12920371E-01 0.12502010E+03</pdfrwt>
<totfact> 0.10328919E+04</totfact>
</mgrwt>
</event>
<event>
 5    1  0.3309219E-002  0.1249991E+03  0.7818608E-02  0.1235071E+00
         -4   -1    0    0    0  501 -0.00000000000E+00  0.00000000000E+00  0.18985842535E+03  0.18986267294E+03  0.12700000000E+01 0.  1.
          4   -1    0    0  501    0  0.00000000000E+00 -0.00000000000E+00 -0.20550179589E+02  0.20589385157E+02  0.12700000000E+01 0.  1.
         25    2    1    2    0    0  0.00000000000E+00  0.00000000000E+00  0.16930824576E+03  0.21045205810E+03  0.12499914670E+03 0.  0.
    9000005    1    3    3    0    0 -0.30658790765E+02  0.21856123435E+02  0.68268122278E+00  0.37671177794E+02  0.10000000000E+01 0.  0.
    9000005    1    3    3    0    0  0.30658790765E+02 -0.21856123435E+02  0.16862556454E+03  0.17278088030E+03  0.10000000000E+01 0.  0.
<mgrwt>
<rscale>  0 0.12499915E+03</rscale>
<asrwt>0</asrwt>
<pdfrwt beam="2">  1        4 0.31649087E-02 0.12499915E+03</pdfrwt>
<pdfrwt beam="1">  1       -4 0.29212331E-01 0.12499915E+03</pdfrwt>
<totfact> 0.88403793E+03</totfact>
</mgrwt>
</event>
<event>
 5    1  0.3309219E-002  0.1250026E+03  0.7818608E-02  0.1235065E+00
          4   -1    0    0  501    0  0.00000000000E+00  0.00000000000E+00  0.23071635310E+02  0.23106563047E+02  0.12700000000E+01 0. -1.
         -4   -1    0    0    0  501 -0.00000000000E+00 -0.00000000000E+00 -0.16915116689E+03  0.16915593445E+03  0.12700000000E+01 0. -1.
         25    2    1    2    0    0  0.00000000000E+00  0.00000000000E+00 -0.14607953158E+03  0.19226249750E+03  0.12500255357E+03 0.  0.
    9000005    1    3    3    0    0 -0.57873259376E+02 -0.21115174098E+02 -0.89189110049E+02  0.10840139335E+03  0.10000000000E+01 0.  0.
    9000005    1    3    3    0    0  0.57873259376E+02  0.21115174098E+02 -0.56890421533E+02  0.83861104155E+02  0.10000000000E+01 0.  0.
<mgrwt>
<rscale>  0 0.12500255E+03</rscale>
<asrwt>0</asrwt>
<pdfrwt beam="1">  1        4 0.35525359E-02 0.12500255E+03</pdfrwt>
<pdfrwt beam="2">  1       -4 0.26026309E-01 0.12500255E+03</pdfrwt>
<totfact> 0.91449902E+03</totfact>
</mgrwt>
</event>
<event>
 5    1  0.3309219E-002  0.1250012E+03  0.7818608E-02  0.1235067E+00
         -4   -1    0    0    0  501 -0.00000000000E+00  0.00000000000E+00  0.12013249667E+04  0.12013256380E+04  0.12700000000E+01 0.  1.
          4   -1    0    0  501    0  0.00000000000E+00 -0.00000000000E+00 -0.31269788269E+01  0.33750402344E+01  0.12700000000E+01 0.  1.
         25    2    1    2    0    0  0.00000000000E+00  0.00000000000E+00  0.11981979879E+04  0.12047006783E+04  0.12500122398E+03 0.  0.
    9000005    1    3    3    0    0  0.48276147063E+02 -0.39682989609E+02  0.59889241495E+03  0.60214487520E+03  0.10000000000E+01 0.  0.
    9000005    1    3    3    0    0 -0.48276147063E+02  0.39682989609E+02  0.59930557294E+03  0.60255580306E+03  0.10000000000E+01 0.  0.
<mgrwt>
<rscale>  0 0.12500122E+03</rscale>
<asrwt>0</asrwt>
<pdfrwt beam="2">  1        4 0.50020663E-03 0.12500122E+03</pdfrwt>
<pdfrwt beam="1">  1       -4 0.18483848E+00 0.12500122E+03</pdfrwt>
<totfact> 0.24589362E+03</totfact>
</mgrwt>
</event>
<event>
 5    1  0.3309219E-002  0.1249998E+03  0.7818608E-02  0.1235070E+00
          4   -1    0    0  501    0  0.00000000000E+00  0.00000000000E+00  0.74207406056E+01  0.75286314251E+01  0.12700000000E+01 0. -1.
         -4   -1    0    0    0  501 -0.00000000000E+00 -0.00000000000E+00 -0.52248652572E+03  0.52248806920E+03  0.12700000000E+01 0. -1.
         25    2    1    2    0    0  0.00000000000E+00  0.00000000000E+00 -0.51506578511E+03  0.53001670063E+03  0.12499975979E+03 0.  0.
    9000005    1    3    3    0    0 -0.85031380099E+01 -0.39479169953E+02 -0.45974483804E+03  0.46151622324E+03  0.10000000000E+01 0.  0.
    9000005    1    3    3    0    0  0.85031380099E+01  0.39479169953E+02 -0.55320947078E+02  0.68500477384E+02  0.10000000000E+01 0.  0.
<mgrwt>
<rscale>  0 0.12499976E+03</rscale>
<asrwt>0</asrwt>
<pdfrwt beam="1">  1        4 0.11500708E-02 0.12499976E+03</pdfrwt>
<pdfrwt beam="2">  1       -4 0.80390932E-01 0.12499976E+03</pdfrwt>
<totfact> 0.53608696E+03</totfact>
</mgrwt>
</event>
<event>
 5    1  0.3309219E-002  0.1250005E+03  0.7818608E-02  0.1235068E+00
          4   -1    0    0  501    0  0.00000000000E+00  0.00000000000E+00  0.15309686590E+02  0.15362272081E+02  0.12700000000E+01 0.  1.
         -4   -1    0    0    0  501 -0.00000000000E+00 -0.00000000000E+00 -0.25465936661E+03  0.25466253337E+03  0.12700000000E+01 0.  1.
         25    2    1    2    0    0  0.00000000000E+00  0.00000000000E+00 -0.23934968002E+03  0.27002480545E+03  0.12500050493E+03 0.  0.
    9000005    1    3    3    0    0 -0.50823767070E+02 -0.16300553521E+02 -0.18988991900E+03  0.19725096878E+03  0.10000000000E+01 0.  0.
    9000005    1    3    3    0    0  0.50823767070E+02  0.16300553521E+02 -0.49459761013E+02  0.72773836670E+02  0.10000000000E+01 0.  0.
<mgrwt>
<rscale>  0 0.12500050E+03</rscale>
<asrwt>0</asrwt>
<pdfrwt beam="1">  1        4 0.23596252E-02 0.12500050E+03</pdfrwt>
<pdfrwt beam="2">  1       -4 0.39182649E-01 0.12500050E+03</pdfrwt>
<totfact> 0.79518594E+03</totfact>
</mgrwt>
</event>
<event>
 5    1  0.3309219E-002  0.1250004E+03  0.7818608E-02  0.1235069E+00
          4   -1    0    0  501    0  0.00000000000E+00  0.00000000000E+00  0.12870578394E+02  0.12933085022E+02  0.12700000000E+01 0.  1.
         -4   -1    0    0    0  501 -0.00000000000E+00 -0.00000000000E+00 -0.30270506284E+03  0.30270772698E+03  0.12700000000E+01 0.  1.
         25    2    1    2    0    0  0.00000000000E+00  0.00000000000E+00 -0.28983448445E+03  0.31564081200E+03  0.12500037529E+03 0.  0.
    9000005    1    3    3    0    0  0.32269281164E+01 -0.17976588374E+02 -0.29582775116E+03  0.29639269416E+03  0.10000000000E+01 0.  0.
    9000005    1    3    3    0    0 -0.32269281164E+01  0.17976588374E+02  0.59932667076E+01  0.19248117842E+02  0.10000000000E+01 0.  0.
<mgrwt>
<rscale>  0 0.12500038E+03</rscale>
<asrwt>0</asrwt>
<pdfrwt beam="1">  1        4 0.19851023E-02 0.12500038E+03</pdfrwt>
<pdfrwt beam="2">  1       -4 0.46575018E-01 0.12500038E+03</pdfrwt>
<totfact> 0.73676999E+03</totfact>
</mgrwt>
</event>
<event>
 5    1  0.3309219E-002  0.1249978E+03  0.7818608E-02  0.1235073E+00
         -4   -1    0    0    0  501 -0.00000000000E+00  0.00000000000E+00  0.48004858728E+01  0.49656383894E+01  0.12700000000E+01 0.  1.
          4   -1    0    0  501    0  0.00000000000E+00 -0.00000000000E+00 -0.79976504775E+03  0.79976605611E+03  0.12700000000E+01 0.  1.
         25    2    1    2    0    0  0.00000000000E+00  0.00000000000E+00 -0.79496456188E+03  0.80473169450E+03  0.12499778193E+03 0.  0.
    9000005    1    3    3    0    0 -0.50921587553E+02 -0.49388270919E+01 -0.16645777515E+03  0.17414531576E+03  0.10000000000E+01 0.  0.
    9000005    1    3    3    0    0  0.50921587553E+02  0.49388270919E+01 -0.62850678673E+03  0.63058637875E+03  0.10000000000E+01 0.  0.
<mgrwt>
<rscale>  0 0.12499778E+03</rscale>
<asrwt>0</asrwt>
<pdfrwt beam="2">  1        4 0.12305345E+00 0.12499778E+03</pdfrwt>
<pdfrwt beam="1">  1       -4 0.75131853E-03 0.12499778E+03</pdfrwt>
<totfact> 0.38056233E+03</totfact>
</mgrwt>
</event>
<event>
 5    1  0.3309219E-002  0.1249993E+03  0.7818608E-02  0.1235070E+00
         -4   -1    0    0    0  501 -0.00000000000E+00  0.00000000000E+00  0.67429750473E+02  0.67441709267E+02  0.12700000000E+01 0. -1.
          4   -1    0    0  501    0  0.00000000000E+00 -0.00000000000E+00 -0.57905983193E+02  0.57919908405E+02  0.12700000000E+01 0. -1.
         25    2    1    2    0    0  0.00000000000E+00  0.00000000000E+00  0.95237672796E+01  0.12536161767E+03  0.12499933217E+03 0.  0.
    9000005    1    3    3    0    0 -0.80895623477E+01  0.60944918222E+02  0.15996322660E+02  0.63534293217E+02  0.10000000000E+01 0.  0.
    9000005    1    3    3    0    0  0.80895623477E+01 -0.60944918222E+02 -0.64725553799E+01  0.61827324454E+02  0.10000000000E+01 0.  0.
<mgrwt>
<rscale>  0 0.12499933E+03</rscale>
<asrwt>0</asrwt>
<pdfrwt beam="2">  1        4 0.89106039E-02 0.12499933E+03</pdfrwt>
<pdfrwt beam="1">  1       -4 0.10375799E-01 0.12499933E+03</pdfrwt>
<totfact> 0.10445171E+04</totfact>
</mgrwt>
</event>
<event>
 5    1  0.3309219E-002  0.1250042E+03  0.7818608E-02  0.1235063E+00
          4   -1    0    0  501    0  0.00000000000E+00  0.00000000000E+00  0.13559319565E+02  0.13618665392E+02  0.12700000000E+01 0. -1.
         -4   -1    0    0    0  501 -0.00000000000E+00 -0.00000000000E+00 -0.28741561111E+03  0.28741841697E+03  0.12700000000E+01 0. -1.
         25    2    1    2    0    0  0.00000000000E+00  0.00000000000E+00 -0.27385629155E+03  0.30103708236E+03  0.12500422607E+03 0.  0.
    9000005    1    3    3    0    0 -0.50726246666E+02 -0.34390850822E+02 -0.16638637847E+03  0.17731697510E+03  0.10000000000E+01 0.  0.
    9000005    1    3    3    0    0  0.50726246666E+02  0.34390850822E+02 -0.10746991308E+03  0.12372010725E+03  0.10000000000E+01 0.  0.
<mgrwt>
<rscale>  0 0.12500423E+03</rscale>
<asrwt>0</asrwt>
<pdfrwt beam="1">  1        4 0.20908303E-02 0.12500423E+03</pdfrwt>
<pdfrwt beam="2">  1       -4 0.44222563E-01 0.12500423E+03</pdfrwt>
<totfact> 0.75461856E+03</totfact>
</mgrwt>
</event>
<event>
 5    1  0.3309219E-002  0.1249931E+03  0.7818608E-02  0.1235080E+00
         -4   -1    0    0    0  501 -0.00000000000E+00  0.00000000000E+00  0.95304774084E+02  0.95313235509E+02  0.12700000000E+01 0. -1.
          4   -1    0    0  501    0  0.00000000000E+00 -0.00000000000E+00 -0.40962292106E+02  0.40981974996E+02  0.12700000000E+01 0. -1.
         25    2    1    2    0    0  0.00000000000E+00  0.00000000000E+00  0.54342481978E+02  0.13629521050E+03  0.12499311605E+03 0.  0.
    9000005    1    3    3    0    0  0.17773354929E+02  0.59907508979E+02  0.27024997344E+02  0.68089296214E+02  0.10000000000E+01 0.  0.
    9000005    1    3    3    0    0 -0.17773354929E+02 -0.59907508979E+02  0.27317484634E+02  0.68205914291E+02  0.10000000000E+01 0.  0.
<mgrwt>
<rscale>  0 0.12499312E+03</rscale>
<asrwt>0</asrwt>
<pdfrwt beam="2">  1        4 0.63040561E-02 0.12499312E+03</pdfrwt>
<pdfrwt beam="1">  1       -4 0.14664438E-01 0.12499312E+03</pdfrwt>
<totfact> 0.10212428E+04</totfact>
</mgrwt>
</event>
<event>
 5    1  0.3309219E-002  0.1250004E+03  0.7818608E-02  0.1235069E+00
          4   -1    0    0  501    0  0.00000000000E+00  0.00000000000E+00  0.45209947602E+03  0.45210125981E+03  0.12700000000E+01 0.  1.
         -4   -1    0    0    0  501 -0.00000000000E+00 -0.00000000000E+00 -0.85918152354E+01  0.86851706396E+01  0.12700000000E+01 0.  1.
         25    2    1    2    0    0  0.00000000000E+00  0.00000000000E+00  0.44350766079E+03  0.46078643045E+03  0.12500035723E+03 0.  0.
    9000005    1    3    3    0    0  0.61845865452E+02 -0.61865708537E+01  0.19783910054E+03  0.20737525030E+03  0.10000000000E+01 0.  0.
    9000005    1    3    3    0    0 -0.61845865452E+02  0.61865708537E+01  0.24566856024E+03  0.25341118015E+03  0.10000000000E+01 0.  0.
<mgrwt>
<rscale>  0 0.12500036E+03</rscale>
<asrwt>0</asrwt>
<pdfrwt beam="1">  1        4 0.69561099E-01 0.12500036E+03</pdfrwt>
<pdfrwt beam="2">  1       -4 0.13291358E-02 0.12500036E+03</pdfrwt>
<totfact> 0.59040151E+03</totfact>
</mgrwt>
</event>
<event>
 5    1  0.3309219E-002  0.1249967E+03  0.7818608E-02  0.1235074E+00
         -4   -1    0    0    0  501 -0.00000000000E+00  0.00000000000E+00  0.43358473304E+01  0.45180163869E+01  0.12700000000E+01 0.  1.
          4   -1    0    0  501    0  0.00000000000E+00 -0.00000000000E+00 -0.88215459355E+03  0.88215550773E+03  0.12700000000E+01 0.  1.
         25    2    1    2    0    0  0.00000000000E+00  0.00000000000E+00 -0.87781874622E+03  0.88667352412E+03  0.12499674859E+03 0.  0.
    9000005    1    3    3    0    0 -0.23246943227E+02 -0.46666850761E+02 -0.68328593440E+03  0.68527285330E+03  0.10000000000E+01 0.  0.
    9000005    1    3    3    0    0  0.23246943227E+02  0.46666850761E+02 -0.19453281182E+03  0.20140067082E+03  0.10000000000E+01 0.  0.
<mgrwt>
<rscale>  0 0.12499675E+03</rscale>
<asrwt>0</asrwt>
<pdfrwt beam="2">  1        4 0.13573003E+00 0.12499675E+03</pdfrwt>
<pdfrwt beam="1">  1       -4 0.68113747E-03 0.12499675E+03</pdfrwt>
<totfact> 0.34674236E+03</totfact>
</mgrwt>
</event>
<event>
 5    1  0.3309219E-002  0.1250031E+03  0.7818608E-02  0.1235064E+00
         -4   -1    0    0    0  501 -0.00000000000E+00  0.00000000000E+00  0.16570530745E+02  0.16619127208E+02  0.12700000000E+01 0.  1.
          4   -1    0    0  501    0  0.00000000000E+00 -0.00000000000E+00 -0.23535091296E+03  0.23535433952E+03  0.12700000000E+01 0.  1.
         25    2    1    2    0    0  0.00000000000E+00  0.00000000000E+00 -0.21878038221E+03  0.25197346673E+03  0.12500308913E+03 0.  0.
    9000005    1    3    3    0    0  0.51078892781E+02 -0.27745102274E+02 -0.15564683457E+03  0.16614987541E+03  0.10000000000E+01 0.  0.
    9000005    1    3    3    0    0 -0.51078892781E+02  0.27745102274E+02 -0.63133547643E+02  0.85823591314E+02  0.10000000000E+01 0.  0.
<mgrwt>
<rscale>  0 0.12500309E+03</rscale>
<asrwt>0</asrwt>
<pdfrwt beam="2">  1        4 0.36211832E-01 0.12500309E+03</pdfrwt>
<pdfrwt beam="1">  1       -4 0.25533144E-02 0.12500309E+03</pdfrwt>
<totfact> 0.82040191E+03</totfact>
</mgrwt>
</event>
<event>
 5    1  0.3309219E-002  0.1249954E+03  0.7818608E-02  0.1235077E+00
         -4   -1    0    0    0  501 -0.00000000000E+00  0.00000000000E+00  0.66117680135E+02  0.66129876202E+02  0.12700000000E+01 0.  1.
          4   -1    0    0  501    0  0.00000000000E+00 -0.00000000000E+00 -0.59051408809E+02  0.59065063974E+02  0.12700000000E+01 0.  1.
         25    2    1    2    0    0  0.00000000000E+00  0.00000000000E+00  0.70662713266E+01  0.12519494018E+03  0.12499536333E+03 0.  0.
    9000005    1    3    3    0    0  0.37686452651E+02  0.28012392090E+02 -0.37763721443E+02  0.60266586772E+02  0.10000000000E+01 0.  0.
    9000005    1    3    3    0    0 -0.37686452651E+02 -0.28012392090E+02  0.44829992769E+02  0.64928353404E+02  0.10000000000E+01 0.  0.
<mgrwt>
<rscale>  0 0.12499536E+03</rscale>
<asrwt>0</asrwt>
<pdfrwt beam="2">  1        4 0.90868206E-02 0.12499536E+03</pdfrwt>
<pdfrwt beam="1">  1       -4 0.10173939E-01 0.12499536E+03</pdfrwt>
<totfact> 0.10449725E+04</totfact>
</mgrwt>
</event>
<event>
 5    1  0.3309219E-002  0.1249976E+03  0.7818608E-02  0.1235073E+00
          4   -1    0    0  501    0  0.00000000000E+00  0.00000000000E+00  0.15063086729E+03  0.15063622101E+03  0.12700000000E+01 0. -1.
         -4   -1    0    0    0  501 -0.00000000000E+00 -0.00000000000E+00 -0.25910225181E+02  0.25941331287E+02  0.12700000000E+01 0. -1.
         25    2    1    2    0    0  0.00000000000E+00  0.00000000000E+00  0.12472064211E+03  0.17657755230E+03  0.12499757361E+03 0.  0.
    9000005    1    3    3    0    0  0.29068182211E+02 -0.31801617008E+02  0.12630189158E+03  0.13345212579E+03  0.10000000000E+01 0.  0.
    9000005    1    3    3    0    0 -0.29068182211E+02  0.31801617008E+02 -0.15812494723E+01  0.43125426506E+02  0.10000000000E+01 0.  0.
<mgrwt>
<rscale>  0 0.12499757E+03</rscale>
<asrwt>0</asrwt>
<pdfrwt beam="1">  1        4 0.23176785E-01 0.12499757E+03</pdfrwt>
<pdfrwt beam="2">  1       -4 0.39889930E-02 0.12499757E+03</pdfrwt>
<totfact> 0.94241835E+03</totfact>
</mgrwt>
</event>
<event>
 5    1  0.3309219E-002  0.1249974E+03  0.7818608E-02  0.1235073E+00
          4   -1    0    0  501    0  0.00000000000E+00  0.00000000000E+00  0.41908408003E+02  0.41927646742E+02  0.12700000000E+01 0.  1.
         -4   -1    0    0    0  501 -0.00000000000E+00 -0.00000000000E+00 -0.93160421899E+02  0.93169078070E+02  0.12700000000E+01 0.  1.
         25    2    1    2    0    0  0.00000000000E+00  0.00000000000E+00 -0.51252013896E+02  0.13509672481E+03  0.12499742448E+03 0.  0.
    9000005    1    3    3    0    0  0.22145073299E+02 -0.44461267421E+02 -0.66609139120E+02  0.83096245321E+02  0.10000000000E+01 0.  0.
    9000005    1    3    3    0    0 -0.22145073299E+02  0.44461267421E+02  0.15357125225E+02  0.52000479491E+02  0.10000000000E+01 0.  0.
<mgrwt>
<rscale>  0 0.12499742E+03</rscale>
<asrwt>0</asrwt>
<pdfrwt beam="1">  1        4 0.64495931E-02 0.12499742E+03</pdfrwt>
<pdfrwt beam="2">  1       -4 0.14334518E-01 0.12499742E+03</pdfrwt>
<totfact> 0.10236627E+04</totfact>
</mgrwt>
</event>
<event>
 5    1  0.3309219E-002  0.1250033E+03  0.7818608E-02  0.1235064E+00
         -4   -1    0    0    0  501 -0.00000000000E+00  0.00000000000E+00  0.32997509982E+02  0.33021940661E+02  0.12700000000E+01 0.  1.
          4   -1    0    0  501    0  0.00000000000E+00 -0.00000000000E+00 -0.11831470817E+03  0.11832152412E+03  0.12700000000E+01 0.  1.
         25    2    1    2    0    0  0.00000000000E+00  0.00000000000E+00 -0.85317198188E+02  0.15134346478E+03  0.12500328006E+03 0.  0.
    9000005    1    3    3    0    0 -0.48827267722E+02 -0.12234441208E+02  0.21815762396E+01  0.50393877602E+02  0.10000000000E+01 0.  0.
    9000005    1    3    3    0    0  0.48827267722E+02  0.12234441208E+02 -0.87498774428E+02  0.10094958718E+03  0.10000000000E+01 0.  0.
<mgrwt>
<rscale>  0 0.12500328E+03</rscale>
<asrwt>0</asrwt>
<pdfrwt beam="2">  1        4 0.18204666E-01 0.12500328E+03</pdfrwt>
<pdfrwt beam="1">  1       -4 0.50789436E-02 0.12500328E+03</pdfrwt>
<totfact> 0.99029261E+03</totfact>
</mgrwt>
</event>
<event>
 5    1  0.3309219E-002  0.1249904E+03  0.7818608E-02  0.1235084E+00
          4   -1    0    0  501    0  0.00000000000E+00  0.00000000000E+00  0.70164348716E+02  0.70175841504E+02  0.12700000000E+01 0. -1.
         -4   -1    0    0    0  501 -0.00000000000E+00 -0.00000000000E+00 -0.55640991783E+02  0.55655483706E+02  0.12700000000E+01 0. -1.
         25    2    1    2    0    0  0.00000000000E+00  0.00000000000E+00  0.14523356933E+02  0.12583132521E+03  0.12499037766E+03 0.  0.
    9000005    1    3    3    0    0  0.57890429267E+02  0.17358571684E+02  0.23243841843E+02  0.64760311884E+02  0.10000000000E+01 0.  0.
    9000005    1    3    3    0    0 -0.57890429267E+02 -0.17358571684E+02 -0.87204849093E+01  0.61071013326E+02  0.10000000000E+01 0.  0.
<mgrwt>
<rscale>  0 0.12499038E+03</rscale>
<asrwt>0</asrwt>
<pdfrwt beam="1">  1        4 0.10796514E-01 0.12499038E+03</pdfrwt>
<pdfrwt beam="2">  1       -4 0.85621515E-02 0.12499038E+03</pdfrwt>
<totfact> 0.10436923E+04</totfact>
</mgrwt>
</event>
<event>
 5    1  0.3309219E-002  0.1250000E+03  0.7818608E-02  0.1235069E+00
         -4   -1    0    0    0  501 -0.00000000000E+00  0.00000000000E+00  0.62276609948E+02  0.62289558087E+02  0.12700000000E+01 0.  1.
          4   -1    0    0  501    0  0.00000000000E+00 -0.00000000000E+00 -0.62698245581E+02  0.62711106664E+02  0.12700000000E+01 0.  1.
         25    2    1    2    0    0  0.00000000000E+00  0.00000000000E+00 -0.42163563305E+00  0.12500066475E+03  0.12499995365E+03 0.  0.
    9000005    1    3    3    0    0  0.41177625246E+02 -0.23557032622E+02 -0.40889255875E+02  0.62637543477E+02  0.10000000000E+01 0.  0.
    9000005    1    3    3    0    0 -0.41177625246E+02  0.23557032622E+02  0.40467620242E+02  0.62363121273E+02  0.10000000000E+01 0.  0.
<mgrwt>
<rscale>  0 0.12499995E+03</rscale>
<asrwt>0</asrwt>
<pdfrwt beam="2">  1        4 0.96478693E-02 0.12499995E+03</pdfrwt>
<pdfrwt beam="1">  1       -4 0.95830022E-02 0.12499995E+03</pdfrwt>
<totfact> 0.10452859E+04</totfact>
</mgrwt>
</event>
<event>
 5    1  0.3309219E-002  0.1250032E+03  0.7818608E-02  0.1235064E+00
         -4   -1    0    0    0  501 -0.00000000000E+00  0.00000000000E+00  0.45626314060E+01  0.47360854455E+01  0.12700000000E+01 0. -1.
          4   -1    0    0  501    0  0.00000000000E+00 -0.00000000000E+00 -0.84003862286E+03  0.84003958288E+03  0.12700000000E+01 0. -1.
         25    2    1    2    0    0  0.00000000000E+00  0.00000000000E+00 -0.83547599146E+03  0.84477566832E+03  0.12500318992E+03 0.  0.
    9000005    1    3    3    0    0  0.53062263899E+02  0.25946914282E+02 -0.27980073993E+03  0.28596905475E+03  0.10000000000E+01 0.  0.
    9000005    1    3    3    0    0 -0.53062263899E+02 -0.25946914282E+02 -0.55567525152E+03  0.55880661357E+03  0.10000000000E+01 0.  0.
<mgrwt>
<rscale>  0 0.12500319E+03</rscale>
<asrwt>0</asrwt>
<pdfrwt beam="2">  1        4 0.12925001E+00 0.12500319E+03</pdfrwt>
<pdfrwt beam="1">  1       -4 0.71536042E-03 0.12500319E+03</pdfrwt>
<totfact> 0.36339566E+03</totfact>
</mgrwt>
</event>
<event>
 5    1  0.3309219E-002  0.1250018E+03  0.7818608E-02  0.1235067E+00
          4   -1    0    0  501    0  0.00000000000E+00  0.00000000000E+00  0.13621875493E+03  0.13622467505E+03  0.12700000000E+01 0. -1.
         -4   -1    0    0    0  501 -0.00000000000E+00 -0.00000000000E+00 -0.28656507291E+02  0.28684635437E+02  0.12700000000E+01 0. -1.
         25    2    1    2    0    0  0.00000000000E+00  0.00000000000E+00  0.10756224764E+03  0.16490931049E+03  0.12500177427E+03 0.  0.
    9000005    1    3    3    0    0  0.57577066280E+02  0.20299161627E+02  0.71391402822E+02  0.93940975730E+02  0.10000000000E+01 0.  0.
    9000005    1    3    3    0    0 -0.57577066280E+02 -0.20299161627E+02  0.36170844813E+02  0.70968334761E+02  0.10000000000E+01 0.  0.
<mgrwt>
<rscale>  0 0.12500177E+03</rscale>
<asrwt>0</asrwt>
<pdfrwt beam="1">  1        4 0.20959350E-01 0.12500177E+03</pdfrwt>
<pdfrwt beam="2">  1       -4 0.44113126E-02 0.12500177E+03</pdfrwt>
<totfact> 0.96400728E+03</totfact>
</mgrwt>
</event>
<event>
 5    1  0.3309219E-002  0.1250022E+03  0.7818608E-02  0.1235066E+00
          4   -1    0    0  501    0  0.00000000000E+00  0.00000000000E+00  0.21133367486E+02  0.21171493128E+02  0.12700000000E+01 0.  1.
         -4   -1    0    0    0  501 -0.00000000000E+00 -0.00000000000E+00 -0.18463771077E+03  0.18464207846E+03  0.12700000000E+01 0.  1.
         25    2    1    2    0    0  0.00000000000E+00  0.00000000000E+00 -0.16350434328E+03  0.20581357159E+03  0.12500222389E+03 0.  0.
    9000005    1    3    3    0    0  0.54153362919E+02  0.18917069106E+02 -0.40922580219E+02  0.70470559745E+02  0.10000000000E+01 0.  0.
    9000005    1    3    3    0    0 -0.54153362919E+02 -0.18917069106E+02 -0.12258176306E+03  0.13534301184E+03  0.10000000000E+01 0.  0.
<mgrwt>
<rscale>  0 0.12500222E+03</rscale>
<asrwt>0</asrwt>
<pdfrwt beam="1">  1        4 0.32545562E-02 0.12500222E+03</pdfrwt>
<pdfrwt beam="2">  1       -4 0.28409069E-01 0.12500222E+03</pdfrwt>
<totfact> 0.89159742E+03</totfact>
</mgrwt>
</event>
<event>
 5    1  0.3309219E-002  0.1250030E+03  0.7818608E-02  0.1235065E+00
         -4   -1    0    0    0  501 -0.00000000000E+00  0.00000000000E+00  0.11042230597E+04  0.11042237901E+04  0.12700000000E+01 0.  1.
          4   -1    0    0  501    0  0.00000000000E+00 -0.00000000000E+00 -0.34229895925E+01  0.36509940770E+01  0.12700000000E+01 0.  1.
         25    2    1    2    0    0  0.00000000000E+00  0.00000000000E+00  0.11008000701E+04  0.11078747842E+04  0.12500297163E+03 0.  0.
    9000005    1    3    3    0    0  0.61276234639E+02  0.97830710968E+01  0.48470153664E+03  0.48865843391E+03  0.10000000000E+01 0.  0.
    9000005    1    3    3    0    0 -0.61276234639E+02 -0.97830710968E+01  0.61609853351E+03  0.61921635024E+03  0.10000000000E+01 0.  0.
<mgrwt>
<rscale>  0 0.12500297E+03</rscale>
<asrwt>0</asrwt>
<pdfrwt beam="2">  1        4 0.54420865E-03 0.12500297E+03</pdfrwt>
<pdfrwt beam="1">  1       -4 0.16989810E+00 0.12500297E+03</pdfrwt>
<totfact> 0.27252283E+03</totfact>
</mgrwt>
</event>
<event>
 5    1  0.3309219E-002  0.1249977E+03  0.7818608E-02  0.1235073E+00
         -4   -1    0    0    0  501 -0.00000000000E+00  0.00000000000E+00  0.19639919375E+03  0.19640329989E+03  0.12700000000E+01 0. -1.
          4   -1    0    0  501    0  0.00000000000E+00 -0.00000000000E+00 -0.19864026003E+02  0.19904583117E+02  0.12700000000E+01 0. -1.
         25    2    1    2    0    0  0.00000000000E+00  0.00000000000E+00  0.17653516775E+03  0.21630788300E+03  0.12499773917E+03 0.  0.
    9000005    1    3    3    0    0  0.51497077542E+02  0.22803936345E+02  0.13512342119E+03  0.14639435598E+03  0.10000000000E+01 0.  0.
    9000005    1    3    3    0    0 -0.51497077542E+02 -0.22803936345E+02  0.41411746560E+02  0.69913527027E+02  0.10000000000E+01 0.  0.
<mgrwt>
<rscale>  0 0.12499774E+03</rscale>
<asrwt>0</asrwt>
<pdfrwt beam="2">  1        4 0.30594397E-02 0.12499774E+03</pdfrwt>
<pdfrwt beam="1">  1       -4 0.30218696E-01 0.12499774E+03</pdfrwt>
<totfact> 0.87460389E+03</totfact>
</mgrwt>
</event>
<event>
 5    1  0.3309219E-002  0.1250064E+03  0.7818608E-02  0.1235059E+00
         -4   -1    0    0    0  501 -0.00000000000E+00  0.00000000000E+00  0.44595798000E+03  0.44595978835E+03  0.12700000000E+01 0.  1.
          4   -1    0    0  501    0  0.00000000000E+00 -0.00000000000E+00 -0.87122587670E+01  0.88043371598E+01  0.12700000000E+01 0.  1.
         25    2    1    2    0    0  0.00000000000E+00  0.00000000000E+00  0.43724572124E+03  0.45476412551E+03  0.12500635630E+03 0.  0.
    9000005    1    3    3    0    0 -0.50247077601E+02 -0.28933514524E+02  0.13379357058E+03  0.14582056302E+03  0.10000000000E+01 0.  0.
    9000005    1    3    3    0    0  0.50247077601E+02  0.28933514524E+02  0.30345215065E+03  0.30894356249E+03  0.10000000000E+01 0.  0.
<mgrwt>
<rscale>  0 0.12500636E+03</rscale>
<asrwt>0</asrwt>
<pdfrwt beam="2">  1        4 0.13475694E-02 0.12500636E+03</pdfrwt>
<pdfrwt beam="1">  1       -4 0.68616149E-01 0.12500636E+03</pdfrwt>
<totfact> 0.59544948E+03</totfact>
</mgrwt>
</event>
<event>
 5    1  0.3309219E-002  0.1250170E+03  0.7818608E-02  0.1235043E+00
         -4   -1    0    0    0  501 -0.00000000000E+00  0.00000000000E+00  0.33652020967E+01  0.35968715784E+01  0.12700000000E+01 0.  1.
          4   -1    0    0  501    0  0.00000000000E+00 -0.00000000000E+00 -0.11222253616E+04  0.11222260802E+04  0.12700000000E+01 0.  1.
         25    2    1    2    0    0  0.00000000000E+00  0.00000000000E+00 -0.11188601595E+04  0.11258229518E+04  0.12501704790E+03 0.  0.
    9000005    1    3    3    0    0  0.23004813218E+02  0.14975959247E+02 -0.53779991150E+02  0.60388643259E+02  0.10000000000E+01 0.  0.
    9000005    1    3    3    0    0 -0.23004813218E+02 -0.14975959247E+02 -0.10650801684E+04  0.10654343086E+04  0.10000000000E+01 0.  0.
<mgrwt>
<rscale>  0 0.12501705E+03</rscale>
<asrwt>0</asrwt>
<pdfrwt beam="2">  1        4 0.17266764E+00 0.12501705E+03</pdfrwt>
<pdfrwt beam="1">  1       -4 0.53560030E-03 0.12501705E+03</pdfrwt>
<totfact> 0.26729762E+03</totfact>
</mgrwt>
</event>
<event>
 5    1  0.3309219E-002  0.1249981E+03  0.7818608E-02  0.1235072E+00
         -4   -1    0    0    0  501 -0.00000000000E+00  0.00000000000E+00  0.86859546520E+01  0.87783089611E+01  0.12700000000E+01 0.  1.
          4   -1    0    0  501    0  0.00000000000E+00 -0.00000000000E+00 -0.44723496905E+03  0.44723677224E+03  0.12700000000E+01 0.  1.
         25    2    1    2    0    0  0.00000000000E+00  0.00000000000E+00 -0.43854901440E+03  0.45601508120E+03  0.12499806499E+03 0.  0.
    9000005    1    3    3    0    0  0.10135922226E+01  0.57283252221E+02 -0.12823580522E+03  0.14045575850E+03  0.10000000000E+01 0.  0.
    9000005    1    3    3    0    0 -0.10135922226E+01 -0.57283252221E+02 -0.31031320918E+03  0.31555932270E+03  0.10000000000E+01 0.  0.
<mgrwt>
<rscale>  0 0.12499806E+03</rscale>
<asrwt>0</asrwt>
<pdfrwt beam="2">  1        4 0.68812605E-01 0.12499806E+03</pdfrwt>
<pdfrwt beam="1">  1       -4 0.13435440E-02 0.12499806E+03</pdfrwt>
<totfact> 0.59448769E+03</totfact>
</mgrwt>
</event>
<event>
 5    1  0.3309219E-002  0.1249955E+03  0.7818608E-02  0.1235076E+00
          4   -1    0    0  501    0  0.00000000000E+00  0.00000000000E+00  0.17742499509E+02  0.17787894447E+02  0.12700000000E+01 0.  1.
         -4   -1    0    0    0  501 -0.00000000000E+00 -0.00000000000E+00 -0.21981927723E+03  0.21982294589E+03  0.12700000000E+01 0.  1.
         25    2    1    2    0    0  0.00000000000E+00  0.00000000000E+00 -0.20207677772E+03  0.23761084034E+03  0.12499554934E+03 0.  0.
    9000005    1    3    3    0    0  0.22334745367E+01  0.51450621797E+02 -0.33753814348E+02  0.61583072957E+02  0.10000000000E+01 0.  0.
    9000005    1    3    3    0    0 -0.22334745367E+01 -0.51450621797E+02 -0.16832296337E+03  0.17602776738E+03  0.10000000000E+01 0.  0.
<mgrwt>
<rscale>  0 0.12499555E+03</rscale>
<asrwt>0</asrwt>
<pdfrwt beam="1">  1        4 0.27333896E-02 0.12499555E+03</pdfrwt>
<pdfrwt beam="2">  1       -4 0.33822123E-01 0.12499555E+03</pdfrwt>
<totfact> 0.84162835E+03</totfact>
</mgrwt>
</event>
<event>
 5    1  0.3309219E-002  0.1249929E+03  0.7818608E-02  0.1235080E+00
          4   -1    0    0  501    0  0.00000000000E+00  0.00000000000E+00  0.78629275056E+02  0.78639530746E+02  0.12700000000E+01 0. -1.
         -4   -1    0    0    0  501 -0.00000000000E+00 -0.00000000000E+00 -0.49652036413E+02  0.49668275790E+02  0.12700000000E+01 0. -1.
         25    2    1    2    0    0  0.00000000000E+00  0.00000000000E+00  0.28977238644E+02  0.12830780654E+03  0.12499285123E+03 0.  0.
    9000005    1    3    3    0    0 -0.62174294195E+02 -0.53301488256E+01  0.11122965058E+02  0.63393798567E+02  0.10000000000E+01 0.  0.
    9000005    1    3    3    0    0  0.62174294195E+02  0.53301488256E+01  0.17854273586E+02  0.64914007968E+02  0.10000000000E+01 0.  0.
<mgrwt>
<rscale>  0 0.12499285E+03</rscale>
<asrwt>0</asrwt>
<pdfrwt beam="1">  1        4 0.12098849E-01 0.12499285E+03</pdfrwt>
<pdfrwt beam="2">  1       -4 0.76408130E-02 0.12499285E+03</pdfrwt>
<totfact> 0.10382521E+04</totfact>
</mgrwt>
</event>
<event>
 5    1  0.3309219E-002  0.1250010E+03  0.7818608E-02  0.1235068E+00
         -4   -1    0    0    0  501 -0.00000000000E+00  0.00000000000E+00  0.14820042953E+03  0.14820587105E+03  0.12700000000E+01 0. -1.
          4   -1    0    0  501    0  0.00000000000E+00 -0.00000000000E+00 -0.26337092036E+02  0.26367694570E+02  0.12700000000E+01 0. -1.
         25    2    1    2    0    0  0.00000000000E+00  0.00000000000E+00  0.12186333750E+03  0.17457356562E+03  0.12500102715E+03 0.  0.
    9000005    1    3    3    0    0 -0.54956749831E+02 -0.23841829149E+02  0.85782776407E+02  0.10463442023E+03  0.10000000000E+01 0.  0.
    9000005    1    3    3    0    0  0.54956749831E+02  0.23841829149E+02  0.36080561090E+02  0.69939145389E+02  0.10000000000E+01 0.  0.
<mgrwt>
<rscale>  0 0.12500103E+03</rscale>
<asrwt>0</asrwt>
<pdfrwt beam="2">  1        4 0.40546330E-02 0.12500103E+03</pdfrwt>
<pdfrwt beam="1">  1       -4 0.22802838E-01 0.12500103E+03</pdfrwt>
<totfact> 0.94600819E+03</totfact>
</mgrwt>
</event>
<event>
 5    1  0.3309219E-002  0.1249995E+03  0.7818608E-02  0.1235070E+00
          4   -1    0    0  501    0  0.00000000000E+00  0.00000000000E+00  0.18260312401E+02  0.18304423208E+02  0.12700000000E+01 0. -1.
         -4   -1    0    0    0  501 -0.00000000000E+00 -0.00000000000E+00 -0.21361435715E+03  0.21361813238E+03  0.12700000000E+01 0. -1.
         25    2    1    2    0    0  0.00000000000E+00  0.00000000000E+00 -0.19535404475E+03  0.23192255559E+03  0.12499947596E+03 0.  0.
    9000005    1    3    3    0    0 -0.20281169810E+02 -0.58328535763E+02 -0.11544165630E+03  0.13092486373E+03  0.10000000000E+01 0.  0.
    9000005    1    3    3    0    0  0.20281169810E+02  0.58328535763E+02 -0.79912388451E+02  0.10099769186E+03  0.10000000000E+01 0.  0.
<mgrwt>
<rscale>  0 0.12499948E+03</rscale>
<asrwt>0</asrwt>
<pdfrwt beam="1">  1        4 0.28129625E-02 0.12499948E+03</pdfrwt>
<pdfrwt beam="2">  1       -4 0.32867429E-01 0.12499948E+03</pdfrwt>
<totfact> 0.85016253E+03</totfact>
</mgrwt>
</event>
<event>
 5    1  0.3309219E-002  0.1249999E+03  0.7818608E-02  0.1235069E+00
          4   -1    0    0  501    0  0.00000000000E+00  0.00000000000E+00  0.17555756621E+02  0.17601633178E+02  0.12700000000E+01 0.  1.
         -4   -1    0    0    0  501 -0.00000000000E+00 -0.00000000000E+00 -0.22216686269E+03  0.22217049258E+03  0.12700000000E+01 0.  1.
         25    2    1    2    0    0  0.00000000000E+00  0.00000000000E+00 -0.20461110606E+03  0.23977212576E+03  0.12499987027E+03 0.  0.
    9000005    1    3    3    0    0  0.18279268143E+02 -0.82825679351E+01  0.11216119480E+02  0.23011603847E+02  0.10000000000E+01 0.  0.
    9000005    1    3    3    0    0 -0.18279268143E+02  0.82825679351E+01 -0.21582722554E+03  0.21676052192E+03  0.10000000000E+01 0.  0.
<mgrwt>
<rscale>  0 0.12499987E+03</rscale>
<asrwt>0</asrwt>
<pdfrwt beam="1">  1        4 0.27046940E-02 0.12499987E+03</pdfrwt>
<pdfrwt beam="2">  1       -4 0.34183324E-01 0.12499987E+03</pdfrwt>
<totfact> 0.83831560E+03</totfact>
</mgrwt>
</event>
<event>
 5    1  0.3309219E-002  0.1250020E+03  0.7818608E-02  0.1235066E+00
          4   -1    0    0  501    0  0.00000000000E+00  0.00000000000E+00  0.94476289447E+01  0.95326068144E+01  0.12700000000E+01 0. -1.
         -4   -1    0    0    0  501 -0.00000000000E+00 -0.00000000000E+00 -0.41153980475E+03  0.41154176434E+03  0.12700000000E+01 0. -1.
         25    2    1    2    0    0  0.00000000000E+00  0.00000000000E+00 -0.40209217581E+03  0.42107437116E+03  0.12500203277E+03 0.  0.
    9000005    1    3    3    0    0  0.52359168264E+02 -0.28722712663E+02 -0.26305837171E+03  0.26975393167E+03  0.10000000000E+01 0.  0.
    9000005    1    3    3    0    0 -0.52359168264E+02  0.28722712663E+02 -0.13903380410E+03  0.15132043948E+03  0.10000000000E+01 0.  0.
<mgrwt>
<rscale>  0 0.12500203E+03</rscale>
<asrwt>0</asrwt>
<pdfrwt beam="1">  1        4 0.14601692E-02 0.12500203E+03</pdfrwt>
<pdfrwt beam="2">  1       -4 0.63320490E-01 0.12500203E+03</pdfrwt>
<totfact> 0.62550664E+03</totfact>
</mgrwt>
</event>
<event>
 5    1  0.3309219E-002  0.1250012E+03  0.7818608E-02  0.1235067E+00
         -4   -1    0    0    0  501 -0.00000000000E+00  0.00000000000E+00  0.64509279925E+01  0.65747526162E+01  0.12700000000E+01 0. -1.
          4   -1    0    0  501    0  0.00000000000E+00 -0.00000000000E+00 -0.59966356819E+03  0.59966491302E+03  0.12700000000E+01 0. -1.
         25    2    1    2    0    0  0.00000000000E+00  0.00000000000E+00 -0.59321264020E+03  0.60623966564E+03  0.12500118283E+03 0.  0.
    9000005    1    3    3    0    0  0.51969639774E+02  0.25778251150E+02 -0.18390943316E+03  0.19284460401E+03  0.10000000000E+01 0.  0.
    9000005    1    3    3    0    0 -0.51969639774E+02 -0.25778251150E+02 -0.40930320704E+03  0.41339506163E+03  0.10000000000E+01 0.  0.
<mgrwt>
<rscale>  0 0.12500118E+03</rscale>
<asrwt>0</asrwt>
<pdfrwt beam="2">  1        4 0.92265519E-01 0.12500118E+03</pdfrwt>
<pdfrwt beam="1">  1       -4 0.10020794E-02 0.12500118E+03</pdfrwt>
<totfact> 0.48474859E+03</totfact>
</mgrwt>
</event>
<event>
 5    1  0.3309219E-002  0.1249961E+03  0.7818608E-02  0.1235075E+00
          4   -1    0    0  501    0  0.00000000000E+00  0.00000000000E+00  0.63970879210E+03  0.63971005275E+03  0.12700000000E+01 0.  1.
         -4   -1    0    0    0  501 -0.00000000000E+00 -0.00000000000E+00 -0.60385932636E+01  0.61706975783E+01  0.12700000000E+01 0.  1.
         25    2    1    2    0    0  0.00000000000E+00  0.00000000000E+00  0.63367019883E+03  0.64588075033E+03  0.12499609095E+03 0.  0.
    9000005    1    3    3    0    0  0.16980197900E+02  0.55503423714E+02  0.43647001893E+03  0.44031356394E+03  0.10000000000E+01 0.  0.
    9000005    1    3    3    0    0 -0.16980197900E+02 -0.55503423714E+02  0.19720017990E+03  0.20556718638E+03  0.10000000000E+01 0.  0.
<mgrwt>
<rscale>  0 0.12499609E+03</rscale>
<asrwt>0</asrwt>
<pdfrwt beam="1">  1        4 0.98426913E-01 0.12499609E+03</pdfrwt>
<pdfrwt beam="2">  1       -4 0.93927399E-03 0.12499609E+03</pdfrwt>
<totfact> 0.46097751E+03</totfact>
</mgrwt>
</event>
<event>
 5    1  0.3309219E-002  0.1249942E+03  0.7818608E-02  0.1235078E+00
         -4   -1    0    0    0  501 -0.00000000000E+00  0.00000000000E+00  0.11196960126E+02  0.11268753971E+02  0.12700000000E+01 0. -1.
          4   -1    0    0  501    0  0.00000000000E+00 -0.00000000000E+00 -0.34764704341E+03  0.34764936314E+03  0.12700000000E+01 0. -1.
         25    2    1    2    0    0  0.00000000000E+00  0.00000000000E+00 -0.33645008328E+03  0.35891811711E+03  0.12499422486E+03 0.  0.
    9000005    1    3    3    0    0  0.60275949574E+02  0.16468841469E+02 -0.16624346044E+03  0.17760152301E+03  0.10000000000E+01 0.  0.
    9000005    1    3    3    0    0 -0.60275949574E+02 -0.16468841469E+02 -0.17020662284E+03  0.18131659410E+03  0.10000000000E+01 0.  0.
<mgrwt>
<rscale>  0 0.12499422E+03</rscale>
<asrwt>0</asrwt>
<pdfrwt beam="2">  1        4 0.53489853E-01 0.12499422E+03</pdfrwt>
<pdfrwt beam="1">  1       -4 0.17283106E-02 0.12499422E+03</pdfrwt>
<totfact> 0.68763257E+03</totfact>
</mgrwt>
</event>
<event>
 5    1  0.3309219E-002  0.1250022E+03  0.7818608E-02  0.1235066E+00
          4   -1    0    0  501    0  0.00000000000E+00  0.00000000000E+00  0.84042020114E+03  0.84042116072E+03  0.12700000000E+01 0.  1.
         -4   -1    0    0    0  501 -0.00000000000E+00 -0.00000000000E+00 -0.45604044897E+01  0.47339401253E+01  0.12700000000E+01 0.  1.
         25    2    1    2    0    0  0.00000000000E+00  0.00000000000E+00  0.83585979665E+03  0.84515510084E+03  0.12500217929E+03 0.  0.
    9000005    1    3    3    0    0 -0.15428258044E+02 -0.25678968813E+02  0.47117861936E+02  0.55843831343E+02  0.10000000000E+01 0.  0.
    9000005    1    3    3    0    0  0.15428258044E+02  0.25678968813E+02  0.78874193471E+03  0.78931126950E+03  0.10000000000E+01 0.  0.
<mgrwt>
<rscale>  0 0.12500218E+03</rscale>
<asrwt>0</asrwt>
<pdfrwt beam="1">  1        4 0.12930866E+00 0.12500218E+03</pdfrwt>
<pdfrwt beam="2">  1       -4 0.71502438E-03 0.12500218E+03</pdfrwt>
<totfact> 0.36324723E+03</totfact>
</mgrwt>
</event>
<event>
 5    1  0.3309219E-002  0.1250004E+03  0.7818608E-02  0.1235069E+00
         -4   -1    0    0    0  501 -0.00000000000E+00  0.00000000000E+00  0.70655000453E+02  0.70666413444E+02  0.12700000000E+01 0. -1.
          4   -1    0    0  501    0  0.00000000000E+00 -0.00000000000E+00 -0.55263401586E+02  0.55277992500E+02  0.12700000000E+01 0. -1.
         25    2    1    2    0    0  0.00000000000E+00  0.00000000000E+00  0.15391598867E+02  0.12594440594E+03  0.12500036829E+03 0.  0.
    9000005    1    3    3    0    0  0.40054412268E+01  0.34174602813E+02 -0.44864505202E+02  0.56548836096E+02  0.10000000000E+01 0.  0.
    9000005    1    3    3    0    0 -0.40054412268E+01 -0.34174602813E+02  0.60256104069E+02  0.69395569847E+02  0.10000000000E+01 0.  0.
<mgrwt>
<rscale>  0 0.12500037E+03</rscale>
<asrwt>0</asrwt>
<pdfrwt beam="2">  1        4 0.85040621E-02 0.12500037E+03</pdfrwt>
<pdfrwt beam="1">  1       -4 0.10872000E-01 0.12500037E+03</pdfrwt>
<totfact> 0.10432089E+04</totfact>
</mgrwt>
</event>
<event>
 5    1  0.3309219E-002  0.1250025E+03  0.7818608E-02  0.1235065E+00
         -4   -1    0    0    0  501 -0.00000000000E+00  0.00000000000E+00  0.20113476509E+02  0.20153531633E+02  0.12700000000E+01 0. -1.
          4   -1    0    0  501    0  0.00000000000E+00 -0.00000000000E+00 -0.19398310152E+03  0.19398725880E+03  0.12700000000E+01 0. -1.
         25    2    1    2    0    0  0.00000000000E+00  0.00000000000E+00 -0.17386962502E+03  0.21414079043E+03  0.12500252647E+03 0.  0.
    9000005    1    3    3    0    0  0.53679480906E+02 -0.31531208019E+02 -0.96271422624E+02  0.11465116905E+03  0.10000000000E+01 0.  0.
    9000005    1    3    3    0    0 -0.53679480906E+02  0.31531208019E+02 -0.77598202392E+02  0.99489621388E+02  0.10000000000E+01 0.  0.
<mgrwt>
<rscale>  0 0.12500253E+03</rscale>
<asrwt>0</asrwt>
<pdfrwt beam="2">  1        4 0.29846954E-01 0.12500253E+03</pdfrwt>
<pdfrwt beam="1">  1       -4 0.30977821E-02 0.12500253E+03</pdfrwt>
<totfact> 0.87799112E+03</totfact>
</mgrwt>
</event>
<event>
 5    1  0.3309219E-002  0.1250013E+03  0.7818608E-02  0.1235067E+00
          4   -1    0    0  501    0  0.00000000000E+00  0.00000000000E+00  0.41462836438E+03  0.41463030937E+03  0.12700000000E+01 0. -1.
         -4   -1    0    0    0  501 -0.00000000000E+00 -0.00000000000E+00 -0.93765143222E+01  0.94621308823E+01  0.12700000000E+01 0. -1.
         25    2    1    2    0    0  0.00000000000E+00  0.00000000000E+00  0.40525185006E+03  0.42409244025E+03  0.12500134361E+03 0.  0.
    9000005    1    3    3    0    0 -0.23390857229E+02  0.51431150525E+02  0.29322053274E+03  0.29861610182E+03  0.10000000000E+01 0.  0.
    9000005    1    3    3    0    0  0.23390857229E+02 -0.51431150525E+02  0.11203131732E+03  0.12547633843E+03  0.10000000000E+01 0.  0.
<mgrwt>
<rscale>  0 0.12500134E+03</rscale>
<asrwt>0</asrwt>
<pdfrwt beam="1">  1        4 0.63795718E-01 0.12500134E+03</pdfrwt>
<pdfrwt beam="2">  1       -4 0.14492761E-02 0.12500134E+03</pdfrwt>
<totfact> 0.62273301E+03</totfact>
</mgrwt>
</event>
<event>
 5    1  0.3309219E-002  0.1249981E+03  0.7818608E-02  0.1235072E+00
         -4   -1    0    0    0  501 -0.00000000000E+00  0.00000000000E+00  0.81562912077E+02  0.81572798938E+02  0.12700000000E+01 0. -1.
          4   -1    0    0  501    0  0.00000000000E+00 -0.00000000000E+00 -0.47869776483E+02  0.47886620266E+02  0.12700000000E+01 0. -1.
         25    2    1    2    0    0  0.00000000000E+00  0.00000000000E+00  0.33693135594E+02  0.12945941920E+03  0.12499805532E+03 0.  0.
    9000005    1    3    3    0    0 -0.11946738127E+00 -0.33840976636E+02  0.71256384985E+02  0.78890420035E+02  0.10000000000E+01 0.  0.
    9000005    1    3    3    0    0  0.11946738127E+00  0.33840976636E+02 -0.37563249391E+02  0.50568999169E+02  0.10000000000E+01 0.  0.
<mgrwt>
<rscale>  0 0.12499806E+03</rscale>
<asrwt>0</asrwt>
<pdfrwt beam="2">  1        4 0.73666372E-02 0.12499806E+03</pdfrwt>
<pdfrwt beam="1">  1       -4 0.12550196E-01 0.12499806E+03</pdfrwt>
<totfact> 0.10356540E+04</totfact>
</mgrwt>
</event>
<event>
 5    1  0.3309219E-002  0.1250031E+03  0.7818608E-02  0.1235064E+00
         -4   -1    0    0    0  501 -0.00000000000E+00  0.00000000000E+00  0.35131316936E+01  0.37356384055E+01  0.12700000000E+01 0. -1.
          4   -1    0    0  501    0  0.00000000000E+00 -0.00000000000E+00 -0.10775990752E+04  0.10775998236E+04  0.12700000000E+01 0. -1.
         25    2    1    2    0    0  0.00000000000E+00  0.00000000000E+00 -0.10740859435E+04  0.10813354620E+04  0.12500306917E+03 0.  0.
    9000005    1    3    3    0    0 -0.25391516790E+02  0.50084643428E+02 -0.29978635918E+03  0.30500174062E+03  0.10000000000E+01 0.  0.
    9000005    1    3    3    0    0  0.25391516790E+02 -0.50084643428E+02 -0.77429958437E+03  0.77633372140E+03  0.10000000000E+01 0.  0.
<mgrwt>
<rscale>  0 0.12500307E+03</rscale>
<asrwt>0</asrwt>
<pdfrwt beam="2">  1        4 0.16580139E+00 0.12500307E+03</pdfrwt>
<pdfrwt beam="1">  1       -4 0.55765613E-03 0.12500307E+03</pdfrwt>
<totfact> 0.28034340E+03</totfact>
</mgrwt>
</event>
<event>
 5    1  0.3309219E-002  0.1249951E+03  0.7818608E-02  0.1235077E+00
         -4   -1    0    0    0  501 -0.00000000000E+00  0.00000000000E+00  0.13372394788E+03  0.13372997845E+03  0.12700000000E+01 0.  1.
          4   -1    0    0  501    0  0.00000000000E+00 -0.00000000000E+00 -0.29188494708E+02  0.29216110681E+02  0.12700000000E+01 0.  1.
         25    2    1    2    0    0  0.00000000000E+00  0.00000000000E+00  0.10453545317E+03  0.16294608913E+03  0.12499506788E+03 0.  0.
    9000005    1    3    3    0    0  0.34865949322E+02  0.99268695567E+01  0.11862141067E+03  0.12404118764E+03  0.10000000000E+01 0.  0.
    9000005    1    3    3    0    0 -0.34865949322E+02 -0.99268695567E+01 -0.14085957501E+02  0.38904901491E+02  0.10000000000E+01 0.  0.
<mgrwt>
<rscale>  0 0.12499507E+03</rscale>
<asrwt>0</asrwt>
<pdfrwt beam="2">  1        4 0.44931259E-02 0.12499507E+03</pdfrwt>
<pdfrwt beam="1">  1       -4 0.20575503E-01 0.12499507E+03</pdfrwt>
<totfact> 0.96788516E+03</totfact>
</mgrwt>
</event>
<event>
 5    1  0.3309219E-002  0.1249972E+03  0.7818608E-02  0.1235074E+00
         -4   -1    0    0    0  501 -0.00000000000E+00  0.00000000000E+00  0.13266679547E+03  0.13267287410E+03  0.12700000000E+01 0.  1.
          4   -1    0    0  501    0  0.00000000000E+00 -0.00000000000E+00 -0.29422286574E+02  0.29449683314E+02  0.12700000000E+01 0.  1.
         25    2    1    2    0    0  0.00000000000E+00  0.00000000000E+00  0.10324450890E+03  0.16212255741E+03  0.12499717998E+03 0.  0.
    9000005    1    3    3    0    0  0.21452128482E+02  0.81915120014E+01  0.12700272613E+03  0.12906582479E+03  0.10000000000E+01 0.  0.
    9000005    1    3    3    0    0 -0.21452128482E+02 -0.81915120014E+01 -0.23758217231E+02  0.33056732617E+02  0.10000000000E+01 0.  0.
<mgrwt>
<rscale>  0 0.12499718E+03</rscale>
<asrwt>0</asrwt>
<pdfrwt beam="2">  1        4 0.45290806E-02 0.12499718E+03</pdfrwt>
<pdfrwt beam="1">  1       -4 0.20412851E-01 0.12499718E+03</pdfrwt>
<totfact> 0.96941270E+03</totfact>
</mgrwt>
</event>
<event>
 5    1  0.3309219E-002  0.1250038E+03  0.7818608E-02  0.1235063E+00
          4   -1    0    0  501    0  0.00000000000E+00  0.00000000000E+00  0.18530843414E+03  0.18531278602E+03  0.12700000000E+01 0.  1.
         -4   -1    0    0    0  501 -0.00000000000E+00 -0.00000000000E+00 -0.21057268582E+02  0.21095531757E+02  0.12700000000E+01 0.  1.
         25    2    1    2    0    0  0.00000000000E+00  0.00000000000E+00  0.16425116555E+03  0.20640831778E+03  0.12500379299E+03 0.  0.
    9000005    1    3    3    0    0 -0.23590005698E+02 -0.57745945765E+02  0.75858690146E+02  0.98217226045E+02  0.10000000000E+01 0.  0.
    9000005    1    3    3    0    0  0.23590005698E+02  0.57745945765E+02  0.88392475408E+02  0.10819109173E+03  0.10000000000E+01 0.  0.
<mgrwt>
<rscale>  0 0.12500379E+03</rscale>
<asrwt>0</asrwt>
<pdfrwt beam="1">  1        4 0.28512268E-01 0.12500379E+03</pdfrwt>
<pdfrwt beam="2">  1       -4 0.32428579E-02 0.12500379E+03</pdfrwt>
<totfact> 0.89058274E+03</totfact>
</mgrwt>
</event>
<event>
 5    1  0.3309219E-002  0.1250055E+03  0.7818608E-02  0.1235061E+00
         -4   -1    0    0    0  501 -0.00000000000E+00  0.00000000000E+00  0.20860006504E+03  0.20860393102E+03  0.12700000000E+01 0.  1.
          4   -1    0    0  501    0  0.00000000000E+00 -0.00000000000E+00 -0.18702093670E+02  0.18745164913E+02  0.12700000000E+01 0.  1.
         25    2    1    2    0    0  0.00000000000E+00  0.00000000000E+00  0.18989797137E+03  0.22734909593E+03  0.12500548744E+03 0.  0.
    9000005    1    3    3    0    0  0.21382688453E+02  0.28892833352E+02  0.19706284084E+01  0.36012477850E+02  0.10000000000E+01 0.  0.
    9000005    1    3    3    0    0 -0.21382688453E+02 -0.28892833352E+02  0.18792734297E+03  0.19133661808E+03  0.10000000000E+01 0.  0.
<mgrwt>
<rscale>  0 0.12500549E+03</rscale>
<asrwt>0</asrwt>
<pdfrwt beam="2">  1        4 0.28808558E-02 0.12500549E+03</pdfrwt>
<pdfrwt beam="1">  1       -4 0.32095928E-01 0.12500549E+03</pdfrwt>
<totfact> 0.85707818E+03</totfact>
</mgrwt>
</event>
<event>
 5    1  0.3309219E-002  0.1249990E+03  0.7818608E-02  0.1235071E+00
          4   -1    0    0  501    0  0.00000000000E+00  0.00000000000E+00  0.98694485223E+02  0.98702656060E+02  0.12700000000E+01 0. -1.
         -4   -1    0    0    0  501 -0.00000000000E+00 -0.00000000000E+00 -0.39558568920E+02  0.39578949898E+02  0.12700000000E+01 0. -1.
         25    2    1    2    0    0  0.00000000000E+00  0.00000000000E+00  0.59135916303E+02  0.13828160596E+03  0.12499898379E+03 0.  0.
    9000005    1    3    3    0    0 -0.60591032470E+02 -0.14027005815E+02  0.22824624838E+02  0.66257026849E+02  0.10000000000E+01 0.  0.
    9000005    1    3    3    0    0  0.60591032470E+02  0.14027005815E+02  0.36311291465E+02  0.72024579108E+02  0.10000000000E+01 0.  0.
<mgrwt>
<rscale>  0 0.12499898E+03</rscale>
<asrwt>0</asrwt>
<pdfrwt beam="1">  1        4 0.15185963E-01 0.12499898E+03</pdfrwt>
<pdfrwt beam="2">  1       -4 0.60881300E-02 0.12499898E+03</pdfrwt>
<totfact> 0.10169558E+04</totfact>
</mgrwt>
</event>
<event>
 5    1  0.3309219E-002  0.1249984E+03  0.7818608E-02  0.1235072E+00
          4   -1    0    0  501    0  0.00000000000E+00  0.00000000000E+00  0.32978803206E+02  0.33003247732E+02  0.12700000000E+01 0.  1.
         -4   -1    0    0    0  501 -0.00000000000E+00 -0.00000000000E+00 -0.11837254106E+03  0.11837935368E+03  0.12700000000E+01 0.  1.
         25    2    1    2    0    0  0.00000000000E+00  0.00000000000E+00 -0.85393737857E+02  0.15138260141E+03  0.12499840617E+03 0.  0.
    9000005    1    3    3    0    0 -0.39509761604E+02  0.48322954941E+02 -0.39059373629E+02  0.73639418144E+02  0.10000000000E+01 0.  0.
    9000005    1    3    3    0    0  0.39509761604E+02 -0.48322954941E+02 -0.46334364228E+02  0.77743183268E+02  0.10000000000E+01 0.  0.
<mgrwt>
<rscale>  0 0.12499841E+03</rscale>
<asrwt>0</asrwt>
<pdfrwt beam="1">  1        4 0.50760665E-02 0.12499841E+03</pdfrwt>
<pdfrwt beam="2">  1       -4 0.18213564E-01 0.12499841E+03</pdfrwt>
<totfact> 0.99032360E+03</totfact>
</mgrwt>
</event>
<event>
 5    1  0.3309219E-002  0.1250034E+03  0.7818608E-02  0.1235064E+00
          4   -1    0    0  501    0  0.00000000000E+00  0.00000000000E+00  0.39737347077E+01  0.41717463402E+01  0.12700000000E+01 0.  1.
         -4   -1    0    0    0  501 -0.00000000000E+00 -0.00000000000E+00 -0.95897442188E+03  0.95897526283E+03  0.12700000000E+01 0.  1.
         25    2    1    2    0    0  0.00000000000E+00  0.00000000000E+00 -0.95500068717E+03  0.96314700917E+03  0.12500339505E+03 0.  0.
    9000005    1    3    3    0    0  0.19950102986E+02 -0.65388645710E+01 -0.23972957503E+02  0.31882064715E+02  0.10000000000E+01 0.  0.
    9000005    1    3    3    0    0 -0.19950102986E+02  0.65388645710E+01 -0.93102772967E+03  0.93126494445E+03  0.10000000000E+01 0.  0.
<mgrwt>
<rscale>  0 0.12500340E+03</rscale>
<asrwt>0</asrwt>
<pdfrwt beam="1">  1        4 0.62664092E-03 0.12500340E+03</pdfrwt>
<pdfrwt beam="2">  1       -4 0.14754964E+00 0.12500340E+03</pdfrwt>
<totfact> 0.31851431E+03</totfact>
</mgrwt>
</event>
<event>
 5    1  0.3309219E-002  0.1250003E+03  0.7818608E-02  0.1235069E+00
          4   -1    0    0  501    0  0.00000000000E+00  0.00000000000E+00  0.12600705198E+02  0.12664543873E+02  0.12700000000E+01 0. -1.
         -4   -1    0    0    0  501 -0.00000000000E+00 -0.00000000000E+00 -0.30915534446E+03  0.30915795301E+03  0.12700000000E+01 0. -1.
         25    2    1    2    0    0  0.00000000000E+00  0.00000000000E+00 -0.29655463926E+03  0.32182249688E+03  0.12500026172E+03 0.  0.
    9000005    1    3    3    0    0 -0.82490884647E+01  0.51710287153E+02 -0.23608749146E+03  0.24182701438E+03  0.10000000000E+01 0.  0.
    9000005    1    3    3    0    0  0.82490884647E+01 -0.51710287153E+02 -0.60467147800E+02  0.79995482504E+02  0.10000000000E+01 0.  0.
<mgrwt>
<rscale>  0 0.12500026E+03</rscale>
<asrwt>0</asrwt>
<pdfrwt beam="1">  1        4 0.19436816E-02 0.12500026E+03</pdfrwt>
<pdfrwt beam="2">  1       -4 0.47567466E-01 0.12500026E+03</pdfrwt>
<totfact> 0.72939466E+03</totfact>
</mgrwt>
</event>
<event>
 5    1  0.3309219E-002  0.1249978E+03  0.7818608E-02  0.1235073E+00
         -4   -1    0    0    0  501 -0.00000000000E+00  0.00000000000E+00  0.10485217367E+04  0.10485225059E+04  0.12700000000E+01 0.  1.
          4   -1    0    0  501    0  0.00000000000E+00 -0.00000000000E+00 -0.36163223810E+01  0.38328432740E+01  0.12700000000E+01 0.  1.
         25    2    1    2    0    0  0.00000000000E+00  0.00000000000E+00  0.10449054143E+04  0.10523553491E+04  0.12499782364E+03 0.  0.
    9000005    1    3    3    0    0  0.28110238371E+02 -0.20431802681E+01  0.52890875555E+02  0.59940010042E+02  0.10000000000E+01 0.  0.
    9000005    1    3    3    0    0 -0.28110238371E+02  0.20431802681E+01  0.99201453879E+03  0.99241533909E+03  0.10000000000E+01 0.  0.
<mgrwt>
<rscale>  0 0.12499782E+03</rscale>
<asrwt>0</asrwt>
<pdfrwt beam="2">  1        4 0.57307130E-03 0.12499782E+03</pdfrwt>
<pdfrwt beam="1">  1       -4 0.16132792E+00 0.12499782E+03</pdfrwt>
<totfact> 0.28922676E+03</totfact>
</mgrwt>
</event>
<event>
 5    1  0.3309219E-002  0.1249992E+03  0.7818608E-02  0.1235071E+00
          4   -1    0    0  501    0  0.00000000000E+00  0.00000000000E+00  0.74690191730E+01  0.75762225024E+01  0.12700000000E+01 0. -1.
         -4   -1    0    0    0  501 -0.00000000000E+00 -0.00000000000E+00 -0.51915243430E+03  0.51915398770E+03  0.12700000000E+01 0. -1.
         25    2    1    2    0    0  0.00000000000E+00  0.00000000000E+00 -0.51168341513E+03  0.52673021020E+03  0.12499918807E+03 0.  0.
    9000005    1    3    3    0    0 -0.72119954773E+01  0.51292379769E+02 -0.40316318322E+03  0.40647813398E+03  0.10000000000E+01 0.  0.
    9000005    1    3    3    0    0  0.72119954773E+01 -0.51292379769E+02 -0.10852023191E+03  0.12025207622E+03  0.10000000000E+01 0.  0.
<mgrwt>
<rscale>  0 0.12499919E+03</rscale>
<asrwt>0</asrwt>
<pdfrwt beam="1">  1        4 0.11574462E-02 0.12499919E+03</pdfrwt>
<pdfrwt beam="2">  1       -4 0.79877943E-01 0.12499919E+03</pdfrwt>
<totfact> 0.53849453E+03</totfact>
</mgrwt>
</event>
<event>
 5    1  0.3309219E-002  0.1250012E+03  0.7818608E-02  0.1235067E+00
          4   -1    0    0  501    0  0.00000000000E+00  0.00000000000E+00  0.15655889607E+03  0.15656404708E+03  0.12700000000E+01 0.  1.
         -4   -1    0    0    0  501 -0.00000000000E+00 -0.00000000000E+00 -0.24929439751E+02  0.24961768092E+02  0.12700000000E+01 0.  1.
         25    2    1    2    0    0  0.00000000000E+00  0.00000000000E+00  0.13162945632E+03  0.18152581517E+03  0.12500123121E+03 0.  0.
    9000005    1    3    3    0    0 -0.57921087442E+02  0.10424286690E+02  0.35290738379E+02  0.68629107082E+02  0.10000000000E+01 0.  0.
    9000005    1    3    3    0    0  0.57921087442E+02 -0.10424286690E+02  0.96338717939E+02  0.11289670809E+03  0.10000000000E+01 0.  0.
<mgrwt>
<rscale>  0 0.12500123E+03</rscale>
<asrwt>0</asrwt>
<pdfrwt beam="1">  1        4 0.24088867E-01 0.12500123E+03</pdfrwt>
<pdfrwt beam="2">  1       -4 0.38381815E-02 0.12500123E+03</pdfrwt>
<totfact> 0.93340494E+03</totfact>
</mgrwt>
</event>
<event>
 5    1  0.3309219E-002  0.1249904E+03  0.7818608E-02  0.1235084E+00
          4   -1    0    0  501    0  0.00000000000E+00  0.00000000000E+00  0.17794231525E+03  0.17794684728E+03  0.12700000000E+01 0. -1.
         -4   -1    0    0    0  501 -0.00000000000E+00 -0.00000000000E+00 -0.21925783823E+02  0.21962533922E+02  0.12700000000E+01 0. -1.
         25    2    1    2    0    0  0.00000000000E+00  0.00000000000E+00  0.15601653142E+03  0.19990938120E+03  0.12499041009E+03 0.  0.
    9000005    1    3    3    0    0 -0.18230474910E+02  0.28890896554E+02  0.16169233483E+03  0.16526477320E+03  0.10000000000E+01 0.  0.
    9000005    1    3    3    0    0  0.18230474910E+02 -0.28890896554E+02 -0.56758034021E+01  0.34644607999E+02  0.10000000000E+01 0.  0.
<mgrwt>
<rscale>  0 0.12499041E+03</rscale>
<asrwt>0</asrwt>
<pdfrwt beam="1">  1        4 0.27378917E-01 0.12499041E+03</pdfrwt>
<pdfrwt beam="2">  1       -4 0.33763730E-02 0.12499041E+03</pdfrwt>
<totfact> 0.90170140E+03</totfact>
</mgrwt>
</event>
<event>
 5    1  0.3309219E-002  0.1250033E+03  0.7818608E-02  0.1235064E+00
         -4   -1    0    0    0  501 -0.00000000000E+00  0.00000000000E+00  0.25596836956E+02  0.25628323436E+02  0.12700000000E+01 0. -1.
          4   -1    0    0  501    0  0.00000000000E+00 -0.00000000000E+00 -0.15248690691E+03  0.15249219547E+03  0.12700000000E+01 0. -1.
         25    2    1    2    0    0  0.00000000000E+00  0.00000000000E+00 -0.12689006995E+03  0.17812051890E+03  0.12500331756E+03 0.  0.
    9000005    1    3    3    0    0  0.33176714354E+02 -0.38074914351E+01 -0.13871387355E+03  0.14268051753E+03  0.10000000000E+01 0.  0.
    9000005    1    3    3    0    0 -0.33176714354E+02  0.38074914351E+01  0.11823803595E+02  0.35440001380E+02  0.10000000000E+01 0.  0.
<mgrwt>
<rscale>  0 0.12500332E+03</rscale>
<asrwt>0</asrwt>
<pdfrwt beam="2">  1        4 0.23462353E-01 0.12500332E+03</pdfrwt>
<pdfrwt beam="1">  1       -4 0.39408038E-02 0.12500332E+03</pdfrwt>
<totfact> 0.93949424E+03</totfact>
</mgrwt>
</event>
<event>
 5    1  0.3309219E-002  0.1249977E+03  0.7818608E-02  0.1235073E+00
          4   -1    0    0  501    0  0.00000000000E+00  0.00000000000E+00  0.23603913283E+03  0.23604254940E+03  0.12700000000E+01 0. -1.
         -4   -1    0    0    0  501 -0.00000000000E+00 -0.00000000000E+00 -0.16520649468E+02  0.16569392229E+02  0.12700000000E+01 0. -1.
         25    2    1    2    0    0  0.00000000000E+00  0.00000000000E+00  0.21951848336E+03  0.25261194163E+03  0.12499771404E+03 0.  0.
    9000005    1    3    3    0    0 -0.22814126929E+02  0.36676713390E+02  0.20102490732E+03  0.20561536678E+03  0.10000000000E+01 0.  0.
    9000005    1    3    3    0    0  0.22814126929E+02 -0.36676713390E+02  0.18493576037E+02  0.46996574846E+02  0.10000000000E+01 0.  0.
<mgrwt>
<rscale>  0 0.12499771E+03</rscale>
<asrwt>0</asrwt>
<pdfrwt beam="1">  1        4 0.36317725E-01 0.12499771E+03</pdfrwt>
<pdfrwt beam="2">  1       -4 0.25456506E-02 0.12499771E+03</pdfrwt>
<totfact> 0.81958352E+03</totfact>
</mgrwt>
</event>
<event>
 5    1  0.3309219E-002  0.1250158E+03  0.7818608E-02  0.1235045E+00
         -4   -1    0    0    0  501 -0.00000000000E+00  0.00000000000E+00  0.13002675952E+03  0.13003296156E+03  0.12700000000E+01 0. -1.
          4   -1    0    0  501    0  0.00000000000E+00 -0.00000000000E+00 -0.30029131238E+02  0.30055974828E+02  0.12700000000E+01 0. -1.
         25    2    1    2    0    0  0.00000000000E+00  0.00000000000E+00  0.99997628283E+02  0.16008893639E+03  0.12501576657E+03 0.  0.
    9000005    1    3    3    0    0  0.30439237416E+02 -0.15967930524E+02  0.11684197095E+03  0.12179724199E+03  0.10000000000E+01 0.  0.
    9000005    1    3    3    0    0 -0.30439237416E+02  0.15967930524E+02 -0.16844342672E+02  0.38291694396E+02  0.10000000000E+01 0.  0.
<mgrwt>
<rscale>  0 0.12501577E+03</rscale>
<asrwt>0</asrwt>
<pdfrwt beam="2">  1        4 0.46224083E-02 0.12501577E+03</pdfrwt>
<pdfrwt beam="1">  1       -4 0.20006659E-01 0.12501577E+03</pdfrwt>
<totfact> 0.97291158E+03</totfact>
</mgrwt>
</event>
<event>
 5    1  0.3309219E-002  0.1250005E+03  0.7818608E-02  0.1235069E+00
          4   -1    0    0  501    0  0.00000000000E+00  0.00000000000E+00  0.12537444528E+04  0.12537450960E+04  0.12700000000E+01 0.  1.
         -4   -1    0    0    0  501 -0.00000000000E+00 -0.00000000000E+00 -0.29856021295E+01  0.32444907267E+01  0.12700000000E+01 0.  1.
         25    2    1    2    0    0  0.00000000000E+00  0.00000000000E+00  0.12507588507E+04  0.12569895868E+04  0.12500047477E+03 0.  0.
    9000005    1    3    3    0    0  0.29443763197E+02 -0.48907380978E+02  0.36971228544E+03  0.37409496270E+03  0.10000000000E+01 0.  0.
    9000005    1    3    3    0    0 -0.29443763197E+02  0.48907380978E+02  0.88104656523E+03  0.88289462407E+03  0.10000000000E+01 0.  0.
<mgrwt>
<rscale>  0 0.12500047E+03</rscale>
<asrwt>0</asrwt>
<pdfrwt beam="1">  1        4 0.19290347E+00 0.12500047E+03</pdfrwt>
<pdfrwt beam="2">  1       -4 0.47928802E-03 0.12500047E+03</pdfrwt>
<totfact> 0.23266735E+03</totfact>
</mgrwt>
</event>
<event>
 5    1  0.3309219E-002  0.1249996E+03  0.7818608E-02  0.1235070E+00
         -4   -1    0    0    0  501 -0.00000000000E+00  0.00000000000E+00  0.12979866256E+04  0.12979872469E+04  0.12700000000E+01 0. -1.
          4   -1    0    0  501    0  0.00000000000E+00 -0.00000000000E+00 -0.28748114331E+01  0.31428396039E+01  0.12700000000E+01 0. -1.
         25    2    1    2    0    0  0.00000000000E+00  0.00000000000E+00  0.12951118142E+04  0.13011300865E+04  0.12499956333E+03 0.  0.
    9000005    1    3    3    0    0  0.41579329277E+02  0.32473302308E+01  0.11319792931E+04  0.11327477679E+04  0.10000000000E+01 0.  0.
    9000005    1    3    3    0    0 -0.41579329277E+02 -0.32473302308E+01  0.16313252109E+03  0.16838231859E+03  0.10000000000E+01 0.  0.
<mgrwt>
<rscale>  0 0.12499956E+03</rscale>
<asrwt>0</asrwt>
<pdfrwt beam="2">  1        4 0.46294550E-03 0.12499956E+03</pdfrwt>
<pdfrwt beam="1">  1       -4 0.19971028E+00 0.12499956E+03</pdfrwt>
<totfact> 0.22202166E+03</totfact>
</mgrwt>
</event>
<event>
 5    1  0.3309219E-002  0.1250009E+03  0.7818608E-02  0.1235068E+00
          4   -1    0    0  501    0  0.00000000000E+00  0.00000000000E+00  0.18562566610E+02  0.18605960850E+02  0.12700000000E+01 0. -1.
         -4   -1    0    0    0  501 -0.00000000000E+00 -0.00000000000E+00 -0.21014899006E+03  0.21015282754E+03  0.12700000000E+01 0. -1.
         25    2    1    2    0    0  0.00000000000E+00  0.00000000000E+00 -0.19158642345E+03  0.22875878839E+03  0.12500090246E+03 0.  0.
    9000005    1    3    3    0    0  0.34711302953E-01  0.47541632104E+02 -0.17001998493E+03  0.17654462117E+03  0.10000000000E+01 0.  0.
    9000005    1    3    3    0    0 -0.34711302953E-01 -0.47541632104E+02 -0.21566438518E+02  0.52214167219E+02  0.10000000000E+01 0.  0.
<mgrwt>
<rscale>  0 0.12500090E+03</rscale>
<asrwt>0</asrwt>
<pdfrwt beam="1">  1        4 0.28594128E-02 0.12500090E+03</pdfrwt>
<pdfrwt beam="2">  1       -4 0.32334245E-01 0.12500090E+03</pdfrwt>
<totfact> 0.85498830E+03</totfact>
</mgrwt>
</event>
<event>
 5    1  0.3309219E-002  0.1250006E+03  0.7818608E-02  0.1235068E+00
          4   -1    0    0  501    0  0.00000000000E+00  0.00000000000E+00  0.32810351895E+04  0.32810354353E+04  0.12700000000E+01 0.  1.
         -4   -1    0    0    0  501 -0.00000000000E+00 -0.00000000000E+00 -0.85156730145E+00  0.15290738599E+01  0.12700000000E+01 0.  1.
         25    2    1    2    0    0  0.00000000000E+00  0.00000000000E+00  0.32801836222E+04  0.32825645092E+04  0.12500064560E+03 0.  0.
    9000005    1    3    3    0    0 -0.59435012786E+02 -0.12701512029E+02  0.20219444692E+04  0.20228579500E+04  0.10000000000E+01 0.  0.
    9000005    1    3    3    0    0  0.59435012786E+02  0.12701512029E+02  0.12582391530E+04  0.12597065592E+04  0.10000000000E+01 0.  0.
<mgrwt>
<rscale>  0 0.12500065E+03</rscale>
<asrwt>0</asrwt>
<pdfrwt beam="1">  1        4 0.50482845E+00 0.12500065E+03</pdfrwt>
<pdfrwt beam="2">  1       -4 0.18314454E-03 0.12500065E+03</pdfrwt>
<totfact> 0.97391949E+01</totfact>
</mgrwt>
</event>
<event>
 5    1  0.3309219E-002  0.1249952E+03  0.7818608E-02  0.1235077E+00
         -4   -1    0    0    0  501 -0.00000000000E+00  0.00000000000E+00  0.12008524995E+03  0.12009196540E+03  0.12700000000E+01 0.  1.
          4   -1    0    0  501    0  0.00000000000E+00 -0.00000000000E+00 -0.32506460690E+02  0.32531260145E+02  0.12700000000E+01 0.  1.
         25    2    1    2    0    0  0.00000000000E+00  0.00000000000E+00  0.87578789257E+02  0.15262322555E+03  0.12499521851E+03 0.  0.
    9000005    1    3    3    0    0  0.17035724704E+02  0.44737804149E+02  0.92832726345E+02  0.10445382768E+03  0.10000000000E+01 0.  0.
    9000005    1    3    3    0    0 -0.17035724704E+02 -0.44737804149E+02 -0.52539370876E+01  0.48169397870E+02  0.10000000000E+01 0.  0.
<mgrwt>
<rscale>  0 0.12499522E+03</rscale>
<asrwt>0</asrwt>
<pdfrwt beam="2">  1        4 0.50034182E-02 0.12499522E+03</pdfrwt>
<pdfrwt beam="1">  1       -4 0.18477078E-01 0.12499522E+03</pdfrwt>
<totfact> 0.98793972E+03</totfact>
</mgrwt>
</event>
<event>
 5    1  0.3309219E-002  0.1250013E+03  0.7818608E-02  0.1235067E+00
          4   -1    0    0  501    0  0.00000000000E+00  0.00000000000E+00  0.79203596517E+03  0.79203698337E+03  0.12700000000E+01 0.  1.
         -4   -1    0    0    0  501 -0.00000000000E+00 -0.00000000000E+00 -0.48492148927E+01  0.50127622201E+01  0.12700000000E+01 0.  1.
         25    2    1    2    0    0  0.00000000000E+00  0.00000000000E+00  0.78718675028E+03  0.79704974559E+03  0.12500126851E+03 0.  0.
    9000005    1    3    3    0    0  0.59643207908E+01  0.35751942394E+01  0.78959263217E+03  0.78962388510E+03  0.10000000000E+01 0.  0.
    9000005    1    3    3    0    0 -0.59643207908E+01 -0.35751942394E+01 -0.24058818942E+01  0.74258604911E+01  0.10000000000E+01 0.  0.
<mgrwt>
<rscale>  0 0.12500127E+03</rscale>
<asrwt>0</asrwt>
<pdfrwt beam="1">  1        4 0.12186436E+00 0.12500127E+03</pdfrwt>
<pdfrwt beam="2">  1       -4 0.75869185E-03 0.12500127E+03</pdfrwt>
<totfact> 0.38395702E+03</totfact>
</mgrwt>
</event>
<event>
 5    1  0.3309219E-002  0.1249603E+03  0.7818608E-02  0.1235131E+00
         -4   -1    0    0    0  501 -0.00000000000E+00  0.00000000000E+00  0.27138071997E+02  0.27167772300E+02  0.12700000000E+01 0. -1.
          4   -1    0    0  501    0  0.00000000000E+00 -0.00000000000E+00 -0.14373721213E+03  0.14374282261E+03  0.12700000000E+01 0. -1.
         25    2    1    2    0    0  0.00000000000E+00  0.00000000000E+00 -0.11659914013E+03  0.17091059491E+03  0.12496028158E+03 0.  0.
    9000005    1    3    3    0    0  0.40076040057E+00 -0.34431894986E+02 -0.12959241822E+03  0.13409291876E+03  0.10000000000E+01 0.  0.
    9000005    1    3    3    0    0 -0.40076040057E+00  0.34431894986E+02  0.12993278090E+02  0.36817676145E+02  0.10000000000E+01 0.  0.
<mgrwt>
<rscale>  0 0.12496028E+03</rscale>
<asrwt>0</asrwt>
<pdfrwt beam="2">  1        4 0.22116133E-01 0.12496028E+03</pdfrwt>
<pdfrwt beam="1">  1       -4 0.41778043E-02 0.12496028E+03</pdfrwt>
<totfact> 0.95364167E+03</totfact>
</mgrwt>
</event>
<event>
 5    1  0.3309219E-002  0.1249990E+03  0.7818608E-02  0.1235071E+00
          4   -1    0    0  501    0  0.00000000000E+00  0.00000000000E+00  0.56550583750E+01  0.57959110780E+01  0.12700000000E+01 0. -1.
         -4   -1    0    0    0  501 -0.00000000000E+00 -0.00000000000E+00 -0.68210432913E+03  0.68210551143E+03  0.12700000000E+01 0. -1.
         25    2    1    2    0    0  0.00000000000E+00  0.00000000000E+00 -0.67644927076E+03  0.68790142250E+03  0.12499900471E+03 0.  0.
    9000005    1    3    3    0    0 -0.46605881459E+01 -0.24234964962E+02 -0.22271966362E+02  0.33258007971E+02  0.10000000000E+01 0.  0.
    9000005    1    3    3    0    0  0.46605881459E+01  0.24234964962E+02 -0.65417730439E+03  0.65464341453E+03  0.10000000000E+01 0.  0.
<mgrwt>
<rscale>  0 0.12499900E+03</rscale>
<asrwt>0</asrwt>
<pdfrwt beam="1">  1        4 0.88093529E-03 0.12499900E+03</pdfrwt>
<pdfrwt beam="2">  1       -4 0.10494999E+00 0.12499900E+03</pdfrwt>
<totfact> 0.43734075E+03</totfact>
</mgrwt>
</event>
<event>
 4    1  0.3309219E-002  0.1251344E+03  0.7818608E-02  0.1234859E+00
          4   -1    0    0  501    0  0.00000000000E+00  0.00000000000E+00  0.13862506480E+02  0.13920559827E+02  0.12700000000E+01 0. -1.
         -4   -1    0    0    0  501 -0.00000000000E+00 -0.00000000000E+00 -0.28174179029E+03  0.28174465265E+03  0.12700000000E+01 0. -1.
    9000005    1    1    2    0    0  0.60430217118E+02  0.14039113350E+02 -0.11492784104E+03  0.13060749018E+03  0.10000000000E+01 0.  0.
    9000005    1    1    2    0    0 -0.60430217118E+02 -0.14039113350E+02 -0.15295144277E+03  0.16505772230E+03  0.10000000000E+01 0.  0.
<mgrwt>
<rscale>  0 0.12513436E+03</rscale>
<asrwt>0</asrwt>
<pdfrwt beam="1">  1        4 0.21373793E-02 0.12513436E+03</pdfrwt>
<pdfrwt beam="2">  1       -4 0.43349572E-01 0.12513436E+03</pdfrwt>
<totfact> 0.75919096E+03</totfact>
</mgrwt>
</event>
<event>
 5    1  0.3309219E-002  0.1250012E+03  0.7818608E-02  0.1235067E+00
          4   -1    0    0  501    0  0.00000000000E+00  0.00000000000E+00  0.68582795809E+01  0.69748762577E+01  0.12700000000E+01 0. -1.
         -4   -1    0    0    0  501 -0.00000000000E+00 -0.00000000000E+00 -0.56465938884E+03  0.56466081705E+03  0.12700000000E+01 0. -1.
         25    2    1    2    0    0  0.00000000000E+00  0.00000000000E+00 -0.55780110926E+03  0.57163569330E+03  0.12500115346E+03 0.  0.
    9000005    1    3    3    0    0  0.87379911533E+01 -0.29285431924E+02 -0.29624256239E+02  0.42574470872E+02  0.10000000000E+01 0.  0.
    9000005    1    3    3    0    0 -0.87379911533E+01  0.29285431924E+02 -0.52817685302E+03  0.52906122243E+03  0.10000000000E+01 0.  0.
<mgrwt>
<rscale>  0 0.12500115E+03</rscale>
<asrwt>0</asrwt>
<pdfrwt beam="1">  1        4 0.10641992E-02 0.12500115E+03</pdfrwt>
<pdfrwt beam="2">  1       -4 0.86879718E-01 0.12500115E+03</pdfrwt>
<totfact> 0.50707166E+03</totfact>
</mgrwt>
</event>
<event>
 5    1  0.3309219E-002  0.1250041E+03  0.7818608E-02  0.1235063E+00
         -4   -1    0    0    0  501 -0.00000000000E+00  0.00000000000E+00  0.60147870100E+02  0.60161276396E+02  0.12700000000E+01 0. -1.
          4   -1    0    0  501    0  0.00000000000E+00 -0.00000000000E+00 -0.64921525649E+02  0.64933946381E+02  0.12700000000E+01 0. -1.
         25    2    1    2    0    0  0.00000000000E+00  0.00000000000E+00 -0.47736555492E+01  0.12509522278E+03  0.12500410783E+03 0.  0.
    9000005    1    3    3    0    0 -0.54882075561E+01 -0.19652152701E+02 -0.61499157828E+02  0.64803348227E+02  0.10000000000E+01 0.  0.
    9000005    1    3    3    0    0  0.54882075561E+01  0.19652152701E+02  0.56725502278E+02  0.60291874549E+02  0.10000000000E+01 0.  0.
<mgrwt>
<rscale>  0 0.12500411E+03</rscale>
<asrwt>0</asrwt>
<pdfrwt beam="2">  1        4 0.99899137E-02 0.12500411E+03</pdfrwt>
<pdfrwt beam="1">  1       -4 0.92555052E-02 0.12500411E+03</pdfrwt>
<totfact> 0.10449825E+04</totfact>
</mgrwt>
</event>
<event>
 5    1  0.3309219E-002  0.1250019E+03  0.7818608E-02  0.1235066E+00
         -4   -1    0    0    0  501 -0.00000000000E+00  0.00000000000E+00  0.15036697632E+03  0.15037233944E+03  0.12700000000E+01 0.  1.
          4   -1    0    0  501    0  0.00000000000E+00 -0.00000000000E+00 -0.25957548650E+02  0.25988598114E+02  0.12700000000E+01 0.  1.
         25    2    1    2    0    0  0.00000000000E+00  0.00000000000E+00  0.12440942767E+03  0.17636093755E+03  0.12500189839E+03 0.  0.
    9000005    1    3    3    0    0  0.37606882634E+02 -0.45786296266E+02  0.90234688879E+02  0.10795351604E+03  0.10000000000E+01 0.  0.
    9000005    1    3    3    0    0 -0.37606882634E+02  0.45786296266E+02  0.34174738794E+02  0.68407421519E+02  0.10000000000E+01 0.  0.
<mgrwt>
<rscale>  0 0.12500190E+03</rscale>
<asrwt>0</asrwt>
<pdfrwt beam="2">  1        4 0.39962701E-02 0.12500190E+03</pdfrwt>
<pdfrwt beam="1">  1       -4 0.23136182E-01 0.12500190E+03</pdfrwt>
<totfact> 0.94272163E+03</totfact>
</mgrwt>
</event>
<event>
 5    1  0.3309219E-002  0.1249999E+03  0.7818608E-02  0.1235069E+00
         -4   -1    0    0    0  501 -0.00000000000E+00  0.00000000000E+00  0.14696149597E+03  0.14696698336E+03  0.12700000000E+01 0.  1.
          4   -1    0    0  501    0  0.00000000000E+00 -0.00000000000E+00 -0.26558876257E+02  0.26589223532E+02  0.12700000000E+01 0.  1.
         25    2    1    2    0    0  0.00000000000E+00  0.00000000000E+00  0.12040261971E+03  0.17355620689E+03  0.12499986447E+03 0.  0.
    9000005    1    3    3    0    0 -0.41809371118E+02 -0.42338104388E+02  0.86716835172E+02  0.10517294376E+03  0.10000000000E+01 0.  0.
    9000005    1    3    3    0    0  0.41809371118E+02  0.42338104388E+02  0.33685784536E+02  0.68383263129E+02  0.10000000000E+01 0.  0.
<mgrwt>
<rscale>  0 0.12499986E+03</rscale>
<asrwt>0</asrwt>
<pdfrwt beam="2">  1        4 0.40887376E-02 0.12499986E+03</pdfrwt>
<pdfrwt beam="1">  1       -4 0.22612217E-01 0.12499986E+03</pdfrwt>
<totfact> 0.94790224E+03</totfact>
</mgrwt>
</event>
<event>
 5    1  0.3309219E-002  0.1249936E+03  0.7818608E-02  0.1235079E+00
         -4   -1    0    0    0  501 -0.00000000000E+00  0.00000000000E+00  0.95511134311E+02  0.95519577456E+02  0.12700000000E+01 0. -1.
          4   -1    0    0  501    0  0.00000000000E+00 -0.00000000000E+00 -0.40874063820E+02  0.40893789176E+02  0.12700000000E+01 0. -1.
         25    2    1    2    0    0  0.00000000000E+00  0.00000000000E+00  0.54637070491E+02  0.13641336663E+03  0.12499358833E+03 0.  0.
    9000005    1    3    3    0    0  0.12522417125E+02  0.59262104158E+02  0.10551230937E+02  0.61490945628E+02  0.10000000000E+01 0.  0.
    9000005    1    3    3    0    0 -0.12522417125E+02 -0.59262104158E+02  0.44085839554E+02  0.74922421004E+02  0.10000000000E+01 0.  0.
<mgrwt>
<rscale>  0 0.12499359E+03</rscale>
<asrwt>0</asrwt>
<pdfrwt beam="2">  1        4 0.62904844E-02 0.12499359E+03</pdfrwt>
<pdfrwt beam="1">  1       -4 0.14696187E-01 0.12499359E+03</pdfrwt>
<totfact> 0.10209842E+04</totfact>
</mgrwt>
</event>
<event>
 5    1  0.3309219E-002  0.1250026E+03  0.7818608E-02  0.1235065E+00
         -4   -1    0    0    0  501 -0.00000000000E+00  0.00000000000E+00  0.21716168204E+02  0.21753272431E+02  0.12700000000E+01 0. -1.
          4   -1    0    0  501    0  0.00000000000E+00 -0.00000000000E+00 -0.17969196046E+03  0.17969644836E+03  0.12700000000E+01 0. -1.
         25    2    1    2    0    0  0.00000000000E+00  0.00000000000E+00 -0.15797579225E+03  0.20144972079E+03  0.12500255625E+03 0.  0.
    9000005    1    3    3    0    0 -0.46439319039E+02 -0.96116447683E+01 -0.13398679397E+02  0.49290147875E+02  0.10000000000E+01 0.  0.
    9000005    1    3    3    0    0  0.46439319039E+02  0.96116447683E+01 -0.14457711286E+03  0.15215957292E+03  0.10000000000E+01 0.  0.
<mgrwt>
<rscale>  0 0.12500256E+03</rscale>
<asrwt>0</asrwt>
<pdfrwt beam="2">  1        4 0.27648115E-01 0.12500256E+03</pdfrwt>
<pdfrwt beam="1">  1       -4 0.33441485E-02 0.12500256E+03</pdfrwt>
<totfact> 0.89886433E+03</totfact>
</mgrwt>
</event>
<event>
 5    1  0.3309219E-002  0.1249923E+03  0.7818608E-02  0.1235081E+00
          4   -1    0    0  501    0  0.00000000000E+00  0.00000000000E+00  0.21961158305E+03  0.21961525518E+03  0.12700000000E+01 0. -1.
         -4   -1    0    0    0  501 -0.00000000000E+00 -0.00000000000E+00 -0.17758407870E+02  0.17803762245E+02  0.12700000000E+01 0. -1.
         25    2    1    2    0    0  0.00000000000E+00  0.00000000000E+00  0.20185317518E+03  0.23741901743E+03  0.12499234179E+03 0.  0.
    9000005    1    3    3    0    0  0.21935433131E+02 -0.27090799987E+02  0.24158084478E+01  0.34955840729E+02  0.10000000000E+01 0.  0.
    9000005    1    3    3    0    0 -0.21935433131E+02  0.27090799987E+02  0.19943736673E+03  0.20246317670E+03  0.10000000000E+01 0.  0.
<mgrwt>
<rscale>  0 0.12499234E+03</rscale>
<asrwt>0</asrwt>
<pdfrwt beam="1">  1        4 0.33790167E-01 0.12499234E+03</pdfrwt>
<pdfrwt beam="2">  1       -4 0.27358342E-02 0.12499234E+03</pdfrwt>
<totfact> 0.84197644E+03</totfact>
</mgrwt>
</event>
<event>
 5    1  0.3309219E-002  0.1249876E+03  0.7818608E-02  0.1235089E+00
          4   -1    0    0  501    0  0.00000000000E+00  0.00000000000E+00  0.61158371373E+02  0.61171556208E+02  0.12700000000E+01 0.  1.
         -4   -1    0    0    0  501 -0.00000000000E+00 -0.00000000000E+00 -0.63831979166E+02  0.63844611866E+02  0.12700000000E+01 0.  1.
         25    2    1    2    0    0  0.00000000000E+00  0.00000000000E+00 -0.26736077936E+01  0.12501616807E+03  0.12498757579E+03 0.  0.
    9000005    1    3    3    0    0 -0.22521000735E+02 -0.44862537533E+02 -0.38555943448E+02  0.63304056135E+02  0.10000000000E+01 0.  0.
    9000005    1    3    3    0    0  0.22521000735E+02  0.44862537533E+02  0.35882335654E+02  0.61712111939E+02  0.10000000000E+01 0.  0.
<mgrwt>
<rscale>  0 0.12498758E+03</rscale>
<asrwt>0</asrwt>
<pdfrwt beam="1">  1        4 0.94109661E-02 0.12498758E+03</pdfrwt>
<pdfrwt beam="2">  1       -4 0.98222905E-02 0.12498758E+03</pdfrwt>
<totfact> 0.10455447E+04</totfact>
</mgrwt>
</event>
<event>
 5    1  0.3309219E-002  0.1250088E+03  0.7818608E-02  0.1235055E+00
          4   -1    0    0  501    0  0.00000000000E+00  0.00000000000E+00  0.90124512317E+01  0.91014931305E+01  0.12700000000E+01 0.  1.
         -4   -1    0    0    0  501 -0.00000000000E+00 -0.00000000000E+00 -0.43126845928E+03  0.43127032923E+03  0.12700000000E+01 0.  1.
         25    2    1    2    0    0  0.00000000000E+00  0.00000000000E+00 -0.42225600805E+03  0.44037182236E+03  0.12500882206E+03 0.  0.
    9000005    1    3    3    0    0  0.61526191682E+02 -0.70603887121E+01 -0.24070213213E+03  0.24854343235E+03  0.10000000000E+01 0.  0.
    9000005    1    3    3    0    0 -0.61526191682E+02  0.70603887121E+01 -0.18155387592E+03  0.19182839001E+03  0.10000000000E+01 0.  0.
<mgrwt>
<rscale>  0 0.12500882E+03</rscale>
<asrwt>0</asrwt>
<pdfrwt beam="1">  1        4 0.13935245E-02 0.12500882E+03</pdfrwt>
<pdfrwt beam="2">  1       -4 0.66355971E-01 0.12500882E+03</pdfrwt>
<totfact> 0.60795156E+03</totfact>
</mgrwt>
</event>
<event>
 5    1  0.3309219E-002  0.1250029E+03  0.7818608E-02  0.1235065E+00
          4   -1    0    0  501    0  0.00000000000E+00  0.00000000000E+00  0.39491162185E+03  0.39491366395E+03  0.12700000000E+01 0.  1.
         -4   -1    0    0    0  501 -0.00000000000E+00 -0.00000000000E+00 -0.98490711496E+01  0.99306144075E+01  0.12700000000E+01 0.  1.
         25    2    1    2    0    0  0.00000000000E+00  0.00000000000E+00  0.38506255070E+03  0.40484427836E+03  0.12500288703E+03 0.  0.
    9000005    1    3    3    0    0  0.38038313941E+02 -0.20000348022E+02  0.33947252699E+03  0.34218346516E+03  0.10000000000E+01 0.  0.
    9000005    1    3    3    0    0 -0.38038313941E+02  0.20000348022E+02  0.45590023718E+02  0.62660813201E+02  0.10000000000E+01 0.  0.
<mgrwt>
<rscale>  0 0.12500289E+03</rscale>
<asrwt>0</asrwt>
<pdfrwt beam="1">  1        4 0.60762066E-01 0.12500289E+03</pdfrwt>
<pdfrwt beam="2">  1       -4 0.15216713E-02 0.12500289E+03</pdfrwt>
<totfact> 0.64080265E+03</totfact>
</mgrwt>
</event>
<event>
 5    1  0.3309219E-002  0.1250048E+03  0.7818608E-02  0.1235062E+00
         -4   -1    0    0    0  501 -0.00000000000E+00  0.00000000000E+00  0.19001586247E+03  0.19002010654E+03  0.12700000000E+01 0. -1.
          4   -1    0    0  501    0  0.00000000000E+00 -0.00000000000E+00 -0.20534992421E+02  0.20574226929E+02  0.12700000000E+01 0. -1.
         25    2    1    2    0    0  0.00000000000E+00  0.00000000000E+00  0.16948087004E+03  0.21059433347E+03  0.12500483181E+03 0.  0.
    9000005    1    3    3    0    0  0.31126223945E+02  0.50342208718E+02  0.11853398872E+03  0.13249334428E+03  0.10000000000E+01 0.  0.
    9000005    1    3    3    0    0 -0.31126223945E+02 -0.50342208718E+02  0.50946881324E+02  0.78100989189E+02  0.10000000000E+01 0.  0.
<mgrwt>
<rscale>  0 0.12500483E+03</rscale>
<asrwt>0</asrwt>
<pdfrwt beam="2">  1        4 0.31625741E-02 0.12500483E+03</pdfrwt>
<pdfrwt beam="1">  1       -4 0.29236554E-01 0.12500483E+03</pdfrwt>
<totfact> 0.88369364E+03</totfact>
</mgrwt>
</event>
<event>
 5    1  0.3309219E-002  0.1249772E+03  0.7818608E-02  0.1235105E+00
         -4   -1    0    0    0  501 -0.00000000000E+00  0.00000000000E+00  0.49160064984E+02  0.49176466824E+02  0.12700000000E+01 0.  1.
          4   -1    0    0  501    0  0.00000000000E+00 -0.00000000000E+00 -0.79396120279E+02  0.79406276926E+02  0.12700000000E+01 0.  1.
         25    2    1    2    0    0  0.00000000000E+00  0.00000000000E+00 -0.30236055294E+02  0.12858274375E+03  0.12497720972E+03 0.  0.
    9000005    1    3    3    0    0 -0.35173706650E+02  0.41106268360E+02 -0.47275308581E+02  0.71853112246E+02  0.10000000000E+01 0.  0.
    9000005    1    3    3    0    0  0.35173706650E+02 -0.41106268360E+02  0.17039253287E+02  0.56729631504E+02  0.10000000000E+01 0.  0.
<mgrwt>
<rscale>  0 0.12497721E+03</rscale>
<asrwt>0</asrwt>
<pdfrwt beam="2">  1        4 0.12216831E-01 0.12497721E+03</pdfrwt>
<pdfrwt beam="1">  1       -4 0.75651299E-02 0.12497721E+03</pdfrwt>
<totfact> 0.10380261E+04</totfact>
</mgrwt>
</event>
<event>
 5    1  0.3309219E-002  0.1249994E+03  0.7818608E-02  0.1235070E+00
          4   -1    0    0  501    0  0.00000000000E+00  0.00000000000E+00  0.44895252564E+03  0.44895432193E+03  0.12700000000E+01 0.  1.
         -4   -1    0    0    0  501 -0.00000000000E+00 -0.00000000000E+00 -0.86525597863E+01  0.87452667687E+01  0.12700000000E+01 0.  1.
         25    2    1    2    0    0  0.00000000000E+00  0.00000000000E+00  0.44029996586E+03  0.45769958870E+03  0.12499941425E+03 0.  0.
    9000005    1    3    3    0    0 -0.61715851443E+02  0.72619690130E+01  0.19596367833E+03  0.20558294127E+03  0.10000000000E+01 0.  0.
    9000005    1    3    3    0    0  0.61715851443E+02 -0.72619690130E+01  0.24433628752E+03  0.25211664744E+03  0.10000000000E+01 0.  0.
<mgrwt>
<rscale>  0 0.12499941E+03</rscale>
<asrwt>0</asrwt>
<pdfrwt beam="1">  1        4 0.69076901E-01 0.12499941E+03</pdfrwt>
<pdfrwt beam="2">  1       -4 0.13384323E-02 0.12499941E+03</pdfrwt>
<totfact> 0.59303293E+03</totfact>
</mgrwt>
</event>
<event>
 5    1  0.3309219E-002  0.1250028E+03  0.7818608E-02  0.1235065E+00
         -4   -1    0    0    0  501 -0.00000000000E+00  0.00000000000E+00  0.11574704490E+02  0.11644169530E+02  0.12700000000E+01 0. -1.
          4   -1    0    0  501    0  0.00000000000E+00 -0.00000000000E+00 -0.33641613859E+03  0.33641853576E+03  0.12700000000E+01 0. -1.
         25    2    1    2    0    0  0.00000000000E+00  0.00000000000E+00 -0.32484143410E+03  0.34806270529E+03  0.12500275800E+03 0.  0.
    9000005    1    3    3    0    0 -0.26906522028E+02 -0.42154725164E+02 -0.58071406647E+02  0.76643786776E+02  0.10000000000E+01 0.  0.
    9000005    1    3    3    0    0  0.26906522028E+02  0.42154725164E+02 -0.26677002745E+03  0.27141891852E+03  0.10000000000E+01 0.  0.
<mgrwt>
<rscale>  0 0.12500276E+03</rscale>
<asrwt>0</asrwt>
<pdfrwt beam="2">  1        4 0.51761850E-01 0.12500276E+03</pdfrwt>
<pdfrwt beam="1">  1       -4 0.17862519E-02 0.12500276E+03</pdfrwt>
<totfact> 0.69933943E+03</totfact>
</mgrwt>
</event>
<event>
 5    1  0.3309219E-002  0.1250018E+03  0.7818608E-02  0.1235066E+00
          4   -1    0    0  501    0  0.00000000000E+00  0.00000000000E+00  0.33272153630E+03  0.33272396009E+03  0.12700000000E+01 0. -1.
         -4   -1    0    0    0  501 -0.00000000000E+00 -0.00000000000E+00 -0.11703819056E+02  0.11772522265E+02  0.12700000000E+01 0. -1.
         25    2    1    2    0    0  0.00000000000E+00  0.00000000000E+00  0.32101771725E+03  0.34449648236E+03  0.12500180627E+03 0.  0.
    9000005    1    3    3    0    0  0.52734256015E+02  0.33232916496E+02  0.17284435510E+03  0.18374302595E+03  0.10000000000E+01 0.  0.
    9000005    1    3    3    0    0 -0.52734256015E+02 -0.33232916496E+02  0.14817336215E+03  0.16075345640E+03  0.10000000000E+01 0.  0.
<mgrwt>
<rscale>  0 0.12500181E+03</rscale>
<asrwt>0</asrwt>
<pdfrwt beam="1">  1        4 0.51193402E-01 0.12500181E+03</pdfrwt>
<pdfrwt beam="2">  1       -4 0.18060588E-02 0.12500181E+03</pdfrwt>
<totfact> 0.70331468E+03</totfact>
</mgrwt>
</event>
<event>
 5    1  0.3309219E-002  0.1250004E+03  0.7818608E-02  0.1235069E+00
          4   -1    0    0  501    0  0.00000000000E+00  0.00000000000E+00  0.22880208339E+03  0.22880560803E+03  0.12700000000E+01 0. -1.
         -4   -1    0    0    0  501 -0.00000000000E+00 -0.00000000000E+00 -0.17045447832E+02  0.17092694106E+02  0.12700000000E+01 0. -1.
         25    2    1    2    0    0  0.00000000000E+00  0.00000000000E+00  0.21175663556E+03  0.24589830213E+03  0.12500040915E+03 0.  0.
    9000005    1    3    3    0    0  0.29234234482E+02 -0.89985749527E+01  0.21307899165E+03  0.21526558364E+03  0.10000000000E+01 0.  0.
    9000005    1    3    3    0    0 -0.29234234482E+02  0.89985749527E+01 -0.13223560858E+01  0.30632718497E+02  0.10000000000E+01 0.  0.
<mgrwt>
<rscale>  0 0.12500041E+03</rscale>
<asrwt>0</asrwt>
<pdfrwt beam="1">  1        4 0.35204223E-01 0.12500041E+03</pdfrwt>
<pdfrwt beam="2">  1       -4 0.26262823E-02 0.12500041E+03</pdfrwt>
<totfact> 0.82925934E+03</totfact>
</mgrwt>
</event>
<event>
 5    1  0.3309219E-002  0.1249996E+03  0.7818608E-02  0.1235070E+00
         -4   -1    0    0    0  501 -0.00000000000E+00  0.00000000000E+00  0.23570386011E+02  0.23604575758E+02  0.12700000000E+01 0. -1.
          4   -1    0    0  501    0  0.00000000000E+00 -0.00000000000E+00 -0.16556917253E+03  0.16557404323E+03  0.12700000000E+01 0. -1.
         25    2    1    2    0    0  0.00000000000E+00  0.00000000000E+00 -0.14199878652E+03  0.18917861899E+03  0.12499957804E+03 0.  0.
    9000005    1    3    3    0    0  0.24028806542E+02 -0.55683355212E+02 -0.48186964542E+02  0.77466141915E+02  0.10000000000E+01 0.  0.
    9000005    1    3    3    0    0 -0.24028806542E+02  0.55683355212E+02 -0.93811821974E+02  0.11171247707E+03  0.10000000000E+01 0.  0.
<mgrwt>
<rscale>  0 0.12499958E+03</rscale>
<asrwt>0</asrwt>
<pdfrwt beam="2">  1        4 0.25475184E-01 0.12499958E+03</pdfrwt>
<pdfrwt beam="1">  1       -4 0.36292180E-02 0.12499958E+03</pdfrwt>
<totfact> 0.91991298E+03</totfact>
</mgrwt>
</event>
<event>
 5    1  0.3309219E-002  0.1250012E+03  0.7818608E-02  0.1235067E+00
         -4   -1    0    0    0  501 -0.00000000000E+00  0.00000000000E+00  0.95054944763E+02  0.95063428424E+02  0.12700000000E+01 0. -1.
          4   -1    0    0  501    0  0.00000000000E+00 -0.00000000000E+00 -0.41075302802E+02  0.41094931564E+02  0.12700000000E+01 0. -1.
         25    2    1    2    0    0  0.00000000000E+00  0.00000000000E+00  0.53979641961E+02  0.13615835999E+03  0.12500118899E+03 0.  0.
    9000005    1    3    3    0    0  0.37063813042E+02  0.11634452976E+02 -0.26330788520E+02  0.46940357448E+02  0.10000000000E+01 0.  0.
    9000005    1    3    3    0    0 -0.37063813042E+02 -0.11634452976E+02  0.80310430481E+02  0.89218002540E+02  0.10000000000E+01 0.  0.
<mgrwt>
<rscale>  0 0.12500119E+03</rscale>
<asrwt>0</asrwt>
<pdfrwt beam="2">  1        4 0.63214399E-02 0.12500119E+03</pdfrwt>
<pdfrwt beam="1">  1       -4 0.14626000E-01 0.12500119E+03</pdfrwt>
<totfact> 0.10213439E+04</totfact>
</mgrwt>
</event>
<event>
 5    1  0.3309219E-002  0.1249986E+03  0.7818608E-02  0.1235071E+00
         -4   -1    0    0    0  501 -0.00000000000E+00  0.00000000000E+00  0.98956222942E+02  0.98964372170E+02  0.12700000000E+01 0.  1.
          4   -1    0    0  501    0  0.00000000000E+00 -0.00000000000E+00 -0.39453678314E+02  0.39474113448E+02  0.12700000000E+01 0.  1.
         25    2    1    2    0    0  0.00000000000E+00  0.00000000000E+00  0.59502544628E+02  0.13843848562E+03  0.12499864592E+03 0.  0.
    9000005    1    3    3    0    0 -0.35358399342E+02  0.29792567028E+02  0.76311280612E+02  0.89231300578E+02  0.10000000000E+01 0.  0.
    9000005    1    3    3    0    0  0.35358399342E+02 -0.29792567028E+02 -0.16808735984E+02  0.49207185040E+02  0.10000000000E+01 0.  0.
<mgrwt>
<rscale>  0 0.12499865E+03</rscale>
<asrwt>0</asrwt>
<pdfrwt beam="2">  1        4 0.60719955E-02 0.12499865E+03</pdfrwt>
<pdfrwt beam="1">  1       -4 0.15226233E-01 0.12499865E+03</pdfrwt>
<totfact> 0.10166362E+04</totfact>
</mgrwt>
</event>
<event>
 5    1  0.3309219E-002  0.1249771E+03  0.7818608E-02  0.1235105E+00
          4   -1    0    0  501    0  0.00000000000E+00  0.00000000000E+00  0.16987868773E+03  0.16988343487E+03  0.12700000000E+01 0.  1.
         -4   -1    0    0    0  501 -0.00000000000E+00 -0.00000000000E+00 -0.22963308503E+02  0.22998400758E+02  0.12700000000E+01 0.  1.
         25    2    1    2    0    0  0.00000000000E+00  0.00000000000E+00  0.14691537923E+03  0.19288183563E+03  0.12497709336E+03 0.  0.
    9000005    1    3    3    0    0 -0.71818314905E+01  0.16486955943E+02  0.16580577602E+03  0.16678115536E+03  0.10000000000E+01 0.  0.
    9000005    1    3    3    0    0  0.71818314905E+01 -0.16486955943E+02 -0.18890396794E+02  0.26100680276E+02  0.10000000000E+01 0.  0.
<mgrwt>
<rscale>  0 0.12497709E+03</rscale>
<asrwt>0</asrwt>
<pdfrwt beam="1">  1        4 0.26138247E-01 0.12497709E+03</pdfrwt>
<pdfrwt beam="2">  1       -4 0.35358813E-02 0.12497709E+03</pdfrwt>
<totfact> 0.91395162E+03</totfact>
</mgrwt>
</event>
<event>
 5    1  0.3309219E-002  0.1249996E+03  0.7818608E-02  0.1235070E+00
         -4   -1    0    0    0  501 -0.00000000000E+00  0.00000000000E+00  0.16416220972E+03  0.16416712217E+03  0.12700000000E+01 0.  1.
          4   -1    0    0  501    0  0.00000000000E+00 -0.00000000000E+00 -0.23772678835E+02  0.23806578061E+02  0.12700000000E+01 0.  1.
         25    2    1    2    0    0  0.00000000000E+00  0.00000000000E+00  0.14038953089E+03  0.18797370023E+03  0.12499956638E+03 0.  0.
    9000005    1    3    3    0    0 -0.52539860234E+02 -0.31775430528E+02  0.87674269924E+02  0.10704154570E+03  0.10000000000E+01 0.  0.
    9000005    1    3    3    0    0  0.52539860234E+02  0.31775430528E+02  0.52715260963E+02  0.80932154531E+02  0.10000000000E+01 0.  0.
<mgrwt>
<rscale>  0 0.12499957E+03</rscale>
<asrwt>0</asrwt>
<pdfrwt beam="2">  1        4 0.36603208E-02 0.12499957E+03</pdfrwt>
<pdfrwt beam="1">  1       -4 0.25258709E-01 0.12499957E+03</pdfrwt>
<totfact> 0.92201980E+03</totfact>
</mgrwt>
</event>
<event>
 5    1  0.3309219E-002  0.1250014E+03  0.7818608E-02  0.1235067E+00
         -4   -1    0    0    0  501 -0.00000000000E+00  0.00000000000E+00  0.45909747146E+02  0.45927309773E+02  0.12700000000E+01 0.  1.
          4   -1    0    0  501    0  0.00000000000E+00 -0.00000000000E+00 -0.85048806494E+02  0.85058288167E+02  0.12700000000E+01 0.  1.
         25    2    1    2    0    0  0.00000000000E+00  0.00000000000E+00 -0.39139059348E+02  0.13098559794E+03  0.12500144360E+03 0.  0.
    9000005    1    3    3    0    0 -0.46315231858E+02 -0.41874824673E+02 -0.16849380176E+02  0.64680006615E+02  0.10000000000E+01 0.  0.
    9000005    1    3    3    0    0  0.46315231858E+02  0.41874824673E+02 -0.22289679172E+02  0.66305591325E+02  0.10000000000E+01 0.  0.
<mgrwt>
<rscale>  0 0.12500144E+03</rscale>
<asrwt>0</asrwt>
<pdfrwt beam="2">  1        4 0.13086512E-01 0.12500144E+03</pdfrwt>
<pdfrwt beam="1">  1       -4 0.70651184E-02 0.12500144E+03</pdfrwt>
<totfact> 0.10323062E+04</totfact>
</mgrwt>
</event>
<event>
 5    1  0.3309219E-002  0.1249994E+03  0.7818608E-02  0.1235070E+00
         -4   -1    0    0    0  501 -0.00000000000E+00  0.00000000000E+00  0.22563405908E+04  0.22563409482E+04  0.12700000000E+01 0.  1.
          4   -1    0    0  501    0  0.00000000000E+00 -0.00000000000E+00 -0.14978950657E+01  0.19638201618E+01  0.12700000000E+01 0.  1.
         25    2    1    2    0    0  0.00000000000E+00  0.00000000000E+00  0.22548426957E+04  0.22583047684E+04  0.12499937747E+03 0.  0.
    9000005    1    3    3    0    0  0.39612474042E+02  0.22031947591E+02  0.19046299233E+04  0.19051694674E+04  0.10000000000E+01 0.  0.
    9000005    1    3    3    0    0 -0.39612474042E+02 -0.22031947591E+02  0.35021277248E+03  0.35313530102E+03  0.10000000000E+01 0.  0.
<mgrwt>
<rscale>  0 0.12499938E+03</rscale>
<asrwt>0</asrwt>
<pdfrwt beam="2">  1        4 0.26631360E-03 0.12499938E+03</pdfrwt>
<pdfrwt beam="1">  1       -4 0.34716477E+00 0.12499938E+03</pdfrwt>
<totfact> 0.68553867E+02</totfact>
</mgrwt>
</event>
<event>
 5    1  0.3309219E-002  0.1249976E+03  0.7818608E-02  0.1235073E+00
          4   -1    0    0  501    0  0.00000000000E+00  0.00000000000E+00  0.37856784181E+03  0.37856997207E+03  0.12700000000E+01 0.  1.
         -4   -1    0    0    0  501 -0.00000000000E+00 -0.00000000000E+00 -0.10276850930E+02  0.10355026076E+02  0.12700000000E+01 0.  1.
         25    2    1    2    0    0  0.00000000000E+00  0.00000000000E+00  0.36829099088E+03  0.38892499814E+03  0.12499760085E+03 0.  0.
    9000005    1    3    3    0    0  0.11495719999E+02  0.28877658616E+02  0.15464506154E+02  0.34730702498E+02  0.10000000000E+01 0.  0.
    9000005    1    3    3    0    0 -0.11495719999E+02 -0.28877658616E+02  0.35282648472E+03  0.35419429565E+03  0.10000000000E+01 0.  0.
<mgrwt>
<rscale>  0 0.12499760E+03</rscale>
<asrwt>0</asrwt>
<pdfrwt beam="1">  1        4 0.58247375E-01 0.12499760E+03</pdfrwt>
<pdfrwt beam="2">  1       -4 0.15872316E-02 0.12499760E+03</pdfrwt>
<totfact> 0.65647857E+03</totfact>
</mgrwt>
</event>
<event>
 5    1  0.3309219E-002  0.1249985E+03  0.7818608E-02  0.1235072E+00
          4   -1    0    0  501    0  0.00000000000E+00  0.00000000000E+00  0.44553047275E+02  0.44571144494E+02  0.12700000000E+01 0. -1.
         -4   -1    0    0    0  501 -0.00000000000E+00 -0.00000000000E+00 -0.87633808609E+02  0.87643010625E+02  0.12700000000E+01 0. -1.
         25    2    1    2    0    0  0.00000000000E+00  0.00000000000E+00 -0.43080761334E+02  0.13221415512E+03  0.12499852326E+03 0.  0.
    9000005    1    3    3    0    0 -0.40789355386E+02 -0.29211769369E+02 -0.60947708922E+02  0.78947591511E+02  0.10000000000E+01 0.  0.
    9000005    1    3    3    0    0  0.40789355386E+02  0.29211769369E+02  0.17866947588E+02  0.53266563608E+02  0.10000000000E+01 0.  0.
<mgrwt>
<rscale>  0 0.12499852E+03</rscale>
<asrwt>0</asrwt>
<pdfrwt beam="1">  1        4 0.68564149E-02 0.12499852E+03</pdfrwt>
<pdfrwt beam="2">  1       -4 0.13484224E-01 0.12499852E+03</pdfrwt>
<totfact> 0.10297473E+04</totfact>
</mgrwt>
</event>
<event>
 5    1  0.3309219E-002  0.1250160E+03  0.7818608E-02  0.1235044E+00
          4   -1    0    0  501    0  0.00000000000E+00  0.00000000000E+00  0.83599106800E+03  0.83599203266E+03  0.12700000000E+01 0. -1.
         -4   -1    0    0    0  501 -0.00000000000E+00 -0.00000000000E+00 -0.45865374824E+01  0.47591203050E+01  0.12700000000E+01 0. -1.
         25    2    1    2    0    0  0.00000000000E+00  0.00000000000E+00  0.83140453052E+03  0.84075115297E+03  0.12501603038E+03 0.  0.
    9000005    1    3    3    0    0  0.41071259602E+02 -0.37173766353E+02  0.22107755266E+03  0.22791450494E+03  0.10000000000E+01 0.  0.
    9000005    1    3    3    0    0 -0.41071259602E+02  0.37173766353E+02  0.61032697785E+03  0.61283664803E+03  0.10000000000E+01 0.  0.
<mgrwt>
<rscale>  0 0.12501603E+03</rscale>
<asrwt>0</asrwt>
<pdfrwt beam="1">  1        4 0.12862744E+00 0.12501603E+03</pdfrwt>
<pdfrwt beam="2">  1       -4 0.71897051E-03 0.12501603E+03</pdfrwt>
<totfact> 0.36496013E+03</totfact>
</mgrwt>
</event>
<event>
 5    1  0.3309219E-002  0.1249978E+03  0.7818608E-02  0.1235073E+00
         -4   -1    0    0    0  501 -0.00000000000E+00  0.00000000000E+00  0.39052981521E+03  0.39053188022E+03  0.12700000000E+01 0. -1.
          4   -1    0    0  501    0  0.00000000000E+00 -0.00000000000E+00 -0.99596778706E+01  0.10040322868E+02  0.12700000000E+01 0. -1.
         25    2    1    2    0    0  0.00000000000E+00  0.00000000000E+00  0.38057013733E+03  0.40057220308E+03  0.12499784179E+03 0.  0.
    9000005    1    3    3    0    0  0.48876261625E+02 -0.37890704308E+02  0.21904130452E+03  0.22760643117E+03  0.10000000000E+01 0.  0.
    9000005    1    3    3    0    0 -0.48876261625E+02  0.37890704308E+02  0.16152883281E+03  0.17296577191E+03  0.10000000000E+01 0.  0.
<mgrwt>
<rscale>  0 0.12499784E+03</rscale>
<asrwt>0</asrwt>
<pdfrwt beam="2">  1        4 0.15386208E-02 0.12499784E+03</pdfrwt>
<pdfrwt beam="1">  1       -4 0.60087860E-01 0.12499784E+03</pdfrwt>
<totfact> 0.64500255E+03</totfact>
</mgrwt>
</event>
<event>
 5    1  0.3309219E-002  0.1250006E+03  0.7818608E-02  0.1235068E+00
          4   -1    0    0  501    0  0.00000000000E+00  0.00000000000E+00  0.10885669361E+03  0.10886410172E+03  0.12700000000E+01 0. -1.
         -4   -1    0    0    0  501 -0.00000000000E+00 -0.00000000000E+00 -0.35864816269E+02  0.35887295050E+02  0.12700000000E+01 0. -1.
         25    2    1    2    0    0  0.00000000000E+00  0.00000000000E+00  0.72991877338E+02  0.14475139677E+03  0.12500061084E+03 0.  0.
    9000005    1    3    3    0    0  0.45139745315E+02 -0.34160800894E+02  0.58419938313E+01  0.56918237997E+02  0.10000000000E+01 0.  0.
    9000005    1    3    3    0    0 -0.45139745315E+02  0.34160800894E+02  0.67149883507E+02  0.87833158771E+02  0.10000000000E+01 0.  0.
<mgrwt>
<rscale>  0 0.12500061E+03</rscale>
<asrwt>0</asrwt>
<pdfrwt beam="1">  1        4 0.16749482E-01 0.12500061E+03</pdfrwt>
<pdfrwt beam="2">  1       -4 0.55199631E-02 0.12500061E+03</pdfrwt>
<totfact> 0.10035904E+04</totfact>
</mgrwt>
</event>
<event>
 5    1  0.3309219E-002  0.1250017E+03  0.7818608E-02  0.1235067E+00
         -4   -1    0    0    0  501 -0.00000000000E+00  0.00000000000E+00  0.34052483465E+03  0.34052720290E+03  0.12700000000E+01 0. -1.
          4   -1    0    0  501    0  0.00000000000E+00 -0.00000000000E+00 -0.11434015948E+02  0.11504330520E+02  0.12700000000E+01 0. -1.
         25    2    1    2    0    0  0.00000000000E+00  0.00000000000E+00  0.32909081870E+03  0.35203153342E+03  0.12500173425E+03 0.  0.
    9000005    1    3    3    0    0  0.54225460906E+02  0.29329860185E+02  0.19336410340E+03  0.20295644309E+03  0.10000000000E+01 0.  0.
    9000005    1    3    3    0    0 -0.54225460906E+02 -0.29329860185E+02  0.13572671530E+03  0.14907509033E+03  0.10000000000E+01 0.  0.
<mgrwt>
<rscale>  0 0.12500173E+03</rscale>
<asrwt>0</asrwt>
<pdfrwt beam="2">  1        4 0.17646705E-02 0.12500173E+03</pdfrwt>
<pdfrwt beam="1">  1       -4 0.52394024E-01 0.12500173E+03</pdfrwt>
<totfact> 0.69498972E+03</totfact>
</mgrwt>
</event>
<event>
 5    1  0.3309219E-002  0.1249991E+03  0.7818608E-02  0.1235071E+00
         -4   -1    0    0    0  501 -0.00000000000E+00  0.00000000000E+00  0.39107276693E+02  0.39127892741E+02  0.12700000000E+01 0. -1.
          4   -1    0    0  501    0  0.00000000000E+00 -0.00000000000E+00 -0.99833143978E+02  0.99841221630E+02  0.12700000000E+01 0. -1.
         25    2    1    2    0    0  0.00000000000E+00  0.00000000000E+00 -0.60725867284E+02  0.13896911437E+03  0.12499913516E+03 0.  0.
    9000005    1    3    3    0    0  0.51342231012E+02  0.59529108666E+01  0.86871589990E+01  0.52420688326E+02  0.10000000000E+01 0.  0.
    9000005    1    3    3    0    0 -0.51342231012E+02 -0.59529108666E+01 -0.69413026284E+02  0.86548426045E+02  0.10000000000E+01 0.  0.
<mgrwt>
<rscale>  0 0.12499914E+03</rscale>
<asrwt>0</asrwt>
<pdfrwt beam="2">  1        4 0.15361152E-01 0.12499914E+03</pdfrwt>
<pdfrwt beam="1">  1       -4 0.60187113E-02 0.12499914E+03</pdfrwt>
<totfact> 0.10155194E+04</totfact>
</mgrwt>
</event>
<event>
 5    1  0.3309219E-002  0.1250014E+03  0.7818608E-02  0.1235067E+00
         -4   -1    0    0    0  501 -0.00000000000E+00  0.00000000000E+00  0.32696310731E+02  0.32720966298E+02  0.12700000000E+01 0.  1.
          4   -1    0    0  501    0  0.00000000000E+00 -0.00000000000E+00 -0.11940035582E+03  0.11940710980E+03  0.12700000000E+01 0.  1.
         25    2    1    2    0    0  0.00000000000E+00  0.00000000000E+00 -0.86704045091E+02  0.15212807610E+03  0.12500144040E+03 0.  0.
    9000005    1    3    3    0    0 -0.21105511437E+02  0.55924150399E+02 -0.65539925069E+02  0.88709835920E+02  0.10000000000E+01 0.  0.
    9000005    1    3    3    0    0  0.21105511437E+02 -0.55924150399E+02 -0.21164120022E+02  0.63418240177E+02  0.10000000000E+01 0.  0.
<mgrwt>
<rscale>  0 0.12500144E+03</rscale>
<asrwt>0</asrwt>
<pdfrwt beam="2">  1        4 0.18371701E-01 0.12500144E+03</pdfrwt>
<pdfrwt beam="1">  1       -4 0.50326178E-02 0.12500144E+03</pdfrwt>
<totfact> 0.98877973E+03</totfact>
</mgrwt>
</event>
<event>
 5    1  0.3309219E-002  0.1249959E+03  0.7818608E-02  0.1235076E+00
          4   -1    0    0  501    0  0.00000000000E+00  0.00000000000E+00  0.16570234209E+04  0.16570239076E+04  0.12700000000E+01 0. -1.
         -4   -1    0    0    0  501 -0.00000000000E+00 -0.00000000000E+00 -0.21856548508E+01  0.25278423857E+01  0.12700000000E+01 0. -1.
         25    2    1    2    0    0  0.00000000000E+00  0.00000000000E+00  0.16548377661E+04  0.16595517500E+04  0.12499591550E+03 0.  0.
    9000005    1    3    3    0    0 -0.36961342533E+02  0.47752740752E+02  0.61394234979E+03  0.61690572534E+03  0.10000000000E+01 0.  0.
    9000005    1    3    3    0    0  0.36961342533E+02 -0.47752740752E+02  0.10408954163E+04  0.10426460246E+04  0.10000000000E+01 0.  0.
<mgrwt>
<rscale>  0 0.12499592E+03</rscale>
<asrwt>0</asrwt>
<pdfrwt beam="1">  1        4 0.25495319E+00 0.12499592E+03</pdfrwt>
<pdfrwt beam="2">  1       -4 0.36261394E-03 0.12499592E+03</pdfrwt>
<totfact> 0.14995361E+03</totfact>
</mgrwt>
</event>
<event>
 5    1  0.3309219E-002  0.1249947E+03  0.7818608E-02  0.1235077E+00
         -4   -1    0    0    0  501 -0.00000000000E+00  0.00000000000E+00  0.17932688184E+02  0.17977602885E+02  0.12700000000E+01 0. -1.
          4   -1    0    0  501    0  0.00000000000E+00 -0.00000000000E+00 -0.21749097095E+03  0.21749467889E+03  0.12700000000E+01 0. -1.
         25    2    1    2    0    0  0.00000000000E+00  0.00000000000E+00 -0.19955828276E+03  0.23547228177E+03  0.12499474894E+03 0.  0.
    9000005    1    3    3    0    0 -0.33830069302E+01  0.60553021320E+02 -0.12815035199E+03  0.14178020257E+03  0.10000000000E+01 0.  0.
    9000005    1    3    3    0    0  0.33830069302E+01 -0.60553021320E+02 -0.71407930774E+02  0.93692079197E+02  0.10000000000E+01 0.  0.
<mgrwt>
<rscale>  0 0.12499475E+03</rscale>
<asrwt>0</asrwt>
<pdfrwt beam="2">  1        4 0.33463888E-01 0.12499475E+03</pdfrwt>
<pdfrwt beam="1">  1       -4 0.27626155E-02 0.12499475E+03</pdfrwt>
<totfact> 0.84486239E+03</totfact>
</mgrwt>
</event>
<event>
 5    1  0.3309219E-002  0.1249940E+03  0.7818608E-02  0.1235079E+00
         -4   -1    0    0    0  501 -0.00000000000E+00  0.00000000000E+00  0.50087503934E+01  0.51672507684E+01  0.12700000000E+01 0. -1.
          4   -1    0    0  501    0  0.00000000000E+00 -0.00000000000E+00 -0.76750526322E+03  0.76750631396E+03  0.12700000000E+01 0. -1.
         25    2    1    2    0    0  0.00000000000E+00  0.00000000000E+00 -0.76249651283E+03  0.77267356473E+03  0.12499402209E+03 0.  0.
    9000005    1    3    3    0    0 -0.10656183664E+02 -0.40370224064E+02 -0.93845336154E+02  0.10271930860E+03  0.10000000000E+01 0.  0.
    9000005    1    3    3    0    0  0.10656183664E+02  0.40370224064E+02 -0.66865117667E+03  0.66995425613E+03  0.10000000000E+01 0.  0.
<mgrwt>
<rscale>  0 0.12499402E+03</rscale>
<asrwt>0</asrwt>
<pdfrwt beam="2">  1        4 0.11808991E+00 0.12499402E+03</pdfrwt>
<pdfrwt beam="1">  1       -4 0.78285076E-03 0.12499402E+03</pdfrwt>
<totfact> 0.39517595E+03</totfact>
</mgrwt>
</event>
<event>
 4    1  0.3309219E-002  0.1249234E+03  0.7818608E-02  0.1235189E+00
         -4   -1    0    0    0  501 -0.00000000000E+00  0.00000000000E+00  0.71595574901E+02  0.71606837980E+02  0.12700000000E+01 0. -1.
          4   -1    0    0  501    0  0.00000000000E+00 -0.00000000000E+00 -0.54470116836E+02  0.54484920190E+02  0.12700000000E+01 0. -1.
    9000005    1    1    2    0    0  0.22114298292E+02  0.58397565914E+02  0.96426174023E+01  0.63192546744E+02  0.10000000000E+01 0.  0.
    9000005    1    1    2    0    0 -0.22114298292E+02 -0.58397565914E+02  0.74828406631E+01  0.62899211426E+02  0.10000000000E+01 0.  0.
<mgrwt>
<rscale>  0 0.12492338E+03</rscale>
<asrwt>0</asrwt>
<pdfrwt beam="2">  1        4 0.83820231E-02 0.12492338E+03</pdfrwt>
<pdfrwt beam="1">  1       -4 0.11016709E-01 0.12492338E+03</pdfrwt>
<totfact> 0.10447002E+04</totfact>
</mgrwt>
</event>
<event>
 5    1  0.3309219E-002  0.1249893E+03  0.7818608E-02  0.1235086E+00
         -4   -1    0    0    0  501 -0.00000000000E+00  0.00000000000E+00  0.13407163463E+03  0.13407764956E+03  0.12700000000E+01 0.  1.
          4   -1    0    0  501    0  0.00000000000E+00 -0.00000000000E+00 -0.29110020646E+02  0.29137710995E+02  0.12700000000E+01 0.  1.
         25    2    1    2    0    0  0.00000000000E+00  0.00000000000E+00  0.10496161398E+03  0.16321536055E+03  0.12498925358E+03 0.  0.
    9000005    1    3    3    0    0  0.45154151066E+02  0.41877426586E+02  0.66298132604E+02  0.90493417455E+02  0.10000000000E+01 0.  0.
    9000005    1    3    3    0    0 -0.45154151066E+02 -0.41877426586E+02  0.38663481377E+02  0.72721943099E+02  0.10000000000E+01 0.  0.
<mgrwt>
<rscale>  0 0.12498925E+03</rscale>
<asrwt>0</asrwt>
<pdfrwt beam="2">  1        4 0.44810574E-02 0.12498925E+03</pdfrwt>
<pdfrwt beam="1">  1       -4 0.20628998E-01 0.12498925E+03</pdfrwt>
<totfact> 0.96749806E+03</totfact>
</mgrwt>
</event>
<event>
 5    1  0.3309219E-002  0.1250026E+03  0.7818608E-02  0.1235065E+00
          4   -1    0    0  501    0  0.00000000000E+00  0.00000000000E+00  0.41842963283E+02  0.41862232099E+02  0.12700000000E+01 0. -1.
         -4   -1    0    0    0  501 -0.00000000000E+00 -0.00000000000E+00 -0.93313834271E+02  0.93322476212E+02  0.12700000000E+01 0. -1.
         25    2    1    2    0    0  0.00000000000E+00  0.00000000000E+00 -0.51470870988E+02  0.13518470831E+03  0.12500261918E+03 0.  0.
    9000005    1    3    3    0    0  0.54929942472E+02 -0.19117331139E+02 -0.10118798722E+01  0.58178989599E+02  0.10000000000E+01 0.  0.
    9000005    1    3    3    0    0 -0.54929942472E+02  0.19117331139E+02 -0.50458991116E+02  0.77005718712E+02  0.10000000000E+01 0.  0.
<mgrwt>
<rscale>  0 0.12500262E+03</rscale>
<asrwt>0</asrwt>
<pdfrwt beam="1">  1        4 0.64395260E-02 0.12500262E+03</pdfrwt>
<pdfrwt beam="2">  1       -4 0.14358121E-01 0.12500262E+03</pdfrwt>
<totfact> 0.10233575E+04</totfact>
</mgrwt>
</event>
<event>
 5    1  0.3309219E-002  0.1249973E+03  0.7818608E-02  0.1235074E+00
         -4   -1    0    0    0  501 -0.00000000000E+00  0.00000000000E+00  0.74593422137E+02  0.74604232629E+02  0.12700000000E+01 0.  1.
          4   -1    0    0  501    0  0.00000000000E+00 -0.00000000000E+00 -0.52342636147E+02  0.52358041014E+02  0.12700000000E+01 0.  1.
         25    2    1    2    0    0  0.00000000000E+00  0.00000000000E+00  0.22250785991E+02  0.12696227364E+03  0.12499728578E+03 0.  0.
    9000005    1    3    3    0    0 -0.41779389575E+02 -0.18679990063E+02  0.54345703029E+02  0.71055716588E+02  0.10000000000E+01 0.  0.
    9000005    1    3    3    0    0  0.41779389575E+02  0.18679990063E+02 -0.32094917039E+02  0.55906557055E+02  0.10000000000E+01 0.  0.
<mgrwt>
<rscale>  0 0.12499729E+03</rscale>
<asrwt>0</asrwt>
<pdfrwt beam="2">  1        4 0.80547298E-02 0.12499729E+03</pdfrwt>
<pdfrwt beam="1">  1       -4 0.11477928E-01 0.12499729E+03</pdfrwt>
<totfact> 0.10410603E+04</totfact>
</mgrwt>
</event>
<event>
 5    1  0.3309219E-002  0.1250014E+03  0.7818608E-02  0.1235067E+00
          4   -1    0    0  501    0  0.00000000000E+00  0.00000000000E+00  0.47223748090E+03  0.47223918862E+03  0.12700000000E+01 0. -1.
         -4   -1    0    0    0  501 -0.00000000000E+00 -0.00000000000E+00 -0.82214999976E+01  0.83190120935E+01  0.12700000000E+01 0. -1.
         25    2    1    2    0    0  0.00000000000E+00  0.00000000000E+00  0.46401598091E+03  0.48055820071E+03  0.12500141495E+03 0.  0.
    9000005    1    3    3    0    0 -0.23490449389E+02  0.53549637597E+02  0.14725844577E+03  0.15844688306E+03  0.10000000000E+01 0.  0.
    9000005    1    3    3    0    0  0.23490449389E+02 -0.53549637597E+02  0.31675753513E+03  0.32211131766E+03  0.10000000000E+01 0.  0.
<mgrwt>
<rscale>  0 0.12500141E+03</rscale>
<asrwt>0</asrwt>
<pdfrwt beam="1">  1        4 0.72659567E-01 0.12500141E+03</pdfrwt>
<pdfrwt beam="2">  1       -4 0.12724782E-02 0.12500141E+03</pdfrwt>
<totfact> 0.57403210E+03</totfact>
</mgrwt>
</event>
<event>
 5    1  0.3309219E-002  0.1250000E+03  0.7818608E-02  0.1235069E+00
         -4   -1    0    0    0  501 -0.00000000000E+00  0.00000000000E+00  0.17610504032E+03  0.17610961963E+03  0.12700000000E+01 0. -1.
          4   -1    0    0  501    0  0.00000000000E+00 -0.00000000000E+00 -0.22158309767E+02  0.22194674851E+02  0.12700000000E+01 0. -1.
         25    2    1    2    0    0  0.00000000000E+00  0.00000000000E+00  0.15394673055E+03  0.19830429448E+03  0.12499998945E+03 0.  0.
    9000005    1    3    3    0    0 -0.37184542634E+02  0.48596164854E+02  0.56845525531E+02  0.83526589911E+02  0.10000000000E+01 0.  0.
    9000005    1    3    3    0    0  0.37184542634E+02 -0.48596164854E+02  0.97101205019E+02  0.11477770457E+03  0.10000000000E+01 0.  0.
<mgrwt>
<rscale>  0 0.12499999E+03</rscale>
<asrwt>0</asrwt>
<pdfrwt beam="2">  1        4 0.34121204E-02 0.12499999E+03</pdfrwt>
<pdfrwt beam="1">  1       -4 0.27096232E-01 0.12499999E+03</pdfrwt>
<totfact> 0.90422155E+03</totfact>
</mgrwt>
</event>
<event>
 5    1  0.3309219E-002  0.1249993E+03  0.7818608E-02  0.1235070E+00
         -4   -1    0    0    0  501 -0.00000000000E+00  0.00000000000E+00  0.94462889129E+01  0.95312787298E+01  0.12700000000E+01 0. -1.
          4   -1    0    0  501    0  0.00000000000E+00 -0.00000000000E+00 -0.41157981973E+03  0.41158177912E+03  0.12700000000E+01 0. -1.
         25    2    1    2    0    0  0.00000000000E+00  0.00000000000E+00 -0.40213353081E+03  0.42111305785E+03  0.12499932356E+03 0.  0.
    9000005    1    3    3    0    0  0.46455573061E+01 -0.23267982285E-01 -0.41101379969E+03  0.41104126956E+03  0.10000000000E+01 0.  0.
    9000005    1    3    3    0    0 -0.46455573061E+01  0.23267982285E-01  0.88802688780E+01  0.10071788293E+02  0.10000000000E+01 0.  0.
<mgrwt>
<rscale>  0 0.12499932E+03</rscale>
<asrwt>0</asrwt>
<pdfrwt beam="2">  1        4 0.63326647E-01 0.12499932E+03</pdfrwt>
<pdfrwt beam="1">  1       -4 0.14599639E-02 0.12499932E+03</pdfrwt>
<totfact> 0.62550822E+03</totfact>
</mgrwt>
</event>
<event>
 5    1  0.3309219E-002  0.1249926E+03  0.7818608E-02  0.1235081E+00
          4   -1    0    0  501    0  0.00000000000E+00  0.00000000000E+00  0.95176994774E+02  0.95185467558E+02  0.12700000000E+01 0.  1.
         -4   -1    0    0    0  501 -0.00000000000E+00 -0.00000000000E+00 -0.41016982841E+02  0.41036639499E+02  0.12700000000E+01 0.  1.
         25    2    1    2    0    0  0.00000000000E+00  0.00000000000E+00  0.54160011933E+02  0.13622210706E+03  0.12499262202E+03 0.  0.
    9000005    1    3    3    0    0 -0.13729873284E+02  0.44403904972E+02 -0.18440570178E+02  0.50012706642E+02  0.10000000000E+01 0.  0.
    9000005    1    3    3    0    0  0.13729873284E+02 -0.44403904972E+02  0.72600582111E+02  0.86209400416E+02  0.10000000000E+01 0.  0.
<mgrwt>
<rscale>  0 0.12499262E+03</rscale>
<asrwt>0</asrwt>
<pdfrwt beam="1">  1        4 0.14644778E-01 0.12499262E+03</pdfrwt>
<pdfrwt beam="2">  1       -4 0.63124689E-02 0.12499262E+03</pdfrwt>
<totfact> 0.10214075E+04</totfact>
</mgrwt>
</event>
<event>
 5    1  0.3309219E-002  0.1250029E+03  0.7818608E-02  0.1235065E+00
          4   -1    0    0  501    0  0.00000000000E+00  0.00000000000E+00  0.21081198933E+02  0.21119418753E+02  0.12700000000E+01 0.  1.
         -4   -1    0    0    0  501 -0.00000000000E+00 -0.00000000000E+00 -0.18509576467E+03  0.18510012156E+03  0.12700000000E+01 0.  1.
         25    2    1    2    0    0  0.00000000000E+00  0.00000000000E+00 -0.16401456574E+03  0.20621954031E+03  0.12500288409E+03 0.  0.
    9000005    1    3    3    0    0  0.48005956539E+02  0.24835913590E+02 -0.13375786369E+03  0.14426905616E+03  0.10000000000E+01 0.  0.
    9000005    1    3    3    0    0 -0.48005956539E+02 -0.24835913590E+02 -0.30256702050E+02  0.61950484147E+02  0.10000000000E+01 0.  0.
<mgrwt>
<rscale>  0 0.12500288E+03</rscale>
<asrwt>0</asrwt>
<pdfrwt beam="1">  1        4 0.32465366E-02 0.12500288E+03</pdfrwt>
<pdfrwt beam="2">  1       -4 0.28479546E-01 0.12500288E+03</pdfrwt>
<totfact> 0.89091279E+03</totfact>
</mgrwt>
</event>
<event>
 5    1  0.3309219E-002  0.1250008E+03  0.7818608E-02  0.1235068E+00
         -4   -1    0    0    0  501 -0.00000000000E+00  0.00000000000E+00  0.32063993793E+02  0.32089135201E+02  0.12700000000E+01 0. -1.
          4   -1    0    0  501    0  0.00000000000E+00 -0.00000000000E+00 -0.12175207666E+03  0.12175870018E+03  0.12700000000E+01 0. -1.
         25    2    1    2    0    0  0.00000000000E+00  0.00000000000E+00 -0.89688082864E+02  0.15384783538E+03  0.12500081698E+03 0.  0.
    9000005    1    3    3    0    0  0.50423342645E+02  0.12898594010E+02 -0.22725118332E+01  0.52106156267E+02  0.10000000000E+01 0.  0.
    9000005    1    3    3    0    0 -0.50423342645E+02 -0.12898594010E+02 -0.87415571031E+02  0.10174167912E+03  0.10000000000E+01 0.  0.
<mgrwt>
<rscale>  0 0.12500082E+03</rscale>
<asrwt>0</asrwt>
<pdfrwt beam="2">  1        4 0.18733532E-01 0.12500082E+03</pdfrwt>
<pdfrwt beam="1">  1       -4 0.49353656E-02 0.12500082E+03</pdfrwt>
<totfact> 0.98540334E+03</totfact>
</mgrwt>
</event>
<event>
 5    1  0.3309219E-002  0.1249948E+03  0.7818608E-02  0.1235077E+00
          4   -1    0    0  501    0  0.00000000000E+00  0.00000000000E+00  0.24155497669E+04  0.24155501008E+04  0.12700000000E+01 0. -1.
         -4   -1    0    0    0  501 -0.00000000000E+00 -0.00000000000E+00 -0.13672384596E+01  0.18660763664E+01  0.12700000000E+01 0. -1.
         25    2    1    2    0    0  0.00000000000E+00  0.00000000000E+00  0.24141825285E+04  0.24174161771E+04  0.12499477107E+03 0.  0.
    9000005    1    3    3    0    0  0.12672449662E+02 -0.60125215172E+02  0.98718213780E+03  0.98909312285E+03  0.10000000000E+01 0.  0.
    9000005    1    3    3    0    0 -0.12672449662E+02  0.60125215172E+02  0.14270003907E+04  0.14283230543E+04  0.10000000000E+01 0.  0.
<mgrwt>
<rscale>  0 0.12499477E+03</rscale>
<asrwt>0</asrwt>
<pdfrwt beam="1">  1        4 0.37166174E+00 0.12499477E+03</pdfrwt>
<pdfrwt beam="2">  1       -4 0.24874201E-03 0.12499477E+03</pdfrwt>
<totfact> 0.53516351E+02</totfact>
</mgrwt>
</event>
<event>
 5    1  0.3309219E-002  0.1249998E+03  0.7818608E-02  0.1235070E+00
          4   -1    0    0  501    0  0.00000000000E+00  0.00000000000E+00  0.42780322664E+03  0.42780511174E+03  0.12700000000E+01 0.  1.
         -4   -1    0    0    0  501 -0.00000000000E+00 -0.00000000000E+00 -0.90848464670E+01  0.91731856696E+01  0.12700000000E+01 0.  1.
         25    2    1    2    0    0  0.00000000000E+00  0.00000000000E+00  0.41871838018E+03  0.43697829741E+03  0.12499980202E+03 0.  0.
    9000005    1    3    3    0    0 -0.53311043458E+01  0.51527681025E+02  0.33154914467E+03  0.33557317818E+03  0.10000000000E+01 0.  0.
    9000005    1    3    3    0    0  0.53311043458E+01 -0.51527681025E+02  0.87169235513E+02  0.10140511923E+03  0.10000000000E+01 0.  0.
<mgrwt>
<rscale>  0 0.12499980E+03</rscale>
<asrwt>0</asrwt>
<pdfrwt beam="1">  1        4 0.65822847E-01 0.12499980E+03</pdfrwt>
<pdfrwt beam="2">  1       -4 0.14046085E-02 0.12499980E+03</pdfrwt>
<totfact> 0.61108756E+03</totfact>
</mgrwt>
</event>
<event>
 5    1  0.3309219E-002  0.1250023E+03  0.7818608E-02  0.1235066E+00
          4   -1    0    0  501    0  0.00000000000E+00  0.00000000000E+00  0.23067950311E+02  0.23102883620E+02  0.12700000000E+01 0. -1.
         -4   -1    0    0    0  501 -0.00000000000E+00 -0.00000000000E+00 -0.16917735113E+03  0.16918211796E+03  0.12700000000E+01 0. -1.
         25    2    1    2    0    0  0.00000000000E+00  0.00000000000E+00 -0.14610940082E+03  0.19228500158E+03  0.12500225927E+03 0.  0.
    9000005    1    3    3    0    0  0.25143922509E+02 -0.52587480316E+02 -0.38393427492E+02  0.69804836507E+02  0.10000000000E+01 0.  0.
    9000005    1    3    3    0    0 -0.25143922509E+02  0.52587480316E+02 -0.10771597333E+03  0.12248016507E+03  0.10000000000E+01 0.  0.
<mgrwt>
<rscale>  0 0.12500226E+03</rscale>
<asrwt>0</asrwt>
<pdfrwt beam="1">  1        4 0.35519694E-02 0.12500226E+03</pdfrwt>
<pdfrwt beam="2">  1       -4 0.26030338E-01 0.12500226E+03</pdfrwt>
<totfact> 0.91446619E+03</totfact>
</mgrwt>
</event>
<event>
 5    1  0.3309219E-002  0.1250101E+03  0.7818608E-02  0.1235054E+00
         -4   -1    0    0    0  501 -0.00000000000E+00  0.00000000000E+00  0.12394516862E+02  0.12459412034E+02  0.12700000000E+01 0.  1.
          4   -1    0    0  501    0  0.00000000000E+00 -0.00000000000E+00 -0.31432108234E+03  0.31432364801E+03  0.12700000000E+01 0.  1.
         25    2    1    2    0    0  0.00000000000E+00  0.00000000000E+00 -0.30192656547E+03  0.32678306005E+03  0.12501006918E+03 0.  0.
    9000005    1    3    3    0    0  0.26359378438E+02  0.53802460413E+02 -0.19745801949E+03  0.20634968146E+03  0.10000000000E+01 0.  0.
    9000005    1    3    3    0    0 -0.26359378438E+02 -0.53802460413E+02 -0.10446854599E+03  0.12043337859E+03  0.10000000000E+01 0.  0.
<mgrwt>
<rscale>  0 0.12501007E+03</rscale>
<asrwt>0</asrwt>
<pdfrwt beam="2">  1        4 0.48362273E-01 0.12501007E+03</pdfrwt>
<pdfrwt beam="1">  1       -4 0.19120383E-02 0.12501007E+03</pdfrwt>
<totfact> 0.72340428E+03</totfact>
</mgrwt>
</event>
<event>
 5    1  0.3309219E-002  0.1250059E+03  0.7818608E-02  0.1235060E+00
         -4   -1    0    0    0  501 -0.00000000000E+00  0.00000000000E+00  0.11486011761E+03  0.11486713855E+03  0.12700000000E+01 0. -1.
          4   -1    0    0  501    0  0.00000000000E+00 -0.00000000000E+00 -0.33992053665E+02  0.34015770054E+02  0.12700000000E+01 0. -1.
         25    2    1    2    0    0  0.00000000000E+00  0.00000000000E+00  0.80868063947E+02  0.14888290860E+03  0.12500590669E+03 0.  0.
    9000005    1    3    3    0    0 -0.20063638184E+02  0.10169811269E+02 -0.29009382297E+02  0.36722185388E+02  0.10000000000E+01 0.  0.
    9000005    1    3    3    0    0  0.20063638184E+02 -0.10169811269E+02  0.10987744624E+03  0.11216072321E+03  0.10000000000E+01 0.  0.
<mgrwt>
<rscale>  0 0.12500591E+03</rscale>
<asrwt>0</asrwt>
<pdfrwt beam="2">  1        4 0.52319110E-02 0.12500591E+03</pdfrwt>
<pdfrwt beam="1">  1       -4 0.17673152E-01 0.12500591E+03</pdfrwt>
<totfact> 0.99513609E+03</totfact>
</mgrwt>
</event>
<event>
 5    1  0.3309219E-002  0.1250012E+03  0.7818608E-02  0.1235067E+00
          4   -1    0    0  501    0  0.00000000000E+00  0.00000000000E+00  0.89064296457E+02  0.89073350691E+02  0.12700000000E+01 0. -1.
         -4   -1    0    0    0  501 -0.00000000000E+00 -0.00000000000E+00 -0.43839146406E+02  0.43857538207E+02  0.12700000000E+01 0. -1.
         25    2    1    2    0    0  0.00000000000E+00  0.00000000000E+00  0.45225150051E+02  0.13293088890E+03  0.12500122810E+03 0.  0.
    9000005    1    3    3    0    0 -0.34630682498E+02  0.51578074454E+02  0.15420029832E+02  0.64018429024E+02  0.10000000000E+01 0.  0.
    9000005    1    3    3    0    0  0.34630682498E+02 -0.51578074454E+02  0.29805120219E+02  0.68912459874E+02  0.10000000000E+01 0.  0.
<mgrwt>
<rscale>  0 0.12500123E+03</rscale>
<asrwt>0</asrwt>
<pdfrwt beam="1">  1        4 0.13704311E-01 0.12500123E+03</pdfrwt>
<pdfrwt beam="2">  1       -4 0.67465953E-02 0.12500123E+03</pdfrwt>
<totfact> 0.10281584E+04</totfact>
</mgrwt>
</event>
<event>
 5    1  0.3309219E-002  0.1250006E+03  0.7818608E-02  0.1235068E+00
         -4   -1    0    0    0  501 -0.00000000000E+00  0.00000000000E+00  0.26793058031E+03  0.26793359022E+03  0.12700000000E+01 0. -1.
          4   -1    0    0  501    0  0.00000000000E+00 -0.00000000000E+00 -0.14548719538E+02  0.14604045337E+02  0.12700000000E+01 0. -1.
         25    2    1    2    0    0  0.00000000000E+00  0.00000000000E+00  0.25338186078E+03  0.28253763556E+03  0.12500059254E+03 0.  0.
    9000005    1    3    3    0    0  0.53550462228E+02 -0.25780048867E+02  0.17034579903E+03  0.18041882987E+03  0.10000000000E+01 0.  0.
    9000005    1    3    3    0    0 -0.53550462228E+02  0.25780048867E+02  0.83036061747E+02  0.10211880569E+03  0.10000000000E+01 0.  0.
<mgrwt>
<rscale>  0 0.12500059E+03</rscale>
<asrwt>0</asrwt>
<pdfrwt beam="2">  1        4 0.22427519E-02 0.12500059E+03</pdfrwt>
<pdfrwt beam="1">  1       -4 0.41224577E-01 0.12500059E+03</pdfrwt>
<totfact> 0.77841806E+03</totfact>
</mgrwt>
</event>
<event>
 5    1  0.3309219E-002  0.1250229E+03  0.7818608E-02  0.1235033E+00
         -4   -1    0    0    0  501 -0.00000000000E+00  0.00000000000E+00  0.18522534714E+04  0.18522539068E+04  0.12700000000E+01 0.  1.
          4   -1    0    0  501    0  0.00000000000E+00 -0.00000000000E+00 -0.19180854273E+01  0.23004242449E+01  0.12700000000E+01 0.  1.
         25    2    1    2    0    0  0.00000000000E+00  0.00000000000E+00  0.18503353860E+04  0.18545543310E+04  0.12502290259E+03 0.  0.
    9000005    1    3    3    0    0 -0.24070228786E+01 -0.50719663668E+02  0.38451920933E+03  0.38785860875E+03  0.10000000000E+01 0.  0.
    9000005    1    3    3    0    0  0.24070228786E+01  0.50719663668E+02  0.14658161766E+04  0.14666957223E+04  0.10000000000E+01 0.  0.
<mgrwt>
<rscale>  0 0.12502290E+03</rscale>
<asrwt>0</asrwt>
<pdfrwt beam="2">  1        4 0.32453343E-03 0.12502290E+03</pdfrwt>
<pdfrwt beam="1">  1       -4 0.28499223E+00 0.12502290E+03</pdfrwt>
<totfact> 0.11875350E+03</totfact>
</mgrwt>
</event>
<event>
 5    1  0.3309219E-002  0.1249998E+03  0.7818608E-02  0.1235070E+00
          4   -1    0    0  501    0  0.00000000000E+00  0.00000000000E+00  0.53719315670E+01  0.55200134746E+01  0.12700000000E+01 0.  1.
         -4   -1    0    0    0  501 -0.00000000000E+00 -0.00000000000E+00 -0.71712184052E+03  0.71712296509E+03  0.12700000000E+01 0.  1.
         25    2    1    2    0    0  0.00000000000E+00  0.00000000000E+00 -0.71174990895E+03  0.72264297856E+03  0.12499976626E+03 0.  0.
    9000005    1    3    3    0    0 -0.18395301823E+02 -0.57452202327E+02 -0.26157074591E+03  0.26843881574E+03  0.10000000000E+01 0.  0.
    9000005    1    3    3    0    0  0.18395301823E+02  0.57452202327E+02 -0.45017916305E+03  0.45420416282E+03  0.10000000000E+01 0.  0.
<mgrwt>
<rscale>  0 0.12499977E+03</rscale>
<asrwt>0</asrwt>
<pdfrwt beam="1">  1        4 0.83792900E-03 0.12499977E+03</pdfrwt>
<pdfrwt beam="2">  1       -4 0.11033784E+00 0.12499977E+03</pdfrwt>
<totfact> 0.41918251E+03</totfact>
</mgrwt>
</event>
<event>
 5    1  0.3309219E-002  0.1250011E+03  0.7818608E-02  0.1235068E+00
          4   -1    0    0  501    0  0.00000000000E+00  0.00000000000E+00  0.36327029931E+02  0.36349222874E+02  0.12700000000E+01 0.  1.
         -4   -1    0    0    0  501 -0.00000000000E+00 -0.00000000000E+00 -0.10747321580E+03  0.10748071927E+03  0.12700000000E+01 0.  1.
         25    2    1    2    0    0  0.00000000000E+00  0.00000000000E+00 -0.71146185871E+02  0.14382994214E+03  0.12500108997E+03 0.  0.
    9000005    1    3    3    0    0 -0.52840011782E+02  0.30959598807E+01  0.26525147950E+01  0.53006486844E+02  0.10000000000E+01 0.  0.
    9000005    1    3    3    0    0  0.52840011782E+02 -0.30959598807E+01 -0.73798700666E+02  0.90823455300E+02  0.10000000000E+01 0.  0.
<mgrwt>
<rscale>  0 0.12500109E+03</rscale>
<asrwt>0</asrwt>
<pdfrwt beam="1">  1        4 0.55910582E-02 0.12500109E+03</pdfrwt>
<pdfrwt beam="2">  1       -4 0.16536625E-01 0.12500109E+03</pdfrwt>
<totfact> 0.10054569E+04</totfact>
</mgrwt>
</event>
<event>
 5    1  0.3309219E-002  0.1250008E+03  0.7818608E-02  0.1235068E+00
          4   -1    0    0  501    0  0.00000000000E+00  0.00000000000E+00  0.11587918546E+02  0.11657304844E+02  0.12700000000E+01 0. -1.
         -4   -1    0    0    0  501 -0.00000000000E+00 -0.00000000000E+00 -0.33602417831E+03  0.33602657828E+03  0.12700000000E+01 0. -1.
         25    2    1    2    0    0  0.00000000000E+00  0.00000000000E+00 -0.32443625977E+03  0.34768388313E+03  0.12500078373E+03 0.  0.
    9000005    1    3    3    0    0 -0.16072660887E+02  0.18210284835E+02 -0.20645014267E+01  0.24396865945E+02  0.10000000000E+01 0.  0.
    9000005    1    3    3    0    0  0.16072660887E+02 -0.18210284835E+02 -0.32237175834E+03  0.32328701718E+03  0.10000000000E+01 0.  0.
<mgrwt>
<rscale>  0 0.12500078E+03</rscale>
<asrwt>0</asrwt>
<pdfrwt beam="1">  1        4 0.17882790E-02 0.12500078E+03</pdfrwt>
<pdfrwt beam="2">  1       -4 0.51701542E-01 0.12500078E+03</pdfrwt>
<totfact> 0.69978900E+03</totfact>
</mgrwt>
</event>
<event>
 5    1  0.3309219E-002  0.1249821E+03  0.7818608E-02  0.1235097E+00
         -4   -1    0    0    0  501 -0.00000000000E+00  0.00000000000E+00  0.15994823658E+03  0.15995327844E+03  0.12700000000E+01 0.  1.
          4   -1    0    0  501    0  0.00000000000E+00 -0.00000000000E+00 -0.24393034653E+02  0.24426072947E+02  0.12700000000E+01 0.  1.
         25    2    1    2    0    0  0.00000000000E+00  0.00000000000E+00  0.13555520192E+03  0.18437935139E+03  0.12498212852E+03 0.  0.
    9000005    1    3    3    0    0  0.33206070906E+02  0.45969603493E+02  0.29074239732E+02  0.63735068889E+02  0.10000000000E+01 0.  0.
    9000005    1    3    3    0    0 -0.33206070906E+02 -0.45969603493E+02  0.10648096219E+03  0.12064428250E+03  0.10000000000E+01 0.  0.
<mgrwt>
<rscale>  0 0.12498213E+03</rscale>
<asrwt>0</asrwt>
<pdfrwt beam="2">  1        4 0.37557037E-02 0.12498213E+03</pdfrwt>
<pdfrwt beam="1">  1       -4 0.24610351E-01 0.12498213E+03</pdfrwt>
<totfact> 0.92871785E+03</totfact>
</mgrwt>
</event>
<event>
 5    1  0.3309219E-002  0.1250003E+03  0.7818608E-02  0.1235069E+00
         -4   -1    0    0    0  501 -0.00000000000E+00  0.00000000000E+00  0.91350505297E+02  0.91359332955E+02  0.12700000000E+01 0. -1.
          4   -1    0    0  501    0  0.00000000000E+00 -0.00000000000E+00 -0.42741017697E+02  0.42759881826E+02  0.12700000000E+01 0. -1.
         25    2    1    2    0    0  0.00000000000E+00  0.00000000000E+00  0.48609487600E+02  0.13411921478E+03  0.12500032595E+03 0.  0.
    9000005    1    3    3    0    0  0.90289667410E+01  0.35760843192E+02  0.78432009659E+02  0.86677218953E+02  0.10000000000E+01 0.  0.
    9000005    1    3    3    0    0 -0.90289667410E+01 -0.35760843192E+02 -0.29822522059E+02  0.47441995828E+02  0.10000000000E+01 0.  0.
<mgrwt>
<rscale>  0 0.12500033E+03</rscale>
<asrwt>0</asrwt>
<pdfrwt beam="2">  1        4 0.65776714E-02 0.12500033E+03</pdfrwt>
<pdfrwt beam="1">  1       -4 0.14056054E-01 0.12500033E+03</pdfrwt>
<totfact> 0.10256594E+04</totfact>
</mgrwt>
</event>
<event>
 5    1  0.3309219E-002  0.1250040E+03  0.7818608E-02  0.1235063E+00
          4   -1    0    0  501    0  0.00000000000E+00  0.00000000000E+00  0.23226846672E+03  0.23227193875E+03  0.12700000000E+01 0. -1.
         -4   -1    0    0    0  501 -0.00000000000E+00 -0.00000000000E+00 -0.16791312310E+02  0.16839271632E+02  0.12700000000E+01 0. -1.
         25    2    1    2    0    0  0.00000000000E+00  0.00000000000E+00  0.21547715441E+03  0.24911121039E+03  0.12500396421E+03 0.  0.
    9000005    1    3    3    0    0  0.12382318836E+02  0.56270827983E+02  0.15597032488E+03  0.16627528423E+03  0.10000000000E+01 0.  0.
    9000005    1    3    3    0    0 -0.12382318836E+02 -0.56270827983E+02  0.59506829528E+02  0.82835926156E+02  0.10000000000E+01 0.  0.
<mgrwt>
<rscale>  0 0.12500396E+03</rscale>
<asrwt>0</asrwt>
<pdfrwt beam="1">  1        4 0.35737566E-01 0.12500396E+03</pdfrwt>
<pdfrwt beam="2">  1       -4 0.25872351E-02 0.12500396E+03</pdfrwt>
<totfact> 0.82451573E+03</totfact>
</mgrwt>
</event>
<event>
 5    1  0.3309219E-002  0.1250000E+03  0.7818608E-02  0.1235069E+00
          4   -1    0    0  501    0  0.00000000000E+00  0.00000000000E+00  0.63066151787E+03  0.63066279660E+03  0.12700000000E+01 0. -1.
         -4   -1    0    0    0  501 -0.00000000000E+00 -0.00000000000E+00 -0.61274939091E+01  0.62577217584E+01  0.12700000000E+01 0. -1.
         25    2    1    2    0    0  0.00000000000E+00  0.00000000000E+00  0.62453402396E+03  0.63692051836E+03  0.12499999851E+03 0.  0.
    9000005    1    3    3    0    0  0.57908093549E+01 -0.62223078837E+02  0.31191055167E+03  0.31811073112E+03  0.10000000000E+01 0.  0.
    9000005    1    3    3    0    0 -0.57908093549E+01  0.62223078837E+02  0.31262347229E+03  0.31880978724E+03  0.10000000000E+01 0.  0.
<mgrwt>
<rscale>  0 0.12500000E+03</rscale>
<asrwt>0</asrwt>
<pdfrwt beam="1">  1        4 0.97034940E-01 0.12500000E+03</pdfrwt>
<pdfrwt beam="2">  1       -4 0.95280750E-03 0.12500000E+03</pdfrwt>
<totfact> 0.46617039E+03</totfact>
</mgrwt>
</event>
<event>
 5    1  0.3309219E-002  0.1250001E+03  0.7818608E-02  0.1235069E+00
         -4   -1    0    0    0  501 -0.00000000000E+00  0.00000000000E+00  0.20632521735E+02  0.20671571134E+02  0.12700000000E+01 0. -1.
          4   -1    0    0  501    0  0.00000000000E+00 -0.00000000000E+00 -0.18910499116E+03  0.18910925568E+03  0.12700000000E+01 0. -1.
         25    2    1    2    0    0  0.00000000000E+00  0.00000000000E+00 -0.16847246943E+03  0.20978082681E+03  0.12500008937E+03 0.  0.
    9000005    1    3    3    0    0 -0.44650252589E+02  0.31886500802E+02 -0.34032803055E+02  0.64572638736E+02  0.10000000000E+01 0.  0.
    9000005    1    3    3    0    0  0.44650252589E+02 -0.31886500802E+02 -0.13443966637E+03  0.14520818807E+03  0.10000000000E+01 0.  0.
<mgrwt>
<rscale>  0 0.12500009E+03</rscale>
<asrwt>0</asrwt>
<pdfrwt beam="2">  1        4 0.29096406E-01 0.12500009E+03</pdfrwt>
<pdfrwt beam="1">  1       -4 0.31775661E-02 0.12500009E+03</pdfrwt>
<totfact> 0.88511511E+03</totfact>
</mgrwt>
</event>
<event>
 5    1  0.3309219E-002  0.1249893E+03  0.7818608E-02  0.1235086E+00
         -4   -1    0    0    0  501 -0.00000000000E+00  0.00000000000E+00  0.29035764872E+03  0.29036042615E+03  0.12700000000E+01 0.  1.
          4   -1    0    0  501    0  0.00000000000E+00 -0.00000000000E+00 -0.13418107113E+02  0.13478074732E+02  0.12700000000E+01 0.  1.
         25    2    1    2    0    0  0.00000000000E+00  0.00000000000E+00  0.27693954161E+03  0.30383850088E+03  0.12498929918E+03 0.  0.
    9000005    1    3    3    0    0  0.46855110496E+01 -0.56705059451E+02  0.75680405469E+02  0.94688655884E+02  0.10000000000E+01 0.  0.
    9000005    1    3    3    0    0 -0.46855110496E+01  0.56705059451E+02  0.20125913614E+03  0.20914984500E+03  0.10000000000E+01 0.  0.
<mgrwt>
<rscale>  0 0.12498930E+03</rscale>
<asrwt>0</asrwt>
<pdfrwt beam="2">  1        4 0.20691510E-02 0.12498930E+03</pdfrwt>
<pdfrwt beam="1">  1       -4 0.44675228E-01 0.12498930E+03</pdfrwt>
<totfact> 0.75137699E+03</totfact>
</mgrwt>
</event>
<event>
 5    1  0.3309219E-002  0.1249976E+03  0.7818608E-02  0.1235073E+00
         -4   -1    0    0    0  501 -0.00000000000E+00  0.00000000000E+00  0.22769564813E+03  0.22769918989E+03  0.12700000000E+01 0. -1.
          4   -1    0    0  501    0  0.00000000000E+00 -0.00000000000E+00 -0.17127723055E+02  0.17174742998E+02  0.12700000000E+01 0. -1.
         25    2    1    2    0    0  0.00000000000E+00  0.00000000000E+00  0.21056792507E+03  0.24487393289E+03  0.12499756773E+03 0.  0.
    9000005    1    3    3    0    0  0.52246063199E+02  0.28068105518E+02  0.14385388290E+03  0.15560337172E+03  0.10000000000E+01 0.  0.
    9000005    1    3    3    0    0 -0.52246063199E+02 -0.28068105518E+02  0.66714042177E+02  0.89270561165E+02  0.10000000000E+01 0.  0.
<mgrwt>
<rscale>  0 0.12499757E+03</rscale>
<asrwt>0</asrwt>
<pdfrwt beam="2">  1        4 0.26389237E-02 0.12499757E+03</pdfrwt>
<pdfrwt beam="1">  1       -4 0.35033989E-01 0.12499757E+03</pdfrwt>
<totfact> 0.83081297E+03</totfact>
</mgrwt>
</event>
<event>
 5    1  0.3309219E-002  0.1249991E+03  0.7818608E-02  0.1235071E+00
          4   -1    0    0  501    0  0.00000000000E+00  0.00000000000E+00  0.34757298811E+02  0.34780493393E+02  0.12700000000E+01 0. -1.
         -4   -1    0    0    0  501 -0.00000000000E+00 -0.00000000000E+00 -0.11232063694E+03  0.11232781660E+03  0.12700000000E+01 0. -1.
         25    2    1    2    0    0  0.00000000000E+00  0.00000000000E+00 -0.77563338127E+02  0.14710830999E+03  0.12499913379E+03 0.  0.
    9000005    1    3    3    0    0  0.10006963688E+02  0.70018387263E+01  0.33344817103E+02  0.35525228999E+02  0.10000000000E+01 0.  0.
    9000005    1    3    3    0    0 -0.10006963688E+02 -0.70018387263E+01 -0.11090815523E+03  0.11158308099E+03  0.10000000000E+01 0.  0.
<mgrwt>
<rscale>  0 0.12499913E+03</rscale>
<asrwt>0</asrwt>
<pdfrwt beam="1">  1        4 0.53496133E-02 0.12499913E+03</pdfrwt>
<pdfrwt beam="2">  1       -4 0.17282434E-01 0.12499913E+03</pdfrwt>
<totfact> 0.99885216E+03</totfact>
</mgrwt>
</event>
<event>
 5    1  0.3309219E-002  0.1250014E+03  0.7818608E-02  0.1235067E+00
          4   -1    0    0  501    0  0.00000000000E+00  0.00000000000E+00  0.34105629556E+02  0.34129267021E+02  0.12700000000E+01 0.  1.
         -4   -1    0    0    0  501 -0.00000000000E+00 -0.00000000000E+00 -0.11446959500E+03  0.11447663988E+03  0.12700000000E+01 0.  1.
         25    2    1    2    0    0  0.00000000000E+00  0.00000000000E+00 -0.80363965441E+02  0.14860590690E+03  0.12500139449E+03 0.  0.
    9000005    1    3    3    0    0  0.39989069751E+02  0.38027358832E+02 -0.75048103079E+02  0.93158056522E+02  0.10000000000E+01 0.  0.
    9000005    1    3    3    0    0 -0.39989069751E+02 -0.38027358832E+02 -0.53158623620E+01  0.55447850381E+02  0.10000000000E+01 0.  0.
<mgrwt>
<rscale>  0 0.12500139E+03</rscale>
<asrwt>0</asrwt>
<pdfrwt beam="1">  1        4 0.52493802E-02 0.12500139E+03</pdfrwt>
<pdfrwt beam="2">  1       -4 0.17613067E-01 0.12500139E+03</pdfrwt>
<totfact> 0.99579193E+03</totfact>
</mgrwt>
</event>
<event>
 5    1  0.3309219E-002  0.1249990E+03  0.7818608E-02  0.1235071E+00
          4   -1    0    0  501    0  0.00000000000E+00  0.00000000000E+00  0.19431711349E+03  0.19432126362E+03  0.12700000000E+01 0.  1.
         -4   -1    0    0    0  501 -0.00000000000E+00 -0.00000000000E+00 -0.20077709749E+02  0.20117836086E+02  0.12700000000E+01 0.  1.
         25    2    1    2    0    0  0.00000000000E+00  0.00000000000E+00  0.17423940374E+03  0.21443909971E+03  0.12499903066E+03 0.  0.
    9000005    1    3    3    0    0  0.36546613906E+01 -0.58820050428E+02  0.51461736263E+02  0.78246183174E+02  0.10000000000E+01 0.  0.
    9000005    1    3    3    0    0 -0.36546613906E+01  0.58820050428E+02  0.12277766748E+03  0.13619291653E+03  0.10000000000E+01 0.  0.
<mgrwt>
<rscale>  0 0.12499903E+03</rscale>
<asrwt>0</asrwt>
<pdfrwt beam="1">  1        4 0.29898346E-01 0.12499903E+03</pdfrwt>
<pdfrwt beam="2">  1       -4 0.30922844E-02 0.12499903E+03</pdfrwt>
<totfact> 0.87757911E+03</totfact>
</mgrwt>
</event>
<event>
 5    1  0.3309219E-002  0.1249989E+03  0.7818608E-02  0.1235071E+00
         -4   -1    0    0    0  501 -0.00000000000E+00  0.00000000000E+00  0.20468370054E+03  0.20468764049E+03  0.12700000000E+01 0.  1.
          4   -1    0    0  501    0  0.00000000000E+00 -0.00000000000E+00 -0.19058725493E+02  0.19100992576E+02  0.12700000000E+01 0.  1.
         25    2    1    2    0    0  0.00000000000E+00  0.00000000000E+00  0.18562497505E+03  0.22378863306E+03  0.12499888370E+03 0.  0.
    9000005    1    3    3    0    0 -0.24522794688E+01 -0.62415059732E+02  0.96174713954E+02  0.11468316773E+03  0.10000000000E+01 0.  0.
    9000005    1    3    3    0    0  0.24522794688E+01  0.62415059732E+02  0.89450261098E+02  0.10910546534E+03  0.10000000000E+01 0.  0.
<mgrwt>
<rscale>  0 0.12499888E+03</rscale>
<asrwt>0</asrwt>
<pdfrwt beam="2">  1        4 0.29356660E-02 0.12499888E+03</pdfrwt>
<pdfrwt beam="1">  1       -4 0.31493355E-01 0.12499888E+03</pdfrwt>
<totfact> 0.86274525E+03</totfact>
</mgrwt>
</event>
<event>
 5    1  0.3309219E-002  0.1249555E+03  0.7818608E-02  0.1235139E+00
         -4   -1    0    0    0  501 -0.00000000000E+00  0.00000000000E+00  0.26840075577E+02  0.26870105266E+02  0.12700000000E+01 0.  1.
          4   -1    0    0  501    0  0.00000000000E+00 -0.00000000000E+00 -0.14532019599E+03  0.14532574535E+03  0.12700000000E+01 0.  1.
         25    2    1    2    0    0  0.00000000000E+00  0.00000000000E+00 -0.11848012041E+03  0.17219585062E+03  0.12495548022E+03 0.  0.
    9000005    1    3    3    0    0  0.29403382420E+02  0.19155267180E+02 -0.13046024343E+03  0.13510128894E+03  0.10000000000E+01 0.  0.
    9000005    1    3    3    0    0 -0.29403382420E+02 -0.19155267180E+02  0.11980123016E+02  0.37094561676E+02  0.10000000000E+01 0.  0.
<mgrwt>
<rscale>  0 0.12495548E+03</rscale>
<asrwt>0</asrwt>
<pdfrwt beam="2">  1        4 0.22359690E-01 0.12495548E+03</pdfrwt>
<pdfrwt beam="1">  1       -4 0.41319794E-02 0.12495548E+03</pdfrwt>
<totfact> 0.95135948E+03</totfact>
</mgrwt>
</event>
<event>
 5    1  0.3309219E-002  0.1249991E+03  0.7818608E-02  0.1235071E+00
         -4   -1    0    0    0  501 -0.00000000000E+00  0.00000000000E+00  0.26279923396E+02  0.26310592424E+02  0.12700000000E+01 0. -1.
          4   -1    0    0  501    0  0.00000000000E+00 -0.00000000000E+00 -0.14851776687E+03  0.14852319677E+03  0.12700000000E+01 0. -1.
         25    2    1    2    0    0  0.00000000000E+00  0.00000000000E+00 -0.12223784348E+03  0.17483378919E+03  0.12499905385E+03 0.  0.
    9000005    1    3    3    0    0 -0.46172459195E+02  0.36911116580E+02 -0.32767954852E+02  0.67594862087E+02  0.10000000000E+01 0.  0.
    9000005    1    3    3    0    0  0.46172459195E+02 -0.36911116580E+02 -0.89469888627E+02  0.10723892710E+03  0.10000000000E+01 0.  0.
<mgrwt>
<rscale>  0 0.12499905E+03</rscale>
<asrwt>0</asrwt>
<pdfrwt beam="2">  1        4 0.22851663E-01 0.12499905E+03</pdfrwt>
<pdfrwt beam="1">  1       -4 0.40458421E-02 0.12499905E+03</pdfrwt>
<totfact> 0.94557298E+03</totfact>
</mgrwt>
</event>
<event>
 5    1  0.3309219E-002  0.1250242E+03  0.7818608E-02  0.1235032E+00
          4   -1    0    0  501    0  0.00000000000E+00  0.00000000000E+00  0.27037039788E+03  0.27037338062E+03  0.12700000000E+01 0. -1.
         -4   -1    0    0    0  501 -0.00000000000E+00 -0.00000000000E+00 -0.14422392835E+02  0.14478201376E+02  0.12700000000E+01 0. -1.
         25    2    1    2    0    0  0.00000000000E+00  0.00000000000E+00  0.25594800504E+03  0.28485158200E+03  0.12502416759E+03 0.  0.
    9000005    1    3    3    0    0 -0.50349452174E+02 -0.23329708004E+02  0.19351109181E+03  0.20131290386E+03  0.10000000000E+01 0.  0.
    9000005    1    3    3    0    0  0.50349452174E+02  0.23329708004E+02  0.62436913235E+02  0.83538678132E+02  0.10000000000E+01 0.  0.
<mgrwt>
<rscale>  0 0.12502417E+03</rscale>
<asrwt>0</asrwt>
<pdfrwt beam="1">  1        4 0.41599971E-01 0.12502417E+03</pdfrwt>
<pdfrwt beam="2">  1       -4 0.22233519E-02 0.12502417E+03</pdfrwt>
<totfact> 0.77497558E+03</totfact>
</mgrwt>
</event>
<event>
 5    1  0.3309219E-002  0.1249939E+03  0.7818608E-02  0.1235079E+00
          4   -1    0    0  501    0  0.00000000000E+00  0.00000000000E+00  0.86847464693E+03  0.86847557551E+03  0.12700000000E+01 0.  1.
         -4   -1    0    0    0  501 -0.00000000000E+00 -0.00000000000E+00 -0.44067812386E+01  0.45861335442E+01  0.12700000000E+01 0.  1.
         25    2    1    2    0    0  0.00000000000E+00  0.00000000000E+00  0.86406786569E+03  0.87306170906E+03  0.12499388505E+03 0.  0.
    9000005    1    3    3    0    0 -0.37318594668E+02 -0.39858460563E+02  0.21977152752E+03  0.22645506993E+03  0.10000000000E+01 0.  0.
    9000005    1    3    3    0    0  0.37318594668E+02  0.39858460563E+02  0.64429633817E+03  0.64660663913E+03  0.10000000000E+01 0.  0.
<mgrwt>
<rscale>  0 0.12499389E+03</rscale>
<asrwt>0</asrwt>
<pdfrwt beam="1">  1        4 0.13362524E+00 0.12499389E+03</pdfrwt>
<pdfrwt beam="2">  1       -4 0.69183469E-03 0.12499389E+03</pdfrwt>
<totfact> 0.35206482E+03</totfact>
</mgrwt>
</event>
<event>
 5    1  0.3309219E-002  0.1250006E+03  0.7818608E-02  0.1235068E+00
          4   -1    0    0  501    0  0.00000000000E+00  0.00000000000E+00  0.53044056465E+03  0.53044208499E+03  0.12700000000E+01 0. -1.
         -4   -1    0    0    0  501 -0.00000000000E+00 -0.00000000000E+00 -0.73079317861E+01  0.74174636494E+01  0.12700000000E+01 0. -1.
         25    2    1    2    0    0  0.00000000000E+00  0.00000000000E+00  0.52313263286E+03  0.53785954863E+03  0.12500056997E+03 0.  0.
    9000005    1    3    3    0    0 -0.45941994330E+02  0.31168351887E+02  0.38501801576E+03  0.38900129236E+03  0.10000000000E+01 0.  0.
    9000005    1    3    3    0    0  0.45941994330E+02 -0.31168351887E+02  0.13811461710E+03  0.14885825627E+03  0.10000000000E+01 0.  0.
<mgrwt>
<rscale>  0 0.12500057E+03</rscale>
<asrwt>0</asrwt>
<pdfrwt beam="1">  1        4 0.81614814E-01 0.12500057E+03</pdfrwt>
<pdfrwt beam="2">  1       -4 0.11328392E-02 0.12500057E+03</pdfrwt>
<totfact> 0.53041423E+03</totfact>
</mgrwt>
</event>
<event>
 5    1  0.3309219E-002  0.1249987E+03  0.7818608E-02  0.1235071E+00
         -4   -1    0    0    0  501 -0.00000000000E+00  0.00000000000E+00  0.51180134622E+02  0.51195889288E+02  0.12700000000E+01 0. -1.
          4   -1    0    0  501    0  0.00000000000E+00 -0.00000000000E+00 -0.76289168498E+02  0.76299738729E+02  0.12700000000E+01 0. -1.
         25    2    1    2    0    0  0.00000000000E+00  0.00000000000E+00 -0.25109033875E+02  0.12749562802E+03  0.12499868632E+03 0.  0.
    9000005    1    3    3    0    0 -0.43627413459E+02  0.43137207045E+02 -0.24665974452E+02  0.66133048716E+02  0.10000000000E+01 0.  0.
    9000005    1    3    3    0    0  0.43627413459E+02 -0.43137207045E+02 -0.44305942359E+00  0.61362579301E+02  0.10000000000E+01 0.  0.
<mgrwt>
<rscale>  0 0.12499869E+03</rscale>
<asrwt>0</asrwt>
<pdfrwt beam="2">  1        4 0.11738820E-01 0.12499869E+03</pdfrwt>
<pdfrwt beam="1">  1       -4 0.78758919E-02 0.12499869E+03</pdfrwt>
<totfact> 0.10398704E+04</totfact>
</mgrwt>
</event>
<event>
 5    1  0.3309219E-002  0.1250093E+03  0.7818608E-02  0.1235055E+00
          4   -1    0    0  501    0  0.00000000000E+00  0.00000000000E+00  0.26208570907E+03  0.26208878609E+03  0.12700000000E+01 0. -1.
         -4   -1    0    0    0  501 -0.00000000000E+00 -0.00000000000E+00 -0.14876465433E+02  0.14930576806E+02  0.12700000000E+01 0. -1.
         25    2    1    2    0    0  0.00000000000E+00  0.00000000000E+00  0.24720924363E+03  0.27701936290E+03  0.12500926879E+03 0.  0.
    9000005    1    3    3    0    0  0.56265269609E+02  0.14221417439E+02  0.17499458748E+03  0.18436956074E+03  0.10000000000E+01 0.  0.
    9000005    1    3    3    0    0 -0.56265269609E+02 -0.14221417439E+02  0.72214656151E+02  0.92649802165E+02  0.10000000000E+01 0.  0.
<mgrwt>
<rscale>  0 0.12500927E+03</rscale>
<asrwt>0</asrwt>
<pdfrwt beam="1">  1        4 0.40325274E-01 0.12500927E+03</pdfrwt>
<pdfrwt beam="2">  1       -4 0.22930863E-02 0.12500927E+03</pdfrwt>
<totfact> 0.78558794E+03</totfact>
</mgrwt>
</event>
<event>
 5    1  0.3309219E-002  0.1250159E+03  0.7818608E-02  0.1235044E+00
          4   -1    0    0  501    0  0.00000000000E+00  0.00000000000E+00  0.62051753354E+02  0.62064748403E+02  0.12700000000E+01 0.  1.
         -4   -1    0    0    0  501 -0.00000000000E+00 -0.00000000000E+00 -0.62941487950E+02  0.62954299340E+02  0.12700000000E+01 0.  1.
         25    2    1    2    0    0  0.00000000000E+00  0.00000000000E+00 -0.88973459596E+00  0.12501904774E+03  0.12501588167E+03 0.  0.
    9000005    1    3    3    0    0  0.20607912096E+02  0.30525660794E+02 -0.50941102875E+02  0.62868895092E+02  0.10000000000E+01 0.  0.
    9000005    1    3    3    0    0 -0.20607912096E+02 -0.30525660794E+02  0.50051368279E+02  0.62150152651E+02  0.10000000000E+01 0.  0.
<mgrwt>
<rscale>  0 0.12501588E+03</rscale>
<asrwt>0</asrwt>
<pdfrwt beam="1">  1        4 0.95484087E-02 0.12501588E+03</pdfrwt>
<pdfrwt beam="2">  1       -4 0.96852910E-02 0.12501588E+03</pdfrwt>
<totfact> 0.10448698E+04</totfact>
</mgrwt>
</event>
<event>
 5    1  0.3309219E-002  0.1249836E+03  0.7818608E-02  0.1235095E+00
         -4   -1    0    0    0  501 -0.00000000000E+00  0.00000000000E+00  0.71866265608E+03  0.71866377823E+03  0.12700000000E+01 0.  1.
          4   -1    0    0  501    0  0.00000000000E+00 -0.00000000000E+00 -0.53586676451E+01  0.55071062211E+01  0.12700000000E+01 0.  1.
         25    2    1    2    0    0  0.00000000000E+00  0.00000000000E+00  0.71330398843E+03  0.72417088445E+03  0.12498355881E+03 0.  0.
    9000005    1    3    3    0    0 -0.45274998374E+01  0.23546013698E+02  0.22329762898E+02  0.32780044645E+02  0.10000000000E+01 0.  0.
    9000005    1    3    3    0    0  0.45274998374E+01 -0.23546013698E+02  0.69097422554E+03  0.69139083981E+03  0.10000000000E+01 0.  0.
<mgrwt>
<rscale>  0 0.12498356E+03</rscale>
<asrwt>0</asrwt>
<pdfrwt beam="2">  1        4 0.83591493E-03 0.12498356E+03</pdfrwt>
<pdfrwt beam="1">  1       -4 0.11057501E+00 0.12498356E+03</pdfrwt>
<totfact> 0.41856077E+03</totfact>
</mgrwt>
</event>
<event>
 5    1  0.3309219E-002  0.1249963E+03  0.7818608E-02  0.1235075E+00
         -4   -1    0    0    0  501 -0.00000000000E+00  0.00000000000E+00  0.84357873217E+03  0.84357968816E+03  0.12700000000E+01 0.  1.
          4   -1    0    0  501    0  0.00000000000E+00 -0.00000000000E+00 -0.45422318628E+01  0.47164361858E+01  0.12700000000E+01 0.  1.
         25    2    1    2    0    0  0.00000000000E+00  0.00000000000E+00  0.83903650031E+03  0.84829612435E+03  0.12499626285E+03 0.  0.
    9000005    1    3    3    0    0  0.75063826459E+01  0.44455505307E+02  0.12585655591E+03  0.13369184866E+03  0.10000000000E+01 0.  0.
    9000005    1    3    3    0    0 -0.75063826459E+01 -0.44455505307E+02  0.71317994441E+03  0.71460427569E+03  0.10000000000E+01 0.  0.
<mgrwt>
<rscale>  0 0.12499626E+03</rscale>
<asrwt>0</asrwt>
<pdfrwt beam="2">  1        4 0.71227867E-03 0.12499626E+03</pdfrwt>
<pdfrwt beam="1">  1       -4 0.12979484E+00 0.12499626E+03</pdfrwt>
<totfact> 0.36200096E+03</totfact>
</mgrwt>
</event>
<event>
 5    1  0.3309219E-002  0.1250039E+03  0.7818608E-02  0.1235063E+00
         -4   -1    0    0    0  501 -0.00000000000E+00  0.00000000000E+00  0.60446299497E+02  0.60459639619E+02  0.12700000000E+01 0.  1.
          4   -1    0    0  501    0  0.00000000000E+00 -0.00000000000E+00 -0.64600748424E+02  0.64613230819E+02  0.12700000000E+01 0.  1.
         25    2    1    2    0    0  0.00000000000E+00  0.00000000000E+00 -0.41544489263E+01  0.12507287044E+03  0.12500385384E+03 0.  0.
    9000005    1    3    3    0    0 -0.11052107538E+02  0.57652364692E+02  0.19371650072E+02  0.61823984522E+02  0.10000000000E+01 0.  0.
    9000005    1    3    3    0    0  0.11052107538E+02 -0.57652364692E+02 -0.23526098998E+02  0.63248885917E+02  0.10000000000E+01 0.  0.
<mgrwt>
<rscale>  0 0.12500385E+03</rscale>
<asrwt>0</asrwt>
<pdfrwt beam="2">  1        4 0.99405630E-02 0.12500385E+03</pdfrwt>
<pdfrwt beam="1">  1       -4 0.93014171E-02 0.12500385E+03</pdfrwt>
<totfact> 0.10450370E+04</totfact>
</mgrwt>
</event>
<event>
 5    1  0.3309219E-002  0.1249992E+03  0.7818608E-02  0.1235071E+00
         -4   -1    0    0    0  501 -0.00000000000E+00  0.00000000000E+00  0.20673030091E+02  0.20712003118E+02  0.12700000000E+01 0.  1.
          4   -1    0    0  501    0  0.00000000000E+00 -0.00000000000E+00 -0.18873240006E+03  0.18873667299E+03  0.12700000000E+01 0.  1.
         25    2    1    2    0    0  0.00000000000E+00  0.00000000000E+00 -0.16805936997E+03  0.20944867611E+03  0.12499918436E+03 0.  0.
    9000005    1    3    3    0    0  0.13009403165E+02 -0.55705416961E+02 -0.12618230735E+03  0.13854714987E+03  0.10000000000E+01 0.  0.
    9000005    1    3    3    0    0 -0.13009403165E+02  0.55705416961E+02 -0.41877062618E+02  0.70901526239E+02  0.10000000000E+01 0.  0.
<mgrwt>
<rscale>  0 0.12499918E+03</rscale>
<asrwt>0</asrwt>
<pdfrwt beam="2">  1        4 0.29039079E-01 0.12499918E+03</pdfrwt>
<pdfrwt beam="1">  1       -4 0.31837929E-02 0.12499918E+03</pdfrwt>
<totfact> 0.88567614E+03</totfact>
</mgrwt>
</event>
<event>
 5    1  0.3309219E-002  0.1250061E+03  0.7818608E-02  0.1235060E+00
         -4   -1    0    0    0  501 -0.00000000000E+00  0.00000000000E+00  0.18515828046E+03  0.18516263587E+03  0.12700000000E+01 0.  1.
          4   -1    0    0  501    0  0.00000000000E+00 -0.00000000000E+00 -0.21075146205E+02  0.21113376981E+02  0.12700000000E+01 0.  1.
         25    2    1    2    0    0  0.00000000000E+00  0.00000000000E+00  0.16408313425E+03  0.20627601285E+03  0.12500607398E+03 0.  0.
    9000005    1    3    3    0    0 -0.14751323394E+02 -0.50456486094E+02  0.26273807663E+02  0.58777304293E+02  0.10000000000E+01 0.  0.
    9000005    1    3    3    0    0  0.14751323394E+02  0.50456486094E+02  0.13780932659E+03  0.14749870856E+03  0.10000000000E+01 0.  0.
<mgrwt>
<rscale>  0 0.12500607E+03</rscale>
<asrwt>0</asrwt>
<pdfrwt beam="2">  1        4 0.32456062E-02 0.12500607E+03</pdfrwt>
<pdfrwt beam="1">  1       -4 0.28489164E-01 0.12500607E+03</pdfrwt>
<totfact> 0.89075591E+03</totfact>
</mgrwt>
</event>
<event>
 5    1  0.3309219E-002  0.1249992E+03  0.7818608E-02  0.1235070E+00
          4   -1    0    0  501    0  0.00000000000E+00  0.00000000000E+00  0.71206020827E+02  0.71217345514E+02  0.12700000000E+01 0. -1.
         -4   -1    0    0    0  501 -0.00000000000E+00 -0.00000000000E+00 -0.54834700358E+02  0.54849405314E+02  0.12700000000E+01 0. -1.
         25    2    1    2    0    0  0.00000000000E+00  0.00000000000E+00  0.16371320469E+02  0.12606675083E+03  0.12499922212E+03 0.  0.
    9000005    1    3    3    0    0  0.62584091175E+01 -0.60696576799E+02 -0.54187692407E+01  0.61266672669E+02  0.10000000000E+01 0.  0.
    9000005    1    3    3    0    0 -0.62584091175E+01  0.60696576799E+02  0.21790089710E+02  0.64800078159E+02  0.10000000000E+01 0.  0.
<mgrwt>
<rscale>  0 0.12499922E+03</rscale>
<asrwt>0</asrwt>
<pdfrwt beam="1">  1        4 0.10956775E-01 0.12499922E+03</pdfrwt>
<pdfrwt beam="2">  1       -4 0.84381100E-02 0.12499922E+03</pdfrwt>
<totfact> 0.10429678E+04</totfact>
</mgrwt>
</event>
<event>
 5    1  0.3309219E-002  0.1249989E+03  0.7818608E-02  0.1235071E+00
          4   -1    0    0  501    0  0.00000000000E+00  0.00000000000E+00  0.12186797007E+03  0.12187458730E+03  0.12700000000E+01 0.  1.
         -4   -1    0    0    0  501 -0.00000000000E+00 -0.00000000000E+00 -0.32032476112E+02  0.32057642238E+02  0.12700000000E+01 0.  1.
         25    2    1    2    0    0  0.00000000000E+00  0.00000000000E+00  0.89835493963E+02  0.15393222954E+03  0.12499886126E+03 0.  0.
    9000005    1    3    3    0    0  0.22409994509E+02  0.58329687917E+02  0.43949274618E+02  0.76400910242E+02  0.10000000000E+01 0.  0.
    9000005    1    3    3    0    0 -0.22409994509E+02 -0.58329687917E+02  0.45886219345E+02  0.77531319298E+02  0.10000000000E+01 0.  0.
<mgrwt>
<rscale>  0 0.12499886E+03</rscale>
<asrwt>0</asrwt>
<pdfrwt beam="1">  1        4 0.18751363E-01 0.12499886E+03</pdfrwt>
<pdfrwt beam="2">  1       -4 0.49305181E-02 0.12499886E+03</pdfrwt>
<totfact> 0.98528047E+03</totfact>
</mgrwt>
</event>
<event>
 5    1  0.3309219E-002  0.1250011E+03  0.7818608E-02  0.1235068E+00
         -4   -1    0    0    0  501 -0.00000000000E+00  0.00000000000E+00  0.37138734507E+03  0.37138951652E+03  0.12700000000E+01 0.  1.
          4   -1    0    0  501    0  0.00000000000E+00 -0.00000000000E+00 -0.10477632194E+02  0.10554320271E+02  0.12700000000E+01 0.  1.
         25    2    1    2    0    0  0.00000000000E+00  0.00000000000E+00  0.36090971288E+03  0.38194383679E+03  0.12500109444E+03 0.  0.
    9000005    1    3    3    0    0  0.36449241726E+01 -0.17238372837E+02 -0.27459463429E+01  0.17860212530E+02  0.10000000000E+01 0.  0.
    9000005    1    3    3    0    0 -0.36449241726E+01  0.17238372837E+02  0.36365565922E+03  0.36408362426E+03  0.10000000000E+01 0.  0.
<mgrwt>
<rscale>  0 0.12500109E+03</rscale>
<asrwt>0</asrwt>
<pdfrwt beam="2">  1        4 0.16180095E-02 0.12500109E+03</pdfrwt>
<pdfrwt beam="1">  1       -4 0.57142583E-01 0.12500109E+03</pdfrwt>
<totfact> 0.66346019E+03</totfact>
</mgrwt>
</event>
<event>
 5    1  0.3309219E-002  0.1250005E+03  0.7818608E-02  0.1235068E+00
         -4   -1    0    0    0  501 -0.00000000000E+00  0.00000000000E+00  0.49863468618E+03  0.49863630350E+03  0.12700000000E+01 0. -1.
          4   -1    0    0  501    0  0.00000000000E+00 -0.00000000000E+00 -0.77808448225E+01  0.78838091143E+01  0.12700000000E+01 0. -1.
         25    2    1    2    0    0  0.00000000000E+00  0.00000000000E+00  0.49085384136E+03  0.50652011261E+03  0.12500052360E+03 0.  0.
    9000005    1    3    3    0    0 -0.33923573987E+02 -0.26485867474E+02  0.42902851466E+03  0.43118299646E+03  0.10000000000E+01 0.  0.
    9000005    1    3    3    0    0  0.33923573987E+02  0.26485867474E+02  0.61825326704E+02  0.75337116151E+02  0.10000000000E+01 0.  0.
<mgrwt>
<rscale>  0 0.12500052E+03</rscale>
<asrwt>0</asrwt>
<pdfrwt beam="2">  1        4 0.12050975E-02 0.12500052E+03</pdfrwt>
<pdfrwt beam="1">  1       -4 0.76721089E-01 0.12500052E+03</pdfrwt>
<totfact> 0.55361365E+03</totfact>
</mgrwt>
</event>
<event>
 5    1  0.3309219E-002  0.1250011E+03  0.7818608E-02  0.1235068E+00
         -4   -1    0    0    0  501 -0.00000000000E+00  0.00000000000E+00  0.68499091642E+01  0.69666459331E+01  0.12700000000E+01 0.  1.
          4   -1    0    0  501    0  0.00000000000E+00 -0.00000000000E+00 -0.56533720268E+03  0.56533862917E+03  0.12700000000E+01 0.  1.
         25    2    1    2    0    0  0.00000000000E+00  0.00000000000E+00 -0.55848729351E+03  0.57230527510E+03  0.12500108357E+03 0.  0.
    9000005    1    3    3    0    0  0.52197997442E+02 -0.31705616945E+02 -0.21860087072E+03  0.22697404645E+03  0.10000000000E+01 0.  0.
    9000005    1    3    3    0    0 -0.52197997442E+02  0.31705616945E+02 -0.33988642279E+03  0.34533122865E+03  0.10000000000E+01 0.  0.
<mgrwt>
<rscale>  0 0.12500108E+03</rscale>
<asrwt>0</asrwt>
<pdfrwt beam="2">  1        4 0.86984008E-01 0.12500108E+03</pdfrwt>
<pdfrwt beam="1">  1       -4 0.10629221E-02 0.12500108E+03</pdfrwt>
<totfact> 0.50662595E+03</totfact>
</mgrwt>
</event>
<event>
 5    1  0.3309219E-002  0.1249992E+03  0.7818608E-02  0.1235071E+00
          4   -1    0    0  501    0  0.00000000000E+00  0.00000000000E+00  0.10766485033E+03  0.10767234044E+03  0.12700000000E+01 0. -1.
         -4   -1    0    0    0  501 -0.00000000000E+00 -0.00000000000E+00 -0.36261224479E+02  0.36283457673E+02  0.12700000000E+01 0. -1.
         25    2    1    2    0    0  0.00000000000E+00  0.00000000000E+00  0.71403625851E+02  0.14395579812E+03  0.12499917610E+03 0.  0.
    9000005    1    3    3    0    0 -0.39546705738E+02  0.13813129595E+02 -0.17703823152E+02  0.45488128541E+02  0.10000000000E+01 0.  0.
    9000005    1    3    3    0    0  0.39546705738E+02 -0.13813129595E+02  0.89107449003E+02  0.98467669576E+02  0.10000000000E+01 0.  0.
<mgrwt>
<rscale>  0 0.12499918E+03</rscale>
<asrwt>0</asrwt>
<pdfrwt beam="1">  1        4 0.16566109E-01 0.12499918E+03</pdfrwt>
<pdfrwt beam="2">  1       -4 0.55809364E-02 0.12499918E+03</pdfrwt>
<totfact> 0.10052434E+04</totfact>
</mgrwt>
</event>
<event>
 5    1  0.3309219E-002  0.1250014E+03  0.7818608E-02  0.1235067E+00
         -4   -1    0    0    0  501 -0.00000000000E+00  0.00000000000E+00  0.91623164575E+02  0.91631965966E+02  0.12700000000E+01 0. -1.
          4   -1    0    0  501    0  0.00000000000E+00 -0.00000000000E+00 -0.42614526988E+02  0.42633447086E+02  0.12700000000E+01 0. -1.
         25    2    1    2    0    0  0.00000000000E+00  0.00000000000E+00  0.49008637587E+02  0.13426541305E+03  0.12500141833E+03 0.  0.
    9000005    1    3    3    0    0  0.42042676831E+02 -0.16478354105E+02 -0.21896980813E+02  0.50195623294E+02  0.10000000000E+01 0.  0.
    9000005    1    3    3    0    0 -0.42042676831E+02  0.16478354105E+02  0.70905618400E+02  0.84069789757E+02  0.10000000000E+01 0.  0.
<mgrwt>
<rscale>  0 0.12500142E+03</rscale>
<asrwt>0</asrwt>
<pdfrwt beam="2">  1        4 0.65582136E-02 0.12500142E+03</pdfrwt>
<pdfrwt beam="1">  1       -4 0.14098004E-01 0.12500142E+03</pdfrwt>
<totfact> 0.10253249E+04</totfact>
</mgrwt>
</event>
<event>
 4    1  0.3309219E-002  0.1253522E+03  0.7818608E-02  0.1234520E+00
          4   -1    0    0  501    0  0.00000000000E+00  0.00000000000E+00  0.52447239107E+03  0.52447392871E+03  0.12700000000E+01 0. -1.
         -4   -1    0    0    0  501 -0.00000000000E+00 -0.00000000000E+00 -0.74345957234E+01  0.75422883510E+01  0.12700000000E+01 0. -1.
    9000005    1    1    2    0    0  0.15992853360E+02 -0.26586850636E+02  0.27429262975E+02  0.41424587538E+02  0.10000000000E+01 0.  0.
    9000005    1    1    2    0    0 -0.15992853360E+02  0.26586850636E+02  0.48960853237E+03  0.49059162952E+03  0.10000000000E+01 0.  0.
<mgrwt>
<rscale>  0 0.12535220E+03</rscale>
<asrwt>0</asrwt>
<pdfrwt beam="1">  1        4 0.80696463E-01 0.12535220E+03</pdfrwt>
<pdfrwt beam="2">  1       -4 0.11521863E-02 0.12535220E+03</pdfrwt>
<totfact> 0.53051628E+03</totfact>
</mgrwt>
</event>
<event>
 5    1  0.3309219E-002  0.1249988E+03  0.7818608E-02  0.1235071E+00
         -4   -1    0    0    0  501 -0.00000000000E+00  0.00000000000E+00  0.73944386101E+02  0.73955291466E+02  0.12700000000E+01 0. -1.
          4   -1    0    0  501    0  0.00000000000E+00 -0.00000000000E+00 -0.52803442042E+02  0.52818712513E+02  0.12700000000E+01 0. -1.
         25    2    1    2    0    0  0.00000000000E+00  0.00000000000E+00  0.21140944059E+02  0.12677400398E+03  0.12499883427E+03 0.  0.
    9000005    1    3    3    0    0 -0.36786687544E+01  0.21908870777E+00  0.73839060952E+02  0.73937727352E+02  0.10000000000E+01 0.  0.
    9000005    1    3    3    0    0  0.36786687544E+01 -0.21908870777E+00 -0.52698116893E+02  0.52836276627E+02  0.10000000000E+01 0.  0.
<mgrwt>
<rscale>  0 0.12499883E+03</rscale>
<asrwt>0</asrwt>
<pdfrwt beam="2">  1        4 0.81256200E-02 0.12499883E+03</pdfrwt>
<pdfrwt beam="1">  1       -4 0.11378073E-01 0.12499883E+03</pdfrwt>
<totfact> 0.10414333E+04</totfact>
</mgrwt>
</event>
<event>
 4    1  0.3309219E-002  0.1252221E+03  0.7818608E-02  0.1234723E+00
          4   -1    0    0  501    0  0.00000000000E+00  0.00000000000E+00  0.24663669675E+01  0.27741423933E+01  0.12700000000E+01 0.  1.
         -4   -1    0    0    0  501 -0.00000000000E+00 -0.00000000000E+00 -0.14957855424E+04  0.14957860816E+04  0.12700000000E+01 0.  1.
    9000005    1    1    2    0    0 -0.28628069929E+02  0.48096608134E+02 -0.41108725400E+03  0.41488140535E+03  0.10000000000E+01 0.  0.
    9000005    1    1    2    0    0  0.28628069929E+02 -0.48096608134E+02 -0.10822319215E+04  0.10836788186E+04  0.10000000000E+01 0.  0.
<mgrwt>
<rscale>  0 0.12522214E+03</rscale>
<asrwt>0</asrwt>
<pdfrwt beam="1">  1        4 0.40315877E-03 0.12522214E+03</pdfrwt>
<pdfrwt beam="2">  1       -4 0.23014389E+00 0.12522214E+03</pdfrwt>
<totfact> 0.17871930E+03</totfact>
</mgrwt>
</event>
<event>
 5    1  0.3309219E-002  0.1250007E+03  0.7818608E-02  0.1235068E+00
          4   -1    0    0  501    0  0.00000000000E+00  0.00000000000E+00  0.65700100491E+02  0.65712374059E+02  0.12700000000E+01 0. -1.
         -4   -1    0    0    0  501 -0.00000000000E+00 -0.00000000000E+00 -0.59431812145E+02  0.59445379928E+02  0.12700000000E+01 0. -1.
         25    2    1    2    0    0  0.00000000000E+00  0.00000000000E+00  0.62682883461E+01  0.12515775399E+03  0.12500068778E+03 0.  0.
    9000005    1    3    3    0    0 -0.17468553935E+02 -0.49359272080E+02 -0.31023305986E+02  0.60868165991E+02  0.10000000000E+01 0.  0.
    9000005    1    3    3    0    0  0.17468553935E+02  0.49359272080E+02  0.37291594332E+02  0.64289587996E+02  0.10000000000E+01 0.  0.
<mgrwt>
<rscale>  0 0.12500069E+03</rscale>
<asrwt>0</asrwt>
<pdfrwt beam="1">  1        4 0.10109696E-01 0.12500069E+03</pdfrwt>
<pdfrwt beam="2">  1       -4 0.91453435E-02 0.12500069E+03</pdfrwt>
<totfact> 0.10449275E+04</totfact>
</mgrwt>
</event>
<event>
 5    1  0.3309219E-002  0.1250037E+03  0.7818608E-02  0.1235063E+00
          4   -1    0    0  501    0  0.00000000000E+00  0.00000000000E+00  0.27717613818E+02  0.27746693781E+02  0.12700000000E+01 0. -1.
         -4   -1    0    0    0  501 -0.00000000000E+00 -0.00000000000E+00 -0.14083278305E+03  0.14083850923E+03  0.12700000000E+01 0. -1.
         25    2    1    2    0    0  0.00000000000E+00  0.00000000000E+00 -0.11311516923E+03  0.16858520301E+03  0.12500371660E+03 0.  0.
    9000005    1    3    3    0    0  0.49473279112E+00  0.60825977533E+02 -0.75887809362E+02  0.97262551443E+02  0.10000000000E+01 0.  0.
    9000005    1    3    3    0    0 -0.49473279112E+00 -0.60825977533E+02 -0.37227359869E+02  0.71322651565E+02  0.10000000000E+01 0.  0.
<mgrwt>
<rscale>  0 0.12500372E+03</rscale>
<asrwt>0</asrwt>
<pdfrwt beam="1">  1        4 0.42669257E-02 0.12500372E+03</pdfrwt>
<pdfrwt beam="2">  1       -4 0.21669259E-01 0.12500372E+03</pdfrwt>
<totfact> 0.95704700E+03</totfact>
</mgrwt>
</event>
<event>
 5    1  0.3309219E-002  0.1249977E+03  0.7818608E-02  0.1235073E+00
          4   -1    0    0  501    0  0.00000000000E+00  0.00000000000E+00  0.36599088375E+03  0.36599308722E+03  0.12700000000E+01 0.  1.
         -4   -1    0    0    0  501 -0.00000000000E+00 -0.00000000000E+00 -0.10632665974E+02  0.10708243821E+02  0.12700000000E+01 0.  1.
         25    2    1    2    0    0  0.00000000000E+00  0.00000000000E+00  0.35535821778E+03  0.37670133104E+03  0.12499771943E+03 0.  0.
    9000005    1    3    3    0    0 -0.17274541645E+02 -0.44648495638E+02  0.56635893262E+02  0.74165506520E+02  0.10000000000E+01 0.  0.
    9000005    1    3    3    0    0  0.17274541645E+02  0.44648495638E+02  0.29872232452E+03  0.30253582452E+03  0.10000000000E+01 0.  0.
<mgrwt>
<rscale>  0 0.12499772E+03</rscale>
<asrwt>0</asrwt>
<pdfrwt beam="1">  1        4 0.56312286E-01 0.12499772E+03</pdfrwt>
<pdfrwt beam="2">  1       -4 0.16417776E-02 0.12499772E+03</pdfrwt>
<totfact> 0.66886992E+03</totfact>
</mgrwt>
</event>
<event>
 5    1  0.3309219E-002  0.1250005E+03  0.7818608E-02  0.1235069E+00
         -4   -1    0    0    0  501 -0.00000000000E+00  0.00000000000E+00  0.18155411217E+03  0.18155855404E+03  0.12700000000E+01 0.  1.
          4   -1    0    0  501    0  0.00000000000E+00 -0.00000000000E+00 -0.21492334930E+02  0.21529824912E+02  0.12700000000E+01 0.  1.
         25    2    1    2    0    0  0.00000000000E+00  0.00000000000E+00  0.16006177724E+03  0.20308837895E+03  0.12500046853E+03 0.  0.
    9000005    1    3    3    0    0 -0.19240931172E+02 -0.28540033969E+02  0.16477321386E+03  0.16833288145E+03  0.10000000000E+01 0.  0.
    9000005    1    3    3    0    0  0.19240931172E+02  0.28540033969E+02 -0.47114366257E+01  0.34755497499E+02  0.10000000000E+01 0.  0.
<mgrwt>
<rscale>  0 0.12500047E+03</rscale>
<asrwt>0</asrwt>
<pdfrwt beam="2">  1        4 0.33097385E-02 0.12500047E+03</pdfrwt>
<pdfrwt beam="1">  1       -4 0.27934628E-01 0.12500047E+03</pdfrwt>
<totfact> 0.89616287E+03</totfact>
</mgrwt>
</event>
<event>
 5    1  0.3309219E-002  0.1250037E+03  0.7818608E-02  0.1235064E+00
         -4   -1    0    0    0  501 -0.00000000000E+00  0.00000000000E+00  0.32494192205E+02  0.32519001016E+02  0.12700000000E+01 0. -1.
          4   -1    0    0  501    0  0.00000000000E+00 -0.00000000000E+00 -0.12014684714E+03  0.12015355916E+03  0.12700000000E+01 0. -1.
         25    2    1    2    0    0  0.00000000000E+00  0.00000000000E+00 -0.87652654940E+02  0.15267256018E+03  0.12500369080E+03 0.  0.
    9000005    1    3    3    0    0 -0.31407665706E+02  0.51156028422E+02 -0.65054543221E+02  0.88523862899E+02  0.10000000000E+01 0.  0.
    9000005    1    3    3    0    0  0.31407665706E+02 -0.51156028422E+02 -0.22598111719E+02  0.64148697277E+02  0.10000000000E+01 0.  0.
<mgrwt>
<rscale>  0 0.12500369E+03</rscale>
<asrwt>0</asrwt>
<pdfrwt beam="2">  1        4 0.18486555E-01 0.12500369E+03</pdfrwt>
<pdfrwt beam="1">  1       -4 0.50015312E-02 0.12500369E+03</pdfrwt>
<totfact> 0.98765405E+03</totfact>
</mgrwt>
</event>
<event>
 5    1  0.3309219E-002  0.1249994E+03  0.7818608E-02  0.1235070E+00
          4   -1    0    0  501    0  0.00000000000E+00  0.00000000000E+00  0.83677210585E+02  0.83686847660E+02  0.12700000000E+01 0.  1.
         -4   -1    0    0    0  501 -0.00000000000E+00 -0.00000000000E+00 -0.46660935702E+02  0.46678215696E+02  0.12700000000E+01 0.  1.
         25    2    1    2    0    0  0.00000000000E+00  0.00000000000E+00  0.37016274883E+02  0.13036506336E+03  0.12499938055E+03 0.  0.
    9000005    1    3    3    0    0 -0.22439320083E+02 -0.85335478457E+01  0.78681123751E+02  0.82268242715E+02  0.10000000000E+01 0.  0.
    9000005    1    3    3    0    0  0.22439320083E+02  0.85335478457E+01 -0.41664848868E+02  0.48096820641E+02  0.10000000000E+01 0.  0.
<mgrwt>
<rscale>  0 0.12499938E+03</rscale>
<asrwt>0</asrwt>
<pdfrwt beam="1">  1        4 0.12875488E-01 0.12499938E+03</pdfrwt>
<pdfrwt beam="2">  1       -4 0.71806760E-02 0.12499938E+03</pdfrwt>
<totfact> 0.10336849E+04</totfact>
</mgrwt>
</event>
<event>
 5    1  0.3309219E-002  0.1250001E+03  0.7818608E-02  0.1235069E+00
         -4   -1    0    0    0  501 -0.00000000000E+00  0.00000000000E+00  0.11092991201E+03  0.11093718167E+03  0.12700000000E+01 0.  1.
          4   -1    0    0  501    0  0.00000000000E+00 -0.00000000000E+00 -0.35193851538E+02  0.35216758597E+02  0.12700000000E+01 0.  1.
         25    2    1    2    0    0  0.00000000000E+00  0.00000000000E+00  0.75736060467E+02  0.14615394027E+03  0.12500009361E+03 0.  0.
    9000005    1    3    3    0    0  0.40786417986E+01  0.27911934412E+02  0.10306817720E+03  0.10686327972E+03  0.10000000000E+01 0.  0.
    9000005    1    3    3    0    0 -0.40786417986E+01 -0.27911934412E+02 -0.27332116731E+02  0.39290660551E+02  0.10000000000E+01 0.  0.
<mgrwt>
<rscale>  0 0.12500009E+03</rscale>
<asrwt>0</asrwt>
<pdfrwt beam="2">  1        4 0.54167601E-02 0.12500009E+03</pdfrwt>
<pdfrwt beam="1">  1       -4 0.17068461E-01 0.12500009E+03</pdfrwt>
<totfact> 0.10007574E+04</totfact>
</mgrwt>
</event>
<event>
 5    1  0.3309219E-002  0.1250001E+03  0.7818608E-02  0.1235069E+00
          4   -1    0    0  501    0  0.00000000000E+00  0.00000000000E+00  0.18900461239E+02  0.18943081456E+02  0.12700000000E+01 0.  1.
         -4   -1    0    0    0  501 -0.00000000000E+00 -0.00000000000E+00 -0.20639800304E+03  0.20640191026E+03  0.12700000000E+01 0.  1.
         25    2    1    2    0    0  0.00000000000E+00  0.00000000000E+00 -0.18749754181E+03  0.22534499172E+03  0.12500014844E+03 0.  0.
    9000005    1    3    3    0    0 -0.20685900185E+02 -0.50715151104E+02 -0.14799130122E+03  0.15780481062E+03  0.10000000000E+01 0.  0.
    9000005    1    3    3    0    0  0.20685900185E+02  0.50715151104E+02 -0.39506240588E+02  0.67540181103E+02  0.10000000000E+01 0.  0.
<mgrwt>
<rscale>  0 0.12500015E+03</rscale>
<asrwt>0</asrwt>
<pdfrwt beam="1">  1        4 0.29113424E-02 0.12500015E+03</pdfrwt>
<pdfrwt beam="2">  1       -4 0.31757117E-01 0.12500015E+03</pdfrwt>
<totfact> 0.86029257E+03</totfact>
</mgrwt>
</event>
<event>
 5    1  0.3309219E-002  0.1249998E+03  0.7818608E-02  0.1235070E+00
          4   -1    0    0  501    0  0.00000000000E+00  0.00000000000E+00  0.11750038360E+03  0.11750724678E+03  0.12700000000E+01 0. -1.
         -4   -1    0    0    0  501 -0.00000000000E+00 -0.00000000000E+00 -0.33224496744E+02  0.33248760637E+02  0.12700000000E+01 0. -1.
         25    2    1    2    0    0  0.00000000000E+00  0.00000000000E+00  0.84275886860E+02  0.15075600742E+03  0.12499979467E+03 0.  0.
    9000005    1    3    3    0    0 -0.39253233084E+02  0.27663001445E+02  0.90367569546E+02  0.10233941363E+03  0.10000000000E+01 0.  0.
    9000005    1    3    3    0    0  0.39253233084E+02 -0.27663001445E+02 -0.60916826863E+01  0.48416593792E+02  0.10000000000E+01 0.  0.
<mgrwt>
<rscale>  0 0.12499979E+03</rscale>
<asrwt>0</asrwt>
<pdfrwt beam="1">  1        4 0.18079376E-01 0.12499979E+03</pdfrwt>
<pdfrwt beam="2">  1       -4 0.51138555E-02 0.12499979E+03</pdfrwt>
<totfact> 0.99153671E+03</totfact>
</mgrwt>
</event>
<event>
 5    1  0.3309219E-002  0.1250022E+03  0.7818608E-02  0.1235066E+00
          4   -1    0    0  501    0  0.00000000000E+00  0.00000000000E+00  0.71946972278E+02  0.71958180355E+02  0.12700000000E+01 0. -1.
         -4   -1    0    0    0  501 -0.00000000000E+00 -0.00000000000E+00 -0.54272523540E+02  0.54287380775E+02  0.12700000000E+01 0. -1.
         25    2    1    2    0    0  0.00000000000E+00  0.00000000000E+00  0.17674448739E+02  0.12624556113E+03  0.12500222225E+03 0.  0.
    9000005    1    3    3    0    0  0.49944612660E+02 -0.31196816566E+02  0.29966193993E+02  0.66080848058E+02  0.10000000000E+01 0.  0.
    9000005    1    3    3    0    0 -0.49944612660E+02  0.31196816566E+02 -0.12291745254E+02  0.60164713072E+02  0.10000000000E+01 0.  0.
<mgrwt>
<rscale>  0 0.12500222E+03</rscale>
<asrwt>0</asrwt>
<pdfrwt beam="1">  1        4 0.11070770E-01 0.12500222E+03</pdfrwt>
<pdfrwt beam="2">  1       -4 0.83516241E-02 0.12500222E+03</pdfrwt>
<totfact> 0.10425060E+04</totfact>
</mgrwt>
</event>
<event>
 5    1  0.3309219E-002  0.1249984E+03  0.7818608E-02  0.1235072E+00
         -4   -1    0    0    0  501 -0.00000000000E+00  0.00000000000E+00  0.41324900792E+03  0.41325095940E+03  0.12700000000E+01 0.  1.
          4   -1    0    0  501    0  0.00000000000E+00 -0.00000000000E+00 -0.94076540858E+01  0.94929898029E+01  0.12700000000E+01 0.  1.
         25    2    1    2    0    0  0.00000000000E+00  0.00000000000E+00  0.40384135383E+03  0.42274394920E+03  0.12499843008E+03 0.  0.
    9000005    1    3    3    0    0 -0.36034688557E+02 -0.83485650204E+01  0.37226559676E+03  0.37410008266E+03  0.10000000000E+01 0.  0.
    9000005    1    3    3    0    0  0.36034688557E+02  0.83485650204E+01  0.31575757072E+02  0.48643866540E+02  0.10000000000E+01 0.  0.
<mgrwt>
<rscale>  0 0.12499843E+03</rscale>
<asrwt>0</asrwt>
<pdfrwt beam="2">  1        4 0.14540458E-02 0.12499843E+03</pdfrwt>
<pdfrwt beam="1">  1       -4 0.63583483E-01 0.12499843E+03</pdfrwt>
<totfact> 0.62401420E+03</totfact>
</mgrwt>
</event>
<event>
 5    1  0.3309219E-002  0.1250335E+03  0.7818608E-02  0.1235017E+00
          4   -1    0    0  501    0  0.00000000000E+00  0.00000000000E+00  0.24294342288E+02  0.24327514613E+02  0.12700000000E+01 0. -1.
         -4   -1    0    0    0  501 -0.00000000000E+00 -0.00000000000E+00 -0.16072922251E+03  0.16073423988E+03  0.12700000000E+01 0. -1.
         25    2    1    2    0    0  0.00000000000E+00  0.00000000000E+00 -0.13643488022E+03  0.18506175449E+03  0.12503350124E+03 0.  0.
    9000005    1    3    3    0    0 -0.20347638870E+02 -0.69504622767E+01  0.18655685797E+02  0.28484556272E+02  0.10000000000E+01 0.  0.
    9000005    1    3    3    0    0  0.20347638870E+02  0.69504622767E+01 -0.15509056602E+03  0.15657719822E+03  0.10000000000E+01 0.  0.
<mgrwt>
<rscale>  0 0.12503350E+03</rscale>
<asrwt>0</asrwt>
<pdfrwt beam="1">  1        4 0.37405289E-02 0.12503350E+03</pdfrwt>
<pdfrwt beam="2">  1       -4 0.24730510E-01 0.12503350E+03</pdfrwt>
<totfact> 0.92644151E+03</totfact>
</mgrwt>
</event>
<event>
 5    1  0.3309219E-002  0.1249994E+03  0.7818608E-02  0.1235070E+00
          4   -1    0    0  501    0  0.00000000000E+00  0.00000000000E+00  0.21485950636E+03  0.21486325971E+03  0.12700000000E+01 0. -1.
         -4   -1    0    0    0  501 -0.00000000000E+00 -0.00000000000E+00 -0.18154226437E+02  0.18198594384E+02  0.12700000000E+01 0. -1.
         25    2    1    2    0    0  0.00000000000E+00  0.00000000000E+00  0.19670527992E+03  0.23306185409E+03  0.12499944274E+03 0.  0.
    9000005    1    3    3    0    0 -0.25344293932E+02 -0.56871159873E+02  0.10831563321E+03  0.12493973931E+03  0.10000000000E+01 0.  0.
    9000005    1    3    3    0    0  0.25344293932E+02  0.56871159873E+02  0.88389646714E+02  0.10812211479E+03  0.10000000000E+01 0.  0.
<mgrwt>
<rscale>  0 0.12499944E+03</rscale>
<asrwt>0</asrwt>
<pdfrwt beam="1">  1        4 0.33059010E-01 0.12499944E+03</pdfrwt>
<pdfrwt beam="2">  1       -4 0.27966596E-02 0.12499944E+03</pdfrwt>
<totfact> 0.84842708E+03</totfact>
</mgrwt>
</event>
<event>
 5    1  0.3309219E-002  0.1249833E+03  0.7818608E-02  0.1235095E+00
          4   -1    0    0  501    0  0.00000000000E+00  0.00000000000E+00  0.34823477540E+02  0.34846628072E+02  0.12700000000E+01 0.  1.
         -4   -1    0    0    0  501 -0.00000000000E+00 -0.00000000000E+00 -0.11207889669E+03  0.11208609183E+03  0.12700000000E+01 0.  1.
         25    2    1    2    0    0  0.00000000000E+00  0.00000000000E+00 -0.77255419146E+02  0.14693271991E+03  0.12498329645E+03 0.  0.
    9000005    1    3    3    0    0 -0.13742773742E+02  0.13024417379E+02 -0.10863091945E+03  0.11027318776E+03  0.10000000000E+01 0.  0.
    9000005    1    3    3    0    0  0.13742773742E+02 -0.13024417379E+02  0.31375500301E+02  0.36659532148E+02  0.10000000000E+01 0.  0.
<mgrwt>
<rscale>  0 0.12498330E+03</rscale>
<asrwt>0</asrwt>
<pdfrwt beam="1">  1        4 0.53597924E-02 0.12498330E+03</pdfrwt>
<pdfrwt beam="2">  1       -4 0.17245241E-01 0.12498330E+03</pdfrwt>
<totfact> 0.99956250E+03</totfact>
</mgrwt>
</event>
<event>
 5    1  0.3309219E-002  0.1250005E+03  0.7818608E-02  0.1235068E+00
          4   -1    0    0  501    0  0.00000000000E+00  0.00000000000E+00  0.23148017708E+03  0.23148366093E+03  0.12700000000E+01 0. -1.
         -4   -1    0    0    0  501 -0.00000000000E+00 -0.00000000000E+00 -0.16847729202E+02  0.16895528380E+02  0.12700000000E+01 0. -1.
         25    2    1    2    0    0  0.00000000000E+00  0.00000000000E+00  0.21463244788E+03  0.24837918931E+03  0.12500053601E+03 0.  0.
    9000005    1    3    3    0    0  0.28801706639E+02  0.46313026873E+02  0.46692461379E+02  0.71802651156E+02  0.10000000000E+01 0.  0.
    9000005    1    3    3    0    0 -0.28801706639E+02 -0.46313026873E+02  0.16793998650E+03  0.17657653816E+03  0.10000000000E+01 0.  0.
<mgrwt>
<rscale>  0 0.12500054E+03</rscale>
<asrwt>0</asrwt>
<pdfrwt beam="1">  1        4 0.35616280E-01 0.12500054E+03</pdfrwt>
<pdfrwt beam="2">  1       -4 0.25959032E-02 0.12500054E+03</pdfrwt>
<totfact> 0.82564064E+03</totfact>
</mgrwt>
</event>
<event>
 5    1  0.3309219E-002  0.1249979E+03  0.7818608E-02  0.1235073E+00
          4   -1    0    0  501    0  0.00000000000E+00  0.00000000000E+00  0.93666153748E+02  0.93674763186E+02  0.12700000000E+01 0.  1.
         -4   -1    0    0    0  501 -0.00000000000E+00 -0.00000000000E+00 -0.41682343472E+02  0.41701686505E+02  0.12700000000E+01 0.  1.
         25    2    1    2    0    0  0.00000000000E+00  0.00000000000E+00  0.51983810276E+02  0.13537644969E+03  0.12499786638E+03 0.  0.
    9000005    1    3    3    0    0  0.43502105218E+02  0.35726841920E+02  0.55379288510E+02  0.78972818031E+02  0.10000000000E+01 0.  0.
    9000005    1    3    3    0    0 -0.43502105218E+02 -0.35726841920E+02 -0.33954782338E+01  0.56403631660E+02  0.10000000000E+01 0.  0.
<mgrwt>
<rscale>  0 0.12499787E+03</rscale>
<asrwt>0</asrwt>
<pdfrwt beam="1">  1        4 0.14412328E-01 0.12499787E+03</pdfrwt>
<pdfrwt beam="2">  1       -4 0.64148185E-02 0.12499787E+03</pdfrwt>
<totfact> 0.10230635E+04</totfact>
</mgrwt>
</event>
<event>
 5    1  0.3309219E-002  0.1249991E+03  0.7818608E-02  0.1235071E+00
         -4   -1    0    0    0  501 -0.00000000000E+00  0.00000000000E+00  0.28040062859E+02  0.28068808759E+02  0.12700000000E+01 0.  1.
          4   -1    0    0  501    0  0.00000000000E+00 -0.00000000000E+00 -0.13920465008E+03  0.13921044323E+03  0.12700000000E+01 0.  1.
         25    2    1    2    0    0  0.00000000000E+00  0.00000000000E+00 -0.11116458722E+03  0.16727925199E+03  0.12499913077E+03 0.  0.
    9000005    1    3    3    0    0  0.84575367687E+01 -0.26019668641E+02  0.19605577912E+02  0.33673903392E+02  0.10000000000E+01 0.  0.
    9000005    1    3    3    0    0 -0.84575367687E+01  0.26019668641E+02 -0.13077016513E+03  0.13360534860E+03  0.10000000000E+01 0.  0.
<mgrwt>
<rscale>  0 0.12499913E+03</rscale>
<asrwt>0</asrwt>
<pdfrwt beam="2">  1        4 0.21418756E-01 0.12499913E+03</pdfrwt>
<pdfrwt beam="1">  1       -4 0.43165128E-02 0.12499913E+03</pdfrwt>
<totfact> 0.95959345E+03</totfact>
</mgrwt>
</event>
<event>
 5    1  0.3309219E-002  0.1249996E+03  0.7818608E-02  0.1235070E+00
         -4   -1    0    0    0  501 -0.00000000000E+00  0.00000000000E+00  0.56272857572E+02  0.56287186813E+02  0.12700000000E+01 0. -1.
          4   -1    0    0  501    0  0.00000000000E+00 -0.00000000000E+00 -0.69386827765E+02  0.69398449315E+02  0.12700000000E+01 0. -1.
         25    2    1    2    0    0  0.00000000000E+00  0.00000000000E+00 -0.13113970194E+02  0.12568563613E+03  0.12499961166E+03 0.  0.
    9000005    1    3    3    0    0 -0.61845524098E+02  0.30947162995E+01 -0.15016219559E+02  0.63725449938E+02  0.10000000000E+01 0.  0.
    9000005    1    3    3    0    0  0.61845524098E+02 -0.30947162995E+01  0.19022493653E+01  0.61960186189E+02  0.10000000000E+01 0.  0.
<mgrwt>
<rscale>  0 0.12499961E+03</rscale>
<asrwt>0</asrwt>
<pdfrwt beam="2">  1        4 0.10676893E-01 0.12499961E+03</pdfrwt>
<pdfrwt beam="1">  1       -4 0.86593589E-02 0.12499961E+03</pdfrwt>
<totfact> 0.10437952E+04</totfact>
</mgrwt>
</event>
<event>
 5    1  0.3309219E-002  0.1249988E+03  0.7818608E-02  0.1235071E+00
          4   -1    0    0  501    0  0.00000000000E+00  0.00000000000E+00  0.27760645281E+02  0.27789680215E+02  0.12700000000E+01 0.  1.
         -4   -1    0    0    0  501 -0.00000000000E+00 -0.00000000000E+00 -0.14060354158E+03  0.14060927709E+03  0.12700000000E+01 0.  1.
         25    2    1    2    0    0  0.00000000000E+00  0.00000000000E+00 -0.11284289630E+03  0.16839895731E+03  0.12499875830E+03 0.  0.
    9000005    1    3    3    0    0 -0.45870036566E+02 -0.39362699842E+02 -0.35048389354E+02  0.69877549969E+02  0.10000000000E+01 0.  0.
    9000005    1    3    3    0    0  0.45870036566E+02  0.39362699842E+02 -0.77794506946E+02  0.98521407340E+02  0.10000000000E+01 0.  0.
<mgrwt>
<rscale>  0 0.12499876E+03</rscale>
<asrwt>0</asrwt>
<pdfrwt beam="1">  1        4 0.42735432E-02 0.12499876E+03</pdfrwt>
<pdfrwt beam="2">  1       -4 0.21633988E-01 0.12499876E+03</pdfrwt>
<totfact> 0.95750198E+03</totfact>
</mgrwt>
</event>
<event>
 5    1  0.3309219E-002  0.1250001E+03  0.7818608E-02  0.1235069E+00
          4   -1    0    0  501    0  0.00000000000E+00  0.00000000000E+00  0.11285712290E+02  0.11356945095E+02  0.12700000000E+01 0.  1.
         -4   -1    0    0    0  501 -0.00000000000E+00 -0.00000000000E+00 -0.34496259010E+03  0.34496492788E+03  0.12700000000E+01 0.  1.
         25    2    1    2    0    0  0.00000000000E+00  0.00000000000E+00 -0.33367687781E+03  0.35632187298E+03  0.12500007351E+03 0.  0.
    9000005    1    3    3    0    0  0.10274212663E+02 -0.15097297005E+02  0.35239653504E+01  0.18625416895E+02  0.10000000000E+01 0.  0.
    9000005    1    3    3    0    0 -0.10274212663E+02  0.15097297005E+02 -0.33720084316E+03  0.33769645608E+03  0.10000000000E+01 0.  0.
<mgrwt>
<rscale>  0 0.12500007E+03</rscale>
<asrwt>0</asrwt>
<pdfrwt beam="1">  1        4 0.17419230E-02 0.12500007E+03</pdfrwt>
<pdfrwt beam="2">  1       -4 0.53076819E-01 0.12500007E+03</pdfrwt>
<totfact> 0.69034518E+03</totfact>
</mgrwt>
</event>
<event>
 5    1  0.3309219E-002  0.1250045E+03  0.7818608E-02  0.1235062E+00
          4   -1    0    0  501    0  0.00000000000E+00  0.00000000000E+00  0.50133097389E+02  0.50149180989E+02  0.12700000000E+01 0. -1.
         -4   -1    0    0    0  501 -0.00000000000E+00 -0.00000000000E+00 -0.77889477439E+02  0.77899830524E+02  0.12700000000E+01 0. -1.
         25    2    1    2    0    0  0.00000000000E+00  0.00000000000E+00 -0.27756380049E+02  0.12804901151E+03  0.12500453078E+03 0.  0.
    9000005    1    3    3    0    0  0.41514086791E+02 -0.16894133413E+02 -0.58490019228E+02  0.73694731801E+02  0.10000000000E+01 0.  0.
    9000005    1    3    3    0    0 -0.41514086791E+02  0.16894133413E+02  0.30733639178E+02  0.54354279712E+02  0.10000000000E+01 0.  0.
<mgrwt>
<rscale>  0 0.12500453E+03</rscale>
<asrwt>0</asrwt>
<pdfrwt beam="1">  1        4 0.77148178E-02 0.12500453E+03</pdfrwt>
<pdfrwt beam="2">  1       -4 0.11985030E-01 0.12500453E+03</pdfrwt>
<totfact> 0.10385367E+04</totfact>
</mgrwt>
</event>
<event>
 5    1  0.3309219E-002  0.1250049E+03  0.7818608E-02  0.1235062E+00
          4   -1    0    0  501    0  0.00000000000E+00  0.00000000000E+00  0.20189971675E+02  0.20229875339E+02  0.12700000000E+01 0.  1.
         -4   -1    0    0    0  501 -0.00000000000E+00 -0.00000000000E+00 -0.19325704069E+03  0.19326121359E+03  0.12700000000E+01 0.  1.
         25    2    1    2    0    0  0.00000000000E+00  0.00000000000E+00 -0.17306706902E+03  0.21349108893E+03  0.12500493859E+03 0.  0.
    9000005    1    3    3    0    0 -0.48159708186E+02 -0.39794960335E+02 -0.83799725238E+02  0.10452937535E+03  0.10000000000E+01 0.  0.
    9000005    1    3    3    0    0  0.48159708186E+02  0.39794960335E+02 -0.89267343781E+02  0.10896171358E+03  0.10000000000E+01 0.  0.
<mgrwt>
<rscale>  0 0.12500494E+03</rscale>
<asrwt>0</asrwt>
<pdfrwt beam="1">  1        4 0.31095401E-02 0.12500494E+03</pdfrwt>
<pdfrwt beam="2">  1       -4 0.29735242E-01 0.12500494E+03</pdfrwt>
<totfact> 0.87899194E+03</totfact>
</mgrwt>
</event>
<event>
 5    1  0.3309219E-002  0.1249957E+03  0.7818608E-02  0.1235076E+00
          4   -1    0    0  501    0  0.00000000000E+00  0.00000000000E+00  0.59918616783E+03  0.59918751374E+03  0.12700000000E+01 0.  1.
         -4   -1    0    0    0  501 -0.00000000000E+00 -0.00000000000E+00 -0.64555841483E+01  0.65793211425E+01  0.12700000000E+01 0.  1.
         25    2    1    2    0    0  0.00000000000E+00  0.00000000000E+00  0.59273058368E+03  0.60576683488E+03  0.12499565356E+03 0.  0.
    9000005    1    3    3    0    0  0.28926876765E+02 -0.54007163731E+02  0.23672613685E+03  0.24452771172E+03  0.10000000000E+01 0.  0.
    9000005    1    3    3    0    0 -0.28926876765E+02  0.54007163731E+02  0.35600444683E+03  0.36123912316E+03  0.10000000000E+01 0.  0.
<mgrwt>
<rscale>  0 0.12499565E+03</rscale>
<asrwt>0</asrwt>
<pdfrwt beam="1">  1        4 0.92192104E-01 0.12499565E+03</pdfrwt>
<pdfrwt beam="2">  1       -4 0.10027886E-02 0.12499565E+03</pdfrwt>
<totfact> 0.48510227E+03</totfact>
</mgrwt>
</event>
<event>
 5    1  0.3309219E-002  0.1249988E+03  0.7818608E-02  0.1235071E+00
         -4   -1    0    0    0  501 -0.00000000000E+00  0.00000000000E+00  0.48149924568E+02  0.48166670384E+02  0.12700000000E+01 0.  1.
          4   -1    0    0  501    0  0.00000000000E+00 -0.00000000000E+00 -0.81089405301E+02  0.81099349887E+02  0.12700000000E+01 0.  1.
         25    2    1    2    0    0  0.00000000000E+00  0.00000000000E+00 -0.32939480733E+02  0.12926602027E+03  0.12499877842E+03 0.  0.
    9000005    1    3    3    0    0 -0.37176528643E+02 -0.24974469015E+02 -0.61539133707E+02  0.76117562769E+02  0.10000000000E+01 0.  0.
    9000005    1    3    3    0    0  0.37176528643E+02  0.24974469015E+02  0.28599652974E+02  0.53148457502E+02  0.10000000000E+01 0.  0.
<mgrwt>
<rscale>  0 0.12499878E+03</rscale>
<asrwt>0</asrwt>
<pdfrwt beam="2">  1        4 0.12477346E-01 0.12499878E+03</pdfrwt>
<pdfrwt beam="1">  1       -4 0.74097338E-02 0.12499878E+03</pdfrwt>
<totfact> 0.10360520E+04</totfact>
</mgrwt>
</event>
<event>
 5    1  0.3309219E-002  0.1250025E+03  0.7818608E-02  0.1235065E+00
          4   -1    0    0  501    0  0.00000000000E+00  0.00000000000E+00  0.79284301661E+01  0.80295021575E+01  0.12700000000E+01 0. -1.
         -4   -1    0    0    0  501 -0.00000000000E+00 -0.00000000000E+00 -0.48948610168E+03  0.48948774923E+03  0.12700000000E+01 0. -1.
         25    2    1    2    0    0  0.00000000000E+00  0.00000000000E+00 -0.48155767152E+03  0.49751725138E+03  0.12500249768E+03 0.  0.
    9000005    1    3    3    0    0 -0.17790712694E+02  0.56353524244E+02 -0.32168050795E+03  0.32706509803E+03  0.10000000000E+01 0.  0.
    9000005    1    3    3    0    0  0.17790712694E+02 -0.56353524244E+02 -0.15987716357E+03  0.17045215335E+03  0.10000000000E+01 0.  0.
<mgrwt>
<rscale>  0 0.12500250E+03</rscale>
<asrwt>0</asrwt>
<pdfrwt beam="1">  1        4 0.12276604E-02 0.12500250E+03</pdfrwt>
<pdfrwt beam="2">  1       -4 0.75313432E-01 0.12500250E+03</pdfrwt>
<totfact> 0.56054444E+03</totfact>
</mgrwt>
</event>
<event>
 5    1  0.3309219E-002  0.1250039E+03  0.7818608E-02  0.1235063E+00
         -4   -1    0    0    0  501 -0.00000000000E+00  0.00000000000E+00  0.62285776434E+03  0.62285905910E+03  0.12700000000E+01 0.  1.
          4   -1    0    0  501    0  0.00000000000E+00 -0.00000000000E+00 -0.62062773318E+01  0.63348858174E+01  0.12700000000E+01 0.  1.
         25    2    1    2    0    0  0.00000000000E+00  0.00000000000E+00  0.61665148701E+03  0.62919394491E+03  0.12500385549E+03 0.  0.
    9000005    1    3    3    0    0  0.11264051141E+02  0.59182519530E+02  0.22469839636E+03  0.23263666691E+03  0.10000000000E+01 0.  0.
    9000005    1    3    3    0    0 -0.11264051141E+02 -0.59182519530E+02  0.39195309065E+03  0.39655727800E+03  0.10000000000E+01 0.  0.
<mgrwt>
<rscale>  0 0.12500386E+03</rscale>
<asrwt>0</asrwt>
<pdfrwt beam="2">  1        4 0.96480478E-03 0.12500386E+03</pdfrwt>
<pdfrwt beam="1">  1       -4 0.95834232E-01 0.12500386E+03</pdfrwt>
<totfact> 0.47071213E+03</totfact>
</mgrwt>
</event>
<event>
 5    1  0.3309219E-002  0.1249971E+03  0.7818608E-02  0.1235074E+00
          4   -1    0    0  501    0  0.00000000000E+00  0.00000000000E+00  0.58473387724E+01  0.59836669960E+01  0.12700000000E+01 0.  1.
         -4   -1    0    0    0  501 -0.00000000000E+00 -0.00000000000E+00 -0.66017387184E+03  0.66017509341E+03  0.12700000000E+01 0.  1.
         25    2    1    2    0    0  0.00000000000E+00  0.00000000000E+00 -0.65432653307E+03  0.66615876041E+03  0.12499712873E+03 0.  0.
    9000005    1    3    3    0    0 -0.17604889744E+02  0.28052903122E+02 -0.60957948824E+03  0.61047936083E+03  0.10000000000E+01 0.  0.
    9000005    1    3    3    0    0  0.17604889744E+02 -0.28052903122E+02 -0.44747044829E+02  0.55679399579E+02  0.10000000000E+01 0.  0.
<mgrwt>
<rscale>  0 0.12499713E+03</rscale>
<asrwt>0</asrwt>
<pdfrwt beam="1">  1        4 0.91017186E-03 0.12499713E+03</pdfrwt>
<pdfrwt beam="2">  1       -4 0.10157573E+00 0.12499713E+03</pdfrwt>
<totfact> 0.44937132E+03</totfact>
</mgrwt>
</event>
<event>
 5    1  0.3309219E-002  0.1250000E+03  0.7818608E-02  0.1235069E+00
         -4   -1    0    0    0  501 -0.00000000000E+00  0.00000000000E+00  0.22568578313E+03  0.22568935643E+03  0.12700000000E+01 0.  1.
          4   -1    0    0  501    0  0.00000000000E+00 -0.00000000000E+00 -0.17281342867E+02  0.17327945963E+02  0.12700000000E+01 0.  1.
         25    2    1    2    0    0  0.00000000000E+00  0.00000000000E+00  0.20840444026E+03  0.24301730239E+03  0.12499999417E+03 0.  0.
    9000005    1    3    3    0    0 -0.65518969206E+01 -0.59616529782E+02  0.13833232662E+03  0.15077761957E+03  0.10000000000E+01 0.  0.
    9000005    1    3    3    0    0  0.65518969206E+01  0.59616529782E+02  0.70072113641E+02  0.92239682819E+02  0.10000000000E+01 0.  0.
<mgrwt>
<rscale>  0 0.12499999E+03</rscale>
<asrwt>0</asrwt>
<pdfrwt beam="2">  1        4 0.26625279E-02 0.12499999E+03</pdfrwt>
<pdfrwt beam="1">  1       -4 0.34724749E-01 0.12499999E+03</pdfrwt>
<totfact> 0.83350046E+03</totfact>
</mgrwt>
</event>
<event>
 5    1  0.3309219E-002  0.1249924E+03  0.7818608E-02  0.1235081E+00
         -4   -1    0    0    0  501 -0.00000000000E+00  0.00000000000E+00  0.11297721195E+03  0.11298434989E+03  0.12700000000E+01 0. -1.
          4   -1    0    0  501    0  0.00000000000E+00 -0.00000000000E+00 -0.34551459453E+02  0.34574792123E+02  0.12700000000E+01 0. -1.
         25    2    1    2    0    0  0.00000000000E+00  0.00000000000E+00  0.78425752497E+02  0.14755914201E+03  0.12499240672E+03 0.  0.
    9000005    1    3    3    0    0  0.41439919296E+02  0.37650983154E+02  0.64559583223E+01  0.56369697902E+02  0.10000000000E+01 0.  0.
    9000005    1    3    3    0    0 -0.41439919296E+02 -0.37650983154E+02  0.71969794174E+02  0.91189444111E+02  0.10000000000E+01 0.  0.
<mgrwt>
<rscale>  0 0.12499241E+03</rscale>
<asrwt>0</asrwt>
<pdfrwt beam="2">  1        4 0.53179529E-02 0.12499241E+03</pdfrwt>
<pdfrwt beam="1">  1       -4 0.17383454E-01 0.12499241E+03</pdfrwt>
<totfact> 0.99809550E+03</totfact>
</mgrwt>
</event>
<event>
 5    1  0.3309219E-002  0.1249949E+03  0.7818608E-02  0.1235077E+00
         -4   -1    0    0    0  501 -0.00000000000E+00  0.00000000000E+00  0.65754715273E+03  0.65754837918E+03  0.12700000000E+01 0.  1.
          4   -1    0    0  501    0  0.00000000000E+00 -0.00000000000E+00 -0.58710228923E+01  0.60068136147E+01  0.12700000000E+01 0.  1.
         25    2    1    2    0    0  0.00000000000E+00  0.00000000000E+00  0.65167612984E+03  0.66355519279E+03  0.12499486264E+03 0.  0.
    9000005    1    3    3    0    0 -0.46527208670E+02 -0.31074073315E+02  0.47358196034E+03  0.47687655881E+03  0.10000000000E+01 0.  0.
    9000005    1    3    3    0    0  0.46527208670E+02  0.31074073315E+02  0.17809416949E+03  0.18667863399E+03  0.10000000000E+01 0.  0.
<mgrwt>
<rscale>  0 0.12499486E+03</rscale>
<asrwt>0</asrwt>
<pdfrwt beam="2">  1        4 0.91377413E-03 0.12499486E+03</pdfrwt>
<pdfrwt beam="1">  1       -4 0.10117163E+00 0.12499486E+03</pdfrwt>
<totfact> 0.45086632E+03</totfact>
</mgrwt>
</event>
<event>
 5    1  0.3309219E-002  0.1249963E+03  0.7818608E-02  0.1235075E+00
          4   -1    0    0  501    0  0.00000000000E+00  0.00000000000E+00  0.54160960582E+02  0.54175848412E+02  0.12700000000E+01 0.  1.
         -4   -1    0    0    0  501 -0.00000000000E+00 -0.00000000000E+00 -0.72088291637E+02  0.72099477745E+02  0.12700000000E+01 0.  1.
         25    2    1    2    0    0  0.00000000000E+00  0.00000000000E+00 -0.17927331055E+02  0.12627532616E+03  0.12499627513E+03 0.  0.
    9000005    1    3    3    0    0 -0.51877343430E+02  0.60191941885E+01 -0.43629926408E+02  0.68059238450E+02  0.10000000000E+01 0.  0.
    9000005    1    3    3    0    0  0.51877343430E+02 -0.60191941885E+01  0.25702595353E+02  0.58216087707E+02  0.10000000000E+01 0.  0.
<mgrwt>
<rscale>  0 0.12499628E+03</rscale>
<asrwt>0</asrwt>
<pdfrwt beam="1">  1        4 0.83344611E-02 0.12499628E+03</pdfrwt>
<pdfrwt beam="2">  1       -4 0.11092512E-01 0.12499628E+03</pdfrwt>
<totfact> 0.10425809E+04</totfact>
</mgrwt>
</event>
<event>
 5    1  0.3309219E-002  0.1249981E+03  0.7818608E-02  0.1235072E+00
         -4   -1    0    0    0  501 -0.00000000000E+00  0.00000000000E+00  0.12646427226E+03  0.12647064900E+03  0.12700000000E+01 0. -1.
          4   -1    0    0  501    0  0.00000000000E+00 -0.00000000000E+00 -0.30867001268E+02  0.30893116827E+02  0.12700000000E+01 0. -1.
         25    2    1    2    0    0  0.00000000000E+00  0.00000000000E+00  0.95597270990E+02  0.15736376582E+03  0.12499806628E+03 0.  0.
    9000005    1    3    3    0    0 -0.23462487458E+02  0.48405974873E+02  0.77594799759E+01  0.54358405519E+02  0.10000000000E+01 0.  0.
    9000005    1    3    3    0    0  0.23462487458E+02 -0.48405974873E+02  0.87837791014E+02  0.10300536030E+03  0.10000000000E+01 0.  0.
<mgrwt>
<rscale>  0 0.12499807E+03</rscale>
<asrwt>0</asrwt>
<pdfrwt beam="2">  1        4 0.47512690E-02 0.12499807E+03</pdfrwt>
<pdfrwt beam="1">  1       -4 0.19458541E-01 0.12499807E+03</pdfrwt>
<totfact> 0.97857706E+03</totfact>
</mgrwt>
</event>
<event>
 5    1  0.3309219E-002  0.1250015E+03  0.7818608E-02  0.1235067E+00
         -4   -1    0    0    0  501 -0.00000000000E+00  0.00000000000E+00  0.23397970451E+02  0.23432411767E+02  0.12700000000E+01 0.  1.
          4   -1    0    0  501    0  0.00000000000E+00 -0.00000000000E+00 -0.16679257053E+03  0.16679740551E+03  0.12700000000E+01 0.  1.
         25    2    1    2    0    0  0.00000000000E+00  0.00000000000E+00 -0.14339460008E+03  0.19022981728E+03  0.12500148819E+03 0.  0.
    9000005    1    3    3    0    0  0.32126866311E+02 -0.52798726051E+02 -0.57625438745E+02  0.84507586654E+02  0.10000000000E+01 0.  0.
    9000005    1    3    3    0    0 -0.32126866311E+02  0.52798726051E+02 -0.85769161338E+02  0.10572223062E+03  0.10000000000E+01 0.  0.
<mgrwt>
<rscale>  0 0.12500149E+03</rscale>
<asrwt>0</asrwt>
<pdfrwt beam="2">  1        4 0.25663416E-01 0.12500149E+03</pdfrwt>
<pdfrwt beam="1">  1       -4 0.36027091E-02 0.12500149E+03</pdfrwt>
<totfact> 0.91804283E+03</totfact>
</mgrwt>
</event>
<event>
 5    1  0.3309219E-002  0.1249996E+03  0.7818608E-02  0.1235070E+00
         -4   -1    0    0    0  501 -0.00000000000E+00  0.00000000000E+00  0.70886548669E+03  0.70886662435E+03  0.12700000000E+01 0. -1.
          4   -1    0    0  501    0  0.00000000000E+00 -0.00000000000E+00 -0.54361956313E+01  0.55825731470E+01  0.12700000000E+01 0. -1.
         25    2    1    2    0    0  0.00000000000E+00  0.00000000000E+00  0.70342929106E+03  0.71444919750E+03  0.12499955315E+03 0.  0.
    9000005    1    3    3    0    0  0.22260578605E+02 -0.19224175557E+02  0.36571228090E+02  0.46942060135E+02  0.10000000000E+01 0.  0.
    9000005    1    3    3    0    0 -0.22260578605E+02  0.19224175557E+02  0.66685806297E+03  0.66750713736E+03  0.10000000000E+01 0.  0.
<mgrwt>
<rscale>  0 0.12499955E+03</rscale>
<asrwt>0</asrwt>
<pdfrwt beam="2">  1        4 0.84768559E-03 0.12499955E+03</pdfrwt>
<pdfrwt beam="1">  1       -4 0.10906751E+00 0.12499955E+03</pdfrwt>
<totfact> 0.42335273E+03</totfact>
</mgrwt>
</event>
<event>
 5    1  0.3309219E-002  0.1250024E+03  0.7818608E-02  0.1235066E+00
         -4   -1    0    0    0  501 -0.00000000000E+00  0.00000000000E+00  0.64297627866E+02  0.64310169096E+02  0.12700000000E+01 0.  1.
          4   -1    0    0  501    0  0.00000000000E+00 -0.00000000000E+00 -0.60729862859E+02  0.60743140707E+02  0.12700000000E+01 0.  1.
         25    2    1    2    0    0  0.00000000000E+00  0.00000000000E+00  0.35677650067E+01  0.12505330980E+03  0.12500240536E+03 0.  0.
    9000005    1    3    3    0    0 -0.55914857219E+02  0.19743959908E+02 -0.17949898153E+02  0.61963651074E+02  0.10000000000E+01 0.  0.
    9000005    1    3    3    0    0  0.55914857219E+02 -0.19743959908E+02  0.21517663160E+02  0.63089658729E+02  0.10000000000E+01 0.  0.
<mgrwt>
<rscale>  0 0.12500241E+03</rscale>
<asrwt>0</asrwt>
<pdfrwt beam="2">  1        4 0.93450419E-02 0.12500241E+03</pdfrwt>
<pdfrwt beam="1">  1       -4 0.98939288E-02 0.12500241E+03</pdfrwt>
<totfact> 0.10451137E+04</totfact>
</mgrwt>
</event>
<event>
 5    1  0.3309219E-002  0.1250016E+03  0.7818608E-02  0.1235067E+00
          4   -1    0    0  501    0  0.00000000000E+00  0.00000000000E+00  0.29196251104E+03  0.29196527320E+03  0.12700000000E+01 0.  1.
         -4   -1    0    0    0  501 -0.00000000000E+00 -0.00000000000E+00 -0.13346668489E+02  0.13406955648E+02  0.12700000000E+01 0.  1.
         25    2    1    2    0    0  0.00000000000E+00  0.00000000000E+00  0.27861584255E+03  0.30537222884E+03  0.12500164171E+03 0.  0.
    9000005    1    3    3    0    0  0.42871045756E+02 -0.35553103711E+02  0.20855165995E+03  0.21586279118E+03  0.10000000000E+01 0.  0.
    9000005    1    3    3    0    0 -0.42871045756E+02  0.35553103711E+02  0.70064182599E+02  0.89509437665E+02  0.10000000000E+01 0.  0.
<mgrwt>
<rscale>  0 0.12500164E+03</rscale>
<asrwt>0</asrwt>
<pdfrwt beam="1">  1        4 0.44922161E-01 0.12500164E+03</pdfrwt>
<pdfrwt beam="2">  1       -4 0.20581835E-02 0.12500164E+03</pdfrwt>
<totfact> 0.74927128E+03</totfact>
</mgrwt>
</event>
<event>
 5    1  0.3309219E-002  0.1249938E+03  0.7818608E-02  0.1235079E+00
          4   -1    0    0  501    0  0.00000000000E+00  0.00000000000E+00  0.68502888075E+02  0.68514659560E+02  0.12700000000E+01 0. -1.
         -4   -1    0    0    0  501 -0.00000000000E+00 -0.00000000000E+00 -0.56993776413E+02  0.57007924448E+02  0.12700000000E+01 0. -1.
         25    2    1    2    0    0  0.00000000000E+00  0.00000000000E+00  0.11509111662E+02  0.12552258401E+03  0.12499383763E+03 0.  0.
    9000005    1    3    3    0    0  0.55207493457E+02  0.18336257146E+02  0.28671678237E+02  0.64862553086E+02  0.10000000000E+01 0.  0.
    9000005    1    3    3    0    0 -0.55207493457E+02 -0.18336257146E+02 -0.17162566575E+02  0.60660030921E+02  0.10000000000E+01 0.  0.
<mgrwt>
<rscale>  0 0.12499384E+03</rscale>
<asrwt>0</asrwt>
<pdfrwt beam="1">  1        4 0.10540900E-01 0.12499384E+03</pdfrwt>
<pdfrwt beam="2">  1       -4 0.87702671E-02 0.12499384E+03</pdfrwt>
<totfact> 0.10442907E+04</totfact>
</mgrwt>
</event>
<event>
 5    1  0.3309219E-002  0.1249962E+03  0.7818608E-02  0.1235075E+00
          4   -1    0    0  501    0  0.00000000000E+00  0.00000000000E+00  0.78421108141E+03  0.78421210977E+03  0.12700000000E+01 0.  1.
         -4   -1    0    0    0  501 -0.00000000000E+00 -0.00000000000E+00 -0.48988136352E+01  0.50607583456E+01  0.12700000000E+01 0.  1.
         25    2    1    2    0    0  0.00000000000E+00  0.00000000000E+00  0.77931226778E+03  0.78927286812E+03  0.12499619848E+03 0.  0.
    9000005    1    3    3    0    0 -0.10604541937E+02 -0.55498881681E+02  0.22111669687E+03  0.22822395977E+03  0.10000000000E+01 0.  0.
    9000005    1    3    3    0    0  0.10604541937E+02  0.55498881681E+02  0.55819557091E+03  0.56104890835E+03  0.10000000000E+01 0.  0.
<mgrwt>
<rscale>  0 0.12499620E+03</rscale>
<asrwt>0</asrwt>
<pdfrwt beam="1">  1        4 0.12066043E+00 0.12499620E+03</pdfrwt>
<pdfrwt beam="2">  1       -4 0.76619982E-03 0.12499620E+03</pdfrwt>
<totfact> 0.38751333E+03</totfact>
</mgrwt>
</event>
<event>
 5    1  0.3309219E-002  0.1249998E+03  0.7818608E-02  0.1235070E+00
         -4   -1    0    0    0  501 -0.00000000000E+00  0.00000000000E+00  0.55440924403E+03  0.55441069864E+03  0.12700000000E+01 0. -1.
          4   -1    0    0  501    0  0.00000000000E+00 -0.00000000000E+00 -0.69870656764E+01  0.71015481950E+01  0.12700000000E+01 0. -1.
         25    2    1    2    0    0  0.00000000000E+00  0.00000000000E+00  0.54742217835E+03  0.56151224683E+03  0.12499984797E+03 0.  0.
    9000005    1    3    3    0    0 -0.13866386507E+02  0.54210596276E+02  0.14872279515E+03  0.15890416993E+03  0.10000000000E+01 0.  0.
    9000005    1    3    3    0    0  0.13866386507E+02 -0.54210596276E+02  0.39869938320E+03  0.40260807690E+03  0.10000000000E+01 0.  0.
<mgrwt>
<rscale>  0 0.12499985E+03</rscale>
<asrwt>0</asrwt>
<pdfrwt beam="2">  1        4 0.10838511E-02 0.12499985E+03</pdfrwt>
<pdfrwt beam="1">  1       -4 0.85302670E-01 0.12499985E+03</pdfrwt>
<totfact> 0.51390989E+03</totfact>
</mgrwt>
</event>
<event>
 5    1  0.3309219E-002  0.1249948E+03  0.7818608E-02  0.1235077E+00
         -4   -1    0    0    0  501 -0.00000000000E+00  0.00000000000E+00  0.41190387137E+02  0.41209961084E+02  0.12700000000E+01 0.  1.
          4   -1    0    0  501    0  0.00000000000E+00 -0.00000000000E+00 -0.94779720347E+02  0.94788228642E+02  0.12700000000E+01 0.  1.
         25    2    1    2    0    0  0.00000000000E+00  0.00000000000E+00 -0.53589333210E+02  0.13599818973E+03  0.12499476379E+03 0.  0.
    9000005    1    3    3    0    0 -0.35704425001E+02  0.31052157086E+01  0.28902264879E+02  0.46052027582E+02  0.10000000000E+01 0.  0.
    9000005    1    3    3    0    0  0.35704425001E+02 -0.31052157086E+01 -0.82491598089E+02  0.89946162144E+02  0.10000000000E+01 0.  0.
<mgrwt>
<rscale>  0 0.12499476E+03</rscale>
<asrwt>0</asrwt>
<pdfrwt beam="2">  1        4 0.14583656E-01 0.12499476E+03</pdfrwt>
<pdfrwt beam="1">  1       -4 0.63391428E-02 0.12499476E+03</pdfrwt>
<totfact> 0.10218281E+04</totfact>
</mgrwt>
</event>
<event>
 5    1  0.3309219E-002  0.1249935E+03  0.7818608E-02  0.1235079E+00
          4   -1    0    0  501    0  0.00000000000E+00  0.00000000000E+00  0.23453082320E+01  0.26670903065E+01  0.12700000000E+01 0. -1.
         -4   -1    0    0    0  501 -0.00000000000E+00 -0.00000000000E+00 -0.15581505964E+04  0.15581511140E+04  0.12700000000E+01 0. -1.
         25    2    1    2    0    0  0.00000000000E+00  0.00000000000E+00 -0.15558052882E+04  0.15608182043E+04  0.12499348825E+03 0.  0.
    9000005    1    3    3    0    0 -0.12789900938E+02 -0.41976087865E+02 -0.22236000131E+03  0.22665070858E+03  0.10000000000E+01 0.  0.
    9000005    1    3    3    0    0  0.12789900938E+02  0.41976087865E+02 -0.13334452869E+04  0.13341674957E+04  0.10000000000E+01 0.  0.
<mgrwt>
<rscale>  0 0.12499349E+03</rscale>
<asrwt>0</asrwt>
<pdfrwt beam="1">  1        4 0.38561018E-03 0.12499349E+03</pdfrwt>
<pdfrwt beam="2">  1       -4 0.23973949E+00 0.12499349E+03</pdfrwt>
<totfact> 0.16767895E+03</totfact>
</mgrwt>
</event>
<event>
 5    1  0.3309219E-002  0.1250051E+03  0.7818608E-02  0.1235061E+00
          4   -1    0    0  501    0  0.00000000000E+00  0.00000000000E+00  0.12862109686E+03  0.12862736667E+03  0.12700000000E+01 0. -1.
         -4   -1    0    0    0  501 -0.00000000000E+00 -0.00000000000E+00 -0.30352395089E+02  0.30378953037E+02  0.12700000000E+01 0. -1.
         25    2    1    2    0    0  0.00000000000E+00  0.00000000000E+00  0.98268701771E+02  0.15900631971E+03  0.12500508774E+03 0.  0.
    9000005    1    3    3    0    0  0.46409370968E+02  0.35406901876E+02  0.77522718656E+02  0.97047670358E+02  0.10000000000E+01 0.  0.
    9000005    1    3    3    0    0 -0.46409370968E+02 -0.35406901876E+02  0.20745983115E+02  0.61958649352E+02  0.10000000000E+01 0.  0.
<mgrwt>
<rscale>  0 0.12500509E+03</rscale>
<asrwt>0</asrwt>
<pdfrwt beam="1">  1        4 0.19790386E-01 0.12500509E+03</pdfrwt>
<pdfrwt beam="2">  1       -4 0.46721244E-02 0.12500509E+03</pdfrwt>
<totfact> 0.97523547E+03</totfact>
</mgrwt>
</event>
<event>
 5    1  0.3309219E-002  0.1250022E+03  0.7818608E-02  0.1235066E+00
          4   -1    0    0  501    0  0.00000000000E+00  0.00000000000E+00  0.14981270124E+02  0.15035004307E+02  0.12700000000E+01 0. -1.
         -4   -1    0    0    0  501 -0.00000000000E+00 -0.00000000000E+00 -0.26022933129E+03  0.26023243027E+03  0.12700000000E+01 0. -1.
         25    2    1    2    0    0  0.00000000000E+00  0.00000000000E+00 -0.24524806116E+03  0.27526743457E+03  0.12500219611E+03 0.  0.
    9000005    1    3    3    0    0 -0.39986820248E+02  0.43967354395E+02 -0.80076547668E+02  0.99726263003E+02  0.10000000000E+01 0.  0.
    9000005    1    3    3    0    0  0.39986820248E+02 -0.43967354395E+02 -0.16517151349E+03  0.17554117157E+03  0.10000000000E+01 0.  0.
<mgrwt>
<rscale>  0 0.12500220E+03</rscale>
<asrwt>0</asrwt>
<pdfrwt beam="1">  1        4 0.23091828E-02 0.12500220E+03</pdfrwt>
<pdfrwt beam="2">  1       -4 0.40039650E-01 0.12500220E+03</pdfrwt>
<totfact> 0.78805976E+03</totfact>
</mgrwt>
</event>
<event>
 5    1  0.3309219E-002  0.1249983E+03  0.7818608E-02  0.1235072E+00
         -4   -1    0    0    0  501 -0.00000000000E+00  0.00000000000E+00  0.20277650982E+02  0.20317382444E+02  0.12700000000E+01 0. -1.
          4   -1    0    0  501    0  0.00000000000E+00 -0.00000000000E+00 -0.19240257665E+03  0.19240676807E+03  0.12700000000E+01 0. -1.
         25    2    1    2    0    0  0.00000000000E+00  0.00000000000E+00 -0.17212492566E+03  0.21272415052E+03  0.12499829670E+03 0.  0.
    9000005    1    3    3    0    0 -0.95070557732E+01  0.38740735734E+02 -0.41997019091E+01  0.40123138098E+02  0.10000000000E+01 0.  0.
    9000005    1    3    3    0    0  0.95070557732E+01 -0.38740735734E+02 -0.16792522376E+03  0.17260101242E+03  0.10000000000E+01 0.  0.
<mgrwt>
<rscale>  0 0.12499830E+03</rscale>
<asrwt>0</asrwt>
<pdfrwt beam="2">  1        4 0.29603774E-01 0.12499830E+03</pdfrwt>
<pdfrwt beam="1">  1       -4 0.31230174E-02 0.12499830E+03</pdfrwt>
<totfact> 0.88036267E+03</totfact>
</mgrwt>
</event>
<event>
 5    1  0.3309219E-002  0.1250070E+03  0.7818608E-02  0.1235058E+00
         -4   -1    0    0    0  501 -0.00000000000E+00  0.00000000000E+00  0.10518703965E+02  0.10595094766E+02  0.12700000000E+01 0. -1.
          4   -1    0    0  501    0  0.00000000000E+00 -0.00000000000E+00 -0.36998244930E+03  0.36998462899E+03  0.12700000000E+01 0. -1.
         25    2    1    2    0    0  0.00000000000E+00  0.00000000000E+00 -0.35946374533E+03  0.38057972375E+03  0.12500696751E+03 0.  0.
    9000005    1    3    3    0    0 -0.16361749651E+02  0.13947453168E+02 -0.10797669714E+01  0.21550039402E+02  0.10000000000E+01 0.  0.
    9000005    1    3    3    0    0  0.16361749651E+02 -0.13947453168E+02 -0.35838397836E+03  0.35902968435E+03  0.10000000000E+01 0.  0.
<mgrwt>
<rscale>  0 0.12500697E+03</rscale>
<asrwt>0</asrwt>
<pdfrwt beam="2">  1        4 0.56926411E-01 0.12500697E+03</pdfrwt>
<pdfrwt beam="1">  1       -4 0.16243063E-02 0.12500697E+03</pdfrwt>
<totfact> 0.66476204E+03</totfact>
</mgrwt>
</event>
<event>
 5    1  0.3309219E-002  0.1250359E+03  0.7818608E-02  0.1235013E+00
          4   -1    0    0  501    0  0.00000000000E+00  0.00000000000E+00  0.26627429962E+03  0.26627732825E+03  0.12700000000E+01 0. -1.
         -4   -1    0    0    0  501 -0.00000000000E+00 -0.00000000000E+00 -0.14647861281E+02  0.14702814020E+02  0.12700000000E+01 0. -1.
         25    2    1    2    0    0  0.00000000000E+00  0.00000000000E+00  0.25162643834E+03  0.28098014227E+03  0.12503589835E+03 0.  0.
    9000005    1    3    3    0    0 -0.12964082017E+02  0.43655480926E+02  0.22204006114E+03  0.22666419476E+03  0.10000000000E+01 0.  0.
    9000005    1    3    3    0    0  0.12964082017E+02 -0.43655480926E+02  0.29586377203E+02  0.54315947506E+02  0.10000000000E+01 0.  0.
<mgrwt>
<rscale>  0 0.12503590E+03</rscale>
<asrwt>0</asrwt>
<pdfrwt beam="1">  1        4 0.40969735E-01 0.12503590E+03</pdfrwt>
<pdfrwt beam="2">  1       -4 0.22579773E-02 0.12503590E+03</pdfrwt>
<totfact> 0.77986082E+03</totfact>
</mgrwt>
</event>
<event>
 5    1  0.3309219E-002  0.1250013E+03  0.7818608E-02  0.1235067E+00
         -4   -1    0    0    0  501 -0.00000000000E+00  0.00000000000E+00  0.16582672404E+03  0.16583158718E+03  0.12700000000E+01 0.  1.
          4   -1    0    0  501    0  0.00000000000E+00 -0.00000000000E+00 -0.23534385707E+02  0.23568627678E+02  0.12700000000E+01 0.  1.
         25    2    1    2    0    0  0.00000000000E+00  0.00000000000E+00  0.14229233834E+03  0.18940021486E+03  0.12500132735E+03 0.  0.
    9000005    1    3    3    0    0 -0.17530166178E+02  0.58799149634E+02  0.89117972101E+02  0.10820193933E+03  0.10000000000E+01 0.  0.
    9000005    1    3    3    0    0  0.17530166178E+02 -0.58799149634E+02  0.53174366234E+02  0.81198275526E+02  0.10000000000E+01 0.  0.
<mgrwt>
<rscale>  0 0.12500133E+03</rscale>
<asrwt>0</asrwt>
<pdfrwt beam="2">  1        4 0.36236827E-02 0.12500133E+03</pdfrwt>
<pdfrwt beam="1">  1       -4 0.25514812E-01 0.12500133E+03</pdfrwt>
<totfact> 0.91949045E+03</totfact>
</mgrwt>
</event>
<event>
 5    1  0.3309219E-002  0.1249988E+03  0.7818608E-02  0.1235071E+00
          4   -1    0    0  501    0  0.00000000000E+00  0.00000000000E+00  0.40441950136E+03  0.40442149545E+03  0.12700000000E+01 0. -1.
         -4   -1    0    0    0  501 -0.00000000000E+00 -0.00000000000E+00 -0.96149472386E+01  0.96984591767E+01  0.12700000000E+01 0. -1.
         25    2    1    2    0    0  0.00000000000E+00  0.00000000000E+00  0.39480455412E+03  0.41411995463E+03  0.12499880345E+03 0.  0.
    9000005    1    3    3    0    0 -0.55384721343E+02  0.27602705266E+02  0.16855859739E+03  0.17956162577E+03  0.10000000000E+01 0.  0.
    9000005    1    3    3    0    0  0.55384721343E+02 -0.27602705266E+02  0.22624595673E+03  0.23455832885E+03  0.10000000000E+01 0.  0.
<mgrwt>
<rscale>  0 0.12499880E+03</rscale>
<asrwt>0</asrwt>
<pdfrwt beam="1">  1        4 0.62224953E-01 0.12499880E+03</pdfrwt>
<pdfrwt beam="2">  1       -4 0.14858003E-02 0.12499880E+03</pdfrwt>
<totfact> 0.63203955E+03</totfact>
</mgrwt>
</event>
<event>
 5    1  0.3309219E-002  0.1249990E+03  0.7818608E-02  0.1235071E+00
         -4   -1    0    0    0  501 -0.00000000000E+00  0.00000000000E+00  0.42248893677E+01  0.44116425705E+01  0.12700000000E+01 0.  1.
          4   -1    0    0  501    0  0.00000000000E+00 -0.00000000000E+00 -0.90438589215E+03  0.90438678386E+03  0.12700000000E+01 0.  1.
         25    2    1    2    0    0  0.00000000000E+00  0.00000000000E+00 -0.90016100278E+03  0.90879842643E+03  0.12499899580E+03 0.  0.
    9000005    1    3    3    0    0  0.16520825619E+02  0.25869725237E+02 -0.54324625271E+02  0.62404689518E+02  0.10000000000E+01 0.  0.
    9000005    1    3    3    0    0 -0.16520825619E+02 -0.25869725237E+02 -0.84583637751E+03  0.84639373691E+03  0.10000000000E+01 0.  0.
<mgrwt>
<rscale>  0 0.12499900E+03</rscale>
<asrwt>0</asrwt>
<pdfrwt beam="2">  1        4 0.13915057E+00 0.12499900E+03</pdfrwt>
<pdfrwt beam="1">  1       -4 0.66441792E-03 0.12499900E+03</pdfrwt>
<totfact> 0.33826028E+03</totfact>
</mgrwt>
</event>
<event>
 5    1  0.3309219E-002  0.1249974E+03  0.7818608E-02  0.1235073E+00
          4   -1    0    0  501    0  0.00000000000E+00  0.00000000000E+00  0.10001295382E+02  0.10081607477E+02  0.12700000000E+01 0.  1.
         -4   -1    0    0    0  501 -0.00000000000E+00 -0.00000000000E+00 -0.38891522733E+03  0.38891730092E+03  0.12700000000E+01 0.  1.
         25    2    1    2    0    0  0.00000000000E+00  0.00000000000E+00 -0.37891393195E+03  0.39899890839E+03  0.12499744426E+03 0.  0.
    9000005    1    3    3    0    0 -0.27464597879E+02 -0.73445087365E+01 -0.36709266984E+03  0.36819325659E+03  0.10000000000E+01 0.  0.
    9000005    1    3    3    0    0  0.27464597879E+02  0.73445087365E+01 -0.11821262111E+02  0.30805651805E+02  0.10000000000E+01 0.  0.
<mgrwt>
<rscale>  0 0.12499744E+03</rscale>
<asrwt>0</asrwt>
<pdfrwt beam="1">  1        4 0.15449985E-02 0.12499744E+03</pdfrwt>
<pdfrwt beam="2">  1       -4 0.59839438E-01 0.12499744E+03</pdfrwt>
<totfact> 0.64653924E+03</totfact>
</mgrwt>
</event>
<event>
 5    1  0.3309219E-002  0.1249956E+03  0.7818608E-02  0.1235076E+00
          4   -1    0    0  501    0  0.00000000000E+00  0.00000000000E+00  0.58967990587E+02  0.58981665066E+02  0.12700000000E+01 0.  1.
         -4   -1    0    0    0  501 -0.00000000000E+00 -0.00000000000E+00 -0.66211501777E+02  0.66223680565E+02  0.12700000000E+01 0.  1.
         25    2    1    2    0    0  0.00000000000E+00  0.00000000000E+00 -0.72435111896E+01  0.12520534563E+03  0.12499564040E+03 0.  0.
    9000005    1    3    3    0    0  0.16348980129E+02  0.34302830092E+02  0.46069982235E+02  0.59727854195E+02  0.10000000000E+01 0.  0.
    9000005    1    3    3    0    0 -0.16348980129E+02 -0.34302830092E+02 -0.53313493425E+02  0.65477491436E+02  0.10000000000E+01 0.  0.
<mgrwt>
<rscale>  0 0.12499564E+03</rscale>
<asrwt>0</asrwt>
<pdfrwt beam="1">  1        4 0.90739873E-02 0.12499564E+03</pdfrwt>
<pdfrwt beam="2">  1       -4 0.10188374E-01 0.12499564E+03</pdfrwt>
<totfact> 0.10449434E+04</totfact>
</mgrwt>
</event>
<event>
 5    1  0.3309219E-002  0.1249850E+03  0.7818608E-02  0.1235093E+00
         -4   -1    0    0    0  501 -0.00000000000E+00  0.00000000000E+00  0.64063294198E+02  0.64075881293E+02  0.12700000000E+01 0.  1.
          4   -1    0    0  501    0  0.00000000000E+00 -0.00000000000E+00 -0.60935013480E+02  0.60948246634E+02  0.12700000000E+01 0.  1.
         25    2    1    2    0    0  0.00000000000E+00  0.00000000000E+00  0.31282807184E+01  0.12502412793E+03  0.12498498479E+03 0.  0.
    9000005    1    3    3    0    0 -0.45177531696E+02  0.41838818486E+02 -0.90606503830E+01  0.62246216654E+02  0.10000000000E+01 0.  0.
    9000005    1    3    3    0    0  0.45177531696E+02 -0.41838818486E+02  0.12188931101E+02  0.62777911273E+02  0.10000000000E+01 0.  0.
<mgrwt>
<rscale>  0 0.12498498E+03</rscale>
<asrwt>0</asrwt>
<pdfrwt beam="2">  1        4 0.93766037E-02 0.12498498E+03</pdfrwt>
<pdfrwt beam="1">  1       -4 0.98578775E-02 0.12498498E+03</pdfrwt>
<totfact> 0.10455886E+04</totfact>
</mgrwt>
</event>
<event>
 5    1  0.3309219E-002  0.1250044E+03  0.7818608E-02  0.1235062E+00
          4   -1    0    0  501    0  0.00000000000E+00  0.00000000000E+00  0.54113075421E+01  0.55583405181E+01  0.12700000000E+01 0.  1.
         -4   -1    0    0    0  501 -0.00000000000E+00 -0.00000000000E+00 -0.71209523402E+03  0.71209636652E+03  0.12700000000E+01 0.  1.
         25    2    1    2    0    0  0.00000000000E+00  0.00000000000E+00 -0.70668392647E+03  0.71765470704E+03  0.12500442630E+03 0.  0.
    9000005    1    3    3    0    0  0.47454216050E+02  0.34467589190E+02 -0.22946202495E+03  0.23684116665E+03  0.10000000000E+01 0.  0.
    9000005    1    3    3    0    0 -0.47454216050E+02 -0.34467589190E+02 -0.47722190152E+03  0.48081354038E+03  0.10000000000E+01 0.  0.
<mgrwt>
<rscale>  0 0.12500443E+03</rscale>
<asrwt>0</asrwt>
<pdfrwt beam="1">  1        4 0.84390676E-03 0.12500443E+03</pdfrwt>
<pdfrwt beam="2">  1       -4 0.10956444E+00 0.12500443E+03</pdfrwt>
<totfact> 0.42166902E+03</totfact>
</mgrwt>
</event>
<event>
 5    1  0.3309219E-002  0.1250022E+03  0.7818608E-02  0.1235066E+00
         -4   -1    0    0    0  501 -0.00000000000E+00  0.00000000000E+00  0.11573287653E+03  0.11573984453E+03  0.12700000000E+01 0.  1.
          4   -1    0    0  501    0  0.00000000000E+00 -0.00000000000E+00 -0.33733531857E+02  0.33757429872E+02  0.12700000000E+01 0.  1.
         25    2    1    2    0    0  0.00000000000E+00  0.00000000000E+00  0.81999344677E+02  0.14949727440E+03  0.12500217008E+03 0.  0.
    9000005    1    3    3    0    0 -0.21764586520E+02 -0.52319445534E+02  0.72514093002E+02  0.92034315836E+02  0.10000000000E+01 0.  0.
    9000005    1    3    3    0    0  0.21764586520E+02  0.52319445534E+02  0.94852516748E+01  0.57462958562E+02  0.10000000000E+01 0.  0.
<mgrwt>
<rscale>  0 0.12500217E+03</rscale>
<asrwt>0</asrwt>
<pdfrwt beam="2">  1        4 0.51921484E-02 0.12500217E+03</pdfrwt>
<pdfrwt beam="1">  1       -4 0.17807432E-01 0.12500217E+03</pdfrwt>
<totfact> 0.99399148E+03</totfact>
</mgrwt>
</event>
<event>
 5    1  0.3309219E-002  0.1250031E+03  0.7818608E-02  0.1235064E+00
          4   -1    0    0  501    0  0.00000000000E+00  0.00000000000E+00  0.11874183310E+03  0.11874862453E+03  0.12700000000E+01 0.  1.
         -4   -1    0    0    0  501 -0.00000000000E+00 -0.00000000000E+00 -0.32878652991E+02  0.32903171922E+02  0.12700000000E+01 0.  1.
         25    2    1    2    0    0  0.00000000000E+00  0.00000000000E+00  0.85863180113E+02  0.15165179646E+03  0.12500312664E+03 0.  0.
    9000005    1    3    3    0    0  0.53358118407E+02 -0.21652305120E+02  0.72388095451E+02  0.92503770085E+02  0.10000000000E+01 0.  0.
    9000005    1    3    3    0    0 -0.53358118407E+02  0.21652305120E+02  0.13475084662E+02  0.59148026371E+02  0.10000000000E+01 0.  0.
<mgrwt>
<rscale>  0 0.12500313E+03</rscale>
<asrwt>0</asrwt>
<pdfrwt beam="1">  1        4 0.18270383E-01 0.12500313E+03</pdfrwt>
<pdfrwt beam="2">  1       -4 0.50606628E-02 0.12500313E+03</pdfrwt>
<totfact> 0.98968488E+03</totfact>
</mgrwt>
</event>
<event>
 5    1  0.3309219E-002  0.1250128E+03  0.7818608E-02  0.1235049E+00
         -4   -1    0    0    0  501 -0.00000000000E+00  0.00000000000E+00  0.35071431150E+01  0.37300070816E+01  0.12700000000E+01 0. -1.
          4   -1    0    0  501    0  0.00000000000E+00 -0.00000000000E+00 -0.10794981029E+04  0.10794988500E+04  0.12700000000E+01 0. -1.
         25    2    1    2    0    0  0.00000000000E+00  0.00000000000E+00 -0.10759909598E+04  0.10832288571E+04  0.12501284409E+03 0.  0.
    9000005    1    3    3    0    0 -0.29600900372E+01  0.50403672072E+02 -0.21882906750E+03  0.22458061598E+03  0.10000000000E+01 0.  0.
    9000005    1    3    3    0    0  0.29600900372E+01 -0.50403672072E+02 -0.85716189229E+03  0.85864824107E+03  0.10000000000E+01 0.  0.
<mgrwt>
<rscale>  0 0.12501284E+03</rscale>
<asrwt>0</asrwt>
<pdfrwt beam="2">  1        4 0.16609357E+00 0.12501284E+03</pdfrwt>
<pdfrwt beam="1">  1       -4 0.55676219E-03 0.12501284E+03</pdfrwt>
<totfact> 0.27971700E+03</totfact>
</mgrwt>
</event>
<event>
 5    1  0.3309219E-002  0.1249998E+03  0.7818608E-02  0.1235070E+00
         -4   -1    0    0    0  501 -0.00000000000E+00  0.00000000000E+00  0.69952434269E+01  0.71095942642E+01  0.12700000000E+01 0. -1.
          4   -1    0    0  501    0  0.00000000000E+00 -0.00000000000E+00 -0.55377148787E+03  0.55377294416E+03  0.12700000000E+01 0. -1.
         25    2    1    2    0    0  0.00000000000E+00  0.00000000000E+00 -0.54677624445E+03  0.56088253842E+03  0.12499984166E+03 0.  0.
    9000005    1    3    3    0    0  0.26800469514E+02  0.40850489884E+02 -0.44822326231E+03  0.45087927493E+03  0.10000000000E+01 0.  0.
    9000005    1    3    3    0    0 -0.26800469514E+02 -0.40850489884E+02 -0.98552982137E+02  0.11000326349E+03  0.10000000000E+01 0.  0.
<mgrwt>
<rscale>  0 0.12499984E+03</rscale>
<asrwt>0</asrwt>
<pdfrwt beam="2">  1        4 0.85204488E-01 0.12499984E+03</pdfrwt>
<pdfrwt beam="1">  1       -4 0.10851000E-02 0.12499984E+03</pdfrwt>
<totfact> 0.51433927E+03</totfact>
</mgrwt>
</event>
<event>
 5    1  0.3309219E-002  0.1249990E+03  0.7818608E-02  0.1235071E+00
          4   -1    0    0  501    0  0.00000000000E+00  0.00000000000E+00  0.42209217547E+03  0.42209408606E+03  0.12700000000E+01 0. -1.
         -4   -1    0    0    0  501 -0.00000000000E+00 -0.00000000000E+00 -0.92088304017E+01  0.92959914677E+01  0.12700000000E+01 0. -1.
         25    2    1    2    0    0  0.00000000000E+00  0.00000000000E+00  0.41288334506E+03  0.43139007753E+03  0.12499896944E+03 0.  0.
    9000005    1    3    3    0    0 -0.38669677712E+02  0.28538504344E+02  0.34428885221E+03  0.34762854307E+03  0.10000000000E+01 0.  0.
    9000005    1    3    3    0    0  0.38669677712E+02 -0.28538504344E+02  0.68594492857E+02  0.83761534459E+02  0.10000000000E+01 0.  0.
<mgrwt>
<rscale>  0 0.12499897E+03</rscale>
<asrwt>0</asrwt>
<pdfrwt beam="1">  1        4 0.64944130E-01 0.12499897E+03</pdfrwt>
<pdfrwt beam="2">  1       -4 0.14235944E-02 0.12499897E+03</pdfrwt>
<totfact> 0.61611578E+03</totfact>
</mgrwt>
</event>
<event>
 5    1  0.3309219E-002  0.1249964E+03  0.7818608E-02  0.1235075E+00
          4   -1    0    0  501    0  0.00000000000E+00  0.00000000000E+00  0.42202525413E+01  0.44072022318E+01  0.12700000000E+01 0.  1.
         -4   -1    0    0    0  501 -0.00000000000E+00 -0.00000000000E+00 -0.90529991389E+03  0.90530080470E+03  0.12700000000E+01 0.  1.
         25    2    1    2    0    0  0.00000000000E+00  0.00000000000E+00 -0.90107966135E+03  0.90970800693E+03  0.12499640706E+03 0.  0.
    9000005    1    3    3    0    0 -0.69511197815E+01 -0.34639693104E+02 -0.75408065705E+02  0.83280266438E+02  0.10000000000E+01 0.  0.
    9000005    1    3    3    0    0  0.69511197815E+01  0.34639693104E+02 -0.82567159565E+03  0.82642774050E+03  0.10000000000E+01 0.  0.
<mgrwt>
<rscale>  0 0.12499641E+03</rscale>
<asrwt>0</asrwt>
<pdfrwt beam="1">  1        4 0.66371961E-03 0.12499641E+03</pdfrwt>
<pdfrwt beam="2">  1       -4 0.13929121E+00 0.12499641E+03</pdfrwt>
<totfact> 0.33793593E+03</totfact>
</mgrwt>
</event>
<event>
 5    1  0.3309219E-002  0.1249994E+03  0.7818608E-02  0.1235070E+00
         -4   -1    0    0    0  501 -0.00000000000E+00  0.00000000000E+00  0.35391574750E+02  0.35414353916E+02  0.12700000000E+01 0.  1.
          4   -1    0    0  501    0  0.00000000000E+00 -0.00000000000E+00 -0.11030927884E+03  0.11031658941E+03  0.12700000000E+01 0.  1.
         25    2    1    2    0    0  0.00000000000E+00  0.00000000000E+00 -0.74917704092E+02  0.14573094332E+03  0.12499938182E+03 0.  0.
    9000005    1    3    3    0    0  0.46876672952E+02 -0.19459539334E+02  0.50447001625E+01  0.51015146161E+02  0.10000000000E+01 0.  0.
    9000005    1    3    3    0    0 -0.46876672952E+02  0.19459539334E+02 -0.79962404255E+02  0.94715797163E+02  0.10000000000E+01 0.  0.
<mgrwt>
<rscale>  0 0.12499938E+03</rscale>
<asrwt>0</asrwt>
<pdfrwt beam="2">  1        4 0.16972973E-01 0.12499938E+03</pdfrwt>
<pdfrwt beam="1">  1       -4 0.54471723E-02 0.12499938E+03</pdfrwt>
<totfact> 0.10016298E+04</totfact>
</mgrwt>
</event>
<event>
 5    1  0.3309219E-002  0.1250001E+03  0.7818608E-02  0.1235069E+00
         -4   -1    0    0    0  501 -0.00000000000E+00  0.00000000000E+00  0.37482208850E+02  0.37503718219E+02  0.12700000000E+01 0.  1.
          4   -1    0    0  501    0  0.00000000000E+00 -0.00000000000E+00 -0.10416101515E+03  0.10416875721E+03  0.12700000000E+01 0.  1.
         25    2    1    2    0    0  0.00000000000E+00  0.00000000000E+00 -0.66678806303E+02  0.14167247542E+03  0.12500010833E+03 0.  0.
    9000005    1    3    3    0    0  0.20867266497E+02 -0.58742467771E+02 -0.38297393359E+02  0.73169738751E+02  0.10000000000E+01 0.  0.
    9000005    1    3    3    0    0 -0.20867266497E+02  0.58742467771E+02 -0.28381412945E+02  0.68502736673E+02  0.10000000000E+01 0.  0.
<mgrwt>
<rscale>  0 0.12500011E+03</rscale>
<asrwt>0</asrwt>
<pdfrwt beam="2">  1        4 0.16027022E-01 0.12500011E+03</pdfrwt>
<pdfrwt beam="1">  1       -4 0.57687438E-02 0.12500011E+03</pdfrwt>
<totfact> 0.10099015E+04</totfact>
</mgrwt>
</event>
<event>
 5    1  0.3309219E-002  0.1250024E+03  0.7818608E-02  0.1235066E+00
          4   -1    0    0  501    0  0.00000000000E+00  0.00000000000E+00  0.15405755822E+02  0.15458014505E+02  0.12700000000E+01 0.  1.
         -4   -1    0    0    0  501 -0.00000000000E+00 -0.00000000000E+00 -0.25308433900E+03  0.25308752546E+03  0.12700000000E+01 0.  1.
         25    2    1    2    0    0  0.00000000000E+00  0.00000000000E+00 -0.23767858317E+03  0.26854553997E+03  0.12500239253E+03 0.  0.
    9000005    1    3    3    0    0 -0.12999763879E+02 -0.60302674695E+02 -0.97356800971E+02  0.11525950343E+03  0.10000000000E+01 0.  0.
    9000005    1    3    3    0    0  0.12999763879E+02  0.60302674695E+02 -0.14032178220E+03  0.15328603654E+03  0.10000000000E+01 0.  0.
<mgrwt>
<rscale>  0 0.12500239E+03</rscale>
<asrwt>0</asrwt>
<pdfrwt beam="1">  1        4 0.23743815E-02 0.12500239E+03</pdfrwt>
<pdfrwt beam="2">  1       -4 0.38940314E-01 0.12500239E+03</pdfrwt>
<totfact> 0.79717333E+03</totfact>
</mgrwt>
</event>
<event>
 5    1  0.3309219E-002  0.1250036E+03  0.7818608E-02  0.1235064E+00
          4   -1    0    0  501    0  0.00000000000E+00  0.00000000000E+00  0.92958291827E+02  0.92966966818E+02  0.12700000000E+01 0. -1.
         -4   -1    0    0    0  501 -0.00000000000E+00 -0.00000000000E+00 -0.42003715646E+02  0.42022910752E+02  0.12700000000E+01 0. -1.
         25    2    1    2    0    0  0.00000000000E+00  0.00000000000E+00  0.50954576181E+02  0.13498987757E+03  0.12500359280E+03 0.  0.
    9000005    1    3    3    0    0 -0.22370870300E+01  0.41669602019E+02 -0.24759145661E+02  0.48532211825E+02  0.10000000000E+01 0.  0.
    9000005    1    3    3    0    0  0.22370870300E+01 -0.41669602019E+02  0.75713721843E+02  0.86457665745E+02  0.10000000000E+01 0.  0.
<mgrwt>
<rscale>  0 0.12500359E+03</rscale>
<asrwt>0</asrwt>
<pdfrwt beam="1">  1        4 0.14303420E-01 0.12500359E+03</pdfrwt>
<pdfrwt beam="2">  1       -4 0.64642539E-02 0.12500359E+03</pdfrwt>
<totfact> 0.10237455E+04</totfact>
</mgrwt>
</event>
<event>
 5    1  0.3309219E-002  0.1250004E+03  0.7818608E-02  0.1235069E+00
          4   -1    0    0  501    0  0.00000000000E+00  0.00000000000E+00  0.22057628224E+02  0.22094159022E+02  0.12700000000E+01 0.  1.
         -4   -1    0    0    0  501 -0.00000000000E+00 -0.00000000000E+00 -0.17690879666E+03  0.17691335516E+03  0.12700000000E+01 0.  1.
         25    2    1    2    0    0  0.00000000000E+00  0.00000000000E+00 -0.15485116843E+03  0.19900751418E+03  0.12500042534E+03 0.  0.
    9000005    1    3    3    0    0 -0.27508871843E+01  0.40029664178E+02 -0.11507905367E+01  0.40153028694E+02  0.10000000000E+01 0.  0.
    9000005    1    3    3    0    0  0.27508871843E+01 -0.40029664178E+02 -0.15370037789E+03  0.15885448549E+03  0.10000000000E+01 0.  0.
<mgrwt>
<rscale>  0 0.12500043E+03</rscale>
<asrwt>0</asrwt>
<pdfrwt beam="1">  1        4 0.33966421E-02 0.12500043E+03</pdfrwt>
<pdfrwt beam="2">  1       -4 0.27219898E-01 0.12500043E+03</pdfrwt>
<totfact> 0.90302308E+03</totfact>
</mgrwt>
</event>
<event>
 5    1  0.3309219E-002  0.1249976E+03  0.7818608E-02  0.1235073E+00
          4   -1    0    0  501    0  0.00000000000E+00  0.00000000000E+00  0.72746105888E+02  0.72757190860E+02  0.12700000000E+01 0.  1.
         -4   -1    0    0    0  501 -0.00000000000E+00 -0.00000000000E+00 -0.53672247970E+02  0.53687271324E+02  0.12700000000E+01 0.  1.
         25    2    1    2    0    0  0.00000000000E+00  0.00000000000E+00  0.19073857917E+02  0.12644446218E+03  0.12499755982E+03 0.  0.
    9000005    1    3    3    0    0 -0.45729372561E+01  0.39565788789E+02 -0.39173701701E+02  0.55874343868E+02  0.10000000000E+01 0.  0.
    9000005    1    3    3    0    0  0.45729372561E+01 -0.39565788789E+02  0.58247559618E+02  0.70570118316E+02  0.10000000000E+01 0.  0.
<mgrwt>
<rscale>  0 0.12499756E+03</rscale>
<asrwt>0</asrwt>
<pdfrwt beam="1">  1        4 0.11193717E-01 0.12499756E+03</pdfrwt>
<pdfrwt beam="2">  1       -4 0.82592773E-02 0.12499756E+03</pdfrwt>
<totfact> 0.10421813E+04</totfact>
</mgrwt>
</event>
<event>
 5    1  0.3309219E-002  0.1250015E+03  0.7818608E-02  0.1235067E+00
         -4   -1    0    0    0  501 -0.00000000000E+00  0.00000000000E+00  0.41001268228E+03  0.41001464916E+03  0.12700000000E+01 0. -1.
          4   -1    0    0  501    0  0.00000000000E+00 -0.00000000000E+00 -0.94830454453E+01  0.95677087601E+01  0.12700000000E+01 0. -1.
         25    2    1    2    0    0  0.00000000000E+00  0.00000000000E+00  0.40052963683E+03  0.41958235792E+03  0.12500146039E+03 0.  0.
    9000005    1    3    3    0    0  0.21076430346E+02  0.49040144300E+02  0.30935183815E+03  0.31392469070E+03  0.10000000000E+01 0.  0.
    9000005    1    3    3    0    0 -0.21076430346E+02 -0.49040144300E+02  0.91177798686E+02  0.10565766722E+03  0.10000000000E+01 0.  0.
<mgrwt>
<rscale>  0 0.12500146E+03</rscale>
<asrwt>0</asrwt>
<pdfrwt beam="2">  1        4 0.14655941E-02 0.12500146E+03</pdfrwt>
<pdfrwt beam="1">  1       -4 0.63085533E-01 0.12500146E+03</pdfrwt>
<totfact> 0.62689756E+03</totfact>
</mgrwt>
</event>
<event>
 5    1  0.3309219E-002  0.1249991E+03  0.7818608E-02  0.1235071E+00
         -4   -1    0    0    0  501 -0.00000000000E+00  0.00000000000E+00  0.11012222954E+03  0.11012955253E+03  0.12700000000E+01 0.  1.
          4   -1    0    0  501    0  0.00000000000E+00 -0.00000000000E+00 -0.35451588852E+02  0.35474329481E+02  0.12700000000E+01 0.  1.
         25    2    1    2    0    0  0.00000000000E+00  0.00000000000E+00  0.74670640692E+02  0.14560388201E+03  0.12499914349E+03 0.  0.
    9000005    1    3    3    0    0 -0.14344520209E+02  0.35257795251E+02  0.95066217677E+02  0.10240831572E+03  0.10000000000E+01 0.  0.
    9000005    1    3    3    0    0  0.14344520209E+02 -0.35257795251E+02 -0.20395576986E+02  0.43195566284E+02  0.10000000000E+01 0.  0.
<mgrwt>
<rscale>  0 0.12499914E+03</rscale>
<asrwt>0</asrwt>
<pdfrwt beam="2">  1        4 0.54564031E-02 0.12499914E+03</pdfrwt>
<pdfrwt beam="1">  1       -4 0.16944194E-01 0.12499914E+03</pdfrwt>
<totfact> 0.10018927E+04</totfact>
</mgrwt>
</event>
<event>
 5    1  0.3309219E-002  0.1250081E+03  0.7818608E-02  0.1235057E+00
          4   -1    0    0  501    0  0.00000000000E+00  0.00000000000E+00  0.37256034269E+02  0.37277674142E+02  0.12700000000E+01 0. -1.
         -4   -1    0    0    0  501 -0.00000000000E+00 -0.00000000000E+00 -0.10480638465E+03  0.10481407903E+03  0.12700000000E+01 0. -1.
         25    2    1    2    0    0  0.00000000000E+00  0.00000000000E+00 -0.67550350381E+02  0.14209175317E+03  0.12500806567E+03 0.  0.
    9000005    1    3    3    0    0  0.52319213418E+02  0.22720409285E+02 -0.47460757198E+01  0.57245456811E+02  0.10000000000E+01 0.  0.
    9000005    1    3    3    0    0 -0.52319213418E+02 -0.22720409285E+02 -0.62804274661E+02  0.84846296363E+02  0.10000000000E+01 0.  0.
<mgrwt>
<rscale>  0 0.12500807E+03</rscale>
<asrwt>0</asrwt>
<pdfrwt beam="1">  1        4 0.57339541E-02 0.12500807E+03</pdfrwt>
<pdfrwt beam="2">  1       -4 0.16126316E-01 0.12500807E+03</pdfrwt>
<totfact> 0.10088583E+04</totfact>
</mgrwt>
</event>
<event>
 5    1  0.3309219E-002  0.1249948E+03  0.7818608E-02  0.1235077E+00
          4   -1    0    0  501    0  0.00000000000E+00  0.00000000000E+00  0.78607711596E+02  0.78617970099E+02  0.12700000000E+01 0.  1.
         -4   -1    0    0    0  501 -0.00000000000E+00 -0.00000000000E+00 -0.49667219164E+02  0.49683453579E+02  0.12700000000E+01 0.  1.
         25    2    1    2    0    0  0.00000000000E+00  0.00000000000E+00  0.28940492432E+02  0.12830142368E+03  0.12499481275E+03 0.  0.
    9000005    1    3    3    0    0  0.31829851994E+02 -0.26203244228E+02 -0.33731319452E+02  0.53278057378E+02  0.10000000000E+01 0.  0.
    9000005    1    3    3    0    0 -0.31829851994E+02  0.26203244228E+02  0.62671811884E+02  0.75023366299E+02  0.10000000000E+01 0.  0.
<mgrwt>
<rscale>  0 0.12499481E+03</rscale>
<asrwt>0</asrwt>
<pdfrwt beam="1">  1        4 0.12095532E-01 0.12499481E+03</pdfrwt>
<pdfrwt beam="2">  1       -4 0.76431486E-02 0.12499481E+03</pdfrwt>
<totfact> 0.10382199E+04</totfact>
</mgrwt>
</event>
<event>
 5    1  0.3309219E-002  0.1250129E+03  0.7818608E-02  0.1235049E+00
          4   -1    0    0  501    0  0.00000000000E+00  0.00000000000E+00  0.66343844730E+03  0.66343966286E+03  0.12700000000E+01 0.  1.
         -4   -1    0    0    0  501 -0.00000000000E+00 -0.00000000000E+00 -0.58193950445E+01  0.59563628738E+01  0.12700000000E+01 0.  1.
         25    2    1    2    0    0  0.00000000000E+00  0.00000000000E+00  0.65761905225E+03  0.66939602573E+03  0.12501288485E+03 0.  0.
    9000005    1    3    3    0    0 -0.16766580439E+02  0.15045216678E+02  0.64096935235E+03  0.64136587640E+03  0.10000000000E+01 0.  0.
    9000005    1    3    3    0    0  0.16766580439E+02 -0.15045216678E+02  0.16649699907E+02  0.28030149331E+02  0.10000000000E+01 0.  0.
<mgrwt>
<rscale>  0 0.12501288E+03</rscale>
<asrwt>0</asrwt>
<pdfrwt beam="1">  1        4 0.10207806E+00 0.12501288E+03</pdfrwt>
<pdfrwt beam="2">  1       -4 0.90592122E-03 0.12501288E+03</pdfrwt>
<totfact> 0.44739584E+03</totfact>
</mgrwt>
</event>
<event>
 5    1  0.3309219E-002  0.1250031E+03  0.7818608E-02  0.1235064E+00
         -4   -1    0    0    0  501 -0.00000000000E+00  0.00000000000E+00  0.70747458527E+02  0.70758856604E+02  0.12700000000E+01 0.  1.
          4   -1    0    0  501    0  0.00000000000E+00 -0.00000000000E+00 -0.55193584602E+02  0.55208193968E+02  0.12700000000E+01 0.  1.
         25    2    1    2    0    0  0.00000000000E+00  0.00000000000E+00  0.15553873924E+02  0.12596705057E+03  0.12500309931E+03 0.  0.
    9000005    1    3    3    0    0 -0.53823357390E+02 -0.31163399798E+02  0.16197937009E+01  0.62223267508E+02  0.10000000000E+01 0.  0.
    9000005    1    3    3    0    0  0.53823357390E+02  0.31163399798E+02  0.13934080223E+02  0.63743783065E+02  0.10000000000E+01 0.  0.
<mgrwt>
<rscale>  0 0.12500310E+03</rscale>
<asrwt>0</asrwt>
<pdfrwt beam="2">  1        4 0.84933212E-02 0.12500310E+03</pdfrwt>
<pdfrwt beam="1">  1       -4 0.10886225E-01 0.12500310E+03</pdfrwt>
<totfact> 0.10430950E+04</totfact>
</mgrwt>
</event>
<event>
 5    1  0.3309219E-002  0.1249977E+03  0.7818608E-02  0.1235073E+00
         -4   -1    0    0    0  501 -0.00000000000E+00  0.00000000000E+00  0.40026647066E+02  0.40046789826E+02  0.12700000000E+01 0. -1.
          4   -1    0    0  501    0  0.00000000000E+00 -0.00000000000E+00 -0.97538766701E+02  0.97547034345E+02  0.12700000000E+01 0. -1.
         25    2    1    2    0    0  0.00000000000E+00  0.00000000000E+00 -0.57512119634E+02  0.13759382417E+03  0.12499766616E+03 0.  0.
    9000005    1    3    3    0    0  0.58823602718E+02  0.10416896458E+01 -0.51945595191E+02  0.78489784136E+02  0.10000000000E+01 0.  0.
    9000005    1    3    3    0    0 -0.58823602718E+02 -0.10416896458E+01 -0.55665244432E+01  0.59104040035E+02  0.10000000000E+01 0.  0.
<mgrwt>
<rscale>  0 0.12499767E+03</rscale>
<asrwt>0</asrwt>
<pdfrwt beam="2">  1        4 0.15008149E-01 0.12499767E+03</pdfrwt>
<pdfrwt beam="1">  1       -4 0.61601311E-02 0.12499767E+03</pdfrwt>
<totfact> 0.10184220E+04</totfact>
</mgrwt>
</event>
<event>
 5    1  0.3309219E-002  0.1249974E+03  0.7818608E-02  0.1235073E+00
          4   -1    0    0  501    0  0.00000000000E+00  0.00000000000E+00  0.12907479174E+02  0.12969807964E+02  0.12700000000E+01 0.  1.
         -4   -1    0    0    0  501 -0.00000000000E+00 -0.00000000000E+00 -0.30182953857E+03  0.30183221043E+03  0.12700000000E+01 0.  1.
         25    2    1    2    0    0  0.00000000000E+00  0.00000000000E+00 -0.28892205940E+03  0.31480201840E+03  0.12499741749E+03 0.  0.
    9000005    1    3    3    0    0  0.50582865426E+02  0.32189126365E+02 -0.18882629423E+03  0.19811899334E+03  0.10000000000E+01 0.  0.
    9000005    1    3    3    0    0 -0.50582865426E+02 -0.32189126365E+02 -0.10009576517E+03  0.11668302505E+03  0.10000000000E+01 0.  0.
<mgrwt>
<rscale>  0 0.12499742E+03</rscale>
<asrwt>0</asrwt>
<pdfrwt beam="1">  1        4 0.19907663E-02 0.12499742E+03</pdfrwt>
<pdfrwt beam="2">  1       -4 0.46440308E-01 0.12499742E+03</pdfrwt>
<totfact> 0.73782878E+03</totfact>
</mgrwt>
</event>
<event>
 5    1  0.3309219E-002  0.1249991E+03  0.7818608E-02  0.1235071E+00
          4   -1    0    0  501    0  0.00000000000E+00  0.00000000000E+00  0.34373278161E+02  0.34396731699E+02  0.12700000000E+01 0.  1.
         -4   -1    0    0    0  501 -0.00000000000E+00 -0.00000000000E+00 -0.11357472495E+03  0.11358182534E+03  0.12700000000E+01 0.  1.
         25    2    1    2    0    0  0.00000000000E+00  0.00000000000E+00 -0.79201446788E+02  0.14797855704E+03  0.12499913668E+03 0.  0.
    9000005    1    3    3    0    0 -0.22040977602E+02 -0.46546693300E+02 -0.81502464919E+02  0.96416031545E+02  0.10000000000E+01 0.  0.
    9000005    1    3    3    0    0  0.22040977602E+02  0.46546693300E+02  0.23010181312E+01  0.51562525494E+02  0.10000000000E+01 0.  0.
<mgrwt>
<rscale>  0 0.12499914E+03</rscale>
<asrwt>0</asrwt>
<pdfrwt beam="1">  1        4 0.52905470E-02 0.12499914E+03</pdfrwt>
<pdfrwt beam="2">  1       -4 0.17475385E-01 0.12499914E+03</pdfrwt>
<totfact> 0.99710117E+03</totfact>
</mgrwt>
</event>
<event>
 5    1  0.3309219E-002  0.1250037E+03  0.7818608E-02  0.1235063E+00
          4   -1    0    0  501    0  0.00000000000E+00  0.00000000000E+00  0.12391836233E+03  0.12392487007E+03  0.12700000000E+01 0.  1.
         -4   -1    0    0    0  501 -0.00000000000E+00 -0.00000000000E+00 -0.31504529694E+02  0.31530117210E+02  0.12700000000E+01 0.  1.
         25    2    1    2    0    0  0.00000000000E+00  0.00000000000E+00  0.92413832636E+02  0.15545498728E+03  0.12500374638E+03 0.  0.
    9000005    1    3    3    0    0 -0.38195988142E+02  0.74357359870E+01  0.10701972653E+03  0.11387908301E+03  0.10000000000E+01 0.  0.
    9000005    1    3    3    0    0  0.38195988142E+02 -0.74357359870E+01 -0.14605893896E+02  0.41575904275E+02  0.10000000000E+01 0.  0.
<mgrwt>
<rscale>  0 0.12500375E+03</rscale>
<asrwt>0</asrwt>
<pdfrwt beam="1">  1        4 0.19066832E-01 0.12500375E+03</pdfrwt>
<pdfrwt beam="2">  1       -4 0.48493197E-02 0.12500375E+03</pdfrwt>
<totfact> 0.98217978E+03</totfact>
</mgrwt>
</event>
<event>
 5    1  0.3309219E-002  0.1249972E+03  0.7818608E-02  0.1235074E+00
         -4   -1    0    0    0  501 -0.00000000000E+00  0.00000000000E+00  0.12956922326E+03  0.12957544720E+03  0.12700000000E+01 0. -1.
          4   -1    0    0  501    0  0.00000000000E+00 -0.00000000000E+00 -0.30126303016E+02  0.30153060100E+02  0.12700000000E+01 0. -1.
         25    2    1    2    0    0  0.00000000000E+00  0.00000000000E+00  0.99442920249E+02  0.15972850730E+03  0.12499720660E+03 0.  0.
    9000005    1    3    3    0    0  0.11851793911E+02 -0.28640245038E+02 -0.19617384928E+02  0.36695646148E+02  0.10000000000E+01 0.  0.
    9000005    1    3    3    0    0 -0.11851793911E+02  0.28640245038E+02  0.11906030518E+03  0.12303286115E+03  0.10000000000E+01 0.  0.
<mgrwt>
<rscale>  0 0.12499721E+03</rscale>
<asrwt>0</asrwt>
<pdfrwt beam="2">  1        4 0.46373529E-02 0.12499721E+03</pdfrwt>
<pdfrwt beam="1">  1       -4 0.19936263E-01 0.12499721E+03</pdfrwt>
<totfact> 0.97401268E+03</totfact>
</mgrwt>
</event>
<event>
 5    1  0.3309219E-002  0.1250006E+03  0.7818608E-02  0.1235068E+00
          4   -1    0    0  501    0  0.00000000000E+00  0.00000000000E+00  0.66935782663E+01  0.68129942028E+01  0.12700000000E+01 0.  1.
         -4   -1    0    0    0  501 -0.00000000000E+00 -0.00000000000E+00 -0.57830775412E+03  0.57830914862E+03  0.12700000000E+01 0.  1.
         25    2    1    2    0    0  0.00000000000E+00  0.00000000000E+00 -0.57161417586E+03  0.58512214282E+03  0.12500062393E+03 0.  0.
    9000005    1    3    3    0    0  0.36423730377E+02 -0.26438727256E+02 -0.82867654924E+02  0.94306641686E+02  0.10000000000E+01 0.  0.
    9000005    1    3    3    0    0 -0.36423730377E+02  0.26438727256E+02 -0.48874652093E+03  0.49081550114E+03  0.10000000000E+01 0.  0.
<mgrwt>
<rscale>  0 0.12500062E+03</rscale>
<asrwt>0</asrwt>
<pdfrwt beam="1">  1        4 0.10390748E-02 0.12500062E+03</pdfrwt>
<pdfrwt beam="2">  1       -4 0.88979678E-01 0.12500062E+03</pdfrwt>
<totfact> 0.49819749E+03</totfact>
</mgrwt>
</event>
<event>
 5    1  0.3309219E-002  0.1250037E+03  0.7818608E-02  0.1235064E+00
         -4   -1    0    0    0  501 -0.00000000000E+00  0.00000000000E+00  0.32524799487E+02  0.32549584969E+02  0.12700000000E+01 0.  1.
          4   -1    0    0  501    0  0.00000000000E+00 -0.00000000000E+00 -0.12003383859E+03  0.12004055692E+03  0.12700000000E+01 0.  1.
         25    2    1    2    0    0  0.00000000000E+00  0.00000000000E+00 -0.87509039100E+02  0.15259014189E+03  0.12500367786E+03 0.  0.
    9000005    1    3    3    0    0 -0.21624051711E+02 -0.71380907677E+01 -0.11479512642E+03  0.11703620381E+03  0.10000000000E+01 0.  0.
    9000005    1    3    3    0    0  0.21624051711E+02  0.71380907677E+01  0.27286087317E+02  0.35553938084E+02  0.10000000000E+01 0.  0.
<mgrwt>
<rscale>  0 0.12500368E+03</rscale>
<asrwt>0</asrwt>
<pdfrwt beam="2">  1        4 0.18469167E-01 0.12500368E+03</pdfrwt>
<pdfrwt beam="1">  1       -4 0.50062388E-02 0.12500368E+03</pdfrwt>
<totfact> 0.98781702E+03</totfact>
</mgrwt>
</event>
<event>
 5    1  0.3309219E-002  0.1250034E+03  0.7818608E-02  0.1235064E+00
         -4   -1    0    0    0  501 -0.00000000000E+00  0.00000000000E+00  0.63782279135E+01  0.65034368849E+01  0.12700000000E+01 0.  1.
          4   -1    0    0  501    0  0.00000000000E+00 -0.00000000000E+00 -0.60638901396E+03  0.60639034388E+03  0.12700000000E+01 0.  1.
         25    2    1    2    0    0  0.00000000000E+00  0.00000000000E+00 -0.60001078605E+03  0.61289378077E+03  0.12500337247E+03 0.  0.
    9000005    1    3    3    0    0  0.56207652425E+02  0.14460708734E+02 -0.18638135066E+03  0.19521121935E+03  0.10000000000E+01 0.  0.
    9000005    1    3    3    0    0 -0.56207652425E+02 -0.14460708734E+02 -0.41362943539E+03  0.41768256141E+03  0.10000000000E+01 0.  0.
<mgrwt>
<rscale>  0 0.12500337E+03</rscale>
<asrwt>0</asrwt>
<pdfrwt beam="2">  1        4 0.93300306E-01 0.12500337E+03</pdfrwt>
<pdfrwt beam="1">  1       -4 0.99100007E-03 0.12500337E+03</pdfrwt>
<totfact> 0.48060167E+03</totfact>
</mgrwt>
</event>
<event>
 5    1  0.3309219E-002  0.1249993E+03  0.7818608E-02  0.1235070E+00
          4   -1    0    0  501    0  0.00000000000E+00  0.00000000000E+00  0.12016194099E+03  0.12016865217E+03  0.12700000000E+01 0. -1.
         -4   -1    0    0    0  501 -0.00000000000E+00 -0.00000000000E+00 -0.32487821870E+02  0.32512635542E+02  0.12700000000E+01 0. -1.
         25    2    1    2    0    0  0.00000000000E+00  0.00000000000E+00  0.87674119124E+02  0.15268128771E+03  0.12499929781E+03 0.  0.
    9000005    1    3    3    0    0  0.11512494651E+02  0.51764388588E+02  0.84221260699E+02  0.99530448671E+02  0.10000000000E+01 0.  0.
    9000005    1    3    3    0    0 -0.11512494651E+02 -0.51764388588E+02  0.34528584249E+01  0.53150839036E+02  0.10000000000E+01 0.  0.
<mgrwt>
<rscale>  0 0.12499930E+03</rscale>
<asrwt>0</asrwt>
<pdfrwt beam="1">  1        4 0.18488877E-01 0.12499930E+03</pdfrwt>
<pdfrwt beam="2">  1       -4 0.50005515E-02 0.12499930E+03</pdfrwt>
<totfact> 0.98773445E+03</totfact>
</mgrwt>
</event>
<event>
 5    1  0.3309219E-002  0.1250153E+03  0.7818608E-02  0.1235045E+00
         -4   -1    0    0    0  501 -0.00000000000E+00  0.00000000000E+00  0.29286233054E+03  0.29286508421E+03  0.12700000000E+01 0. -1.
          4   -1    0    0  501    0  0.00000000000E+00 -0.00000000000E+00 -0.13308404646E+02  0.13368864358E+02  0.12700000000E+01 0. -1.
         25    2    1    2    0    0  0.00000000000E+00  0.00000000000E+00  0.27955392589E+03  0.30623394857E+03  0.12501533415E+03 0.  0.
    9000005    1    3    3    0    0  0.49477381978E+01  0.58523384933E+02  0.87425912309E+02  0.10532690464E+03  0.10000000000E+01 0.  0.
    9000005    1    3    3    0    0 -0.49477381978E+01 -0.58523384933E+02  0.19212801359E+03  0.20090704393E+03  0.10000000000E+01 0.  0.
<mgrwt>
<rscale>  0 0.12501533E+03</rscale>
<asrwt>0</asrwt>
<pdfrwt beam="2">  1        4 0.20523095E-02 0.12501533E+03</pdfrwt>
<pdfrwt beam="1">  1       -4 0.45060604E-01 0.12501533E+03</pdfrwt>
<totfact> 0.74798004E+03</totfact>
</mgrwt>
</event>
<event>
 5    1  0.3309219E-002  0.1249974E+03  0.7818608E-02  0.1235073E+00
          4   -1    0    0  501    0  0.00000000000E+00  0.00000000000E+00  0.86644535721E+01  0.87570346409E+01  0.12700000000E+01 0. -1.
         -4   -1    0    0    0  501 -0.00000000000E+00 -0.00000000000E+00 -0.44832813407E+03  0.44832993286E+03  0.12700000000E+01 0. -1.
         25    2    1    2    0    0  0.00000000000E+00  0.00000000000E+00 -0.43966368049E+03  0.45708696750E+03  0.12499737561E+03 0.  0.
    9000005    1    3    3    0    0  0.45389612023E+02  0.26479094400E+02 -0.96163348039E+02  0.10958899957E+03  0.10000000000E+01 0.  0.
    9000005    1    3    3    0    0 -0.45389612023E+02 -0.26479094400E+02 -0.34350033246E+03  0.34749796793E+03  0.10000000000E+01 0.  0.
<mgrwt>
<rscale>  0 0.12499738E+03</rscale>
<asrwt>0</asrwt>
<pdfrwt beam="1">  1        4 0.13402532E-02 0.12499738E+03</pdfrwt>
<pdfrwt beam="2">  1       -4 0.68980801E-01 0.12499738E+03</pdfrwt>
<totfact> 0.59358169E+03</totfact>
</mgrwt>
</event>
<event>
 5    1  0.3309219E-002  0.1250026E+03  0.7818608E-02  0.1235065E+00
          4   -1    0    0  501    0  0.00000000000E+00  0.00000000000E+00  0.10432267637E+03  0.10433040642E+03  0.12700000000E+01 0. -1.
         -4   -1    0    0    0  501 -0.00000000000E+00 -0.00000000000E+00 -0.37425599257E+02  0.37447141143E+02  0.12700000000E+01 0. -1.
         25    2    1    2    0    0  0.00000000000E+00  0.00000000000E+00  0.66897077109E+02  0.14177754756E+03  0.12500261624E+03 0.  0.
    9000005    1    3    3    0    0 -0.10268101502E+02 -0.50994601098E+02  0.72730572129E+02  0.89423818817E+02  0.10000000000E+01 0.  0.
    9000005    1    3    3    0    0  0.10268101502E+02  0.50994601098E+02 -0.58334950205E+01  0.52353728747E+02  0.10000000000E+01 0.  0.
<mgrwt>
<rscale>  0 0.12500262E+03</rscale>
<asrwt>0</asrwt>
<pdfrwt beam="1">  1        4 0.16051894E-01 0.12500262E+03</pdfrwt>
<pdfrwt beam="2">  1       -4 0.57600361E-02 0.12500262E+03</pdfrwt>
<totfact> 0.10096282E+04</totfact>
</mgrwt>
</event>
<event>
 5    1  0.3309219E-002  0.1249994E+03  0.7818608E-02  0.1235070E+00
          4   -1    0    0  501    0  0.00000000000E+00  0.00000000000E+00  0.27941380707E+02  0.27970228026E+02  0.12700000000E+01 0.  1.
         -4   -1    0    0    0  501 -0.00000000000E+00 -0.00000000000E+00 -0.13969636745E+03  0.13970214021E+03  0.12700000000E+01 0.  1.
         25    2    1    2    0    0  0.00000000000E+00  0.00000000000E+00 -0.11175498675E+03  0.16767236824E+03  0.12499938403E+03 0.  0.
    9000005    1    3    3    0    0 -0.61817960530E+02  0.35843834359E+01 -0.67172521568E+02  0.91364411575E+02  0.10000000000E+01 0.  0.
    9000005    1    3    3    0    0  0.61817960530E+02 -0.35843834359E+01 -0.44582465179E+02  0.76307956663E+02  0.10000000000E+01 0.  0.
<mgrwt>
<rscale>  0 0.12499938E+03</rscale>
<asrwt>0</asrwt>
<pdfrwt beam="1">  1        4 0.43013371E-02 0.12499938E+03</pdfrwt>
<pdfrwt beam="2">  1       -4 0.21494412E-01 0.12499938E+03</pdfrwt>
<totfact> 0.95884995E+03</totfact>
</mgrwt>
</event>
<event>
 5    1  0.3309219E-002  0.1249993E+03  0.7818608E-02  0.1235070E+00
          4   -1    0    0  501    0  0.00000000000E+00  0.00000000000E+00  0.12121714450E+02  0.12188062241E+02  0.12700000000E+01 0.  1.
         -4   -1    0    0    0  501 -0.00000000000E+00 -0.00000000000E+00 -0.32130138107E+03  0.32130389100E+03  0.12700000000E+01 0.  1.
         25    2    1    2    0    0  0.00000000000E+00  0.00000000000E+00 -0.30917966662E+03  0.33349195325E+03  0.12499926652E+03 0.  0.
    9000005    1    3    3    0    0  0.13782023325E+02 -0.43805814376E+02 -0.26766535841E+03  0.27157805072E+03  0.10000000000E+01 0.  0.
    9000005    1    3    3    0    0 -0.13782023325E+02  0.43805814376E+02 -0.41514308203E+02  0.61913902523E+02  0.10000000000E+01 0.  0.
<mgrwt>
<rscale>  0 0.12499927E+03</rscale>
<asrwt>0</asrwt>
<pdfrwt beam="1">  1        4 0.18701761E-02 0.12499927E+03</pdfrwt>
<pdfrwt beam="2">  1       -4 0.49436272E-01 0.12499927E+03</pdfrwt>
<totfact> 0.71580823E+03</totfact>
</mgrwt>
</event>
<event>
 5    1  0.3309219E-002  0.1249571E+03  0.7818608E-02  0.1235136E+00
         -4   -1    0    0    0  501 -0.00000000000E+00  0.00000000000E+00  0.46925577859E+03  0.46925749716E+03  0.12700000000E+01 0. -1.
          4   -1    0    0  501    0  0.00000000000E+00 -0.00000000000E+00 -0.82684248184E+01  0.83653899478E+01  0.12700000000E+01 0. -1.
         25    2    1    2    0    0  0.00000000000E+00  0.00000000000E+00  0.46098735378E+03  0.47762288711E+03  0.12495712045E+03 0.  0.
    9000005    1    3    3    0    0  0.56479650379E+01  0.61927618717E+02  0.25331281178E+03  0.26083579141E+03  0.10000000000E+01 0.  0.
    9000005    1    3    3    0    0 -0.56479650379E+01 -0.61927618717E+02  0.20767454200E+03  0.21678709570E+03  0.10000000000E+01 0.  0.
<mgrwt>
<rscale>  0 0.12495712E+03</rscale>
<asrwt>0</asrwt>
<pdfrwt beam="2">  1        4 0.12796566E-02 0.12495712E+03</pdfrwt>
<pdfrwt beam="1">  1       -4 0.72200777E-01 0.12495712E+03</pdfrwt>
<totfact> 0.57697767E+03</totfact>
</mgrwt>
</event>
<event>
 5    1  0.3309219E-002  0.1250132E+03  0.7818608E-02  0.1235049E+00
          4   -1    0    0  501    0  0.00000000000E+00  0.00000000000E+00  0.12111749928E+03  0.12112415751E+03  0.12700000000E+01 0. -1.
         -4   -1    0    0    0  501 -0.00000000000E+00 -0.00000000000E+00 -0.32238528712E+02  0.32263534114E+02  0.12700000000E+01 0. -1.
         25    2    1    2    0    0  0.00000000000E+00  0.00000000000E+00  0.88878970568E+02  0.15338769162E+03  0.12501324942E+03 0.  0.
    9000005    1    3    3    0    0 -0.59289293971E+02  0.19648940513E+02  0.47121166122E+02  0.78247719070E+02  0.10000000000E+01 0.  0.
    9000005    1    3    3    0    0  0.59289293971E+02 -0.19648940513E+02  0.41757804445E+02  0.75139972551E+02  0.10000000000E+01 0.  0.
<mgrwt>
<rscale>  0 0.12501325E+03</rscale>
<asrwt>0</asrwt>
<pdfrwt beam="1">  1        4 0.18635897E-01 0.12501325E+03</pdfrwt>
<pdfrwt beam="2">  1       -4 0.49622092E-02 0.12501325E+03</pdfrwt>
<totfact> 0.98603254E+03</totfact>
</mgrwt>
</event>
<event>
 4    1  0.3309219E-002  0.1248965E+03  0.7818608E-02  0.1235231E+00
          4   -1    0    0  501    0  0.00000000000E+00  0.00000000000E+00  0.20923203336E+03  0.20923588766E+03  0.12700000000E+01 0.  1.
         -4   -1    0    0    0  501 -0.00000000000E+00 -0.00000000000E+00 -0.18612905486E+02  0.18656182638E+02  0.12700000000E+01 0.  1.
    9000005    1    1    2    0    0 -0.36798513433E+02  0.50079116488E+02  0.84250119003E+02  0.10469542039E+03  0.10000000000E+01 0.  0.
    9000005    1    1    2    0    0  0.36798513433E+02 -0.50079116488E+02  0.10636900887E+03  0.12319664990E+03  0.10000000000E+01 0.  0.
<mgrwt>
<rscale>  0 0.12489653E+03</rscale>
<asrwt>0</asrwt>
<pdfrwt beam="1">  1        4 0.32193169E-01 0.12489653E+03</pdfrwt>
<pdfrwt beam="2">  1       -4 0.28671494E-02 0.12489653E+03</pdfrwt>
<totfact> 0.85832350E+03</totfact>
</mgrwt>
</event>
<event>
 5    1  0.3309219E-002  0.1249852E+03  0.7818608E-02  0.1235092E+00
         -4   -1    0    0    0  501 -0.00000000000E+00  0.00000000000E+00  0.65501838998E+03  0.65501962117E+03  0.12700000000E+01 0. -1.
          4   -1    0    0  501    0  0.00000000000E+00 -0.00000000000E+00 -0.58932838737E+01  0.60285731991E+01  0.12700000000E+01 0. -1.
         25    2    1    2    0    0  0.00000000000E+00  0.00000000000E+00  0.64912510611E+03  0.66104819436E+03  0.12498524671E+03 0.  0.
    9000005    1    3    3    0    0 -0.50983708575E+02 -0.17524745488E+01  0.13372394873E+03  0.14312758005E+03  0.10000000000E+01 0.  0.
    9000005    1    3    3    0    0  0.50983708575E+02  0.17524745488E+01  0.51540115738E+03  0.51792061432E+03  0.10000000000E+01 0.  0.
<mgrwt>
<rscale>  0 0.12498525E+03</rscale>
<asrwt>0</asrwt>
<pdfrwt beam="2">  1        4 0.91716103E-03 0.12498525E+03</pdfrwt>
<pdfrwt beam="1">  1       -4 0.10078252E+00 0.12498525E+03</pdfrwt>
<totfact> 0.45238693E+03</totfact>
</mgrwt>
</event>
<event>
 5    1  0.3309219E-002  0.1249983E+03  0.7818608E-02  0.1235072E+00
          4   -1    0    0  501    0  0.00000000000E+00  0.00000000000E+00  0.83093419514E+02  0.83103124289E+02  0.12700000000E+01 0.  1.
         -4   -1    0    0    0  501 -0.00000000000E+00 -0.00000000000E+00 -0.46988003462E+02  0.47005163220E+02  0.12700000000E+01 0.  1.
         25    2    1    2    0    0  0.00000000000E+00  0.00000000000E+00  0.36105416052E+02  0.13010828751E+03  0.12499826163E+03 0.  0.
    9000005    1    3    3    0    0  0.30002001965E+02  0.33491500487E+02 -0.27118886884E+02  0.52518899004E+02  0.10000000000E+01 0.  0.
    9000005    1    3    3    0    0 -0.30002001965E+02 -0.33491500487E+02  0.63224302936E+02  0.77589388505E+02  0.10000000000E+01 0.  0.
<mgrwt>
<rscale>  0 0.12499826E+03</rscale>
<asrwt>0</asrwt>
<pdfrwt beam="1">  1        4 0.12785669E-01 0.12499826E+03</pdfrwt>
<pdfrwt beam="2">  1       -4 0.72309902E-02 0.12499826E+03</pdfrwt>
<totfact> 0.10342597E+04</totfact>
</mgrwt>
</event>
<event>
 5    1  0.3309219E-002  0.1250032E+03  0.7818608E-02  0.1235064E+00
          4   -1    0    0  501    0  0.00000000000E+00  0.00000000000E+00  0.19393218449E+02  0.19434758085E+02  0.12700000000E+01 0.  1.
         -4   -1    0    0    0  501 -0.00000000000E+00 -0.00000000000E+00 -0.20117465462E+03  0.20117866329E+03  0.12700000000E+01 0.  1.
         25    2    1    2    0    0  0.00000000000E+00  0.00000000000E+00 -0.18178143617E+03  0.22061342137E+03  0.12500316457E+03 0.  0.
    9000005    1    3    3    0    0 -0.19614087083E+02 -0.25825258772E+01  0.13729561249E+02  0.24101508337E+02  0.10000000000E+01 0.  0.
    9000005    1    3    3    0    0  0.19614087083E+02  0.25825258772E+01 -0.19551099742E+03  0.19651191303E+03  0.10000000000E+01 0.  0.
<mgrwt>
<rscale>  0 0.12500316E+03</rscale>
<asrwt>0</asrwt>
<pdfrwt beam="1">  1        4 0.29870759E-02 0.12500316E+03</pdfrwt>
<pdfrwt beam="2">  1       -4 0.30953449E-01 0.12500316E+03</pdfrwt>
<totfact> 0.86765244E+03</totfact>
</mgrwt>
</event>
<event>
 5    1  0.3309219E-002  0.1249988E+03  0.7818608E-02  0.1235071E+00
         -4   -1    0    0    0  501 -0.00000000000E+00  0.00000000000E+00  0.65925350949E+02  0.65937582590E+02  0.12700000000E+01 0. -1.
          4   -1    0    0  501    0  0.00000000000E+00 -0.00000000000E+00 -0.59226932619E+02  0.59240547326E+02  0.12700000000E+01 0. -1.
         25    2    1    2    0    0  0.00000000000E+00  0.00000000000E+00  0.66984183300E+01  0.12517812992E+03  0.12499878160E+03 0.  0.
    9000005    1    3    3    0    0 -0.39905156435E+02 -0.20580475464E+02 -0.40178040909E+02  0.60259874308E+02  0.10000000000E+01 0.  0.
    9000005    1    3    3    0    0  0.39905156435E+02  0.20580475464E+02  0.46876459238E+02  0.64918255608E+02  0.10000000000E+01 0.  0.
<mgrwt>
<rscale>  0 0.12499878E+03</rscale>
<asrwt>0</asrwt>
<pdfrwt beam="2">  1        4 0.91138240E-02 0.12499878E+03</pdfrwt>
<pdfrwt beam="1">  1       -4 0.10144350E-01 0.12499878E+03</pdfrwt>
<totfact> 0.10449283E+04</totfact>
</mgrwt>
</event>
<event>
 5    1  0.3309219E-002  0.1250057E+03  0.7818608E-02  0.1235060E+00
         -4   -1    0    0    0  501 -0.00000000000E+00  0.00000000000E+00  0.19725080833E+02  0.19765923046E+02  0.12700000000E+01 0. -1.
          4   -1    0    0  501    0  0.00000000000E+00 -0.00000000000E+00 -0.19780503573E+03  0.19780911269E+03  0.12700000000E+01 0. -1.
         25    2    1    2    0    0  0.00000000000E+00  0.00000000000E+00 -0.17807995490E+03  0.21757503573E+03  0.12500570322E+03 0.  0.
    9000005    1    3    3    0    0  0.39198557229E+02 -0.20868467355E+02 -0.16557514801E+03  0.17142972163E+03  0.10000000000E+01 0.  0.
    9000005    1    3    3    0    0 -0.39198557229E+02  0.20868467355E+02 -0.12504806892E+02  0.46145314107E+02  0.10000000000E+01 0.  0.
<mgrwt>
<rscale>  0 0.12500570E+03</rscale>
<asrwt>0</asrwt>
<pdfrwt beam="2">  1        4 0.30434998E-01 0.12500570E+03</pdfrwt>
<pdfrwt beam="1">  1       -4 0.30380833E-02 0.12500570E+03</pdfrwt>
<totfact> 0.87242413E+03</totfact>
</mgrwt>
</event>
<event>
 5    1  0.3309219E-002  0.1249986E+03  0.7818608E-02  0.1235072E+00
          4   -1    0    0  501    0  0.00000000000E+00  0.00000000000E+00  0.58729506839E+03  0.58729644155E+03  0.12700000000E+01 0. -1.
         -4   -1    0    0    0  501 -0.00000000000E+00 -0.00000000000E+00 -0.65890860359E+01  0.67103617480E+01  0.12700000000E+01 0. -1.
         25    2    1    2    0    0  0.00000000000E+00  0.00000000000E+00  0.58070598236E+03  0.59400680330E+03  0.12499857767E+03 0.  0.
    9000005    1    3    3    0    0 -0.48095147540E+02  0.35066932419E+02  0.19989699113E+03  0.20857286503E+03  0.10000000000E+01 0.  0.
    9000005    1    3    3    0    0  0.48095147540E+02 -0.35066932419E+02  0.38080899123E+03  0.38543393827E+03  0.10000000000E+01 0.  0.
<mgrwt>
<rscale>  0 0.12499858E+03</rscale>
<asrwt>0</asrwt>
<pdfrwt beam="1">  1        4 0.90362485E-01 0.12499858E+03</pdfrwt>
<pdfrwt beam="2">  1       -4 0.10231405E-02 0.12499858E+03</pdfrwt>
<totfact> 0.49249668E+03</totfact>
</mgrwt>
</event>
<event>
 5    1  0.3309219E-002  0.1249993E+03  0.7818608E-02  0.1235070E+00
          4   -1    0    0  501    0  0.00000000000E+00  0.00000000000E+00  0.11368016383E+03  0.11368725763E+03  0.12700000000E+01 0. -1.
         -4   -1    0    0    0  501 -0.00000000000E+00 -0.00000000000E+00 -0.34341441449E+02  0.34364916714E+02  0.12700000000E+01 0. -1.
         25    2    1    2    0    0  0.00000000000E+00  0.00000000000E+00  0.79338722377E+02  0.14805217434E+03  0.12499925384E+03 0.  0.
    9000005    1    3    3    0    0  0.22144452524E+02 -0.83653369607E+01  0.10817014565E+03  0.11073452962E+03  0.10000000000E+01 0.  0.
    9000005    1    3    3    0    0 -0.22144452524E+02  0.83653369607E+01 -0.28831423272E+02  0.37317644726E+02  0.10000000000E+01 0.  0.
<mgrwt>
<rscale>  0 0.12499925E+03</rscale>
<asrwt>0</asrwt>
<pdfrwt beam="1">  1        4 0.17491608E-01 0.12499925E+03</pdfrwt>
<pdfrwt beam="2">  1       -4 0.52856500E-02 0.12499925E+03</pdfrwt>
<totfact> 0.99695068E+03</totfact>
</mgrwt>
</event>
<event>
 5    1  0.3309219E-002  0.1249975E+03  0.7818608E-02  0.1235073E+00
         -4   -1    0    0    0  501 -0.00000000000E+00  0.00000000000E+00  0.12289131380E+03  0.12289787593E+03  0.12700000000E+01 0.  1.
          4   -1    0    0  501    0  0.00000000000E+00 -0.00000000000E+00 -0.31764856754E+02  0.31790234736E+02  0.12700000000E+01 0.  1.
         25    2    1    2    0    0  0.00000000000E+00  0.00000000000E+00  0.91126457044E+02  0.15468811066E+03  0.12499752160E+03 0.  0.
    9000005    1    3    3    0    0  0.57763910789E+02  0.23750674940E+02  0.42987754099E+02  0.75826848492E+02  0.10000000000E+01 0.  0.
    9000005    1    3    3    0    0 -0.57763910789E+02 -0.23750674940E+02  0.48138702946E+02  0.78861262170E+02  0.10000000000E+01 0.  0.
<mgrwt>
<rscale>  0 0.12499752E+03</rscale>
<asrwt>0</asrwt>
<pdfrwt beam="2">  1        4 0.48893579E-02 0.12499752E+03</pdfrwt>
<pdfrwt beam="1">  1       -4 0.18908813E-01 0.12499752E+03</pdfrwt>
<totfact> 0.98382245E+03</totfact>
</mgrwt>
</event>
<event>
 5    1  0.3309219E-002  0.1249997E+03  0.7818608E-02  0.1235070E+00
         -4   -1    0    0    0  501 -0.00000000000E+00  0.00000000000E+00  0.17950328060E+02  0.17995198734E+02  0.12700000000E+01 0.  1.
          4   -1    0    0  501    0  0.00000000000E+00 -0.00000000000E+00 -0.21729485628E+03  0.21729856757E+03  0.12700000000E+01 0.  1.
         25    2    1    2    0    0  0.00000000000E+00  0.00000000000E+00 -0.19934452822E+03  0.23529376630E+03  0.12499966211E+03 0.  0.
    9000005    1    3    3    0    0  0.51455154930E+02  0.33947739608E+02 -0.80370375913E+02  0.10129402410E+03  0.10000000000E+01 0.  0.
    9000005    1    3    3    0    0 -0.51455154930E+02 -0.33947739608E+02 -0.11897415231E+03  0.13399974221E+03  0.10000000000E+01 0.  0.
<mgrwt>
<rscale>  0 0.12499966E+03</rscale>
<asrwt>0</asrwt>
<pdfrwt beam="2">  1        4 0.33433713E-01 0.12499966E+03</pdfrwt>
<pdfrwt beam="1">  1       -4 0.27653262E-02 0.12499966E+03</pdfrwt>
<totfact> 0.84503945E+03</totfact>
</mgrwt>
</event>
<event>
 5    1  0.3309219E-002  0.1250005E+03  0.7818608E-02  0.1235068E+00
          4   -1    0    0  501    0  0.00000000000E+00  0.00000000000E+00  0.35228221611E+02  0.35251106335E+02  0.12700000000E+01 0.  1.
         -4   -1    0    0    0  501 -0.00000000000E+00 -0.00000000000E+00 -0.11082250094E+03  0.11082977765E+03  0.12700000000E+01 0.  1.
         25    2    1    2    0    0  0.00000000000E+00  0.00000000000E+00 -0.75594279324E+02  0.14608088398E+03  0.12500051839E+03 0.  0.
    9000005    1    3    3    0    0 -0.39567633018E+02 -0.46484296944E+02 -0.22166360748E+02  0.64951789767E+02  0.10000000000E+01 0.  0.
    9000005    1    3    3    0    0  0.39567633018E+02  0.46484296944E+02 -0.53427918576E+02  0.81129094217E+02  0.10000000000E+01 0.  0.
<mgrwt>
<rscale>  0 0.12500052E+03</rscale>
<asrwt>0</asrwt>
<pdfrwt beam="1">  1        4 0.54220466E-02 0.12500052E+03</pdfrwt>
<pdfrwt beam="2">  1       -4 0.17051936E-01 0.12500052E+03</pdfrwt>
<totfact> 0.10008957E+04</totfact>
</mgrwt>
</event>
<event>
 5    1  0.3309219E-002  0.1249996E+03  0.7818608E-02  0.1235070E+00
         -4   -1    0    0    0  501 -0.00000000000E+00  0.00000000000E+00  0.54392782571E+01  0.55855749890E+01  0.12700000000E+01 0. -1.
          4   -1    0    0  501    0  0.00000000000E+00 -0.00000000000E+00 -0.70847518351E+03  0.70847632180E+03  0.12700000000E+01 0. -1.
         25    2    1    2    0    0  0.00000000000E+00  0.00000000000E+00 -0.70303590525E+03  0.71406189679E+03  0.12499963348E+03 0.  0.
    9000005    1    3    3    0    0 -0.52775132582E+02  0.27716959981E+02 -0.24437483025E+03  0.25154224725E+03  0.10000000000E+01 0.  0.
    9000005    1    3    3    0    0  0.52775132582E+02 -0.27716959981E+02 -0.45866107500E+03  0.46251964954E+03  0.10000000000E+01 0.  0.
<mgrwt>
<rscale>  0 0.12499963E+03</rscale>
<asrwt>0</asrwt>
<pdfrwt beam="2">  1        4 0.10900745E+00 0.12499963E+03</pdfrwt>
<pdfrwt beam="1">  1       -4 0.84815376E-03 0.12499963E+03</pdfrwt>
<totfact> 0.42355074E+03</totfact>
</mgrwt>
</event>
<event>
 5    1  0.3309219E-002  0.1249994E+03  0.7818608E-02  0.1235070E+00
          4   -1    0    0  501    0  0.00000000000E+00  0.00000000000E+00  0.30971699796E+02  0.30997727147E+02  0.12700000000E+01 0. -1.
         -4   -1    0    0    0  501 -0.00000000000E+00 -0.00000000000E+00 -0.12603981605E+03  0.12604621426E+03  0.12700000000E+01 0. -1.
         25    2    1    2    0    0  0.00000000000E+00  0.00000000000E+00 -0.95068116253E+02  0.15704394141E+03  0.12499941122E+03 0.  0.
    9000005    1    3    3    0    0 -0.40281683929E+02  0.35429718584E+02 -0.72652210031E+01  0.54144828519E+02  0.10000000000E+01 0.  0.
    9000005    1    3    3    0    0  0.40281683929E+02 -0.35429718584E+02 -0.87802895250E+02  0.10289911289E+03  0.10000000000E+01 0.  0.
<mgrwt>
<rscale>  0 0.12499941E+03</rscale>
<asrwt>0</asrwt>
<pdfrwt beam="1">  1        4 0.47673712E-02 0.12499941E+03</pdfrwt>
<pdfrwt beam="2">  1       -4 0.19393235E-01 0.12499941E+03</pdfrwt>
<totfact> 0.97917032E+03</totfact>
</mgrwt>
</event>
<event>
 5    1  0.3309219E-002  0.1249976E+03  0.7818608E-02  0.1235073E+00
         -4   -1    0    0    0  501 -0.00000000000E+00  0.00000000000E+00  0.85083576063E+03  0.85083670846E+03  0.12700000000E+01 0. -1.
          4   -1    0    0  501    0  0.00000000000E+00 -0.00000000000E+00 -0.45021004213E+01  0.46777995044E+01  0.12700000000E+01 0. -1.
         25    2    1    2    0    0  0.00000000000E+00  0.00000000000E+00  0.84633366021E+03  0.85551450797E+03  0.12499763573E+03 0.  0.
    9000005    1    3    3    0    0  0.26241923096E+02 -0.38554757248E+02  0.13849274808E+03  0.14613811654E+03  0.10000000000E+01 0.  0.
    9000005    1    3    3    0    0 -0.26241923096E+02  0.38554757248E+02  0.70784091213E+03  0.70937639143E+03  0.10000000000E+01 0.  0.
<mgrwt>
<rscale>  0 0.12499764E+03</rscale>
<asrwt>0</asrwt>
<pdfrwt beam="2">  1        4 0.70621966E-03 0.12499764E+03</pdfrwt>
<pdfrwt beam="1">  1       -4 0.13091129E+00 0.12499764E+03</pdfrwt>
<totfact> 0.35904602E+03</totfact>
</mgrwt>
</event>
<event>
 5    1  0.3309219E-002  0.1250260E+03  0.7818608E-02  0.1235029E+00
          4   -1    0    0  501    0  0.00000000000E+00  0.00000000000E+00  0.18435904826E+02  0.18479596499E+02  0.12700000000E+01 0. -1.
         -4   -1    0    0    0  501 -0.00000000000E+00 -0.00000000000E+00 -0.21167445052E+03  0.21167826035E+03  0.12700000000E+01 0. -1.
         25    2    1    2    0    0  0.00000000000E+00  0.00000000000E+00 -0.19323854569E+03  0.23015785685E+03  0.12502601140E+03 0.  0.
    9000005    1    3    3    0    0  0.39136570283E+02  0.82104216355E+01 -0.18505422037E+03  0.18932814539E+03  0.10000000000E+01 0.  0.
    9000005    1    3    3    0    0 -0.39136570283E+02 -0.82104216355E+01 -0.81843253203E+01  0.40829711459E+02  0.10000000000E+01 0.  0.
<mgrwt>
<rscale>  0 0.12502601E+03</rscale>
<asrwt>0</asrwt>
<pdfrwt beam="1">  1        4 0.28399472E-02 0.12502601E+03</pdfrwt>
<pdfrwt beam="2">  1       -4 0.32568952E-01 0.12502601E+03</pdfrwt>
<totfact> 0.85235888E+03</totfact>
</mgrwt>
</event>
<event>
 5    1  0.3309219E-002  0.1249968E+03  0.7818608E-02  0.1235074E+00
          4   -1    0    0  501    0  0.00000000000E+00  0.00000000000E+00  0.96924191097E+01  0.97752692136E+01  0.12700000000E+01 0.  1.
         -4   -1    0    0    0  501 -0.00000000000E+00 -0.00000000000E+00 -0.40120178485E+03  0.40120379493E+03  0.12700000000E+01 0.  1.
         25    2    1    2    0    0  0.00000000000E+00  0.00000000000E+00 -0.39150936574E+03  0.41097906415E+03  0.12499683077E+03 0.  0.
    9000005    1    3    3    0    0  0.54046181577E+02  0.18744685382E+02 -0.27845730033E+03  0.28427420052E+03  0.10000000000E+01 0.  0.
    9000005    1    3    3    0    0 -0.54046181577E+02 -0.18744685382E+02 -0.11305206542E+03  0.12670486363E+03  0.10000000000E+01 0.  0.
<mgrwt>
<rscale>  0 0.12499683E+03</rscale>
<asrwt>0</asrwt>
<pdfrwt beam="1">  1        4 0.14976694E-02 0.12499683E+03</pdfrwt>
<pdfrwt beam="2">  1       -4 0.61729867E-01 0.12499683E+03</pdfrwt>
<totfact> 0.63503251E+03</totfact>
</mgrwt>
</event>
<event>
 5    1  0.3309219E-002  0.1249947E+03  0.7818608E-02  0.1235078E+00
          4   -1    0    0  501    0  0.00000000000E+00  0.00000000000E+00  0.13353585220E+01  0.18428462720E+01  0.12700000000E+01 0.  1.
         -4   -1    0    0    0  501 -0.00000000000E+00 -0.00000000000E+00 -0.24574322742E+04  0.24574326024E+04  0.12700000000E+01 0.  1.
         25    2    1    2    0    0  0.00000000000E+00  0.00000000000E+00 -0.24560969157E+04  0.24592754487E+04  0.12499469220E+03 0.  0.
    9000005    1    3    3    0    0 -0.62324066904E+02  0.37229826265E+01 -0.11768617548E+04  0.11785171784E+04  0.10000000000E+01 0.  0.
    9000005    1    3    3    0    0  0.62324066904E+02 -0.37229826265E+01 -0.12792351609E+04  0.12807582702E+04  0.10000000000E+01 0.  0.
<mgrwt>
<rscale>  0 0.12499469E+03</rscale>
<asrwt>0</asrwt>
<pdfrwt beam="1">  1        4 0.24450450E-03 0.12499469E+03</pdfrwt>
<pdfrwt beam="2">  1       -4 0.37810253E+00 0.12499469E+03</pdfrwt>
<totfact> 0.49980120E+02</totfact>
</mgrwt>
</event>
<event>
 5    1  0.3309219E-002  0.1249995E+03  0.7818608E-02  0.1235070E+00
          4   -1    0    0  501    0  0.00000000000E+00  0.00000000000E+00  0.78566231395E+03  0.78566334041E+03  0.12700000000E+01 0. -1.
         -4   -1    0    0    0  501 -0.00000000000E+00 -0.00000000000E+00 -0.48897348856E+01  0.50519706305E+01  0.12700000000E+01 0. -1.
         25    2    1    2    0    0  0.00000000000E+00  0.00000000000E+00  0.78077257906E+03  0.79071531104E+03  0.12499953157E+03 0.  0.
    9000005    1    3    3    0    0 -0.19764192728E+01  0.24708262846E+02  0.75326674550E+03  0.75367512521E+03  0.10000000000E+01 0.  0.
    9000005    1    3    3    0    0  0.19764192728E+01 -0.24708262846E+02  0.27505833562E+02  0.37040185825E+02  0.10000000000E+01 0.  0.
<mgrwt>
<rscale>  0 0.12499953E+03</rscale>
<asrwt>0</asrwt>
<pdfrwt beam="1">  1        4 0.12088376E+00 0.12499953E+03</pdfrwt>
<pdfrwt beam="2">  1       -4 0.76482503E-03 0.12499953E+03</pdfrwt>
<totfact> 0.38682967E+03</totfact>
</mgrwt>
</event>
<event>
 5    1  0.3309219E-002  0.1249943E+03  0.7818608E-02  0.1235078E+00
          4   -1    0    0  501    0  0.00000000000E+00  0.00000000000E+00  0.95663385363E+02  0.95671815071E+02  0.12700000000E+01 0.  1.
         -4   -1    0    0    0  501 -0.00000000000E+00 -0.00000000000E+00 -0.40809430548E+02  0.40829187129E+02  0.12700000000E+01 0.  1.
         25    2    1    2    0    0  0.00000000000E+00  0.00000000000E+00  0.54853954815E+02  0.13650100220E+03  0.12499426884E+03 0.  0.
    9000005    1    3    3    0    0  0.34600072052E+02 -0.25071920641E+02 -0.22368064771E+02  0.48239988726E+02  0.10000000000E+01 0.  0.
    9000005    1    3    3    0    0 -0.34600072052E+02  0.25071920641E+02  0.77222019586E+02  0.88261013475E+02  0.10000000000E+01 0.  0.
<mgrwt>
<rscale>  0 0.12499427E+03</rscale>
<asrwt>0</asrwt>
<pdfrwt beam="1">  1        4 0.14719612E-01 0.12499427E+03</pdfrwt>
<pdfrwt beam="2">  1       -4 0.62805422E-02 0.12499427E+03</pdfrwt>
<totfact> 0.10207849E+04</totfact>
</mgrwt>
</event>
<event>
 5    1  0.3309219E-002  0.1249998E+03  0.7818608E-02  0.1235070E+00
         -4   -1    0    0    0  501 -0.00000000000E+00  0.00000000000E+00  0.70296901303E+02  0.70308372423E+02  0.12700000000E+01 0.  1.
          4   -1    0    0  501    0  0.00000000000E+00 -0.00000000000E+00 -0.55544415674E+02  0.55558932789E+02  0.12700000000E+01 0.  1.
         25    2    1    2    0    0  0.00000000000E+00  0.00000000000E+00  0.14752485628E+02  0.12586730521E+03  0.12499977076E+03 0.  0.
    9000005    1    3    3    0    0  0.29571025836E+02 -0.47567677466E+02  0.35283319303E+02  0.66204547650E+02  0.10000000000E+01 0.  0.
    9000005    1    3    3    0    0 -0.29571025836E+02  0.47567677466E+02 -0.20530833675E+02  0.59662757562E+02  0.10000000000E+01 0.  0.
<mgrwt>
<rscale>  0 0.12499977E+03</rscale>
<asrwt>0</asrwt>
<pdfrwt beam="2">  1        4 0.85472939E-02 0.12499977E+03</pdfrwt>
<pdfrwt beam="1">  1       -4 0.10816907E-01 0.12499977E+03</pdfrwt>
<totfact> 0.10433921E+04</totfact>
</mgrwt>
</event>
<event>
 5    1  0.3309219E-002  0.1250009E+03  0.7818608E-02  0.1235068E+00
         -4   -1    0    0    0  501 -0.00000000000E+00  0.00000000000E+00  0.19762591303E+02  0.19803356155E+02  0.12700000000E+01 0.  1.
          4   -1    0    0  501    0  0.00000000000E+00 -0.00000000000E+00 -0.19741523825E+03  0.19741932325E+03  0.12700000000E+01 0.  1.
         25    2    1    2    0    0  0.00000000000E+00  0.00000000000E+00 -0.17765264695E+03  0.21722267941E+03  0.12500091792E+03 0.  0.
    9000005    1    3    3    0    0 -0.48458232824E+02  0.34284233820E+02 -0.12277728726E+03  0.13637767884E+03  0.10000000000E+01 0.  0.
    9000005    1    3    3    0    0  0.48458232824E+02 -0.34284233820E+02 -0.54875359684E+02  0.80845000572E+02  0.10000000000E+01 0.  0.
<mgrwt>
<rscale>  0 0.12500092E+03</rscale>
<asrwt>0</asrwt>
<pdfrwt beam="2">  1        4 0.30375024E-01 0.12500092E+03</pdfrwt>
<pdfrwt beam="1">  1       -4 0.30438488E-02 0.12500092E+03</pdfrwt>
<totfact> 0.87307951E+03</totfact>
</mgrwt>
</event>
<event>
 5    1  0.3309219E-002  0.1250010E+03  0.7818608E-02  0.1235068E+00
         -4   -1    0    0    0  501 -0.00000000000E+00  0.00000000000E+00  0.13779961964E+03  0.13780547185E+03  0.12700000000E+01 0.  1.
          4   -1    0    0  501    0  0.00000000000E+00 -0.00000000000E+00 -0.28327071041E+02  0.28355525983E+02  0.12700000000E+01 0.  1.
         25    2    1    2    0    0  0.00000000000E+00  0.00000000000E+00  0.10947254859E+03  0.16616099783E+03  0.12500095322E+03 0.  0.
    9000005    1    3    3    0    0  0.30781677155E+01  0.52489911672E+02  0.99630528048E+02  0.11265836881E+03  0.10000000000E+01 0.  0.
    9000005    1    3    3    0    0 -0.30781677155E+01 -0.52489911672E+02  0.98420205453E+01  0.53502629022E+02  0.10000000000E+01 0.  0.
<mgrwt>
<rscale>  0 0.12500095E+03</rscale>
<asrwt>0</asrwt>
<pdfrwt beam="2">  1        4 0.43606500E-02 0.12500095E+03</pdfrwt>
<pdfrwt beam="1">  1       -4 0.21202580E-01 0.12500095E+03</pdfrwt>
<totfact> 0.96165909E+03</totfact>
</mgrwt>
</event>
<event>
 5    1  0.3309219E-002  0.1250015E+03  0.7818608E-02  0.1235067E+00
         -4   -1    0    0    0  501 -0.00000000000E+00  0.00000000000E+00  0.48418581462E+01  0.50056458432E+01  0.12700000000E+01 0. -1.
          4   -1    0    0  501    0  0.00000000000E+00 -0.00000000000E+00 -0.79320267918E+03  0.79320369588E+03  0.12700000000E+01 0. -1.
         25    2    1    2    0    0  0.00000000000E+00  0.00000000000E+00 -0.78836082103E+03  0.79820934172E+03  0.12500147629E+03 0.  0.
    9000005    1    3    3    0    0 -0.55569394657E+01  0.55306264991E+02 -0.21180700704E+03  0.21898143929E+03  0.10000000000E+01 0.  0.
    9000005    1    3    3    0    0  0.55569394657E+01 -0.55306264991E+02 -0.57655381399E+03  0.57922790243E+03  0.10000000000E+01 0.  0.
<mgrwt>
<rscale>  0 0.12500148E+03</rscale>
<asrwt>0</asrwt>
<pdfrwt beam="2">  1        4 0.12204376E+00 0.12500148E+03</pdfrwt>
<pdfrwt beam="1">  1       -4 0.75757914E-03 0.12500148E+03</pdfrwt>
<totfact> 0.38343581E+03</totfact>
</mgrwt>
</event>
<event>
 5    1  0.3309219E-002  0.1250010E+03  0.7818608E-02  0.1235068E+00
         -4   -1    0    0    0  501 -0.00000000000E+00  0.00000000000E+00  0.65448148604E+01  0.66668959461E+01  0.12700000000E+01 0.  1.
          4   -1    0    0  501    0  0.00000000000E+00 -0.00000000000E+00 -0.59121845738E+03  0.59121982143E+03  0.12700000000E+01 0.  1.
         25    2    1    2    0    0  0.00000000000E+00  0.00000000000E+00 -0.58467364252E+03  0.59788671738E+03  0.12500103421E+03 0.  0.
    9000005    1    3    3    0    0  0.25580014609E+02 -0.56346741727E+02 -0.25063303558E+03  0.25816121121E+03  0.10000000000E+01 0.  0.
    9000005    1    3    3    0    0 -0.25580014609E+02  0.56346741727E+02 -0.33404060694E+03  0.33972550616E+03  0.10000000000E+01 0.  0.
<mgrwt>
<rscale>  0 0.12500103E+03</rscale>
<asrwt>0</asrwt>
<pdfrwt beam="2">  1        4 0.90966140E-01 0.12500103E+03</pdfrwt>
<pdfrwt beam="1">  1       -4 0.10163908E-02 0.12500103E+03</pdfrwt>
<totfact> 0.49000185E+03</totfact>
</mgrwt>
</event>
<event>
 5    1  0.3309219E-002  0.1249907E+03  0.7818608E-02  0.1235084E+00
          4   -1    0    0  501    0  0.00000000000E+00  0.00000000000E+00  0.86265413545E+02  0.86274761512E+02  0.12700000000E+01 0. -1.
         -4   -1    0    0    0  501 -0.00000000000E+00 -0.00000000000E+00 -0.45254286895E+02  0.45272103799E+02  0.12700000000E+01 0. -1.
         25    2    1    2    0    0  0.00000000000E+00  0.00000000000E+00  0.41011126650E+02  0.13154686531E+03  0.12499066071E+03 0.  0.
    9000005    1    3    3    0    0  0.49206042408E+02 -0.35864058817E+02  0.35284986593E+02  0.70381074183E+02  0.10000000000E+01 0.  0.
    9000005    1    3    3    0    0 -0.49206042408E+02  0.35864058817E+02  0.57261400569E+01  0.61165791128E+02  0.10000000000E+01 0.  0.
<mgrwt>
<rscale>  0 0.12499066E+03</rscale>
<asrwt>0</asrwt>
<pdfrwt beam="1">  1        4 0.13273692E-01 0.12499066E+03</pdfrwt>
<pdfrwt beam="2">  1       -4 0.69642877E-02 0.12499066E+03</pdfrwt>
<totfact> 0.10313553E+04</totfact>
</mgrwt>
</event>
<event>
 5    1  0.3309219E-002  0.1250026E+03  0.7818608E-02  0.1235065E+00
          4   -1    0    0  501    0  0.00000000000E+00  0.00000000000E+00  0.41968570277E+01  0.43848043185E+01  0.12700000000E+01 0.  1.
         -4   -1    0    0    0  501 -0.00000000000E+00 -0.00000000000E+00 -0.91022104420E+03  0.91022193019E+03  0.12700000000E+01 0.  1.
         25    2    1    2    0    0  0.00000000000E+00  0.00000000000E+00 -0.90602418717E+03  0.91460673451E+03  0.12500260426E+03 0.  0.
    9000005    1    3    3    0    0  0.67996279606E+01 -0.62098127941E+02 -0.46568569785E+03  0.46985804411E+03  0.10000000000E+01 0.  0.
    9000005    1    3    3    0    0 -0.67996279606E+01  0.62098127941E+02 -0.44033848932E+03  0.44474869040E+03  0.10000000000E+01 0.  0.
<mgrwt>
<rscale>  0 0.12500260E+03</rscale>
<asrwt>0</asrwt>
<pdfrwt beam="1">  1        4 0.66019667E-03 0.12500260E+03</pdfrwt>
<pdfrwt beam="2">  1       -4 0.14004838E+00 0.12500260E+03</pdfrwt>
<totfact> 0.33604881E+03</totfact>
</mgrwt>
</event>
<event>
 5    1  0.3309219E-002  0.1250055E+03  0.7818608E-02  0.1235061E+00
          4   -1    0    0  501    0  0.00000000000E+00  0.00000000000E+00  0.10186827617E+02  0.10265688331E+02  0.12700000000E+01 0. -1.
         -4   -1    0    0    0  501 -0.00000000000E+00 -0.00000000000E+00 -0.38193610114E+03  0.38193821262E+03  0.12700000000E+01 0. -1.
         25    2    1    2    0    0  0.00000000000E+00  0.00000000000E+00 -0.37174927353E+03  0.39220390095E+03  0.12500551008E+03 0.  0.
    9000005    1    3    3    0    0  0.49765748085E+02  0.11429667202E+02 -0.29892575587E+03  0.30325710956E+03  0.10000000000E+01 0.  0.
    9000005    1    3    3    0    0 -0.49765748085E+02 -0.11429667202E+02 -0.72823517657E+02  0.88946791391E+02  0.10000000000E+01 0.  0.
<mgrwt>
<rscale>  0 0.12500551E+03</rscale>
<asrwt>0</asrwt>
<pdfrwt beam="1">  1        4 0.15734332E-02 0.12500551E+03</pdfrwt>
<pdfrwt beam="2">  1       -4 0.58765618E-01 0.12500551E+03</pdfrwt>
<totfact> 0.65310214E+03</totfact>
</mgrwt>
</event>
<event>
 5    1  0.3309219E-002  0.1249791E+03  0.7818608E-02  0.1235102E+00
         -4   -1    0    0    0  501 -0.00000000000E+00  0.00000000000E+00  0.47192559878E+02  0.47209645284E+02  0.12700000000E+01 0.  1.
          4   -1    0    0  501    0  0.00000000000E+00 -0.00000000000E+00 -0.82707918763E+02  0.82717668767E+02  0.12700000000E+01 0.  1.
         25    2    1    2    0    0  0.00000000000E+00  0.00000000000E+00 -0.35515358885E+02  0.12992731405E+03  0.12497906313E+03 0.  0.
    9000005    1    3    3    0    0 -0.33491873151E+02  0.18114350130E+02  0.33742635099E+02  0.50886154023E+02  0.10000000000E+01 0.  0.
    9000005    1    3    3    0    0  0.33491873151E+02 -0.18114350130E+02 -0.69257993985E+02  0.79041160028E+02  0.10000000000E+01 0.  0.
<mgrwt>
<rscale>  0 0.12497906E+03</rscale>
<asrwt>0</asrwt>
<pdfrwt beam="2">  1        4 0.12726359E-01 0.12497906E+03</pdfrwt>
<pdfrwt beam="1">  1       -4 0.72624581E-02 0.12497906E+03</pdfrwt>
<totfact> 0.10350954E+04</totfact>
</mgrwt>
</event>
<event>
 5    1  0.3309219E-002  0.1249998E+03  0.7818608E-02  0.1235070E+00
          4   -1    0    0  501    0  0.00000000000E+00  0.00000000000E+00  0.28647062981E+02  0.28675200390E+02  0.12700000000E+01 0. -1.
         -4   -1    0    0    0  501 -0.00000000000E+00 -0.00000000000E+00 -0.13625928095E+03  0.13626519932E+03  0.12700000000E+01 0. -1.
         25    2    1    2    0    0  0.00000000000E+00  0.00000000000E+00 -0.10761221797E+03  0.16494039971E+03  0.12499978400E+03 0.  0.
    9000005    1    3    3    0    0 -0.52631930220E+02  0.32115681703E+02 -0.67243220549E+02  0.91236987016E+02  0.10000000000E+01 0.  0.
    9000005    1    3    3    0    0  0.52631930220E+02 -0.32115681703E+02 -0.40368997425E+02  0.73703412696E+02  0.10000000000E+01 0.  0.
<mgrwt>
<rscale>  0 0.12499978E+03</rscale>
<asrwt>0</asrwt>
<pdfrwt beam="1">  1        4 0.44098602E-02 0.12499978E+03</pdfrwt>
<pdfrwt beam="2">  1       -4 0.20965586E-01 0.12499978E+03</pdfrwt>
<totfact> 0.96399149E+03</totfact>
</mgrwt>
</event>
<event>
 5    1  0.3309219E-002  0.1249894E+03  0.7818608E-02  0.1235086E+00
         -4   -1    0    0    0  501 -0.00000000000E+00  0.00000000000E+00  0.99218504210E+02  0.99226631897E+02  0.12700000000E+01 0. -1.
          4   -1    0    0  501    0  0.00000000000E+00 -0.00000000000E+00 -0.39343505401E+02  0.39363997729E+02  0.12700000000E+01 0. -1.
         25    2    1    2    0    0  0.00000000000E+00  0.00000000000E+00  0.59874998809E+02  0.13859062963E+03  0.12498938810E+03 0.  0.
    9000005    1    3    3    0    0  0.21531288265E+02  0.37521669929E+02 -0.20059238090E+02  0.47695336474E+02  0.10000000000E+01 0.  0.
    9000005    1    3    3    0    0 -0.21531288265E+02 -0.37521669929E+02  0.79934236899E+02  0.90895293152E+02  0.10000000000E+01 0.  0.
<mgrwt>
<rscale>  0 0.12498939E+03</rscale>
<asrwt>0</asrwt>
<pdfrwt beam="2">  1        4 0.60550486E-02 0.12498939E+03</pdfrwt>
<pdfrwt beam="1">  1       -4 0.15266587E-01 0.12498939E+03</pdfrwt>
<totfact> 0.10165310E+04</totfact>
</mgrwt>
</event>
<event>
 5    1  0.3309219E-002  0.1249972E+03  0.7818608E-02  0.1235074E+00
         -4   -1    0    0    0  501 -0.00000000000E+00  0.00000000000E+00  0.54977868252E+02  0.54992534926E+02  0.12700000000E+01 0.  1.
          4   -1    0    0  501    0  0.00000000000E+00 -0.00000000000E+00 -0.71018290652E+02  0.71029645270E+02  0.12700000000E+01 0.  1.
         25    2    1    2    0    0  0.00000000000E+00  0.00000000000E+00 -0.16040422400E+02  0.12602218020E+03  0.12499717897E+03 0.  0.
    9000005    1    3    3    0    0  0.47023779443E+01 -0.46903548518E+02 -0.49381229031E+02  0.68275625244E+02  0.10000000000E+01 0.  0.
    9000005    1    3    3    0    0 -0.47023779443E+01  0.46903548518E+02  0.33340806632E+02  0.57746554951E+02  0.10000000000E+01 0.  0.
<mgrwt>
<rscale>  0 0.12499718E+03</rscale>
<asrwt>0</asrwt>
<pdfrwt beam="2">  1        4 0.10927893E-01 0.12499718E+03</pdfrwt>
<pdfrwt beam="1">  1       -4 0.84601352E-02 0.12499718E+03</pdfrwt>
<totfact> 0.10431135E+04</totfact>
</mgrwt>
</event>
<event>
 5    1  0.3309219E-002  0.1249978E+03  0.7818608E-02  0.1235073E+00
         -4   -1    0    0    0  501 -0.00000000000E+00  0.00000000000E+00  0.38237475335E+03  0.38237686241E+03  0.12700000000E+01 0. -1.
          4   -1    0    0  501    0  0.00000000000E+00 -0.00000000000E+00 -0.10173787767E+02  0.10252748779E+02  0.12700000000E+01 0. -1.
         25    2    1    2    0    0  0.00000000000E+00  0.00000000000E+00  0.37220096559E+03  0.39262961118E+03  0.12499781116E+03 0.  0.
    9000005    1    3    3    0    0 -0.50938869749E-01  0.22661776993E+02  0.36902842118E+03  0.36972494421E+03  0.10000000000E+01 0.  0.
    9000005    1    3    3    0    0  0.50938869749E-01 -0.22661776993E+02  0.31725444057E+01  0.22904666975E+02  0.10000000000E+01 0.  0.
<mgrwt>
<rscale>  0 0.12499781E+03</rscale>
<asrwt>0</asrwt>
<pdfrwt beam="2">  1        4 0.15714346E-02 0.12499781E+03</pdfrwt>
<pdfrwt beam="1">  1       -4 0.58833107E-01 0.12499781E+03</pdfrwt>
<totfact> 0.65279155E+03</totfact>
</mgrwt>
</event>
<event>
 5    1  0.3309219E-002  0.1249972E+03  0.7818608E-02  0.1235074E+00
          4   -1    0    0  501    0  0.00000000000E+00  0.00000000000E+00  0.31276038321E+02  0.31301812616E+02  0.12700000000E+01 0. -1.
         -4   -1    0    0    0  501 -0.00000000000E+00 -0.00000000000E+00 -0.12480997703E+03  0.12481643829E+03  0.12700000000E+01 0. -1.
         25    2    1    2    0    0  0.00000000000E+00  0.00000000000E+00 -0.93533938711E+02  0.15611825090E+03  0.12499724227E+03 0.  0.
    9000005    1    3    3    0    0 -0.19856861989E+02 -0.44207500538E+02 -0.96041779309E+02  0.10758076708E+03  0.10000000000E+01 0.  0.
    9000005    1    3    3    0    0  0.19856861989E+02  0.44207500538E+02  0.25078405976E+01  0.48537483828E+02  0.10000000000E+01 0.  0.
<mgrwt>
<rscale>  0 0.12499724E+03</rscale>
<asrwt>0</asrwt>
<pdfrwt beam="1">  1        4 0.48141779E-02 0.12499724E+03</pdfrwt>
<pdfrwt beam="2">  1       -4 0.19204014E-01 0.12499724E+03</pdfrwt>
<totfact> 0.98102502E+03</totfact>
</mgrwt>
</event>
<event>
 5    1  0.3309219E-002  0.1250012E+03  0.7818608E-02  0.1235067E+00
         -4   -1    0    0    0  501 -0.00000000000E+00  0.00000000000E+00  0.26875142234E+03  0.26875442305E+03  0.12700000000E+01 0.  1.
          4   -1    0    0  501    0  0.00000000000E+00 -0.00000000000E+00 -0.14504265832E+02  0.14559760551E+02  0.12700000000E+01 0.  1.
         25    2    1    2    0    0  0.00000000000E+00  0.00000000000E+00  0.25424715651E+03  0.28331418360E+03  0.12500124015E+03 0.  0.
    9000005    1    3    3    0    0  0.49889257766E+00  0.37019342070E+02  0.24123069487E+03  0.24405722429E+03  0.10000000000E+01 0.  0.
    9000005    1    3    3    0    0 -0.49889257766E+00 -0.37019342070E+02  0.13016461643E+02  0.39256959317E+02  0.10000000000E+01 0.  0.
<mgrwt>
<rscale>  0 0.12500124E+03</rscale>
<asrwt>0</asrwt>
<pdfrwt beam="2">  1        4 0.22359255E-02 0.12500124E+03</pdfrwt>
<pdfrwt beam="1">  1       -4 0.41350866E-01 0.12500124E+03</pdfrwt>
<totfact> 0.77738572E+03</totfact>
</mgrwt>
</event>
<event>
 5    1  0.3309219E-002  0.1250000E+03  0.7818608E-02  0.1235069E+00
         -4   -1    0    0    0  501 -0.00000000000E+00  0.00000000000E+00  0.14311420134E+02  0.14367659735E+02  0.12700000000E+01 0. -1.
          4   -1    0    0  501    0  0.00000000000E+00 -0.00000000000E+00 -0.27235358821E+03  0.27235654924E+03  0.12700000000E+01 0. -1.
         25    2    1    2    0    0  0.00000000000E+00  0.00000000000E+00 -0.25804216808E+03  0.28672420897E+03  0.12500004601E+03 0.  0.
    9000005    1    3    3    0    0 -0.30917700572E+02  0.35795027109E+02 -0.35338117080E+02  0.59050577416E+02  0.10000000000E+01 0.  0.
    9000005    1    3    3    0    0  0.30917700572E+02 -0.35795027109E+02 -0.22270405100E+03  0.22767363155E+03  0.10000000000E+01 0.  0.
<mgrwt>
<rscale>  0 0.12500005E+03</rscale>
<asrwt>0</asrwt>
<pdfrwt beam="2">  1        4 0.41905102E-01 0.12500005E+03</pdfrwt>
<pdfrwt beam="1">  1       -4 0.22063110E-02 0.12500005E+03</pdfrwt>
<totfact> 0.77294812E+03</totfact>
</mgrwt>
</event>
<event>
 5    1  0.3309219E-002  0.1249978E+03  0.7818608E-02  0.1235073E+00
         -4   -1    0    0    0  501 -0.00000000000E+00  0.00000000000E+00  0.13745396036E+04  0.13745401903E+04  0.12700000000E+01 0.  1.
          4   -1    0    0  501    0  0.00000000000E+00 -0.00000000000E+00 -0.26992497693E+01  0.29830939169E+01  0.12700000000E+01 0.  1.
         25    2    1    2    0    0  0.00000000000E+00  0.00000000000E+00  0.13718403538E+04  0.13775232842E+04  0.12499776869E+03 0.  0.
    9000005    1    3    3    0    0 -0.27632250536E+02  0.51642988538E+02  0.44584498202E+03  0.44967687012E+03  0.10000000000E+01 0.  0.
    9000005    1    3    3    0    0  0.27632250536E+02 -0.51642988538E+02  0.92599537182E+03  0.92784641411E+03  0.10000000000E+01 0.  0.
<mgrwt>
<rscale>  0 0.12499777E+03</rscale>
<asrwt>0</asrwt>
<pdfrwt beam="2">  1        4 0.43714915E-03 0.12499777E+03</pdfrwt>
<pdfrwt beam="1">  1       -4 0.21148919E+00 0.12499777E+03</pdfrwt>
<totfact> 0.20469490E+03</totfact>
</mgrwt>
</event>
<event>
 5    1  0.3309219E-002  0.1249930E+03  0.7818608E-02  0.1235080E+00
          4   -1    0    0  501    0  0.00000000000E+00  0.00000000000E+00  0.37802741277E+01  0.39879032687E+01  0.12700000000E+01 0.  1.
         -4   -1    0    0    0  501 -0.00000000000E+00 -0.00000000000E+00 -0.10053849591E+04  0.10053857612E+04  0.12700000000E+01 0.  1.
         25    2    1    2    0    0  0.00000000000E+00  0.00000000000E+00 -0.10016046850E+04  0.10093736645E+04  0.12499299831E+03 0.  0.
    9000005    1    3    3    0    0  0.61872606261E+02 -0.69388695643E+01 -0.54387185332E+03  0.54742484429E+03  0.10000000000E+01 0.  0.
    9000005    1    3    3    0    0 -0.61872606261E+02  0.69388695643E+01 -0.45773283164E+03  0.46194882020E+03  0.10000000000E+01 0.  0.
<mgrwt>
<rscale>  0 0.12499300E+03</rscale>
<asrwt>0</asrwt>
<pdfrwt beam="1">  1        4 0.59761461E-03 0.12499300E+03</pdfrwt>
<pdfrwt beam="2">  1       -4 0.15469044E+00 0.12499300E+03</pdfrwt>
<totfact> 0.30301638E+03</totfact>
</mgrwt>
</event>
<event>
 5    1  0.3309219E-002  0.1250009E+03  0.7818608E-02  0.1235068E+00
          4   -1    0    0  501    0  0.00000000000E+00  0.00000000000E+00  0.21832141727E+03  0.21832511110E+03  0.12700000000E+01 0. -1.
         -4   -1    0    0    0  501 -0.00000000000E+00 -0.00000000000E+00 -0.17866082255E+02  0.17911163981E+02  0.12700000000E+01 0. -1.
         25    2    1    2    0    0  0.00000000000E+00  0.00000000000E+00  0.20045533501E+03  0.23623627508E+03  0.12500094532E+03 0.  0.
    9000005    1    3    3    0    0 -0.51429170438E+02 -0.13853235669E+02  0.38453368761E+02  0.65700329372E+02  0.10000000000E+01 0.  0.
    9000005    1    3    3    0    0  0.51429170438E+02  0.13853235669E+02  0.16200196625E+03  0.17053594571E+03  0.10000000000E+01 0.  0.
<mgrwt>
<rscale>  0 0.12500095E+03</rscale>
<asrwt>0</asrwt>
<pdfrwt beam="1">  1        4 0.33591662E-01 0.12500095E+03</pdfrwt>
<pdfrwt beam="2">  1       -4 0.27523800E-02 0.12500095E+03</pdfrwt>
<totfact> 0.84359340E+03</totfact>
</mgrwt>
</event>
<event>
 5    1  0.3309219E-002  0.1249935E+03  0.7818608E-02  0.1235079E+00
         -4   -1    0    0    0  501 -0.00000000000E+00  0.00000000000E+00  0.12120536729E+02  0.12186890933E+02  0.12700000000E+01 0. -1.
          4   -1    0    0  501    0  0.00000000000E+00 -0.00000000000E+00 -0.32130277784E+03  0.32130528776E+03  0.12700000000E+01 0. -1.
         25    2    1    2    0    0  0.00000000000E+00  0.00000000000E+00 -0.30918224111E+03  0.33349217870E+03  0.12499349997E+03 0.  0.
    9000005    1    3    3    0    0 -0.22384123557E+02 -0.53584479113E+02 -0.93022791766E+02  0.10966578855E+03  0.10000000000E+01 0.  0.
    9000005    1    3    3    0    0  0.22384123557E+02  0.53584479113E+02 -0.21615944934E+03  0.22382639015E+03  0.10000000000E+01 0.  0.
<mgrwt>
<rscale>  0 0.12499350E+03</rscale>
<asrwt>0</asrwt>
<pdfrwt beam="2">  1        4 0.49436487E-01 0.12499350E+03</pdfrwt>
<pdfrwt beam="1">  1       -4 0.18699954E-02 0.12499350E+03</pdfrwt>
<totfact> 0.71589941E+03</totfact>
</mgrwt>
</event>
<event>
 5    1  0.3309219E-002  0.1250035E+03  0.7818608E-02  0.1235064E+00
         -4   -1    0    0    0  501 -0.00000000000E+00  0.00000000000E+00  0.18306136828E+02  0.18350137480E+02  0.12700000000E+01 0. -1.
          4   -1    0    0  501    0  0.00000000000E+00 -0.00000000000E+00 -0.21309460768E+03  0.21309839212E+03  0.12700000000E+01 0. -1.
         25    2    1    2    0    0  0.00000000000E+00  0.00000000000E+00 -0.19478847085E+03  0.23144852960E+03  0.12500349385E+03 0.  0.
    9000005    1    3    3    0    0 -0.21132199611E+02 -0.40002118638E+02 -0.17568980665E+02  0.48542851559E+02  0.10000000000E+01 0.  0.
    9000005    1    3    3    0    0  0.21132199611E+02  0.40002118638E+02 -0.17721949019E+03  0.18290567804E+03  0.10000000000E+01 0.  0.
<mgrwt>
<rscale>  0 0.12500349E+03</rscale>
<asrwt>0</asrwt>
<pdfrwt beam="2">  1        4 0.32787460E-01 0.12500349E+03</pdfrwt>
<pdfrwt beam="1">  1       -4 0.28200047E-02 0.12500349E+03</pdfrwt>
<totfact> 0.85081038E+03</totfact>
</mgrwt>
</event>
<event>
 5    1  0.3309219E-002  0.1250018E+03  0.7818608E-02  0.1235066E+00
          4   -1    0    0  501    0  0.00000000000E+00  0.00000000000E+00  0.18456658700E+03  0.18457095637E+03  0.12700000000E+01 0.  1.
         -4   -1    0    0    0  501 -0.00000000000E+00 -0.00000000000E+00 -0.21141376530E+02  0.21179487756E+02  0.12700000000E+01 0.  1.
         25    2    1    2    0    0  0.00000000000E+00  0.00000000000E+00  0.16342521047E+03  0.20575044413E+03  0.12500178336E+03 0.  0.
    9000005    1    3    3    0    0 -0.58589511694E+02  0.21431725511E+02  0.75707208736E+02  0.98105204722E+02  0.10000000000E+01 0.  0.
    9000005    1    3    3    0    0  0.58589511694E+02 -0.21431725511E+02  0.87718001735E+02  0.10764523941E+03  0.10000000000E+01 0.  0.
<mgrwt>
<rscale>  0 0.12500178E+03</rscale>
<asrwt>0</asrwt>
<pdfrwt beam="1">  1        4 0.28398126E-01 0.12500178E+03</pdfrwt>
<pdfrwt beam="2">  1       -4 0.32557873E-02 0.12500178E+03</pdfrwt>
<totfact> 0.89171069E+03</totfact>
</mgrwt>
</event>
<event>
 5    1  0.3309219E-002  0.1249995E+03  0.7818608E-02  0.1235070E+00
         -4   -1    0    0    0  501 -0.00000000000E+00  0.00000000000E+00  0.55071315308E+02  0.55085957101E+02  0.12700000000E+01 0. -1.
          4   -1    0    0  501    0  0.00000000000E+00 -0.00000000000E+00 -0.70900388354E+02  0.70911761851E+02  0.12700000000E+01 0. -1.
         25    2    1    2    0    0  0.00000000000E+00  0.00000000000E+00 -0.15829073046E+02  0.12599771895E+03  0.12499946251E+03 0.  0.
    9000005    1    3    3    0    0 -0.56505184102E+02 -0.97112222655E+01 -0.32974147886E+02  0.66147094397E+02  0.10000000000E+01 0.  0.
    9000005    1    3    3    0    0  0.56505184102E+02  0.97112222655E+01  0.17145074840E+02  0.59850624555E+02  0.10000000000E+01 0.  0.
<mgrwt>
<rscale>  0 0.12499946E+03</rscale>
<asrwt>0</asrwt>
<pdfrwt beam="2">  1        4 0.10909753E-01 0.12499946E+03</pdfrwt>
<pdfrwt beam="1">  1       -4 0.84745112E-02 0.12499946E+03</pdfrwt>
<totfact> 0.10431133E+04</totfact>
</mgrwt>
</event>
<event>
 5    1  0.3309219E-002  0.1249973E+03  0.7818608E-02  0.1235073E+00
         -4   -1    0    0    0  501 -0.00000000000E+00  0.00000000000E+00  0.51992925024E+01  0.53521530738E+01  0.12700000000E+01 0.  1.
          4   -1    0    0  501    0  0.00000000000E+00 -0.00000000000E+00 -0.74023472533E+03  0.74023581478E+03  0.12700000000E+01 0.  1.
         25    2    1    2    0    0  0.00000000000E+00  0.00000000000E+00 -0.73503543282E+03  0.74558796785E+03  0.12499732116E+03 0.  0.
    9000005    1    3    3    0    0  0.19352425400E+01  0.38116451909E+02 -0.66266982457E+03  0.66376871384E+03  0.10000000000E+01 0.  0.
    9000005    1    3    3    0    0 -0.19352425400E+01 -0.38116451909E+02 -0.72365608252E+02  0.81819254015E+02  0.10000000000E+01 0.  0.
<mgrwt>
<rscale>  0 0.12499732E+03</rscale>
<asrwt>0</asrwt>
<pdfrwt beam="2">  1        4 0.11389403E+00 0.12499732E+03</pdfrwt>
<pdfrwt beam="1">  1       -4 0.81173405E-03 0.12499732E+03</pdfrwt>
<totfact> 0.40788470E+03</totfact>
</mgrwt>
</event>
<event>
 5    1  0.3309219E-002  0.1249987E+03  0.7818608E-02  0.1235071E+00
          4   -1    0    0  501    0  0.00000000000E+00  0.00000000000E+00  0.32903154845E+03  0.32903399942E+03  0.12700000000E+01 0.  1.
         -4   -1    0    0    0  501 -0.00000000000E+00 -0.00000000000E+00 -0.11835253356E+02  0.11903197974E+02  0.12700000000E+01 0.  1.
         25    2    1    2    0    0  0.00000000000E+00  0.00000000000E+00  0.31719629510E+03  0.34093719740E+03  0.12499873178E+03 0.  0.
    9000005    1    3    3    0    0  0.75509468563E+01  0.50965618604E+02  0.62140125796E+02  0.80727357891E+02  0.10000000000E+01 0.  0.
    9000005    1    3    3    0    0 -0.75509468563E+01 -0.50965618604E+02  0.25505616930E+03  0.26020983951E+03  0.10000000000E+01 0.  0.
<mgrwt>
<rscale>  0 0.12499873E+03</rscale>
<asrwt>0</asrwt>
<pdfrwt beam="1">  1        4 0.50625656E-01 0.12499873E+03</pdfrwt>
<pdfrwt beam="2">  1       -4 0.18262232E-02 0.12499873E+03</pdfrwt>
<totfact> 0.70735201E+03</totfact>
</mgrwt>
</event>
<event>
 5    1  0.3309219E-002  0.1250021E+03  0.7818608E-02  0.1235066E+00
         -4   -1    0    0    0  501 -0.00000000000E+00  0.00000000000E+00  0.12075041062E+02  0.12141643902E+02  0.12700000000E+01 0. -1.
          4   -1    0    0  501    0  0.00000000000E+00 -0.00000000000E+00 -0.32255111190E+03  0.32255361211E+03  0.12700000000E+01 0. -1.
         25    2    1    2    0    0  0.00000000000E+00  0.00000000000E+00 -0.31047607084E+03  0.33469525602E+03  0.12500209533E+03 0.  0.
    9000005    1    3    3    0    0  0.26409133845E+02 -0.50665759996E+02 -0.22302309207E+03  0.23022762906E+03  0.10000000000E+01 0.  0.
    9000005    1    3    3    0    0 -0.26409133845E+02  0.50665759996E+02 -0.87452978765E+02  0.10446762695E+03  0.10000000000E+01 0.  0.
<mgrwt>
<rscale>  0 0.12500210E+03</rscale>
<asrwt>0</asrwt>
<pdfrwt beam="2">  1        4 0.49628557E-01 0.12500210E+03</pdfrwt>
<pdfrwt beam="1">  1       -4 0.18630145E-02 0.12500210E+03</pdfrwt>
<totfact> 0.71438433E+03</totfact>
</mgrwt>
</event>
<event>
 5    1  0.3309219E-002  0.1250040E+03  0.7818608E-02  0.1235063E+00
          4   -1    0    0  501    0  0.00000000000E+00  0.00000000000E+00  0.15853019708E+02  0.15903808785E+02  0.12700000000E+01 0. -1.
         -4   -1    0    0    0  501 -0.00000000000E+00 -0.00000000000E+00 -0.24597331402E+03  0.24597659260E+03  0.12700000000E+01 0. -1.
         25    2    1    2    0    0  0.00000000000E+00  0.00000000000E+00 -0.23012029431E+03  0.26188040139E+03  0.12500397905E+03 0.  0.
    9000005    1    3    3    0    0  0.23737026961E+02 -0.45881182477E+02 -0.41378618399E+02  0.66194557292E+02  0.10000000000E+01 0.  0.
    9000005    1    3    3    0    0 -0.23737026961E+02  0.45881182477E+02 -0.18874167591E+03  0.19568584410E+03  0.10000000000E+01 0.  0.
<mgrwt>
<rscale>  0 0.12500398E+03</rscale>
<asrwt>0</asrwt>
<pdfrwt beam="1">  1        4 0.24430853E-02 0.12500398E+03</pdfrwt>
<pdfrwt beam="2">  1       -4 0.37846205E-01 0.12500398E+03</pdfrwt>
<totfact> 0.80635755E+03</totfact>
</mgrwt>
</event>
<event>
 5    1  0.3309219E-002  0.1249934E+03  0.7818608E-02  0.1235080E+00
         -4   -1    0    0    0  501 -0.00000000000E+00  0.00000000000E+00  0.32750071143E+02  0.32774686266E+02  0.12700000000E+01 0.  1.
          4   -1    0    0  501    0  0.00000000000E+00 -0.00000000000E+00 -0.11918912866E+03  0.11919589461E+03  0.12700000000E+01 0.  1.
         25    2    1    2    0    0  0.00000000000E+00  0.00000000000E+00 -0.86439057519E+02  0.15197058087E+03  0.12499338697E+03 0.  0.
    9000005    1    3    3    0    0  0.38003576249E+02 -0.35631444105E+02 -0.85178226530E+02  0.99850898301E+02  0.10000000000E+01 0.  0.
    9000005    1    3    3    0    0 -0.38003576249E+02  0.35631444105E+02 -0.12608309892E+01  0.52119682573E+02  0.10000000000E+01 0.  0.
<mgrwt>
<rscale>  0 0.12499339E+03</rscale>
<asrwt>0</asrwt>
<pdfrwt beam="2">  1        4 0.18339203E-01 0.12499339E+03</pdfrwt>
<pdfrwt beam="1">  1       -4 0.50408865E-02 0.12499339E+03</pdfrwt>
<totfact> 0.98927053E+03</totfact>
</mgrwt>
</event>
<event>
 5    1  0.3309219E-002  0.1249972E+03  0.7818608E-02  0.1235074E+00
         -4   -1    0    0    0  501 -0.00000000000E+00  0.00000000000E+00  0.19772255934E+03  0.19772663799E+03  0.12700000000E+01 0.  1.
          4   -1    0    0  501    0  0.00000000000E+00 -0.00000000000E+00 -0.19730642026E+02  0.19771472752E+02  0.12700000000E+01 0.  1.
         25    2    1    2    0    0  0.00000000000E+00  0.00000000000E+00  0.17799191731E+03  0.21749811074E+03  0.12499722216E+03 0.  0.
    9000005    1    3    3    0    0 -0.11140159759E+02  0.56123631299E+02  0.45283213220E+02  0.72976260175E+02  0.10000000000E+01 0.  0.
    9000005    1    3    3    0    0  0.11140159759E+02 -0.56123631299E+02  0.13270870409E+03  0.14452185056E+03  0.10000000000E+01 0.  0.
<mgrwt>
<rscale>  0 0.12499722E+03</rscale>
<asrwt>0</asrwt>
<pdfrwt beam="2">  1        4 0.30389378E-02 0.12499722E+03</pdfrwt>
<pdfrwt beam="1">  1       -4 0.30422311E-01 0.12499722E+03</pdfrwt>
<totfact> 0.87271209E+03</totfact>
</mgrwt>
</event>
<event>
 5    1  0.3309219E-002  0.1249994E+03  0.7818608E-02  0.1235070E+00
         -4   -1    0    0    0  501 -0.00000000000E+00  0.00000000000E+00  0.63222923888E+02  0.63235678260E+02  0.12700000000E+01 0.  1.
          4   -1    0    0  501    0  0.00000000000E+00 -0.00000000000E+00 -0.61759193754E+02  0.61772250348E+02  0.12700000000E+01 0.  1.
         25    2    1    2    0    0  0.00000000000E+00  0.00000000000E+00  0.14637301350E+01  0.12500792861E+03  0.12499935883E+03 0.  0.
    9000005    1    3    3    0    0  0.98404562424E+00  0.62251213443E+02 -0.46562688177E+01  0.62440874114E+02  0.10000000000E+01 0.  0.
    9000005    1    3    3    0    0 -0.98404562424E+00 -0.62251213443E+02  0.61199989527E+01  0.62567054494E+02  0.10000000000E+01 0.  0.
<mgrwt>
<rscale>  0 0.12499936E+03</rscale>
<asrwt>0</asrwt>
<pdfrwt beam="2">  1        4 0.95033998E-02 0.12499936E+03</pdfrwt>
<pdfrwt beam="1">  1       -4 0.97285892E-02 0.12499936E+03</pdfrwt>
<totfact> 0.10452842E+04</totfact>
</mgrwt>
</event>
<event>
 5    1  0.3309219E-002  0.1249808E+03  0.7818608E-02  0.1235099E+00
         -4   -1    0    0    0  501 -0.00000000000E+00  0.00000000000E+00  0.98270045864E+01  0.99087294413E+01  0.12700000000E+01 0.  1.
          4   -1    0    0  501    0  0.00000000000E+00 -0.00000000000E+00 -0.39565098029E+03  0.39565301857E+03  0.12700000000E+01 0.  1.
         25    2    1    2    0    0  0.00000000000E+00  0.00000000000E+00 -0.38582397571E+03  0.40556174801E+03  0.12498076341E+03 0.  0.
    9000005    1    3    3    0    0 -0.14334288586E+02 -0.33711087235E+02 -0.35716567246E+03  0.35904070356E+03  0.10000000000E+01 0.  0.
    9000005    1    3    3    0    0  0.14334288586E+02  0.33711087235E+02 -0.28658303246E+02  0.46521044451E+02  0.10000000000E+01 0.  0.
<mgrwt>
<rscale>  0 0.12498076E+03</rscale>
<asrwt>0</asrwt>
<pdfrwt beam="2">  1        4 0.60875813E-01 0.12498076E+03</pdfrwt>
<pdfrwt beam="1">  1       -4 0.15182905E-02 0.12498076E+03</pdfrwt>
<totfact> 0.64042624E+03</totfact>
</mgrwt>
</event>
<event>
 5    1  0.3309219E-002  0.1249982E+03  0.7818608E-02  0.1235072E+00
         -4   -1    0    0    0  501 -0.00000000000E+00  0.00000000000E+00  0.30762669061E+02  0.30788873116E+02  0.12700000000E+01 0.  1.
          4   -1    0    0  501    0  0.00000000000E+00 -0.00000000000E+00 -0.12689301904E+03  0.12689937423E+03  0.12700000000E+01 0.  1.
         25    2    1    2    0    0  0.00000000000E+00  0.00000000000E+00 -0.96130349977E+02  0.15768824735E+03  0.12499815665E+03 0.  0.
    9000005    1    3    3    0    0  0.22146936754E+02 -0.56050123171E+02 -0.68910191105E+02  0.91551720646E+02  0.10000000000E+01 0.  0.
    9000005    1    3    3    0    0 -0.22146936754E+02  0.56050123171E+02 -0.27220158871E+02  0.66136526701E+02  0.10000000000E+01 0.  0.
<mgrwt>
<rscale>  0 0.12499816E+03</rscale>
<asrwt>0</asrwt>
<pdfrwt beam="2">  1        4 0.19524507E-01 0.12499816E+03</pdfrwt>
<pdfrwt beam="1">  1       -4 0.47352229E-02 0.12499816E+03</pdfrwt>
<totfact> 0.97794386E+03</totfact>
</mgrwt>
</event>
<event>
 5    1  0.3309219E-002  0.1250013E+03  0.7818608E-02  0.1235067E+00
         -4   -1    0    0    0  501 -0.00000000000E+00  0.00000000000E+00  0.25058751099E+02  0.25090912830E+02  0.12700000000E+01 0. -1.
          4   -1    0    0  501    0  0.00000000000E+00 -0.00000000000E+00 -0.15575224780E+03  0.15575742549E+03  0.12700000000E+01 0. -1.
         25    2    1    2    0    0  0.00000000000E+00  0.00000000000E+00 -0.13069349670E+03  0.18084833832E+03  0.12500132556E+03 0.  0.
    9000005    1    3    3    0    0 -0.60408785423E+02 -0.75781045914E+01 -0.85739750161E+02  0.10516156039E+03  0.10000000000E+01 0.  0.
    9000005    1    3    3    0    0  0.60408785423E+02  0.75781045914E+01 -0.44953746537E+02  0.75686777928E+02  0.10000000000E+01 0.  0.
<mgrwt>
<rscale>  0 0.12500133E+03</rscale>
<asrwt>0</asrwt>
<pdfrwt beam="2">  1        4 0.23964756E-01 0.12500133E+03</pdfrwt>
<pdfrwt beam="1">  1       -4 0.38580648E-02 0.12500133E+03</pdfrwt>
<totfact> 0.93461745E+03</totfact>
</mgrwt>
</event>
<event>
 5    1  0.3309219E-002  0.1249959E+03  0.7818608E-02  0.1235076E+00
         -4   -1    0    0    0  501 -0.00000000000E+00  0.00000000000E+00  0.19108368286E+02  0.19150525804E+02  0.12700000000E+01 0.  1.
          4   -1    0    0  501    0  0.00000000000E+00 -0.00000000000E+00 -0.20414330868E+03  0.20414725905E+03  0.12700000000E+01 0.  1.
         25    2    1    2    0    0  0.00000000000E+00  0.00000000000E+00 -0.18503494039E+03  0.22329778485E+03  0.12499588615E+03 0.  0.
    9000005    1    3    3    0    0 -0.36954271526E+02  0.49279441055E+02 -0.11133128120E+03  0.12723889212E+03  0.10000000000E+01 0.  0.
    9000005    1    3    3    0    0  0.36954271526E+02 -0.49279441055E+02 -0.73703659189E+02  0.96058892730E+02  0.10000000000E+01 0.  0.
<mgrwt>
<rscale>  0 0.12499589E+03</rscale>
<asrwt>0</asrwt>
<pdfrwt beam="2">  1        4 0.31410208E-01 0.12499589E+03</pdfrwt>
<pdfrwt beam="1">  1       -4 0.29432959E-02 0.12499589E+03</pdfrwt>
<totfact> 0.86357127E+03</totfact>
</mgrwt>
</event>
<event>
 5    1  0.3309219E-002  0.1250005E+03  0.7818608E-02  0.1235068E+00
         -4   -1    0    0    0  501 -0.00000000000E+00  0.00000000000E+00  0.38664025322E+03  0.38664233900E+03  0.12700000000E+01 0. -1.
          4   -1    0    0  501    0  0.00000000000E+00 -0.00000000000E+00 -0.10061110083E+02  0.10140948481E+02  0.12700000000E+01 0. -1.
         25    2    1    2    0    0  0.00000000000E+00  0.00000000000E+00  0.37657914313E+03  0.39678328748E+03  0.12500050472E+03 0.  0.
    9000005    1    3    3    0    0 -0.55993127159E+02 -0.27419078896E+02  0.17473087545E+03  0.18552335436E+03  0.10000000000E+01 0.  0.
    9000005    1    3    3    0    0  0.55993127159E+02  0.27419078896E+02  0.20184826768E+03  0.21125993312E+03  0.10000000000E+01 0.  0.
<mgrwt>
<rscale>  0 0.12500050E+03</rscale>
<asrwt>0</asrwt>
<pdfrwt beam="2">  1        4 0.15541651E-02 0.12500050E+03</pdfrwt>
<pdfrwt beam="1">  1       -4 0.59489413E-01 0.12500050E+03</pdfrwt>
<totfact> 0.64866128E+03</totfact>
</mgrwt>
</event>
<event>
 5    1  0.3309219E-002  0.1250022E+03  0.7818608E-02  0.1235066E+00
         -4   -1    0    0    0  501 -0.00000000000E+00  0.00000000000E+00  0.86059050921E+02  0.86068421302E+02  0.12700000000E+01 0. -1.
          4   -1    0    0  501    0  0.00000000000E+00 -0.00000000000E+00 -0.45371211893E+02  0.45388982900E+02  0.12700000000E+01 0. -1.
         25    2    1    2    0    0  0.00000000000E+00  0.00000000000E+00  0.40687839028E+02  0.13145740420E+03  0.12500219548E+03 0.  0.
    9000005    1    3    3    0    0 -0.32375838483E+02 -0.50469152604E+02  0.18261728896E+01  0.59997209848E+02  0.10000000000E+01 0.  0.
    9000005    1    3    3    0    0  0.32375838483E+02  0.50469152604E+02  0.38861666138E+02  0.71460194354E+02  0.10000000000E+01 0.  0.
<mgrwt>
<rscale>  0 0.12500220E+03</rscale>
<asrwt>0</asrwt>
<pdfrwt beam="2">  1        4 0.69822743E-02 0.12500220E+03</pdfrwt>
<pdfrwt beam="1">  1       -4 0.13241942E-01 0.12500220E+03</pdfrwt>
<totfact> 0.10312783E+04</totfact>
</mgrwt>
</event>
<event>
 5    1  0.3309219E-002  0.1250015E+03  0.7818608E-02  0.1235067E+00
          4   -1    0    0  501    0  0.00000000000E+00  0.00000000000E+00  0.20735380547E+02  0.20774236602E+02  0.12700000000E+01 0.  1.
         -4   -1    0    0    0  501 -0.00000000000E+00 -0.00000000000E+00 -0.18817295883E+03  0.18817724446E+03  0.12700000000E+01 0.  1.
         25    2    1    2    0    0  0.00000000000E+00  0.00000000000E+00 -0.16743757828E+03  0.20895148107E+03  0.12500151527E+03 0.  0.
    9000005    1    3    3    0    0 -0.31406704188E+02  0.20346536326E+02 -0.16738160726E+03  0.17151666116E+03  0.10000000000E+01 0.  0.
    9000005    1    3    3    0    0  0.31406704188E+02 -0.20346536326E+02 -0.55971023467E-01  0.37434819903E+02  0.10000000000E+01 0.  0.
<mgrwt>
<rscale>  0 0.12500152E+03</rscale>
<asrwt>0</asrwt>
<pdfrwt beam="1">  1        4 0.31933773E-02 0.12500152E+03</pdfrwt>
<pdfrwt beam="2">  1       -4 0.28953003E-01 0.12500152E+03</pdfrwt>
<totfact> 0.88644402E+03</totfact>
</mgrwt>
</event>
<event>
 5    1  0.3309219E-002  0.1249837E+03  0.7818608E-02  0.1235095E+00
         -4   -1    0    0    0  501 -0.00000000000E+00  0.00000000000E+00  0.45546314635E+02  0.45564017348E+02  0.12700000000E+01 0. -1.
          4   -1    0    0  501    0  0.00000000000E+00 -0.00000000000E+00 -0.85702961826E+02  0.85712371136E+02  0.12700000000E+01 0. -1.
         25    2    1    2    0    0  0.00000000000E+00  0.00000000000E+00 -0.40156647191E+02  0.13127638848E+03  0.12498373438E+03 0.  0.
    9000005    1    3    3    0    0 -0.31652133191E+02 -0.50326569922E+02  0.11493119319E+00  0.59461200667E+02  0.10000000000E+01 0.  0.
    9000005    1    3    3    0    0  0.31652133191E+02  0.50326569922E+02 -0.40271578384E+02  0.71815187817E+02  0.10000000000E+01 0.  0.
<mgrwt>
<rscale>  0 0.12498373E+03</rscale>
<asrwt>0</asrwt>
<pdfrwt beam="2">  1        4 0.13187157E-01 0.12498373E+03</pdfrwt>
<pdfrwt beam="1">  1       -4 0.70092109E-02 0.12498373E+03</pdfrwt>
<totfact> 0.10320955E+04</totfact>
</mgrwt>
</event>
<event>
 5    1  0.3309219E-002  0.1250061E+03  0.7818608E-02  0.1235060E+00
          4   -1    0    0  501    0  0.00000000000E+00  0.00000000000E+00  0.25501353149E+03  0.25501669385E+03  0.12700000000E+01 0. -1.
         -4   -1    0    0    0  501 -0.00000000000E+00 -0.00000000000E+00 -0.15289728450E+02  0.15342382346E+02  0.12700000000E+01 0. -1.
         25    2    1    2    0    0  0.00000000000E+00  0.00000000000E+00  0.23972380304E+03  0.27035907619E+03  0.12500611320E+03 0.  0.
    9000005    1    3    3    0    0 -0.15998541418E+02 -0.72993700661E+01 -0.98391726336E+01  0.20175317816E+02  0.10000000000E+01 0.  0.
    9000005    1    3    3    0    0  0.15998541418E+02  0.72993700661E+01  0.24956297567E+03  0.25018375838E+03  0.10000000000E+01 0.  0.
<mgrwt>
<rscale>  0 0.12500611E+03</rscale>
<asrwt>0</asrwt>
<pdfrwt beam="1">  1        4 0.39237147E-01 0.12500611E+03</pdfrwt>
<pdfrwt beam="2">  1       -4 0.23565594E-02 0.12500611E+03</pdfrwt>
<totfact> 0.79463129E+03</totfact>
</mgrwt>
</event>
<event>
 5    1  0.3309219E-002  0.1250023E+03  0.7818608E-02  0.1235066E+00
         -4   -1    0    0    0  501 -0.00000000000E+00  0.00000000000E+00  0.23520066852E+03  0.23520409727E+03  0.12700000000E+01 0.  1.
          4   -1    0    0  501    0  0.00000000000E+00 -0.00000000000E+00 -0.16580944071E+02  0.16629510103E+02  0.12700000000E+01 0.  1.
         25    2    1    2    0    0  0.00000000000E+00  0.00000000000E+00  0.21861972444E+03  0.25183360737E+03  0.12500232751E+03 0.  0.
    9000005    1    3    3    0    0 -0.27430600586E+02  0.30568345329E+02  0.14418076324E+02  0.43540125282E+02  0.10000000000E+01 0.  0.
    9000005    1    3    3    0    0  0.27430600586E+02 -0.30568345329E+02  0.20420164812E+03  0.20829348209E+03  0.10000000000E+01 0.  0.
<mgrwt>
<rscale>  0 0.12500233E+03</rscale>
<asrwt>0</asrwt>
<pdfrwt beam="2">  1        4 0.25549140E-02 0.12500233E+03</pdfrwt>
<pdfrwt beam="1">  1       -4 0.36188719E-01 0.12500233E+03</pdfrwt>
<totfact> 0.82061679E+03</totfact>
</mgrwt>
</event>
<event>
 5    1  0.3309219E-002  0.1250000E+03  0.7818608E-02  0.1235069E+00
          4   -1    0    0  501    0  0.00000000000E+00  0.00000000000E+00  0.13999675213E+02  0.14057162092E+02  0.12700000000E+01 0. -1.
         -4   -1    0    0    0  501 -0.00000000000E+00 -0.00000000000E+00 -0.27839379292E+03  0.27839668970E+03  0.12700000000E+01 0. -1.
         25    2    1    2    0    0  0.00000000000E+00  0.00000000000E+00 -0.26439411771E+03  0.29245385179E+03  0.12500002380E+03 0.  0.
    9000005    1    3    3    0    0 -0.62039817677E+02  0.40973247667E+01 -0.14690595605E+03  0.15952456542E+03  0.10000000000E+01 0.  0.
    9000005    1    3    3    0    0  0.62039817677E+02 -0.40973247667E+01 -0.11748816165E+03  0.13292928638E+03  0.10000000000E+01 0.  0.
<mgrwt>
<rscale>  0 0.12500002E+03</rscale>
<asrwt>0</asrwt>
<pdfrwt beam="1">  1        4 0.21584413E-02 0.12500002E+03</pdfrwt>
<pdfrwt beam="2">  1       -4 0.42834455E-01 0.12500002E+03</pdfrwt>
<totfact> 0.76555231E+03</totfact>
</mgrwt>
</event>
<event>
 5    1  0.3309219E-002  0.1249998E+03  0.7818608E-02  0.1235070E+00
         -4   -1    0    0    0  501 -0.00000000000E+00  0.00000000000E+00  0.25553159334E+02  0.25584699567E+02  0.12700000000E+01 0. -1.
          4   -1    0    0  501    0  0.00000000000E+00 -0.00000000000E+00 -0.15273864990E+03  0.15274392974E+03  0.12700000000E+01 0. -1.
         25    2    1    2    0    0  0.00000000000E+00  0.00000000000E+00 -0.12718549057E+03  0.17832862931E+03  0.12499980408E+03 0.  0.
    9000005    1    3    3    0    0  0.30859714868E+02  0.50365236111E+02 -0.92699475756E+02  0.10992348164E+03  0.10000000000E+01 0.  0.
    9000005    1    3    3    0    0 -0.30859714868E+02 -0.50365236111E+02 -0.34486014809E+02  0.68405147669E+02  0.10000000000E+01 0.  0.
<mgrwt>
<rscale>  0 0.12499980E+03</rscale>
<asrwt>0</asrwt>
<pdfrwt beam="2">  1        4 0.23501086E-01 0.12499980E+03</pdfrwt>
<pdfrwt beam="1">  1       -4 0.39340877E-02 0.12499980E+03</pdfrwt>
<totfact> 0.93919136E+03</totfact>
</mgrwt>
</event>
<event>
 5    1  0.3309219E-002  0.1250080E+03  0.7818608E-02  0.1235057E+00
          4   -1    0    0  501    0  0.00000000000E+00  0.00000000000E+00  0.40176444748E+03  0.40176645475E+03  0.12700000000E+01 0. -1.
         -4   -1    0    0    0  501 -0.00000000000E+00 -0.00000000000E+00 -0.96804727796E+01  0.97634242577E+01  0.12700000000E+01 0. -1.
         25    2    1    2    0    0  0.00000000000E+00  0.00000000000E+00  0.39208397470E+03  0.41152987900E+03  0.12500799213E+03 0.  0.
    9000005    1    3    3    0    0 -0.18543898960E+02 -0.55148155213E+02  0.12093218537E+03  0.13420427963E+03  0.10000000000E+01 0.  0.
    9000005    1    3    3    0    0  0.18543898960E+02  0.55148155213E+02  0.27115178933E+03  0.27732559937E+03  0.10000000000E+01 0.  0.
<mgrwt>
<rscale>  0 0.12500799E+03</rscale>
<asrwt>0</asrwt>
<pdfrwt beam="1">  1        4 0.61816452E-01 0.12500799E+03</pdfrwt>
<pdfrwt beam="2">  1       -4 0.14958387E-02 0.12500799E+03</pdfrwt>
<totfact> 0.63435454E+03</totfact>
</mgrwt>
</event>
<event>
 5    1  0.3309219E-002  0.1249999E+03  0.7818608E-02  0.1235069E+00
         -4   -1    0    0    0  501 -0.00000000000E+00  0.00000000000E+00  0.40460887546E+02  0.40480814233E+02  0.12700000000E+01 0. -1.
          4   -1    0    0  501    0  0.00000000000E+00 -0.00000000000E+00 -0.96495893336E+02  0.96504250325E+02  0.12700000000E+01 0. -1.
         25    2    1    2    0    0  0.00000000000E+00  0.00000000000E+00 -0.56035005790E+02  0.13698506456E+03  0.12499994415E+03 0.  0.
    9000005    1    3    3    0    0 -0.34194797924E+02  0.42605044439E+02  0.52361659901E+01  0.54889811905E+02  0.10000000000E+01 0.  0.
    9000005    1    3    3    0    0  0.34194797924E+02 -0.42605044439E+02 -0.61271171781E+02  0.82095252652E+02  0.10000000000E+01 0.  0.
<mgrwt>
<rscale>  0 0.12499994E+03</rscale>
<asrwt>0</asrwt>
<pdfrwt beam="2">  1        4 0.14847698E-01 0.12499994E+03</pdfrwt>
<pdfrwt beam="1">  1       -4 0.62269276E-02 0.12499994E+03</pdfrwt>
<totfact> 0.10196411E+04</totfact>
</mgrwt>
</event>
<event>
 5    1  0.3309219E-002  0.1250028E+03  0.7818608E-02  0.1235065E+00
          4   -1    0    0  501    0  0.00000000000E+00  0.00000000000E+00  0.62505202311E+02  0.62518103106E+02  0.12700000000E+01 0. -1.
         -4   -1    0    0    0  501 -0.00000000000E+00 -0.00000000000E+00 -0.62471762221E+02  0.62484669920E+02  0.12700000000E+01 0. -1.
         25    2    1    2    0    0  0.00000000000E+00  0.00000000000E+00  0.33440090310E-01  0.12500277303E+03  0.12500276855E+03 0.  0.
    9000005    1    3    3    0    0 -0.55745483264E+02 -0.28166276698E+02 -0.21104821981E+01  0.62500817455E+02  0.10000000000E+01 0.  0.
    9000005    1    3    3    0    0  0.55745483264E+02  0.28166276698E+02  0.21439222884E+01  0.62501955571E+02  0.10000000000E+01 0.  0.
<mgrwt>
<rscale>  0 0.12500277E+03</rscale>
<asrwt>0</asrwt>
<pdfrwt beam="1">  1        4 0.96181703E-02 0.12500277E+03</pdfrwt>
<pdfrwt beam="2">  1       -4 0.96130256E-02 0.12500277E+03</pdfrwt>
<totfact> 0.10452148E+04</totfact>
</mgrwt>
</event>
<event>
 5    1  0.3309219E-002  0.1250024E+03  0.7818608E-02  0.1235066E+00
          4   -1    0    0  501    0  0.00000000000E+00  0.00000000000E+00  0.23021900467E+02  0.23056903545E+02  0.12700000000E+01 0. -1.
         -4   -1    0    0    0  501 -0.00000000000E+00 -0.00000000000E+00 -0.16951567212E+03  0.16952042943E+03  0.12700000000E+01 0. -1.
         25    2    1    2    0    0  0.00000000000E+00  0.00000000000E+00 -0.14649377165E+03  0.19257733297E+03  0.12500241615E+03 0.  0.
    9000005    1    3    3    0    0 -0.56367165454E+01 -0.62223732760E+02 -0.75334095873E+02  0.97876409277E+02  0.10000000000E+01 0.  0.
    9000005    1    3    3    0    0  0.56367165454E+01  0.62223732760E+02 -0.71159675777E+02  0.94700923695E+02  0.10000000000E+01 0.  0.
<mgrwt>
<rscale>  0 0.12500242E+03</rscale>
<asrwt>0</asrwt>
<pdfrwt beam="1">  1        4 0.35448894E-02 0.12500242E+03</pdfrwt>
<pdfrwt beam="2">  1       -4 0.26082392E-01 0.12500242E+03</pdfrwt>
<totfact> 0.91395846E+03</totfact>
</mgrwt>
</event>
<event>
 5    1  0.3309219E-002  0.1250086E+03  0.7818608E-02  0.1235056E+00
         -4   -1    0    0    0  501 -0.00000000000E+00  0.00000000000E+00  0.13858273212E+04  0.13858279031E+04  0.12700000000E+01 0.  1.
          4   -1    0    0  501    0  0.00000000000E+00 -0.00000000000E+00 -0.26754578620E+01  0.29615831528E+01  0.12700000000E+01 0.  1.
         25    2    1    2    0    0  0.00000000000E+00  0.00000000000E+00  0.13831518633E+04  0.13887894863E+04  0.12500864028E+03 0.  0.
    9000005    1    3    3    0    0  0.53589472921E+02 -0.24962635521E+02  0.46639845092E+03  0.47013134314E+03  0.10000000000E+01 0.  0.
    9000005    1    3    3    0    0 -0.53589472921E+02  0.24962635521E+02  0.91675341240E+03  0.91865814312E+03  0.10000000000E+01 0.  0.
<mgrwt>
<rscale>  0 0.12500864E+03</rscale>
<asrwt>0</asrwt>
<pdfrwt beam="2">  1        4 0.43366371E-03 0.12500864E+03</pdfrwt>
<pdfrwt beam="1">  1       -4 0.21322606E+00 0.12500864E+03</pdfrwt>
<totfact> 0.20218993E+03</totfact>
</mgrwt>
</event>
<event>
 5    1  0.3309219E-002  0.1250049E+03  0.7818608E-02  0.1235062E+00
         -4   -1    0    0    0  501 -0.00000000000E+00  0.00000000000E+00  0.74590803185E+02  0.74601614056E+02  0.12700000000E+01 0. -1.
          4   -1    0    0  501    0  0.00000000000E+00 -0.00000000000E+00 -0.52350870919E+02  0.52366273363E+02  0.12700000000E+01 0. -1.
         25    2    1    2    0    0  0.00000000000E+00  0.00000000000E+00  0.22239932266E+02  0.12696788742E+03  0.12500491930E+03 0.  0.
    9000005    1    3    3    0    0 -0.22254302445E+02  0.43392502282E+02  0.50815565373E+02  0.70437099002E+02  0.10000000000E+01 0.  0.
    9000005    1    3    3    0    0  0.22254302445E+02 -0.43392502282E+02 -0.28575633107E+02  0.56530788417E+02  0.10000000000E+01 0.  0.
<mgrwt>
<rscale>  0 0.12500492E+03</rscale>
<asrwt>0</asrwt>
<pdfrwt beam="2">  1        4 0.80559966E-02 0.12500492E+03</pdfrwt>
<pdfrwt beam="1">  1       -4 0.11477525E-01 0.12500492E+03</pdfrwt>
<totfact> 0.10408688E+04</totfact>
</mgrwt>
</event>
<event>
 5    1  0.3309219E-002  0.1249971E+03  0.7818608E-02  0.1235074E+00
         -4   -1    0    0    0  501 -0.00000000000E+00  0.00000000000E+00  0.25533335131E+02  0.25564899822E+02  0.12700000000E+01 0.  1.
          4   -1    0    0  501    0  0.00000000000E+00 -0.00000000000E+00 -0.15285045759E+03  0.15285573357E+03  0.12700000000E+01 0.  1.
         25    2    1    2    0    0  0.00000000000E+00  0.00000000000E+00 -0.12731712246E+03  0.17842063339E+03  0.12499709096E+03 0.  0.
    9000005    1    3    3    0    0  0.51196753405E+02  0.22842314315E+02 -0.10306585361E+03  0.11733051207E+03  0.10000000000E+01 0.  0.
    9000005    1    3    3    0    0 -0.51196753405E+02 -0.22842314315E+02 -0.24251268849E+02  0.61090121323E+02  0.10000000000E+01 0.  0.
<mgrwt>
<rscale>  0 0.12499709E+03</rscale>
<asrwt>0</asrwt>
<pdfrwt beam="2">  1        4 0.23518288E-01 0.12499709E+03</pdfrwt>
<pdfrwt beam="1">  1       -4 0.39310394E-02 0.12499709E+03</pdfrwt>
<totfact> 0.93908196E+03</totfact>
</mgrwt>
</event>
<event>
 4    1  0.3309219E-002  0.1332482E+03  0.7818608E-02  0.1222714E+00
          4   -1    0    0  501    0  0.00000000000E+00  0.00000000000E+00  0.14422692254E+03  0.14423251397E+03  0.12700000000E+01 0.  1.
         -4   -1    0    0    0  501 -0.00000000000E+00 -0.00000000000E+00 -0.30756989978E+02  0.30783198867E+02  0.12700000000E+01 0.  1.
    9000005    1    1    2    0    0 -0.24241137650E+02  0.44831612726E+02  0.11308000200E+03  0.12403867585E+03  0.10000000000E+01 0.  0.
    9000005    1    1    2    0    0  0.24241137650E+02 -0.44831612726E+02  0.38993056448E+00  0.50977036988E+02  0.10000000000E+01 0.  0.
<mgrwt>
<rscale>  0 0.13324817E+03</rscale>
<asrwt>0</asrwt>
<pdfrwt beam="1">  1        4 0.22191204E-01 0.13324817E+03</pdfrwt>
<pdfrwt beam="2">  1       -4 0.47342907E-02 0.13324817E+03</pdfrwt>
<totfact> 0.78954700E+03</totfact>
</mgrwt>
</event>
<event>
 5    1  0.3309219E-002  0.1249977E+03  0.7818608E-02  0.1235073E+00
          4   -1    0    0  501    0  0.00000000000E+00  0.00000000000E+00  0.26442002157E+03  0.26442307143E+03  0.12700000000E+01 0.  1.
         -4   -1    0    0    0  501 -0.00000000000E+00 -0.00000000000E+00 -0.14741915500E+02  0.14796518936E+02  0.12700000000E+01 0.  1.
         25    2    1    2    0    0  0.00000000000E+00  0.00000000000E+00  0.24967810607E+03  0.27921959037E+03  0.12499769196E+03 0.  0.
    9000005    1    3    3    0    0  0.31860863691E+02 -0.42920792049E+02  0.52531708959E+02  0.74952581486E+02  0.10000000000E+01 0.  0.
    9000005    1    3    3    0    0 -0.31860863691E+02  0.42920792049E+02  0.19714639711E+03  0.20426700888E+03  0.10000000000E+01 0.  0.
<mgrwt>
<rscale>  0 0.12499769E+03</rscale>
<asrwt>0</asrwt>
<pdfrwt beam="1">  1        4 0.40684439E-01 0.12499769E+03</pdfrwt>
<pdfrwt beam="2">  1       -4 0.22724218E-02 0.12499769E+03</pdfrwt>
<totfact> 0.78285710E+03</totfact>
</mgrwt>
</event>
<event>
 5    1  0.3309219E-002  0.1249983E+03  0.7818608E-02  0.1235072E+00
         -4   -1    0    0    0  501 -0.00000000000E+00  0.00000000000E+00  0.51721813962E+02  0.51737403680E+02  0.12700000000E+01 0. -1.
          4   -1    0    0  501    0  0.00000000000E+00 -0.00000000000E+00 -0.75489887512E+02  0.75500569645E+02  0.12700000000E+01 0. -1.
         25    2    1    2    0    0  0.00000000000E+00  0.00000000000E+00 -0.23768073550E+02  0.12723797332E+03  0.12499832213E+03 0.  0.
    9000005    1    3    3    0    0  0.16276669925E+02 -0.49434231620E+02  0.23325783649E+02  0.57041786636E+02  0.10000000000E+01 0.  0.
    9000005    1    3    3    0    0 -0.16276669925E+02  0.49434231620E+02 -0.47093857199E+02  0.70196186689E+02  0.10000000000E+01 0.  0.
<mgrwt>
<rscale>  0 0.12499832E+03</rscale>
<asrwt>0</asrwt>
<pdfrwt beam="2">  1        4 0.11615850E-01 0.12499832E+03</pdfrwt>
<pdfrwt beam="1">  1       -4 0.79592230E-02 0.12499832E+03</pdfrwt>
<totfact> 0.10404374E+04</totfact>
</mgrwt>
</event>
<event>
 5    1  0.3309219E-002  0.1250003E+03  0.7818608E-02  0.1235069E+00
         -4   -1    0    0    0  501 -0.00000000000E+00  0.00000000000E+00  0.81854848033E+01  0.82834208793E+01  0.12700000000E+01 0. -1.
          4   -1    0    0  501    0  0.00000000000E+00 -0.00000000000E+00 -0.47428207991E+03  0.47428378027E+03  0.12700000000E+01 0. -1.
         25    2    1    2    0    0  0.00000000000E+00  0.00000000000E+00 -0.46609659511E+03  0.48256720114E+03  0.12500027061E+03 0.  0.
    9000005    1    3    3    0    0  0.37073974564E+02  0.23053279559E+02 -0.40566764976E+03  0.40801124414E+03  0.10000000000E+01 0.  0.
    9000005    1    3    3    0    0 -0.37073974564E+02 -0.23053279559E+02 -0.60428945351E+02  0.74555957003E+02  0.10000000000E+01 0.  0.
<mgrwt>
<rscale>  0 0.12500027E+03</rscale>
<asrwt>0</asrwt>
<pdfrwt beam="2">  1        4 0.72974117E-01 0.12500027E+03</pdfrwt>
<pdfrwt beam="1">  1       -4 0.12669701E-02 0.12500027E+03</pdfrwt>
<totfact> 0.57242437E+03</totfact>
</mgrwt>
</event>
<event>
 5    1  0.3309219E-002  0.1250016E+03  0.7818608E-02  0.1235067E+00
          4   -1    0    0  501    0  0.00000000000E+00  0.00000000000E+00  0.26895949577E+03  0.26896249416E+03  0.12700000000E+01 0.  1.
         -4   -1    0    0    0  501 -0.00000000000E+00 -0.00000000000E+00 -0.14493086156E+02  0.14548623520E+02  0.12700000000E+01 0.  1.
         25    2    1    2    0    0  0.00000000000E+00  0.00000000000E+00  0.25446640962E+03  0.28351111768E+03  0.12500160090E+03 0.  0.
    9000005    1    3    3    0    0  0.12574568711E+02  0.39018791398E+02  0.20254702773E+02  0.45736624764E+02  0.10000000000E+01 0.  0.
    9000005    1    3    3    0    0 -0.12574568711E+02 -0.39018791398E+02  0.23421170684E+03  0.23777449292E+03  0.10000000000E+01 0.  0.
<mgrwt>
<rscale>  0 0.12500160E+03</rscale>
<asrwt>0</asrwt>
<pdfrwt beam="1">  1        4 0.41382888E-01 0.12500160E+03</pdfrwt>
<pdfrwt beam="2">  1       -4 0.22342083E-02 0.12500160E+03</pdfrwt>
<totfact> 0.77712081E+03</totfact>
</mgrwt>
</event>
<event>
 5    1  0.3309219E-002  0.1250013E+03  0.7818608E-02  0.1235067E+00
          4   -1    0    0  501    0  0.00000000000E+00  0.00000000000E+00  0.92556296925E+03  0.92556384055E+03  0.12700000000E+01 0. -1.
         -4   -1    0    0    0  501 -0.00000000000E+00 -0.00000000000E+00 -0.41240590573E+01  0.43151782244E+01  0.12700000000E+01 0. -1.
         25    2    1    2    0    0  0.00000000000E+00  0.00000000000E+00  0.92143891019E+03  0.92987901878E+03  0.12500129741E+03 0.  0.
    9000005    1    3    3    0    0 -0.56300797508E+00  0.33417726866E+02  0.85352654067E+03  0.85418125540E+03  0.10000000000E+01 0.  0.
    9000005    1    3    3    0    0  0.56300797508E+00 -0.33417726866E+02  0.67912369517E+02  0.75697763377E+02  0.10000000000E+01 0.  0.
<mgrwt>
<rscale>  0 0.12500130E+03</rscale>
<asrwt>0</asrwt>
<pdfrwt beam="1">  1        4 0.14240912E+00 0.12500130E+03</pdfrwt>
<pdfrwt beam="2">  1       -4 0.64923891E-03 0.12500130E+03</pdfrwt>
<totfact> 0.33040342E+03</totfact>
</mgrwt>
</event>
<event>
 5    1  0.3309219E-002  0.1250007E+03  0.7818608E-02  0.1235068E+00
         -4   -1    0    0    0  501 -0.00000000000E+00  0.00000000000E+00  0.59156788794E+01  0.60504674699E+01  0.12700000000E+01 0.  1.
          4   -1    0    0  501    0  0.00000000000E+00 -0.00000000000E+00 -0.65275557901E+03  0.65275681447E+03  0.12700000000E+01 0.  1.
         25    2    1    2    0    0  0.00000000000E+00  0.00000000000E+00 -0.64683990013E+03  0.65880728194E+03  0.12500071331E+03 0.  0.
    9000005    1    3    3    0    0 -0.39187196692E+01 -0.29033256925E+02 -0.32493832152E+02  0.43762261132E+02  0.10000000000E+01 0.  0.
    9000005    1    3    3    0    0  0.39187196692E+01  0.29033256925E+02 -0.61434606798E+03  0.61504502081E+03  0.10000000000E+01 0.  0.
<mgrwt>
<rscale>  0 0.12500071E+03</rscale>
<asrwt>0</asrwt>
<pdfrwt beam="2">  1        4 0.10043434E+00 0.12500071E+03</pdfrwt>
<pdfrwt beam="1">  1       -4 0.92056835E-03 0.12500071E+03</pdfrwt>
<totfact> 0.45351340E+03</totfact>
</mgrwt>
</event>
<event>
 5    1  0.3309219E-002  0.1249957E+03  0.7818608E-02  0.1235076E+00
          4   -1    0    0  501    0  0.00000000000E+00  0.00000000000E+00  0.31708178020E+03  0.31708432354E+03  0.12700000000E+01 0.  1.
         -4   -1    0    0    0  501 -0.00000000000E+00 -0.00000000000E+00 -0.12283196205E+02  0.12348676407E+02  0.12700000000E+01 0.  1.
         25    2    1    2    0    0  0.00000000000E+00  0.00000000000E+00  0.30479858400E+03  0.32943299995E+03  0.12499569852E+03 0.  0.
    9000005    1    3    3    0    0 -0.55948238875E+02 -0.24379018938E+02  0.11699650622E+03  0.13196107178E+03  0.10000000000E+01 0.  0.
    9000005    1    3    3    0    0  0.55948238875E+02  0.24379018938E+02  0.18780207778E+03  0.19747192817E+03  0.10000000000E+01 0.  0.
<mgrwt>
<rscale>  0 0.12499570E+03</rscale>
<asrwt>0</asrwt>
<pdfrwt beam="1">  1        4 0.48787043E-01 0.12499570E+03</pdfrwt>
<pdfrwt beam="2">  1       -4 0.18949552E-02 0.12499570E+03</pdfrwt>
<totfact> 0.72054932E+03</totfact>
</mgrwt>
</event>
<event>
 5    1  0.3309219E-002  0.1249954E+03  0.7818608E-02  0.1235076E+00
          4   -1    0    0  501    0  0.00000000000E+00  0.00000000000E+00  0.82423638067E+01  0.83396319537E+01  0.12700000000E+01 0.  1.
         -4   -1    0    0    0  501 -0.00000000000E+00 -0.00000000000E+00 -0.47101065371E+03  0.47101236588E+03  0.12700000000E+01 0.  1.
         25    2    1    2    0    0  0.00000000000E+00  0.00000000000E+00 -0.46276828990E+03  0.47935199783E+03  0.12499539065E+03 0.  0.
    9000005    1    3    3    0    0 -0.49065280326E+02  0.26995843748E+02 -0.12505241410E+03  0.13702293087E+03  0.10000000000E+01 0.  0.
    9000005    1    3    3    0    0  0.49065280326E+02 -0.26995843748E+02 -0.33771587581E+03  0.34232906696E+03  0.10000000000E+01 0.  0.
<mgrwt>
<rscale>  0 0.12499539E+03</rscale>
<asrwt>0</asrwt>
<pdfrwt beam="1">  1        4 0.12756702E-02 0.12499539E+03</pdfrwt>
<pdfrwt beam="2">  1       -4 0.72470770E-01 0.12499539E+03</pdfrwt>
<totfact> 0.57508600E+03</totfact>
</mgrwt>
</event>
<event>
 4    1  0.3309219E-002  0.1249388E+03  0.7818608E-02  0.1235165E+00
          4   -1    0    0  501    0  0.00000000000E+00  0.00000000000E+00  0.56813804562E+01  0.58215963351E+01  0.12700000000E+01 0. -1.
         -4   -1    0    0    0  501 -0.00000000000E+00 -0.00000000000E+00 -0.67836668532E+03  0.67836787413E+03  0.12700000000E+01 0. -1.
    9000005    1    1    2    0    0  0.58333224067E+02 -0.13129684975E+02 -0.23742577001E+03  0.24484107074E+03  0.10000000000E+01 0.  0.
    9000005    1    1    2    0    0 -0.58333224067E+02  0.13129684975E+02 -0.43525953486E+03  0.43934839973E+03  0.10000000000E+01 0.  0.
<mgrwt>
<rscale>  0 0.12493883E+03</rscale>
<asrwt>0</asrwt>
<pdfrwt beam="1">  1        4 0.88493635E-03 0.12493883E+03</pdfrwt>
<pdfrwt beam="2">  1       -4 0.10437492E+00 0.12493883E+03</pdfrwt>
<totfact> 0.43993441E+03</totfact>
</mgrwt>
</event>
<event>
 5    1  0.3309219E-002  0.1249999E+03  0.7818608E-02  0.1235069E+00
          4   -1    0    0  501    0  0.00000000000E+00  0.00000000000E+00  0.29196484955E+02  0.29224093378E+02  0.12700000000E+01 0. -1.
         -4   -1    0    0    0  501 -0.00000000000E+00 -0.00000000000E+00 -0.13369779277E+03  0.13370382452E+03  0.12700000000E+01 0. -1.
         25    2    1    2    0    0  0.00000000000E+00  0.00000000000E+00 -0.10450130782E+03  0.16292791790E+03  0.12499993238E+03 0.  0.
    9000005    1    3    3    0    0 -0.37030791888E+02  0.50285886502E+02 -0.49251122886E+02  0.79540071880E+02  0.10000000000E+01 0.  0.
    9000005    1    3    3    0    0  0.37030791888E+02 -0.50285886502E+02 -0.55250184930E+02  0.83387846021E+02  0.10000000000E+01 0.  0.
<mgrwt>
<rscale>  0 0.12499993E+03</rscale>
<asrwt>0</asrwt>
<pdfrwt beam="1">  1        4 0.44943547E-02 0.12499993E+03</pdfrwt>
<pdfrwt beam="2">  1       -4 0.20571479E-01 0.12499993E+03</pdfrwt>
<totfact> 0.96781404E+03</totfact>
</mgrwt>
</event>
<event>
 5    1  0.3309219E-002  0.1250054E+03  0.7818608E-02  0.1235061E+00
          4   -1    0    0  501    0  0.00000000000E+00  0.00000000000E+00  0.47577372339E+03  0.47577541842E+03  0.12700000000E+01 0. -1.
         -4   -1    0    0    0  501 -0.00000000000E+00 -0.00000000000E+00 -0.81601910292E+01  0.82584270677E+01  0.12700000000E+01 0. -1.
         25    2    1    2    0    0  0.00000000000E+00  0.00000000000E+00  0.46761353236E+03  0.48403384548E+03  0.12500539159E+03 0.  0.
    9000005    1    3    3    0    0  0.54818311835E+02 -0.14680438883E+02  0.13246230908E+03  0.14411046431E+03  0.10000000000E+01 0.  0.
    9000005    1    3    3    0    0 -0.54818311835E+02  0.14680438883E+02  0.33515122328E+03  0.33992338117E+03  0.10000000000E+01 0.  0.
<mgrwt>
<rscale>  0 0.12500539E+03</rscale>
<asrwt>0</asrwt>
<pdfrwt beam="1">  1        4 0.73203681E-01 0.12500539E+03</pdfrwt>
<pdfrwt beam="2">  1       -4 0.12631004E-02 0.12500539E+03</pdfrwt>
<totfact> 0.57117982E+03</totfact>
</mgrwt>
</event>
<event>
 5    1  0.3309219E-002  0.1250023E+03  0.7818608E-02  0.1235066E+00
         -4   -1    0    0    0  501 -0.00000000000E+00  0.00000000000E+00  0.14528952524E+03  0.14529507577E+03  0.12700000000E+01 0. -1.
          4   -1    0    0  501    0  0.00000000000E+00 -0.00000000000E+00 -0.26865908299E+02  0.26895909145E+02  0.12700000000E+01 0. -1.
         25    2    1    2    0    0  0.00000000000E+00  0.00000000000E+00  0.11842361694E+03  0.17219098492E+03  0.12500232893E+03 0.  0.
    9000005    1    3    3    0    0  0.51219140536E+00 -0.48419551431E+02  0.11363064773E+03  0.12352181752E+03  0.10000000000E+01 0.  0.
    9000005    1    3    3    0    0 -0.51219140536E+00  0.48419551431E+02  0.47929692059E+01  0.48669167392E+02  0.10000000000E+01 0.  0.
<mgrwt>
<rscale>  0 0.12500233E+03</rscale>
<asrwt>0</asrwt>
<pdfrwt beam="2">  1        4 0.41359513E-02 0.12500233E+03</pdfrwt>
<pdfrwt beam="1">  1       -4 0.22354970E-01 0.12500233E+03</pdfrwt>
<totfact> 0.95036870E+03</totfact>
</mgrwt>
</event>
<event>
 5    1  0.3309219E-002  0.1250007E+03  0.7818608E-02  0.1235068E+00
          4   -1    0    0  501    0  0.00000000000E+00  0.00000000000E+00  0.23007164270E+02  0.23042189734E+02  0.12700000000E+01 0. -1.
         -4   -1    0    0    0  501 -0.00000000000E+00 -0.00000000000E+00 -0.16961953572E+03  0.16962429012E+03  0.12700000000E+01 0. -1.
         25    2    1    2    0    0  0.00000000000E+00  0.00000000000E+00 -0.14661237145E+03  0.19266647985E+03  0.12500073998E+03 0.  0.
    9000005    1    3    3    0    0  0.48835191951E+02 -0.23083616979E+02 -0.24869229749E+02  0.59474430926E+02  0.10000000000E+01 0.  0.
    9000005    1    3    3    0    0 -0.48835191951E+02  0.23083616979E+02 -0.12174314170E+03  0.13319204892E+03  0.10000000000E+01 0.  0.
<mgrwt>
<rscale>  0 0.12500074E+03</rscale>
<asrwt>0</asrwt>
<pdfrwt beam="1">  1        4 0.35426238E-02 0.12500074E+03</pdfrwt>
<pdfrwt beam="2">  1       -4 0.26098372E-01 0.12500074E+03</pdfrwt>
<totfact> 0.91383901E+03</totfact>
</mgrwt>
</event>
<event>
 5    1  0.3309219E-002  0.1249894E+03  0.7818608E-02  0.1235086E+00
          4   -1    0    0  501    0  0.00000000000E+00  0.00000000000E+00  0.81597724712E+02  0.81607607355E+02  0.12700000000E+01 0. -1.
         -4   -1    0    0    0  501 -0.00000000000E+00 -0.00000000000E+00 -0.47842687886E+02  0.47859541203E+02  0.12700000000E+01 0. -1.
         25    2    1    2    0    0  0.00000000000E+00  0.00000000000E+00  0.33755036826E+02  0.12946714856E+03  0.12498935973E+03 0.  0.
    9000005    1    3    3    0    0  0.13707161484E+02 -0.19538799559E+02 -0.42940244136E+02  0.49137720039E+02  0.10000000000E+01 0.  0.
    9000005    1    3    3    0    0 -0.13707161484E+02  0.19538799559E+02  0.76695280962E+02  0.80329428518E+02  0.10000000000E+01 0.  0.
<mgrwt>
<rscale>  0 0.12498936E+03</rscale>
<asrwt>0</asrwt>
<pdfrwt beam="1">  1        4 0.12555553E-01 0.12498936E+03</pdfrwt>
<pdfrwt beam="2">  1       -4 0.73624702E-02 0.12498936E+03</pdfrwt>
<totfact> 0.10358407E+04</totfact>
</mgrwt>
</event>
<event>
 5    1  0.3309219E-002  0.1250001E+03  0.7818608E-02  0.1235069E+00
          4   -1    0    0  501    0  0.00000000000E+00  0.00000000000E+00  0.13302710858E+03  0.13303317074E+03  0.12700000000E+01 0. -1.
         -4   -1    0    0    0  501 -0.00000000000E+00 -0.00000000000E+00 -0.29343911860E+02  0.29371381705E+02  0.12700000000E+01 0. -1.
         25    2    1    2    0    0  0.00000000000E+00  0.00000000000E+00  0.10368319672E+03  0.16240455244E+03  0.12500013349E+03 0.  0.
    9000005    1    3    3    0    0  0.13254922893E+02  0.29879407734E+02 -0.17357595781E+02  0.37023750738E+02  0.10000000000E+01 0.  0.
    9000005    1    3    3    0    0 -0.13254922893E+02 -0.29879407734E+02  0.12104079250E+03  0.12538080170E+03  0.10000000000E+01 0.  0.
<mgrwt>
<rscale>  0 0.12500013E+03</rscale>
<asrwt>0</asrwt>
<pdfrwt beam="1">  1        4 0.20468288E-01 0.12500013E+03</pdfrwt>
<pdfrwt beam="2">  1       -4 0.45170274E-02 0.12500013E+03</pdfrwt>
<totfact> 0.96880908E+03</totfact>
</mgrwt>
</event>
<event>
 5    1  0.3309219E-002  0.1250008E+03  0.7818608E-02  0.1235068E+00
         -4   -1    0    0    0  501 -0.00000000000E+00  0.00000000000E+00  0.14976109814E+02  0.15029862446E+02  0.12700000000E+01 0.  1.
          4   -1    0    0  501    0  0.00000000000E+00 -0.00000000000E+00 -0.26031278915E+03  0.26031588714E+03  0.12700000000E+01 0.  1.
         25    2    1    2    0    0  0.00000000000E+00  0.00000000000E+00 -0.24533667934E+03  0.27534574959E+03  0.12500078234E+03 0.  0.
    9000005    1    3    3    0    0  0.40195329158E+02  0.32210335507E+02 -0.44723004268E+02  0.68222557196E+02  0.10000000000E+01 0.  0.
    9000005    1    3    3    0    0 -0.40195329158E+02 -0.32210335507E+02 -0.20061367507E+03  0.20712319239E+03  0.10000000000E+01 0.  0.
<mgrwt>
<rscale>  0 0.12500078E+03</rscale>
<asrwt>0</asrwt>
<pdfrwt beam="2">  1        4 0.40052491E-01 0.12500078E+03</pdfrwt>
<pdfrwt beam="1">  1       -4 0.23083902E-02 0.12500078E+03</pdfrwt>
<totfact> 0.78797930E+03</totfact>
</mgrwt>
</event>
<event>
 5    1  0.3309219E-002  0.1249982E+03  0.7818608E-02  0.1235072E+00
         -4   -1    0    0    0  501 -0.00000000000E+00  0.00000000000E+00  0.96653690980E+02  0.96662034326E+02  0.12700000000E+01 0.  1.
          4   -1    0    0  501    0  0.00000000000E+00 -0.00000000000E+00 -0.40393703146E+02  0.40413662960E+02  0.12700000000E+01 0.  1.
         25    2    1    2    0    0  0.00000000000E+00  0.00000000000E+00  0.56259987835E+02  0.13707569729E+03  0.12499824221E+03 0.  0.
    9000005    1    3    3    0    0  0.17958497611E+02  0.15797720108E+02  0.91440884064E+02  0.94522541627E+02  0.10000000000E+01 0.  0.
    9000005    1    3    3    0    0 -0.17958497611E+02 -0.15797720108E+02 -0.35180896230E+02  0.42553155660E+02  0.10000000000E+01 0.  0.
<mgrwt>
<rscale>  0 0.12499824E+03</rscale>
<asrwt>0</asrwt>
<pdfrwt beam="2">  1        4 0.62165930E-02 0.12499824E+03</pdfrwt>
<pdfrwt beam="1">  1       -4 0.14871976E-01 0.12499824E+03</pdfrwt>
<totfact> 0.10194907E+04</totfact>
</mgrwt>
</event>
<event>
 5    1  0.3309219E-002  0.1249993E+03  0.7818608E-02  0.1235070E+00
          4   -1    0    0  501    0  0.00000000000E+00  0.00000000000E+00  0.44444520025E+03  0.44444701476E+03  0.12700000000E+01 0. -1.
         -4   -1    0    0    0  501 -0.00000000000E+00 -0.00000000000E+00 -0.87412281365E+01  0.88330045474E+01  0.12700000000E+01 0. -1.
         25    2    1    2    0    0  0.00000000000E+00  0.00000000000E+00  0.43570397211E+03  0.45328001930E+03  0.12499929833E+03 0.  0.
    9000005    1    3    3    0    0 -0.11413254032E+02 -0.59944114222E+02  0.16897852968E+03  0.17966163388E+03  0.10000000000E+01 0.  0.
    9000005    1    3    3    0    0  0.11413254032E+02  0.59944114222E+02  0.26672544244E+03  0.27361838542E+03  0.10000000000E+01 0.  0.
<mgrwt>
<rscale>  0 0.12499930E+03</rscale>
<asrwt>0</asrwt>
<pdfrwt beam="1">  1        4 0.68383359E-01 0.12499930E+03</pdfrwt>
<pdfrwt beam="2">  1       -4 0.13520041E-02 0.12499930E+03</pdfrwt>
<totfact> 0.59681630E+03</totfact>
</mgrwt>
</event>
<event>
 5    1  0.3309219E-002  0.1249526E+03  0.7818608E-02  0.1235143E+00
         -4   -1    0    0    0  501 -0.00000000000E+00  0.00000000000E+00  0.20701366355E+02  0.20740286135E+02  0.12700000000E+01 0.  1.
          4   -1    0    0  501    0  0.00000000000E+00 -0.00000000000E+00 -0.18833412174E+03  0.18833840371E+03  0.12700000000E+01 0.  1.
         25    2    1    2    0    0  0.00000000000E+00  0.00000000000E+00 -0.16763275539E+03  0.20907868984E+03  0.12495262250E+03 0.  0.
    9000005    1    3    3    0    0  0.22243081990E+02  0.50590311628E+01  0.13491366834E+02  0.26521038286E+02  0.10000000000E+01 0.  0.
    9000005    1    3    3    0    0 -0.22243081990E+02 -0.50590311628E+01 -0.18112412222E+03  0.18255765156E+03  0.10000000000E+01 0.  0.
<mgrwt>
<rscale>  0 0.12495262E+03</rscale>
<asrwt>0</asrwt>
<pdfrwt beam="2">  1        4 0.28977802E-01 0.12495262E+03</pdfrwt>
<pdfrwt beam="1">  1       -4 0.31881489E-02 0.12495262E+03</pdfrwt>
<totfact> 0.88720511E+03</totfact>
</mgrwt>
</event>
<event>
 5    1  0.3309219E-002  0.1250055E+03  0.7818608E-02  0.1235061E+00
          4   -1    0    0  501    0  0.00000000000E+00  0.00000000000E+00  0.23125795054E+03  0.23126143774E+03  0.12700000000E+01 0. -1.
         -4   -1    0    0    0  501 -0.00000000000E+00 -0.00000000000E+00 -0.16865317659E+02  0.16913067130E+02  0.12700000000E+01 0. -1.
         25    2    1    2    0    0  0.00000000000E+00  0.00000000000E+00  0.21439263288E+03  0.24817450487E+03  0.12500553522E+03 0.  0.
    9000005    1    3    3    0    0 -0.46386753184E+02  0.59356235213E+01  0.24892580011E+02  0.52986819466E+02  0.10000000000E+01 0.  0.
    9000005    1    3    3    0    0  0.46386753184E+02 -0.59356235213E+01  0.18950005287E+03  0.19518768541E+03  0.10000000000E+01 0.  0.
<mgrwt>
<rscale>  0 0.12500554E+03</rscale>
<asrwt>0</asrwt>
<pdfrwt beam="1">  1        4 0.35582087E-01 0.12500554E+03</pdfrwt>
<pdfrwt beam="2">  1       -4 0.25986056E-02 0.12500554E+03</pdfrwt>
<totfact> 0.82584601E+03</totfact>
</mgrwt>
</event>
<event>
 5    1  0.3309219E-002  0.1249947E+03  0.7818608E-02  0.1235078E+00
         -4   -1    0    0    0  501 -0.00000000000E+00  0.00000000000E+00  0.36408550366E+03  0.36408771865E+03  0.12700000000E+01 0.  1.
          4   -1    0    0  501    0  0.00000000000E+00 -0.00000000000E+00 -0.10688177901E+02  0.10763365962E+02  0.12700000000E+01 0.  1.
         25    2    1    2    0    0  0.00000000000E+00  0.00000000000E+00  0.35339732576E+03  0.37485108461E+03  0.12499466302E+03 0.  0.
    9000005    1    3    3    0    0  0.93611534787E+01 -0.27646878764E+02  0.10997290530E+02  0.31207715374E+02  0.10000000000E+01 0.  0.
    9000005    1    3    3    0    0 -0.93611534787E+01  0.27646878764E+02  0.34240003523E+03  0.34364336924E+03  0.10000000000E+01 0.  0.
<mgrwt>
<rscale>  0 0.12499466E+03</rscale>
<asrwt>0</asrwt>
<pdfrwt beam="2">  1        4 0.16502890E-02 0.12499466E+03</pdfrwt>
<pdfrwt beam="1">  1       -4 0.56019113E-01 0.12499466E+03</pdfrwt>
<totfact> 0.67082366E+03</totfact>
</mgrwt>
</event>
<event>
 5    1  0.3309219E-002  0.1249997E+03  0.7818608E-02  0.1235070E+00
         -4   -1    0    0    0  501 -0.00000000000E+00  0.00000000000E+00  0.27078136171E+03  0.27078433993E+03  0.12700000000E+01 0.  1.
          4   -1    0    0  501    0  0.00000000000E+00 -0.00000000000E+00 -0.14394771170E+02  0.14450686386E+02  0.12700000000E+01 0.  1.
         25    2    1    2    0    0  0.00000000000E+00  0.00000000000E+00  0.25638659054E+03  0.28523502631E+03  0.12499974571E+03 0.  0.
    9000005    1    3    3    0    0 -0.40728502590E+02 -0.39683166666E+02  0.18733196192E+03  0.19577494374E+03  0.10000000000E+01 0.  0.
    9000005    1    3    3    0    0  0.40728502590E+02  0.39683166666E+02  0.69054628619E+02  0.89460082571E+02  0.10000000000E+01 0.  0.
<mgrwt>
<rscale>  0 0.12499975E+03</rscale>
<asrwt>0</asrwt>
<pdfrwt beam="2">  1        4 0.22191104E-02 0.12499975E+03</pdfrwt>
<pdfrwt beam="1">  1       -4 0.41663203E-01 0.12499975E+03</pdfrwt>
<totfact> 0.77489495E+03</totfact>
</mgrwt>
</event>
<event>
 5    1  0.3309219E-002  0.1249891E+03  0.7818608E-02  0.1235086E+00
         -4   -1    0    0    0  501 -0.00000000000E+00  0.00000000000E+00  0.39863351608E+03  0.39863553911E+03  0.12700000000E+01 0.  1.
          4   -1    0    0  501    0  0.00000000000E+00 -0.00000000000E+00 -0.97541837122E+01  0.98365136045E+01  0.12700000000E+01 0.  1.
         25    2    1    2    0    0  0.00000000000E+00  0.00000000000E+00  0.38887933237E+03  0.40847205272E+03  0.12498913035E+03 0.  0.
    9000005    1    3    3    0    0  0.45399229719E+02  0.38698416843E+02  0.13365785480E+03  0.14636966787E+03  0.10000000000E+01 0.  0.
    9000005    1    3    3    0    0 -0.45399229719E+02 -0.38698416843E+02  0.25522147758E+03  0.26210238484E+03  0.10000000000E+01 0.  0.
<mgrwt>
<rscale>  0 0.12498913E+03</rscale>
<asrwt>0</asrwt>
<pdfrwt beam="2">  1        4 0.15071327E-02 0.12498913E+03</pdfrwt>
<pdfrwt beam="1">  1       -4 0.61334708E-01 0.12498913E+03</pdfrwt>
<totfact> 0.63752363E+03</totfact>
</mgrwt>
</event>
<event>
 5    1  0.3309219E-002  0.1249964E+03  0.7818608E-02  0.1235075E+00
         -4   -1    0    0    0  501 -0.00000000000E+00  0.00000000000E+00  0.70284003349E+02  0.70295476574E+02  0.12700000000E+01 0. -1.
          4   -1    0    0  501    0  0.00000000000E+00 -0.00000000000E+00 -0.55551594985E+02  0.55566110223E+02  0.12700000000E+01 0. -1.
         25    2    1    2    0    0  0.00000000000E+00  0.00000000000E+00  0.14732408364E+02  0.12586158680E+03  0.12499638065E+03 0.  0.
    9000005    1    3    3    0    0  0.92681586990E+01 -0.55965583701E+02 -0.19025493506E+02  0.59841580259E+02  0.10000000000E+01 0.  0.
    9000005    1    3    3    0    0 -0.92681586990E+01  0.55965583701E+02  0.33757901871E+02  0.66020006539E+02  0.10000000000E+01 0.  0.
<mgrwt>
<rscale>  0 0.12499638E+03</rscale>
<asrwt>0</asrwt>
<pdfrwt beam="2">  1        4 0.85483983E-02 0.12499638E+03</pdfrwt>
<pdfrwt beam="1">  1       -4 0.10814923E-01 0.12499638E+03</pdfrwt>
<totfact> 0.10434845E+04</totfact>
</mgrwt>
</event>
<event>
 5    1  0.3309219E-002  0.1250321E+03  0.7818608E-02  0.1235019E+00
          4   -1    0    0  501    0  0.00000000000E+00  0.00000000000E+00  0.46951899126E+02  0.46969072074E+02  0.12700000000E+01 0. -1.
         -4   -1    0    0    0  501 -0.00000000000E+00 -0.00000000000E+00 -0.83202381086E+02  0.83212073153E+02  0.12700000000E+01 0. -1.
         25    2    1    2    0    0  0.00000000000E+00  0.00000000000E+00 -0.36250481961E+02  0.13018114523E+03  0.12503212839E+03 0.  0.
    9000005    1    3    3    0    0 -0.19737105305E+02  0.49360528866E+02 -0.52361645377E+02  0.74624104968E+02  0.10000000000E+01 0.  0.
    9000005    1    3    3    0    0  0.19737105305E+02 -0.49360528866E+02  0.16111163416E+02  0.55557040259E+02  0.10000000000E+01 0.  0.
<mgrwt>
<rscale>  0 0.12503213E+03</rscale>
<asrwt>0</asrwt>
<pdfrwt beam="1">  1        4 0.72254356E-02 0.12503213E+03</pdfrwt>
<pdfrwt beam="2">  1       -4 0.12802433E-01 0.12503213E+03</pdfrwt>
<totfact> 0.10333138E+04</totfact>
</mgrwt>
</event>
<event>
 5    1  0.3309219E-002  0.1249994E+03  0.7818608E-02  0.1235070E+00
         -4   -1    0    0    0  501 -0.00000000000E+00  0.00000000000E+00  0.87653536520E+02  0.87662736464E+02  0.12700000000E+01 0.  1.
          4   -1    0    0  501    0  0.00000000000E+00 -0.00000000000E+00 -0.44543673190E+02  0.44561774215E+02  0.12700000000E+01 0.  1.
         25    2    1    2    0    0  0.00000000000E+00  0.00000000000E+00  0.43109863330E+02  0.13222451068E+03  0.12499944363E+03 0.  0.
    9000005    1    3    3    0    0  0.68452688580E+01  0.53937078954E+02 -0.11034072806E+02  0.55487088178E+02  0.10000000000E+01 0.  0.
    9000005    1    3    3    0    0 -0.68452688580E+01 -0.53937078954E+02  0.54143936137E+02  0.76737422501E+02  0.10000000000E+01 0.  0.
<mgrwt>
<rscale>  0 0.12499944E+03</rscale>
<asrwt>0</asrwt>
<pdfrwt beam="2">  1        4 0.68549729E-02 0.12499944E+03</pdfrwt>
<pdfrwt beam="1">  1       -4 0.13487260E-01 0.12499944E+03</pdfrwt>
<totfact> 0.10297038E+04</totfact>
</mgrwt>
</event>
<event>
 5    1  0.3309219E-002  0.1249881E+03  0.7818608E-02  0.1235088E+00
          4   -1    0    0  501    0  0.00000000000E+00  0.00000000000E+00  0.77529845577E+02  0.77540246680E+02  0.12700000000E+01 0.  1.
         -4   -1    0    0    0  501 -0.00000000000E+00 -0.00000000000E+00 -0.50352425186E+02  0.50368438750E+02  0.12700000000E+01 0.  1.
         25    2    1    2    0    0  0.00000000000E+00  0.00000000000E+00  0.27177420391E+02  0.12790868543E+03  0.12498807795E+03 0.  0.
    9000005    1    3    3    0    0 -0.42467670029E+02  0.32794247830E+02  0.46361060067E+02  0.70917653507E+02  0.10000000000E+01 0.  0.
    9000005    1    3    3    0    0  0.42467670029E+02 -0.32794247830E+02 -0.19183639676E+02  0.56991031923E+02  0.10000000000E+01 0.  0.
<mgrwt>
<rscale>  0 0.12498808E+03</rscale>
<asrwt>0</asrwt>
<pdfrwt beam="1">  1        4 0.11929700E-01 0.12498808E+03</pdfrwt>
<pdfrwt beam="2">  1       -4 0.77485589E-02 0.12498808E+03</pdfrwt>
<totfact> 0.10392257E+04</totfact>
</mgrwt>
</event>
<event>
 5    1  0.3309219E-002  0.1249995E+03  0.7818608E-02  0.1235070E+00
          4   -1    0    0  501    0  0.00000000000E+00  0.00000000000E+00  0.99358517340E+03  0.99358598506E+03  0.12700000000E+01 0.  1.
         -4   -1    0    0    0  501 -0.00000000000E+00 -0.00000000000E+00 -0.38280362493E+01  0.40332073497E+01  0.12700000000E+01 0.  1.
         25    2    1    2    0    0  0.00000000000E+00  0.00000000000E+00  0.98975713715E+03  0.99761919241E+03  0.12499945006E+03 0.  0.
    9000005    1    3    3    0    0  0.32449572476E+02  0.49616277568E+02  0.65258457552E+03  0.65527275082E+03  0.10000000000E+01 0.  0.
    9000005    1    3    3    0    0 -0.32449572476E+02 -0.49616277568E+02  0.33717256163E+03  0.34234644159E+03  0.10000000000E+01 0.  0.
<mgrwt>
<rscale>  0 0.12499945E+03</rscale>
<asrwt>0</asrwt>
<pdfrwt beam="1">  1        4 0.15287520E+00 0.12499945E+03</pdfrwt>
<pdfrwt beam="2">  1       -4 0.60477310E-03 0.12499945E+03</pdfrwt>
<totfact> 0.30683568E+03</totfact>
</mgrwt>
</event>
<event>
 5    1  0.3309219E-002  0.1250004E+03  0.7818608E-02  0.1235069E+00
         -4   -1    0    0    0  501 -0.00000000000E+00  0.00000000000E+00  0.70752540736E+02  0.70763937995E+02  0.12700000000E+01 0.  1.
          4   -1    0    0  501    0  0.00000000000E+00 -0.00000000000E+00 -0.55187275906E+02  0.55201886942E+02  0.12700000000E+01 0.  1.
         25    2    1    2    0    0  0.00000000000E+00  0.00000000000E+00  0.15565264830E+02  0.12596582494E+03  0.12500044633E+03 0.  0.
    9000005    1    3    3    0    0  0.43484789043E+02 -0.42917695657E+02 -0.54497497702E+01  0.61347821894E+02  0.10000000000E+01 0.  0.
    9000005    1    3    3    0    0 -0.43484789043E+02  0.42917695657E+02  0.21015014600E+02  0.64618003043E+02  0.10000000000E+01 0.  0.
<mgrwt>
<rscale>  0 0.12500045E+03</rscale>
<asrwt>0</asrwt>
<pdfrwt beam="2">  1        4 0.84923508E-02 0.12500045E+03</pdfrwt>
<pdfrwt beam="1">  1       -4 0.10887007E-01 0.12500045E+03</pdfrwt>
<totfact> 0.10431601E+04</totfact>
</mgrwt>
</event>
<event>
 5    1  0.3309219E-002  0.1249995E+03  0.7818608E-02  0.1235070E+00
          4   -1    0    0  501    0  0.00000000000E+00  0.00000000000E+00  0.30986080506E+02  0.31012095788E+02  0.12700000000E+01 0.  1.
         -4   -1    0    0    0  501 -0.00000000000E+00 -0.00000000000E+00 -0.12598163259E+03  0.12598803375E+03  0.12700000000E+01 0.  1.
         25    2    1    2    0    0  0.00000000000E+00  0.00000000000E+00 -0.94995552080E+02  0.15700012954E+03  0.12499954304E+03 0.  0.
    9000005    1    3    3    0    0  0.54486519342E+02 -0.25807342611E+02 -0.68152165833E+02  0.90997348480E+02  0.10000000000E+01 0.  0.
    9000005    1    3    3    0    0 -0.54486519342E+02  0.25807342611E+02 -0.26843386247E+02  0.66002781061E+02  0.10000000000E+01 0.  0.
<mgrwt>
<rscale>  0 0.12499954E+03</rscale>
<asrwt>0</asrwt>
<pdfrwt beam="1">  1        4 0.47695829E-02 0.12499954E+03</pdfrwt>
<pdfrwt beam="2">  1       -4 0.19384283E-01 0.12499954E+03</pdfrwt>
<totfact> 0.97925280E+03</totfact>
</mgrwt>
</event>
<event>
 5    1  0.3309219E-002  0.1250022E+03  0.7818608E-02  0.1235066E+00
         -4   -1    0    0    0  501 -0.00000000000E+00  0.00000000000E+00  0.12256766461E+03  0.12257424406E+03  0.12700000000E+01 0.  1.
          4   -1    0    0  501    0  0.00000000000E+00 -0.00000000000E+00 -0.31851201643E+02  0.31876510883E+02  0.12700000000E+01 0.  1.
         25    2    1    2    0    0  0.00000000000E+00  0.00000000000E+00  0.90716462964E+02  0.15445075494E+03  0.12500223618E+03 0.  0.
    9000005    1    3    3    0    0  0.48993123758E+02 -0.38101093243E+02  0.54384785737E+02  0.82527113130E+02  0.10000000000E+01 0.  0.
    9000005    1    3    3    0    0 -0.48993123758E+02  0.38101093243E+02  0.36331677226E+02  0.71923641815E+02  0.10000000000E+01 0.  0.
<mgrwt>
<rscale>  0 0.12500224E+03</rscale>
<asrwt>0</asrwt>
<pdfrwt beam="2">  1        4 0.49026378E-02 0.12500224E+03</pdfrwt>
<pdfrwt beam="1">  1       -4 0.18859017E-01 0.12500224E+03</pdfrwt>
<totfact> 0.98418480E+03</totfact>
</mgrwt>
</event>
<event>
 5    1  0.3309219E-002  0.1249972E+03  0.7818608E-02  0.1235074E+00
         -4   -1    0    0    0  501 -0.00000000000E+00  0.00000000000E+00  0.18584224290E+02  0.18627568077E+02  0.12700000000E+01 0. -1.
          4   -1    0    0  501    0  0.00000000000E+00 -0.00000000000E+00 -0.20989227572E+03  0.20989611790E+03  0.12700000000E+01 0. -1.
         25    2    1    2    0    0  0.00000000000E+00  0.00000000000E+00 -0.19130805143E+03  0.22852368598E+03  0.12499721800E+03 0.  0.
    9000005    1    3    3    0    0 -0.57020440274E+02 -0.20823243546E+02 -0.12277956787E+03  0.13696992504E+03  0.10000000000E+01 0.  0.
    9000005    1    3    3    0    0  0.57020440274E+02  0.20823243546E+02 -0.68528483568E+02  0.91553760933E+02  0.10000000000E+01 0.  0.
<mgrwt>
<rscale>  0 0.12499722E+03</rscale>
<asrwt>0</asrwt>
<pdfrwt beam="2">  1        4 0.32294747E-01 0.12499722E+03</pdfrwt>
<pdfrwt beam="1">  1       -4 0.28627413E-02 0.12499722E+03</pdfrwt>
<totfact> 0.85542114E+03</totfact>
</mgrwt>
</event>
<event>
 5    1  0.3309219E-002  0.1250008E+03  0.7818608E-02  0.1235068E+00
          4   -1    0    0  501    0  0.00000000000E+00  0.00000000000E+00  0.11544730897E+03  0.11545429419E+03  0.12700000000E+01 0.  1.
         -4   -1    0    0    0  501 -0.00000000000E+00 -0.00000000000E+00 -0.33816307706E+02  0.33840147264E+02  0.12700000000E+01 0.  1.
         25    2    1    2    0    0  0.00000000000E+00  0.00000000000E+00  0.81631001262E+02  0.14929444146E+03  0.12500083953E+03 0.  0.
    9000005    1    3    3    0    0  0.12144462307E+01  0.56648800414E+02  0.93349605785E+01  0.57434336046E+02  0.10000000000E+01 0.  0.
    9000005    1    3    3    0    0 -0.12144462307E+01 -0.56648800414E+02  0.72296040684E+02  0.91860105413E+02  0.10000000000E+01 0.  0.
<mgrwt>
<rscale>  0 0.12500084E+03</rscale>
<asrwt>0</asrwt>
<pdfrwt beam="1">  1        4 0.17763496E-01 0.12500084E+03</pdfrwt>
<pdfrwt beam="2">  1       -4 0.52048800E-02 0.12500084E+03</pdfrwt>
<totfact> 0.99442647E+03</totfact>
</mgrwt>
</event>
<event>
 5    1  0.3309219E-002  0.1249992E+03  0.7818608E-02  0.1235071E+00
         -4   -1    0    0    0  501 -0.00000000000E+00  0.00000000000E+00  0.24659946079E+02  0.24692627252E+02  0.12700000000E+01 0. -1.
          4   -1    0    0  501    0  0.00000000000E+00 -0.00000000000E+00 -0.15826248007E+03  0.15826757563E+03  0.12700000000E+01 0. -1.
         25    2    1    2    0    0  0.00000000000E+00  0.00000000000E+00 -0.13360253399E+03  0.18296020288E+03  0.12499919500E+03 0.  0.
    9000005    1    3    3    0    0 -0.52597057993E+02  0.33573852252E+02 -0.71774721053E+02  0.95111853345E+02  0.10000000000E+01 0.  0.
    9000005    1    3    3    0    0  0.52597057993E+02 -0.33573852252E+02 -0.61827812934E+02  0.87848349539E+02  0.10000000000E+01 0.  0.
<mgrwt>
<rscale>  0 0.12499920E+03</rscale>
<asrwt>0</asrwt>
<pdfrwt beam="2">  1        4 0.24350979E-01 0.12499920E+03</pdfrwt>
<pdfrwt beam="1">  1       -4 0.37967439E-02 0.12499920E+03</pdfrwt>
<totfact> 0.93088535E+03</totfact>
</mgrwt>
</event>
<event>
 5    1  0.3309219E-002  0.1249953E+03  0.7818608E-02  0.1235077E+00
          4   -1    0    0  501    0  0.00000000000E+00  0.00000000000E+00  0.93268650399E+03  0.93268736864E+03  0.12700000000E+01 0. -1.
         -4   -1    0    0    0  501 -0.00000000000E+00 -0.00000000000E+00 -0.40906838313E+01  0.42832924495E+01  0.12700000000E+01 0. -1.
         25    2    1    2    0    0  0.00000000000E+00  0.00000000000E+00  0.92859582016E+03  0.93697066109E+03  0.12499529003E+03 0.  0.
    9000005    1    3    3    0    0 -0.56283788515E+01 -0.37938831153E+02  0.83411389440E+03  0.83499582178E+03  0.10000000000E+01 0.  0.
    9000005    1    3    3    0    0  0.56283788515E+01  0.37938831153E+02  0.94481925755E+02  0.10197483931E+03  0.10000000000E+01 0.  0.
<mgrwt>
<rscale>  0 0.12499529E+03</rscale>
<asrwt>0</asrwt>
<pdfrwt beam="1">  1        4 0.14350514E+00 0.12499529E+03</pdfrwt>
<pdfrwt beam="2">  1       -4 0.64421840E-03 0.12499529E+03</pdfrwt>
<totfact> 0.32786492E+03</totfact>
</mgrwt>
</event>
<event>
 5    1  0.3309219E-002  0.1250073E+03  0.7818608E-02  0.1235058E+00
         -4   -1    0    0    0  501 -0.00000000000E+00  0.00000000000E+00  0.10468698594E+03  0.10469468910E+03  0.12700000000E+01 0.  1.
          4   -1    0    0  501    0  0.00000000000E+00 -0.00000000000E+00 -0.37298089143E+02  0.37319704631E+02  0.12700000000E+01 0.  1.
         25    2    1    2    0    0  0.00000000000E+00  0.00000000000E+00  0.67388896797E+02  0.14201439373E+03  0.12500729824E+03 0.  0.
    9000005    1    3    3    0    0 -0.51574499349E+02  0.35093097069E+02  0.29405701057E+02  0.68972093630E+02  0.10000000000E+01 0.  0.
    9000005    1    3    3    0    0  0.51574499349E+02 -0.35093097069E+02  0.37983195741E+02  0.73042300099E+02  0.10000000000E+01 0.  0.
<mgrwt>
<rscale>  0 0.12500730E+03</rscale>
<asrwt>0</asrwt>
<pdfrwt beam="2">  1        4 0.57404230E-02 0.12500730E+03</pdfrwt>
<pdfrwt beam="1">  1       -4 0.16107945E-01 0.12500730E+03</pdfrwt>
<totfact> 0.10090347E+04</totfact>
</mgrwt>
</event>
<event>
 5    1  0.3309219E-002  0.1249906E+03  0.7818608E-02  0.1235084E+00
          4   -1    0    0  501    0  0.00000000000E+00  0.00000000000E+00  0.11554342630E+02  0.11623929353E+02  0.12700000000E+01 0. -1.
         -4   -1    0    0    0  501 -0.00000000000E+00 -0.00000000000E+00 -0.33693968559E+03  0.33694207904E+03  0.12700000000E+01 0. -1.
         25    2    1    2    0    0  0.00000000000E+00  0.00000000000E+00 -0.32538534296E+03  0.34856600839E+03  0.12499056281E+03 0.  0.
    9000005    1    3    3    0    0 -0.52172830457E+02 -0.25483211537E+02 -0.22709151721E+03  0.23439913715E+03  0.10000000000E+01 0.  0.
    9000005    1    3    3    0    0  0.52172830457E+02  0.25483211537E+02 -0.98293825754E+02  0.11416687124E+03  0.10000000000E+01 0.  0.
<mgrwt>
<rscale>  0 0.12499056E+03</rscale>
<asrwt>0</asrwt>
<pdfrwt beam="1">  1        4 0.17831284E-02 0.12499056E+03</pdfrwt>
<pdfrwt beam="2">  1       -4 0.51842404E-01 0.12499056E+03</pdfrwt>
<totfact> 0.69897202E+03</totfact>
</mgrwt>
</event>
<event>
 5    1  0.3309219E-002  0.1250075E+03  0.7818608E-02  0.1235058E+00
          4   -1    0    0  501    0  0.00000000000E+00  0.00000000000E+00  0.13986954183E+02  0.14044493131E+02  0.12700000000E+01 0.  1.
         -4   -1    0    0    0  501 -0.00000000000E+00 -0.00000000000E+00 -0.27867939509E+03  0.27868228890E+03  0.12700000000E+01 0.  1.
         25    2    1    2    0    0  0.00000000000E+00  0.00000000000E+00 -0.26469244091E+03  0.29272678204E+03  0.12500752236E+03 0.  0.
    9000005    1    3    3    0    0  0.13497663646E+02  0.60437298213E+02 -0.11263352773E+03  0.12853857595E+03  0.10000000000E+01 0.  0.
    9000005    1    3    3    0    0 -0.13497663646E+02 -0.60437298213E+02 -0.15205891318E+03  0.16418820608E+03  0.10000000000E+01 0.  0.
<mgrwt>
<rscale>  0 0.12500752E+03</rscale>
<asrwt>0</asrwt>
<pdfrwt beam="1">  1        4 0.21564880E-02 0.12500752E+03</pdfrwt>
<pdfrwt beam="2">  1       -4 0.42878398E-01 0.12500752E+03</pdfrwt>
<totfact> 0.76507549E+03</totfact>
</mgrwt>
</event>
<event>
 5    1  0.3309219E-002  0.1250012E+03  0.7818608E-02  0.1235067E+00
          4   -1    0    0  501    0  0.00000000000E+00  0.00000000000E+00  0.10329314154E+03  0.10330094863E+03  0.12700000000E+01 0.  1.
         -4   -1    0    0    0  501 -0.00000000000E+00 -0.00000000000E+00 -0.37797940489E+02  0.37819270289E+02  0.12700000000E+01 0.  1.
         25    2    1    2    0    0  0.00000000000E+00  0.00000000000E+00  0.65495201048E+02  0.14112021892E+03  0.12500117931E+03 0.  0.
    9000005    1    3    3    0    0  0.48116122796E+02 -0.11835048693E+02  0.75738171922E+02  0.90512431944E+02  0.10000000000E+01 0.  0.
    9000005    1    3    3    0    0 -0.48116122796E+02  0.11835048693E+02 -0.10242970874E+02  0.50607786978E+02  0.10000000000E+01 0.  0.
<mgrwt>
<rscale>  0 0.12500118E+03</rscale>
<asrwt>0</asrwt>
<pdfrwt beam="1">  1        4 0.15893494E-01 0.12500118E+03</pdfrwt>
<pdfrwt beam="2">  1       -4 0.58173091E-02 0.12500118E+03</pdfrwt>
<totfact> 0.10110153E+04</totfact>
</mgrwt>
</event>
<event>
 5    1  0.3309219E-002  0.1249807E+03  0.7818608E-02  0.1235099E+00
         -4   -1    0    0    0  501 -0.00000000000E+00  0.00000000000E+00  0.19852372076E+02  0.19892952949E+02  0.12700000000E+01 0. -1.
          4   -1    0    0  501    0  0.00000000000E+00 -0.00000000000E+00 -0.19646063434E+03  0.19646473919E+03  0.12700000000E+01 0. -1.
         25    2    1    2    0    0  0.00000000000E+00  0.00000000000E+00 -0.17660826226E+03  0.21635769214E+03  0.12498068910E+03 0.  0.
    9000005    1    3    3    0    0  0.15882392263E+01  0.36814357039E+02 -0.17565710800E+03  0.17948325543E+03  0.10000000000E+01 0.  0.
    9000005    1    3    3    0    0 -0.15882392263E+01 -0.36814357039E+02 -0.95115425970E+00  0.36874436707E+02  0.10000000000E+01 0.  0.
<mgrwt>
<rscale>  0 0.12498069E+03</rscale>
<asrwt>0</asrwt>
<pdfrwt beam="2">  1        4 0.30228149E-01 0.12498069E+03</pdfrwt>
<pdfrwt beam="1">  1       -4 0.30576486E-02 0.12498069E+03</pdfrwt>
<totfact> 0.87485742E+03</totfact>
</mgrwt>
</event>
<event>
 5    1  0.3309219E-002  0.1249975E+03  0.7818608E-02  0.1235073E+00
          4   -1    0    0  501    0  0.00000000000E+00  0.00000000000E+00  0.98656286712E+02  0.98664460713E+02  0.12700000000E+01 0.  1.
         -4   -1    0    0    0  501 -0.00000000000E+00 -0.00000000000E+00 -0.39572934656E+02  0.39593308238E+02  0.12700000000E+01 0.  1.
         25    2    1    2    0    0  0.00000000000E+00  0.00000000000E+00  0.59083352057E+02  0.13825776895E+03  0.12499747272E+03 0.  0.
    9000005    1    3    3    0    0  0.18515210514E+02 -0.27645762359E+02  0.88049164692E+02  0.94131591932E+02  0.10000000000E+01 0.  0.
    9000005    1    3    3    0    0 -0.18515210514E+02  0.27645762359E+02 -0.28965812635E+02  0.44126177020E+02  0.10000000000E+01 0.  0.
<mgrwt>
<rscale>  0 0.12499747E+03</rscale>
<asrwt>0</asrwt>
<pdfrwt beam="1">  1        4 0.15180086E-01 0.12499747E+03</pdfrwt>
<pdfrwt beam="2">  1       -4 0.60903398E-02 0.12499747E+03</pdfrwt>
<totfact> 0.10170402E+04</totfact>
</mgrwt>
</event>
<event>
 5    1  0.3309219E-002  0.1249906E+03  0.7818608E-02  0.1235084E+00
         -4   -1    0    0    0  501 -0.00000000000E+00  0.00000000000E+00  0.24751160035E+02  0.24783720929E+02  0.12700000000E+01 0. -1.
          4   -1    0    0  501    0  0.00000000000E+00 -0.00000000000E+00 -0.15765838883E+03  0.15766350392E+03  0.12700000000E+01 0. -1.
         25    2    1    2    0    0  0.00000000000E+00  0.00000000000E+00 -0.13290722880E+03  0.18244722485E+03  0.12499063321E+03 0.  0.
    9000005    1    3    3    0    0  0.51677582718E+02 -0.85155200328E+01 -0.11620257084E+03  0.12746420716E+03  0.10000000000E+01 0.  0.
    9000005    1    3    3    0    0 -0.51677582718E+02  0.85155200328E+01 -0.16704657957E+02  0.54983017692E+02  0.10000000000E+01 0.  0.
<mgrwt>
<rscale>  0 0.12499063E+03</rscale>
<asrwt>0</asrwt>
<pdfrwt beam="2">  1        4 0.24258034E-01 0.12499063E+03</pdfrwt>
<pdfrwt beam="1">  1       -4 0.38107690E-02 0.12499063E+03</pdfrwt>
<totfact> 0.93197908E+03</totfact>
</mgrwt>
</event>
<event>
 5    1  0.3309219E-002  0.1249941E+03  0.7818608E-02  0.1235079E+00
         -4   -1    0    0    0  501 -0.00000000000E+00  0.00000000000E+00  0.43233391740E+01  0.45060139384E+01  0.12700000000E+01 0.  1.
          4   -1    0    0  501    0  0.00000000000E+00 -0.00000000000E+00 -0.88456570471E+03  0.88456661640E+03  0.12700000000E+01 0.  1.
         25    2    1    2    0    0  0.00000000000E+00  0.00000000000E+00 -0.88024236553E+03  0.88907263034E+03  0.12499407959E+03 0.  0.
    9000005    1    3    3    0    0 -0.45461484821E+02  0.79574154656E+01 -0.14046441633E+03  0.14785573820E+03  0.10000000000E+01 0.  0.
    9000005    1    3    3    0    0  0.45461484821E+02 -0.79574154656E+01 -0.73977794921E+03  0.74121689214E+03  0.10000000000E+01 0.  0.
<mgrwt>
<rscale>  0 0.12499408E+03</rscale>
<asrwt>0</asrwt>
<pdfrwt beam="2">  1        4 0.13610101E+00 0.12499408E+03</pdfrwt>
<pdfrwt beam="1">  1       -4 0.67925184E-03 0.12499408E+03</pdfrwt>
<totfact> 0.34584016E+03</totfact>
</mgrwt>
</event>
<event>
 5    1  0.3309219E-002  0.1249967E+03  0.7818608E-02  0.1235074E+00
          4   -1    0    0  501    0  0.00000000000E+00  0.00000000000E+00  0.51292186888E+02  0.51307907147E+02  0.12700000000E+01 0. -1.
         -4   -1    0    0    0  501 -0.00000000000E+00 -0.00000000000E+00 -0.76120176773E+02  0.76130770468E+02  0.12700000000E+01 0. -1.
         25    2    1    2    0    0  0.00000000000E+00  0.00000000000E+00 -0.24827989885E+02  0.12743867761E+03  0.12499674984E+03 0.  0.
    9000005    1    3    3    0    0 -0.11658163586E+02  0.19502396034E+02  0.46936576525E+02  0.52156480375E+02  0.10000000000E+01 0.  0.
    9000005    1    3    3    0    0  0.11658163586E+02 -0.19502396034E+02 -0.71764566409E+02  0.75282197240E+02  0.10000000000E+01 0.  0.
<mgrwt>
<rscale>  0 0.12499675E+03</rscale>
<asrwt>0</asrwt>
<pdfrwt beam="1">  1        4 0.78931298E-02 0.12499675E+03</pdfrwt>
<pdfrwt beam="2">  1       -4 0.11712821E-01 0.12499675E+03</pdfrwt>
<totfact> 0.10400392E+04</totfact>
</mgrwt>
</event>
<event>
 5    1  0.3309219E-002  0.1249983E+03  0.7818608E-02  0.1235072E+00
          4   -1    0    0  501    0  0.00000000000E+00  0.00000000000E+00  0.37181223122E+03  0.37181440019E+03  0.12700000000E+01 0.  1.
         -4   -1    0    0    0  501 -0.00000000000E+00 -0.00000000000E+00 -0.10465099601E+02  0.10541878848E+02  0.12700000000E+01 0.  1.
         25    2    1    2    0    0  0.00000000000E+00  0.00000000000E+00  0.36134713162E+03  0.38235627904E+03  0.12499829833E+03 0.  0.
    9000005    1    3    3    0    0  0.21170443554E+02  0.37896821593E+01  0.36014984067E+03  0.36079281742E+03  0.10000000000E+01 0.  0.
    9000005    1    3    3    0    0 -0.21170443554E+02 -0.37896821593E+01  0.11972909558E+01  0.21563461614E+02  0.10000000000E+01 0.  0.
<mgrwt>
<rscale>  0 0.12499830E+03</rscale>
<asrwt>0</asrwt>
<pdfrwt beam="1">  1        4 0.57207944E-01 0.12499830E+03</pdfrwt>
<pdfrwt beam="2">  1       -4 0.16160886E-02 0.12499830E+03</pdfrwt>
<totfact> 0.66308246E+03</totfact>
</mgrwt>
</event>
<event>
 5    1  0.3309219E-002  0.1250012E+03  0.7818608E-02  0.1235067E+00
          4   -1    0    0  501    0  0.00000000000E+00  0.00000000000E+00  0.73693234914E+03  0.73693344347E+03  0.12700000000E+01 0.  1.
         -4   -1    0    0    0  501 -0.00000000000E+00 -0.00000000000E+00 -0.52236111954E+01  0.53757803081E+01  0.12700000000E+01 0.  1.
         25    2    1    2    0    0  0.00000000000E+00  0.00000000000E+00  0.73170873794E+03  0.74230922378E+03  0.12500122610E+03 0.  0.
    9000005    1    3    3    0    0  0.18386332423E+02 -0.20695122164E+02  0.69856367655E+03  0.69911269155E+03  0.10000000000E+01 0.  0.
    9000005    1    3    3    0    0 -0.18386332423E+02  0.20695122164E+02  0.33145061398E+02  0.43196532227E+02  0.10000000000E+01 0.  0.
<mgrwt>
<rscale>  0 0.12500123E+03</rscale>
<asrwt>0</asrwt>
<pdfrwt beam="1">  1        4 0.11338589E+00 0.12500123E+03</pdfrwt>
<pdfrwt beam="2">  1       -4 0.81542273E-03 0.12500123E+03</pdfrwt>
<totfact> 0.40943649E+03</totfact>
</mgrwt>
</event>
<event>
 5    1  0.3309219E-002  0.1249994E+03  0.7818608E-02  0.1235070E+00
         -4   -1    0    0    0  501 -0.00000000000E+00  0.00000000000E+00  0.87409608788E+02  0.87418834404E+02  0.12700000000E+01 0. -1.
          4   -1    0    0  501    0  0.00000000000E+00 -0.00000000000E+00 -0.44668010553E+02  0.44686061213E+02  0.12700000000E+01 0. -1.
         25    2    1    2    0    0  0.00000000000E+00  0.00000000000E+00  0.42741598235E+02  0.13210489562E+03  0.12499943690E+03 0.  0.
    9000005    1    3    3    0    0  0.41943353724E+02  0.46323911586E+02  0.21101147907E+02  0.65965204080E+02  0.10000000000E+01 0.  0.
    9000005    1    3    3    0    0 -0.41943353724E+02 -0.46323911586E+02  0.21640450328E+02  0.66139691538E+02  0.10000000000E+01 0.  0.
<mgrwt>
<rscale>  0 0.12499944E+03</rscale>
<asrwt>0</asrwt>
<pdfrwt beam="2">  1        4 0.68740999E-02 0.12499944E+03</pdfrwt>
<pdfrwt beam="1">  1       -4 0.13449730E-01 0.12499944E+03</pdfrwt>
<totfact> 0.10299591E+04</totfact>
</mgrwt>
</event>
<event>
 5    1  0.3309219E-002  0.1249971E+03  0.7818608E-02  0.1235074E+00
         -4   -1    0    0    0  501 -0.00000000000E+00  0.00000000000E+00  0.44876291216E+02  0.44894258133E+02  0.12700000000E+01 0.  1.
          4   -1    0    0  501    0  0.00000000000E+00 -0.00000000000E+00 -0.87000842855E+02  0.87010111812E+02  0.12700000000E+01 0.  1.
         25    2    1    2    0    0  0.00000000000E+00  0.00000000000E+00 -0.42124551639E+02  0.13190436994E+03  0.12499713981E+03 0.  0.
    9000005    1    3    3    0    0  0.24102222017E+02 -0.55454037414E+02 -0.44104386615E+01  0.60634308282E+02  0.10000000000E+01 0.  0.
    9000005    1    3    3    0    0 -0.24102222017E+02  0.55454037414E+02 -0.37714112977E+02  0.71270061662E+02  0.10000000000E+01 0.  0.
<mgrwt>
<rscale>  0 0.12499714E+03</rscale>
<asrwt>0</asrwt>
<pdfrwt beam="2">  1        4 0.13386840E-01 0.12499714E+03</pdfrwt>
<pdfrwt beam="1">  1       -4 0.69061399E-02 0.12499714E+03</pdfrwt>
<totfact> 0.10304405E+04</totfact>
</mgrwt>
</event>
<event>
 5    1  0.3309219E-002  0.1250054E+03  0.7818608E-02  0.1235061E+00
          4   -1    0    0  501    0  0.00000000000E+00  0.00000000000E+00  0.12791067778E+04  0.12791074083E+04  0.12700000000E+01 0.  1.
         -4   -1    0    0    0  501 -0.00000000000E+00 -0.00000000000E+00 -0.29214703529E+01  0.31855751479E+01  0.12700000000E+01 0.  1.
         25    2    1    2    0    0  0.00000000000E+00  0.00000000000E+00  0.12761853075E+04  0.12822929835E+04  0.12500542549E+03 0.  0.
    9000005    1    3    3    0    0 -0.52126730666E+02 -0.25569167617E+02  0.40091310752E+03  0.40509665286E+03  0.10000000000E+01 0.  0.
    9000005    1    3    3    0    0  0.52126730666E+02  0.25569167617E+02  0.87527219996E+03  0.87719633059E+03  0.10000000000E+01 0.  0.
<mgrwt>
<rscale>  0 0.12500543E+03</rscale>
<asrwt>0</asrwt>
<pdfrwt beam="1">  1        4 0.19680597E+00 0.12500543E+03</pdfrwt>
<pdfrwt beam="2">  1       -4 0.46982136E-03 0.12500543E+03</pdfrwt>
<totfact> 0.22647656E+03</totfact>
</mgrwt>
</event>
<event>
 5    1  0.3309219E-002  0.1249995E+03  0.7818608E-02  0.1235070E+00
         -4   -1    0    0    0  501 -0.00000000000E+00  0.00000000000E+00  0.12626584707E+02  0.12690293194E+02  0.12700000000E+01 0.  1.
          4   -1    0    0  501    0  0.00000000000E+00 -0.00000000000E+00 -0.30852094218E+03  0.30852355609E+03  0.12700000000E+01 0.  1.
         25    2    1    2    0    0  0.00000000000E+00  0.00000000000E+00 -0.29589435747E+03  0.32121384928E+03  0.12499946475E+03 0.  0.
    9000005    1    3    3    0    0 -0.46956212775E+02  0.25303550319E+01 -0.25371013294E+03  0.25803317650E+03  0.10000000000E+01 0.  0.
    9000005    1    3    3    0    0  0.46956212775E+02 -0.25303550319E+01 -0.42184224525E+02  0.63180672785E+02  0.10000000000E+01 0.  0.
<mgrwt>
<rscale>  0 0.12499946E+03</rscale>
<asrwt>0</asrwt>
<pdfrwt beam="2">  1        4 0.47469856E-01 0.12499946E+03</pdfrwt>
<pdfrwt beam="1">  1       -4 0.19476535E-02 0.12499946E+03</pdfrwt>
<totfact> 0.73012855E+03</totfact>
</mgrwt>
</event>
<event>
 5    1  0.3309219E-002  0.1249502E+03  0.7818608E-02  0.1235147E+00
         -4   -1    0    0    0  501 -0.00000000000E+00  0.00000000000E+00  0.83404267753E+03  0.83404364445E+03  0.12700000000E+01 0. -1.
          4   -1    0    0  501    0  0.00000000000E+00 -0.00000000000E+00 -0.45926335840E+01  0.47649956177E+01  0.12700000000E+01 0. -1.
         25    2    1    2    0    0  0.00000000000E+00  0.00000000000E+00  0.82945004395E+03  0.83880864006E+03  0.12495022707E+03 0.  0.
    9000005    1    3    3    0    0 -0.56165747750E+02  0.79490549156E+01  0.59034281239E+03  0.59306274106E+03  0.10000000000E+01 0.  0.
    9000005    1    3    3    0    0  0.56165747750E+02 -0.79490549156E+01  0.23910723156E+03  0.24574589900E+03  0.10000000000E+01 0.  0.
<mgrwt>
<rscale>  0 0.12495023E+03</rscale>
<asrwt>0</asrwt>
<pdfrwt beam="2">  1        4 0.71989270E-03 0.12495023E+03</pdfrwt>
<pdfrwt beam="1">  1       -4 0.12832747E+00 0.12495023E+03</pdfrwt>
<totfact> 0.36629546E+03</totfact>
</mgrwt>
</event>
<event>
 5    1  0.3309219E-002  0.1250000E+03  0.7818608E-02  0.1235069E+00
          4   -1    0    0  501    0  0.00000000000E+00  0.00000000000E+00  0.15230765284E+04  0.15230770579E+04  0.12700000000E+01 0. -1.
         -4   -1    0    0    0  501 -0.00000000000E+00 -0.00000000000E+00 -0.24069253087E+01  0.27214315060E+01  0.12700000000E+01 0. -1.
         25    2    1    2    0    0  0.00000000000E+00  0.00000000000E+00  0.15206696031E+04  0.15257984894E+04  0.12499995388E+03 0.  0.
    9000005    1    3    3    0    0 -0.56761300983E+02  0.26107504682E+02  0.77671152020E+03  0.77922091393E+03  0.10000000000E+01 0.  0.
    9000005    1    3    3    0    0  0.56761300983E+02 -0.26107504682E+02  0.74395808292E+03  0.74657757550E+03  0.10000000000E+01 0.  0.
<mgrwt>
<rscale>  0 0.12499995E+03</rscale>
<asrwt>0</asrwt>
<pdfrwt beam="1">  1        4 0.23434455E+00 0.12499995E+03</pdfrwt>
<pdfrwt beam="2">  1       -4 0.39452829E-03 0.12499995E+03</pdfrwt>
<totfact> 0.17428717E+03</totfact>
</mgrwt>
</event>
<event>
 5    1  0.3309219E-002  0.1249998E+03  0.7818608E-02  0.1235070E+00
         -4   -1    0    0    0  501 -0.00000000000E+00  0.00000000000E+00  0.33604034523E+02  0.33628024566E+02  0.12700000000E+01 0. -1.
          4   -1    0    0  501    0  0.00000000000E+00 -0.00000000000E+00 -0.11617426099E+03  0.11618120251E+03  0.12700000000E+01 0. -1.
         25    2    1    2    0    0  0.00000000000E+00  0.00000000000E+00 -0.82570226466E+02  0.14980922707E+03  0.12499984887E+03 0.  0.
    9000005    1    3    3    0    0 -0.15674754829E+02 -0.25378467212E+02  0.24527178593E+02  0.38630907661E+02  0.10000000000E+01 0.  0.
    9000005    1    3    3    0    0  0.15674754829E+02  0.25378467212E+02 -0.10709740506E+03  0.11117831941E+03  0.10000000000E+01 0.  0.
<mgrwt>
<rscale>  0 0.12499985E+03</rscale>
<asrwt>0</asrwt>
<pdfrwt beam="2">  1        4 0.17875342E-01 0.12499985E+03</pdfrwt>
<pdfrwt beam="1">  1       -4 0.51722309E-02 0.12499985E+03</pdfrwt>
<totfact> 0.99342077E+03</totfact>
</mgrwt>
</event>
<event>
 5    1  0.3309219E-002  0.1250018E+03  0.7818608E-02  0.1235066E+00
          4   -1    0    0  501    0  0.00000000000E+00  0.00000000000E+00  0.20231317200E+02  0.20271139476E+02  0.12700000000E+01 0.  1.
         -4   -1    0    0    0  501 -0.00000000000E+00 -0.00000000000E+00 -0.19285332069E+03  0.19285750232E+03  0.12700000000E+01 0.  1.
         25    2    1    2    0    0  0.00000000000E+00  0.00000000000E+00 -0.17262200349E+03  0.21312864179E+03  0.12500184745E+03 0.  0.
    9000005    1    3    3    0    0  0.46685712840E+02 -0.24832295684E+02 -0.14309471793E+03  0.15255588154E+03  0.10000000000E+01 0.  0.
    9000005    1    3    3    0    0 -0.46685712840E+02  0.24832295684E+02 -0.29527285553E+02  0.60572760251E+02  0.10000000000E+01 0.  0.
<mgrwt>
<rscale>  0 0.12500185E+03</rscale>
<asrwt>0</asrwt>
<pdfrwt beam="1">  1        4 0.31158954E-02 0.12500185E+03</pdfrwt>
<pdfrwt beam="2">  1       -4 0.29673125E-01 0.12500185E+03</pdfrwt>
<totfact> 0.87963837E+03</totfact>
</mgrwt>
</event>
<event>
 5    1  0.3309219E-002  0.1249968E+03  0.7818608E-02  0.1235074E+00
         -4   -1    0    0    0  501 -0.00000000000E+00  0.00000000000E+00  0.19757983593E+02  0.19798757932E+02  0.12700000000E+01 0.  1.
          4   -1    0    0  501    0  0.00000000000E+00 -0.00000000000E+00 -0.19744806552E+03  0.19745214985E+03  0.12700000000E+01 0.  1.
         25    2    1    2    0    0  0.00000000000E+00  0.00000000000E+00 -0.17769008193E+03  0.21725090778E+03  0.12499676681E+03 0.  0.
    9000005    1    3    3    0    0  0.52372019775E+02 -0.26351447237E+02 -0.12643765607E+03  0.13937255146E+03  0.10000000000E+01 0.  0.
    9000005    1    3    3    0    0 -0.52372019775E+02  0.26351447237E+02 -0.51252425859E+02  0.77878356321E+02  0.10000000000E+01 0.  0.
<mgrwt>
<rscale>  0 0.12499677E+03</rscale>
<asrwt>0</asrwt>
<pdfrwt beam="2">  1        4 0.30380075E-01 0.12499677E+03</pdfrwt>
<pdfrwt beam="1">  1       -4 0.30431406E-02 0.12499677E+03</pdfrwt>
<totfact> 0.87311543E+03</totfact>
</mgrwt>
</event>
<event>
 5    1  0.3309219E-002  0.1249993E+03  0.7818608E-02  0.1235070E+00
          4   -1    0    0  501    0  0.00000000000E+00  0.00000000000E+00  0.49142221396E+01  0.50756752494E+01  0.12700000000E+01 0. -1.
         -4   -1    0    0    0  501 -0.00000000000E+00 -0.00000000000E+00 -0.78186931328E+03  0.78187034471E+03  0.12700000000E+01 0. -1.
         25    2    1    2    0    0  0.00000000000E+00  0.00000000000E+00 -0.77695509114E+03  0.78694601996E+03  0.12499929877E+03 0.  0.
    9000005    1    3    3    0    0 -0.38307848941E+01  0.46552830296E+02 -0.12712542240E+03  0.13543896759E+03  0.10000000000E+01 0.  0.
    9000005    1    3    3    0    0  0.38307848941E+01 -0.46552830296E+02 -0.64982966874E+03  0.65150705238E+03  0.10000000000E+01 0.  0.
<mgrwt>
<rscale>  0 0.12499930E+03</rscale>
<asrwt>0</asrwt>
<pdfrwt beam="1">  1        4 0.76853361E-03 0.12499930E+03</pdfrwt>
<pdfrwt beam="2">  1       -4 0.12029999E+00 0.12499930E+03</pdfrwt>
<totfact> 0.38854800E+03</totfact>
</mgrwt>
</event>
<event>
 5    1  0.3309219E-002  0.1249973E+03  0.7818608E-02  0.1235073E+00
         -4   -1    0    0    0  501 -0.00000000000E+00  0.00000000000E+00  0.20138037684E+02  0.20178044052E+02  0.12700000000E+01 0. -1.
          4   -1    0    0  501    0  0.00000000000E+00 -0.00000000000E+00 -0.19373085457E+03  0.19373501726E+03  0.12700000000E+01 0. -1.
         25    2    1    2    0    0  0.00000000000E+00  0.00000000000E+00 -0.17359281689E+03  0.21391306131E+03  0.12499732687E+03 0.  0.
    9000005    1    3    3    0    0 -0.59231641374E+01 -0.36451609514E+01  0.19482032309E+02  0.20710399674E+02  0.10000000000E+01 0.  0.
    9000005    1    3    3    0    0  0.59231641374E+01  0.36451609514E+01 -0.19307484919E+03  0.19320266164E+03  0.10000000000E+01 0.  0.
<mgrwt>
<rscale>  0 0.12499733E+03</rscale>
<asrwt>0</asrwt>
<pdfrwt beam="2">  1        4 0.29808143E-01 0.12499733E+03</pdfrwt>
<pdfrwt beam="1">  1       -4 0.31015574E-02 0.12499733E+03</pdfrwt>
<totfact> 0.87846036E+03</totfact>
</mgrwt>
</event>
<event>
 5    1  0.3309219E-002  0.1250049E+03  0.7818608E-02  0.1235062E+00
          4   -1    0    0  501    0  0.00000000000E+00  0.00000000000E+00  0.30036542152E+02  0.30063379125E+02  0.12700000000E+01 0.  1.
         -4   -1    0    0    0  501 -0.00000000000E+00 -0.00000000000E+00 -0.12997205393E+03  0.12997825858E+03  0.12700000000E+01 0.  1.
         25    2    1    2    0    0  0.00000000000E+00  0.00000000000E+00 -0.99935511780E+02  0.16004163770E+03  0.12500487704E+03 0.  0.
    9000005    1    3    3    0    0  0.12699843426E+02 -0.16907433843E+02  0.25323425286E+02  0.33006411656E+02  0.10000000000E+01 0.  0.
    9000005    1    3    3    0    0 -0.12699843426E+02  0.16907433843E+02 -0.12525893707E+03  0.12703522605E+03  0.10000000000E+01 0.  0.
<mgrwt>
<rscale>  0 0.12500488E+03</rscale>
<asrwt>0</asrwt>
<pdfrwt beam="1">  1        4 0.46235482E-02 0.12500488E+03</pdfrwt>
<pdfrwt beam="2">  1       -4 0.19998242E-01 0.12500488E+03</pdfrwt>
<totfact> 0.97324089E+03</totfact>
</mgrwt>
</event>
<event>
 5    1  0.3309219E-002  0.1250018E+03  0.7818608E-02  0.1235067E+00
          4   -1    0    0  501    0  0.00000000000E+00  0.00000000000E+00  0.23430476992E+02  0.23464870596E+02  0.12700000000E+01 0. -1.
         -4   -1    0    0    0  501 -0.00000000000E+00 -0.00000000000E+00 -0.16656221762E+03  0.16656705929E+03  0.12700000000E+01 0. -1.
         25    2    1    2    0    0  0.00000000000E+00  0.00000000000E+00 -0.14313174063E+03  0.19003192988E+03  0.12500175678E+03 0.  0.
    9000005    1    3    3    0    0  0.21051008401E+02  0.54476312521E+02 -0.10537343637E+03  0.12047976873E+03  0.10000000000E+01 0.  0.
    9000005    1    3    3    0    0 -0.21051008401E+02 -0.54476312521E+02 -0.37758304265E+02  0.69552161157E+02  0.10000000000E+01 0.  0.
<mgrwt>
<rscale>  0 0.12500176E+03</rscale>
<asrwt>0</asrwt>
<pdfrwt beam="1">  1        4 0.36077070E-02 0.12500176E+03</pdfrwt>
<pdfrwt beam="2">  1       -4 0.25627974E-01 0.12500176E+03</pdfrwt>
<totfact> 0.91838145E+03</totfact>
</mgrwt>
</event>
<event>
 5    1  0.3309219E-002  0.1250018E+03  0.7818608E-02  0.1235066E+00
          4   -1    0    0  501    0  0.00000000000E+00  0.00000000000E+00  0.53849340654E+01  0.55326679720E+01  0.12700000000E+01 0. -1.
         -4   -1    0    0    0  501 -0.00000000000E+00 -0.00000000000E+00 -0.71546007262E+03  0.71546119979E+03  0.12700000000E+01 0. -1.
         25    2    1    2    0    0  0.00000000000E+00  0.00000000000E+00 -0.71007513855E+03  0.72099386777E+03  0.12500181985E+03 0.  0.
    9000005    1    3    3    0    0  0.18971104774E+02 -0.21706454007E+02 -0.35230759994E+02  0.45533278068E+02  0.10000000000E+01 0.  0.
    9000005    1    3    3    0    0 -0.18971104774E+02  0.21706454007E+02 -0.67484437856E+03  0.67546058970E+03  0.10000000000E+01 0.  0.
<mgrwt>
<rscale>  0 0.12500182E+03</rscale>
<asrwt>0</asrwt>
<pdfrwt beam="1">  1        4 0.83990282E-03 0.12500182E+03</pdfrwt>
<pdfrwt beam="2">  1       -4 0.11008216E+00 0.12500182E+03</pdfrwt>
<totfact> 0.41999711E+03</totfact>
</mgrwt>
</event>
<event>
 5    1  0.3309219E-002  0.1249978E+03  0.7818608E-02  0.1235073E+00
          4   -1    0    0  501    0  0.00000000000E+00  0.00000000000E+00  0.58246640217E+01  0.59615107956E+01  0.12700000000E+01 0.  1.
         -4   -1    0    0    0  501 -0.00000000000E+00 -0.00000000000E+00 -0.66269201729E+03  0.66269323422E+03  0.12700000000E+01 0.  1.
         25    2    1    2    0    0  0.00000000000E+00  0.00000000000E+00 -0.65686735327E+03  0.66865474502E+03  0.12499779295E+03 0.  0.
    9000005    1    3    3    0    0  0.31431336132E+02  0.11077588791E+02 -0.61121409134E+03  0.61212278778E+03  0.10000000000E+01 0.  0.
    9000005    1    3    3    0    0 -0.31431336132E+02 -0.11077588791E+02 -0.45653261933E+02  0.56531957241E+02  0.10000000000E+01 0.  0.
<mgrwt>
<rscale>  0 0.12499779E+03</rscale>
<asrwt>0</asrwt>
<pdfrwt beam="1">  1        4 0.90672297E-03 0.12499779E+03</pdfrwt>
<pdfrwt beam="2">  1       -4 0.10196318E+00 0.12499779E+03</pdfrwt>
<totfact> 0.44795977E+03</totfact>
</mgrwt>
</event>
<event>
 5    1  0.3309219E-002  0.1250161E+03  0.7818608E-02  0.1235044E+00
          4   -1    0    0  501    0  0.00000000000E+00  0.00000000000E+00  0.53641273524E+02  0.53656305550E+02  0.12700000000E+01 0. -1.
         -4   -1    0    0    0  501 -0.00000000000E+00 -0.00000000000E+00 -0.72809764002E+02  0.72820839284E+02  0.12700000000E+01 0. -1.
         25    2    1    2    0    0  0.00000000000E+00  0.00000000000E+00 -0.19168490478E+02  0.12647714483E+03  0.12501614751E+03 0.  0.
    9000005    1    3    3    0    0  0.92538288225E+01  0.92417469916E+01  0.52246403744E+02  0.53867707762E+02  0.10000000000E+01 0.  0.
    9000005    1    3    3    0    0 -0.92538288225E+01 -0.92417469916E+01 -0.71414894222E+02  0.72609437073E+02  0.10000000000E+01 0.  0.
<mgrwt>
<rscale>  0 0.12501615E+03</rscale>
<asrwt>0</asrwt>
<pdfrwt beam="1">  1        4 0.82545118E-02 0.12501615E+03</pdfrwt>
<pdfrwt beam="2">  1       -4 0.11203510E-01 0.12501615E+03</pdfrwt>
<totfact> 0.10416729E+04</totfact>
</mgrwt>
</event>
<event>
 5    1  0.3309219E-002  0.1250013E+03  0.7818608E-02  0.1235067E+00
          4   -1    0    0  501    0  0.00000000000E+00  0.00000000000E+00  0.90371515356E+02  0.90380438634E+02  0.12700000000E+01 0. -1.
         -4   -1    0    0    0  501 -0.00000000000E+00 -0.00000000000E+00 -0.43204854784E+02  0.43223516480E+02  0.12700000000E+01 0. -1.
         25    2    1    2    0    0  0.00000000000E+00  0.00000000000E+00  0.47166660572E+02  0.13360395511E+03  0.12500129180E+03 0.  0.
    9000005    1    3    3    0    0 -0.42572313869E+02 -0.20387125351E+02  0.67356641908E+02  0.82255419258E+02  0.10000000000E+01 0.  0.
    9000005    1    3    3    0    0  0.42572313869E+02  0.20387125351E+02 -0.20189981336E+02  0.51348535856E+02  0.10000000000E+01 0.  0.
<mgrwt>
<rscale>  0 0.12500129E+03</rscale>
<asrwt>0</asrwt>
<pdfrwt beam="1">  1        4 0.13905432E-01 0.12500129E+03</pdfrwt>
<pdfrwt beam="2">  1       -4 0.66490227E-02 0.12500129E+03</pdfrwt>
<totfact> 0.10267281E+04</totfact>
</mgrwt>
</event>
<event>
 5    1  0.3309219E-002  0.1250287E+03  0.7818608E-02  0.1235024E+00
         -4   -1    0    0    0  501 -0.00000000000E+00  0.00000000000E+00  0.17756430659E+02  0.17801790072E+02  0.12700000000E+01 0. -1.
          4   -1    0    0  501    0  0.00000000000E+00 -0.00000000000E+00 -0.21976368546E+03  0.21976735505E+03  0.12700000000E+01 0. -1.
         25    2    1    2    0    0  0.00000000000E+00  0.00000000000E+00 -0.20200725480E+03  0.23756914512E+03  0.12502866760E+03 0.  0.
    9000005    1    3    3    0    0  0.56399523586E+02 -0.26887111767E+02 -0.97594575950E+02  0.11588582439E+03  0.10000000000E+01 0.  0.
    9000005    1    3    3    0    0 -0.56399523586E+02  0.26887111767E+02 -0.10441267885E+03  0.12168332073E+03  0.10000000000E+01 0.  0.
<mgrwt>
<rscale>  0 0.12502867E+03</rscale>
<asrwt>0</asrwt>
<pdfrwt beam="2">  1        4 0.33813567E-01 0.12502867E+03</pdfrwt>
<pdfrwt beam="1">  1       -4 0.27355302E-02 0.12502867E+03</pdfrwt>
<totfact> 0.84106963E+03</totfact>
</mgrwt>
</event>
<event>
 5    1  0.3309219E-002  0.1249998E+03  0.7818608E-02  0.1235070E+00
         -4   -1    0    0    0  501 -0.00000000000E+00  0.00000000000E+00  0.89225218637E+02  0.89234256543E+02  0.12700000000E+01 0. -1.
          4   -1    0    0  501    0  0.00000000000E+00 -0.00000000000E+00 -0.43759081540E+02  0.43777506978E+02  0.12700000000E+01 0. -1.
         25    2    1    2    0    0  0.00000000000E+00  0.00000000000E+00  0.45466137097E+02  0.13301176352E+03  0.12499983845E+03 0.  0.
    9000005    1    3    3    0    0  0.29949696811E+02  0.37750236486E+02 -0.19606369562E+02  0.52033397172E+02  0.10000000000E+01 0.  0.
    9000005    1    3    3    0    0 -0.29949696811E+02 -0.37750236486E+02  0.65072506659E+02  0.80978366350E+02  0.10000000000E+01 0.  0.
<mgrwt>
<rscale>  0 0.12499984E+03</rscale>
<asrwt>0</asrwt>
<pdfrwt beam="2">  1        4 0.67342790E-02 0.12499984E+03</pdfrwt>
<pdfrwt beam="1">  1       -4 0.13729069E-01 0.12499984E+03</pdfrwt>
<totfact> 0.10280187E+04</totfact>
</mgrwt>
</event>
<event>
 5    1  0.3309219E-002  0.1249986E+03  0.7818608E-02  0.1235071E+00
          4   -1    0    0  501    0  0.00000000000E+00  0.00000000000E+00  0.11824236176E+03  0.11824918188E+03  0.12700000000E+01 0.  1.
         -4   -1    0    0    0  501 -0.00000000000E+00 -0.00000000000E+00 -0.33015238401E+02  0.33039655971E+02  0.12700000000E+01 0.  1.
         25    2    1    2    0    0  0.00000000000E+00  0.00000000000E+00  0.85227123357E+02  0.15128883785E+03  0.12499859960E+03 0.  0.
    9000005    1    3    3    0    0  0.25474069832E+02  0.20861817505E+02 -0.21670710382E+02  0.39430487593E+02  0.10000000000E+01 0.  0.
    9000005    1    3    3    0    0 -0.25474069832E+02 -0.20861817505E+02  0.10689783374E+03  0.11185835025E+03  0.10000000000E+01 0.  0.
<mgrwt>
<rscale>  0 0.12499860E+03</rscale>
<asrwt>0</asrwt>
<pdfrwt beam="1">  1        4 0.18193536E-01 0.12499860E+03</pdfrwt>
<pdfrwt beam="2">  1       -4 0.50816703E-02 0.12499860E+03</pdfrwt>
<totfact> 0.99050527E+03</totfact>
</mgrwt>
</event>
<event>
 5    1  0.3309219E-002  0.1249815E+03  0.7818608E-02  0.1235098E+00
          4   -1    0    0  501    0  0.00000000000E+00  0.00000000000E+00  0.11291239351E+02  0.11362437506E+02  0.12700000000E+01 0.  1.
         -4   -1    0    0    0  501 -0.00000000000E+00 -0.00000000000E+00 -0.34469224313E+03  0.34469458274E+03  0.12700000000E+01 0.  1.
         25    2    1    2    0    0  0.00000000000E+00  0.00000000000E+00 -0.33340100377E+03  0.35605702025E+03  0.12498148803E+03 0.  0.
    9000005    1    3    3    0    0  0.26291841787E+02  0.21038859966E+02 -0.16756427390E+02  0.37625422683E+02  0.10000000000E+01 0.  0.
    9000005    1    3    3    0    0 -0.26291841787E+02 -0.21038859966E+02 -0.31664457639E+03  0.31843159756E+03  0.10000000000E+01 0.  0.
<mgrwt>
<rscale>  0 0.12498149E+03</rscale>
<asrwt>0</asrwt>
<pdfrwt beam="1">  1        4 0.17427708E-02 0.12498149E+03</pdfrwt>
<pdfrwt beam="2">  1       -4 0.53035224E-01 0.12498149E+03</pdfrwt>
<totfact> 0.69091606E+03</totfact>
</mgrwt>
</event>
<event>
 5    1  0.3309219E-002  0.1250026E+03  0.7818608E-02  0.1235065E+00
          4   -1    0    0  501    0  0.00000000000E+00  0.00000000000E+00  0.95912557456E+02  0.95920965267E+02  0.12700000000E+01 0. -1.
         -4   -1    0    0    0  501 -0.00000000000E+00 -0.00000000000E+00 -0.40708775446E+02  0.40728580853E+02  0.12700000000E+01 0. -1.
         25    2    1    2    0    0  0.00000000000E+00  0.00000000000E+00  0.55203782010E+02  0.13664954612E+03  0.12500256360E+03 0.  0.
    9000005    1    3    3    0    0  0.59545101763E+02 -0.18612296378E+02  0.23604175208E+02  0.66709772955E+02  0.10000000000E+01 0.  0.
    9000005    1    3    3    0    0 -0.59545101763E+02  0.18612296378E+02  0.31599606802E+02  0.69939773166E+02  0.10000000000E+01 0.  0.
<mgrwt>
<rscale>  0 0.12500256E+03</rscale>
<asrwt>0</asrwt>
<pdfrwt beam="1">  1        4 0.14757948E-01 0.12500256E+03</pdfrwt>
<pdfrwt beam="2">  1       -4 0.62650588E-02 0.12500256E+03</pdfrwt>
<totfact> 0.10202829E+04</totfact>
</mgrwt>
</event>
<event>
 5    1  0.3309219E-002  0.1249973E+03  0.7818608E-02  0.1235073E+00
          4   -1    0    0  501    0  0.00000000000E+00  0.00000000000E+00  0.10090240689E+03  0.10091039895E+03  0.12700000000E+01 0.  1.
         -4   -1    0    0    0  501 -0.00000000000E+00 -0.00000000000E+00 -0.38691563935E+02  0.38712401369E+02  0.12700000000E+01 0.  1.
         25    2    1    2    0    0  0.00000000000E+00  0.00000000000E+00  0.62210842959E+02  0.13962280032E+03  0.12499734952E+03 0.  0.
    9000005    1    3    3    0    0  0.15777439496E+02  0.40407398983E+02  0.81350819414E+02  0.92198922494E+02  0.10000000000E+01 0.  0.
    9000005    1    3    3    0    0 -0.15777439496E+02 -0.40407398983E+02 -0.19139976455E+02  0.47423877829E+02  0.10000000000E+01 0.  0.
<mgrwt>
<rscale>  0 0.12499735E+03</rscale>
<asrwt>0</asrwt>
<pdfrwt beam="1">  1        4 0.15525665E-01 0.12499735E+03</pdfrwt>
<pdfrwt beam="2">  1       -4 0.59547659E-02 0.12499735E+03</pdfrwt>
<totfact> 0.10142015E+04</totfact>
</mgrwt>
</event>
<event>
 5    1  0.3309219E-002  0.1249948E+03  0.7818608E-02  0.1235077E+00
         -4   -1    0    0    0  501 -0.00000000000E+00  0.00000000000E+00  0.55688314413E+01  0.57118108881E+01  0.12700000000E+01 0. -1.
          4   -1    0    0  501    0  0.00000000000E+00 -0.00000000000E+00 -0.69235723207E+03  0.69235839686E+03  0.12700000000E+01 0. -1.
         25    2    1    2    0    0  0.00000000000E+00  0.00000000000E+00 -0.68678840063E+03  0.69807020775E+03  0.12499483071E+03 0.  0.
    9000005    1    3    3    0    0 -0.10585353126E+02  0.54905692299E+02 -0.49919311687E+03  0.50231608841E+03  0.10000000000E+01 0.  0.
    9000005    1    3    3    0    0  0.10585353126E+02 -0.54905692299E+02 -0.18759528376E+03  0.19575411934E+03  0.10000000000E+01 0.  0.
<mgrwt>
<rscale>  0 0.12499483E+03</rscale>
<asrwt>0</asrwt>
<pdfrwt beam="2">  1        4 0.10652752E+00 0.12499483E+03</pdfrwt>
<pdfrwt beam="1">  1       -4 0.86783186E-03 0.12499483E+03</pdfrwt>
<totfact> 0.43193663E+03</totfact>
</mgrwt>
</event>
<event>
 5    1  0.3309219E-002  0.1249795E+03  0.7818608E-02  0.1235101E+00
         -4   -1    0    0    0  501 -0.00000000000E+00  0.00000000000E+00  0.11318313168E+03  0.11319025664E+03  0.12700000000E+01 0. -1.
          4   -1    0    0  501    0  0.00000000000E+00 -0.00000000000E+00 -0.34481452903E+02  0.34504832913E+02  0.12700000000E+01 0. -1.
         25    2    1    2    0    0  0.00000000000E+00  0.00000000000E+00  0.78701678780E+02  0.14769508955E+03  0.12497953926E+03 0.  0.
    9000005    1    3    3    0    0  0.78933825689E+01  0.38386117561E+01 -0.33755063686E+02  0.34891900966E+02  0.10000000000E+01 0.  0.
    9000005    1    3    3    0    0 -0.78933825689E+01 -0.38386117561E+01  0.11245674247E+03  0.11280318858E+03  0.10000000000E+01 0.  0.
<mgrwt>
<rscale>  0 0.12497954E+03</rscale>
<asrwt>0</asrwt>
<pdfrwt beam="2">  1        4 0.53071854E-02 0.12497954E+03</pdfrwt>
<pdfrwt beam="1">  1       -4 0.17415136E-01 0.12497954E+03</pdfrwt>
<totfact> 0.99811112E+03</totfact>
</mgrwt>
</event>
<event>
 5    1  0.3309219E-002  0.1249986E+03  0.7818608E-02  0.1235071E+00
          4   -1    0    0  501    0  0.00000000000E+00  0.00000000000E+00  0.11661956409E+03  0.11662647911E+03  0.12700000000E+01 0. -1.
         -4   -1    0    0    0  501 -0.00000000000E+00 -0.00000000000E+00 -0.33474975804E+02  0.33499058272E+02  0.12700000000E+01 0. -1.
         25    2    1    2    0    0  0.00000000000E+00  0.00000000000E+00  0.83144588290E+02  0.15012553738E+03  0.12499861764E+03 0.  0.
    9000005    1    3    3    0    0  0.41903188245E+02 -0.79480743938E+00 -0.14099174524E+02  0.44230030819E+02  0.10000000000E+01 0.  0.
    9000005    1    3    3    0    0 -0.41903188245E+02  0.79480743938E+00  0.97243762814E+02  0.10589550656E+03  0.10000000000E+01 0.  0.
<mgrwt>
<rscale>  0 0.12499862E+03</rscale>
<asrwt>0</asrwt>
<pdfrwt beam="1">  1        4 0.17943856E-01 0.12499862E+03</pdfrwt>
<pdfrwt beam="2">  1       -4 0.51523807E-02 0.12499862E+03</pdfrwt>
<totfact> 0.99281768E+03</totfact>
</mgrwt>
</event>
<event>
 5    1  0.3309219E-002  0.1250018E+03  0.7818608E-02  0.1235066E+00
         -4   -1    0    0    0  501 -0.00000000000E+00  0.00000000000E+00  0.12976602761E+02  0.13038601122E+02  0.12700000000E+01 0. -1.
          4   -1    0    0  501    0  0.00000000000E+00 -0.00000000000E+00 -0.30025047122E+03  0.30025315713E+03  0.12700000000E+01 0. -1.
         25    2    1    2    0    0  0.00000000000E+00  0.00000000000E+00 -0.28727386846E+03  0.31329175825E+03  0.12500180115E+03 0.  0.
    9000005    1    3    3    0    0 -0.10208832391E+02  0.30485636276E+02 -0.93272285245E+01  0.33490169750E+02  0.10000000000E+01 0.  0.
    9000005    1    3    3    0    0  0.10208832391E+02 -0.30485636276E+02 -0.27794663993E+03  0.27980158850E+03  0.10000000000E+01 0.  0.
<mgrwt>
<rscale>  0 0.12500180E+03</rscale>
<asrwt>0</asrwt>
<pdfrwt beam="2">  1        4 0.46197351E-01 0.12500180E+03</pdfrwt>
<pdfrwt beam="1">  1       -4 0.20013764E-02 0.12500180E+03</pdfrwt>
<totfact> 0.73958198E+03</totfact>
</mgrwt>
</event>
<event>
 5    1  0.3309219E-002  0.1250038E+03  0.7818608E-02  0.1235063E+00
         -4   -1    0    0    0  501 -0.00000000000E+00  0.00000000000E+00  0.61192844566E+01  0.62496833729E+01  0.12700000000E+01 0.  1.
          4   -1    0    0  501    0  0.00000000000E+00 -0.00000000000E+00 -0.63152806729E+03  0.63152934427E+03  0.12700000000E+01 0.  1.
         25    2    1    2    0    0  0.00000000000E+00  0.00000000000E+00 -0.62540878283E+03  0.63777902764E+03  0.12500376977E+03 0.  0.
    9000005    1    3    3    0    0  0.46698433918E+02  0.38948150689E+02 -0.38624929646E+03  0.39100795540E+03  0.10000000000E+01 0.  0.
    9000005    1    3    3    0    0 -0.46698433918E+02 -0.38948150689E+02 -0.23915948637E+03  0.24677107224E+03  0.10000000000E+01 0.  0.
<mgrwt>
<rscale>  0 0.12500377E+03</rscale>
<asrwt>0</asrwt>
<pdfrwt beam="2">  1        4 0.97168242E-01 0.12500377E+03</pdfrwt>
<pdfrwt beam="1">  1       -4 0.95155779E-03 0.12500377E+03</pdfrwt>
<totfact> 0.46562691E+03</totfact>
</mgrwt>
</event>
<event>
 5    1  0.3309219E-002  0.1249744E+03  0.7818608E-02  0.1235109E+00
          4   -1    0    0  501    0  0.00000000000E+00  0.00000000000E+00  0.51934109968E+02  0.51949635977E+02  0.12700000000E+01 0.  1.
         -4   -1    0    0    0  501 -0.00000000000E+00 -0.00000000000E+00 -0.75152558548E+02  0.75163288621E+02  0.12700000000E+01 0.  1.
         25    2    1    2    0    0  0.00000000000E+00  0.00000000000E+00 -0.23218448581E+02  0.12711292460E+03  0.12497439436E+03 0.  0.
    9000005    1    3    3    0    0  0.11929273076E+02  0.32384264384E+02 -0.64583092053E+02  0.73232669724E+02  0.10000000000E+01 0.  0.
    9000005    1    3    3    0    0 -0.11929273076E+02 -0.32384264384E+02  0.41364643472E+02  0.53880254875E+02  0.10000000000E+01 0.  0.
<mgrwt>
<rscale>  0 0.12497439E+03</rscale>
<asrwt>0</asrwt>
<pdfrwt beam="1">  1        4 0.79918828E-02 0.12497439E+03</pdfrwt>
<pdfrwt beam="2">  1       -4 0.11563952E-01 0.12497439E+03</pdfrwt>
<totfact> 0.10412711E+04</totfact>
</mgrwt>
</event>
<event>
 5    1  0.3309219E-002  0.1250028E+03  0.7818608E-02  0.1235065E+00
         -4   -1    0    0    0  501 -0.00000000000E+00  0.00000000000E+00  0.21204386539E+03  0.21204766858E+03  0.12700000000E+01 0.  1.
          4   -1    0    0  501    0  0.00000000000E+00 -0.00000000000E+00 -0.18396871864E+02  0.18440656018E+02  0.12700000000E+01 0.  1.
         25    2    1    2    0    0  0.00000000000E+00  0.00000000000E+00  0.19364699352E+03  0.23048832459E+03  0.12500283866E+03 0.  0.
    9000005    1    3    3    0    0  0.24753778682E+02  0.18967858122E+02  0.19668027535E+03  0.19913979992E+03  0.10000000000E+01 0.  0.
    9000005    1    3    3    0    0 -0.24753778682E+02 -0.18967858122E+02 -0.30332818220E+01  0.31348524677E+02  0.10000000000E+01 0.  0.
<mgrwt>
<rscale>  0 0.12500284E+03</rscale>
<asrwt>0</asrwt>
<pdfrwt beam="2">  1        4 0.28339485E-02 0.12500284E+03</pdfrwt>
<pdfrwt beam="1">  1       -4 0.32625794E-01 0.12500284E+03</pdfrwt>
<totfact> 0.85229272E+03</totfact>
</mgrwt>
</event>
<event>
 5    1  0.3309219E-002  0.1249877E+03  0.7818608E-02  0.1235089E+00
         -4   -1    0    0    0  501 -0.00000000000E+00  0.00000000000E+00  0.23360242744E+03  0.23360587965E+03  0.12700000000E+01 0.  1.
          4   -1    0    0  501    0  0.00000000000E+00 -0.00000000000E+00 -0.16690785095E+02  0.16739032442E+02  0.12700000000E+01 0.  1.
         25    2    1    2    0    0  0.00000000000E+00  0.00000000000E+00  0.21691164234E+03  0.25034491209E+03  0.12498765709E+03 0.  0.
    9000005    1    3    3    0    0 -0.28339475540E+02 -0.52380831221E+02  0.14633243603E+03  0.15799069336E+03  0.10000000000E+01 0.  0.
    9000005    1    3    3    0    0  0.28339475540E+02  0.52380831221E+02  0.70579206314E+02  0.92354218730E+02  0.10000000000E+01 0.  0.
<mgrwt>
<rscale>  0 0.12498766E+03</rscale>
<asrwt>0</asrwt>
<pdfrwt beam="2">  1        4 0.25717899E-02 0.12498766E+03</pdfrwt>
<pdfrwt beam="1">  1       -4 0.35942813E-01 0.12498766E+03</pdfrwt>
<totfact> 0.82303028E+03</totfact>
</mgrwt>
</event>
<event>
 5    1  0.3309219E-002  0.1250054E+03  0.7818608E-02  0.1235061E+00
         -4   -1    0    0    0  501 -0.00000000000E+00  0.00000000000E+00  0.69569948296E+02  0.69581539260E+02  0.12700000000E+01 0.  1.
          4   -1    0    0  501    0  0.00000000000E+00 -0.00000000000E+00 -0.56129906649E+02  0.56144272374E+02  0.12700000000E+01 0.  1.
         25    2    1    2    0    0  0.00000000000E+00  0.00000000000E+00  0.13440041646E+02  0.12572581163E+03  0.12500537985E+03 0.  0.
    9000005    1    3    3    0    0  0.26634171343E+02  0.12328960319E+02  0.62212306448E+02  0.68795010134E+02  0.10000000000E+01 0.  0.
    9000005    1    3    3    0    0 -0.26634171343E+02 -0.12328960319E+02 -0.48772264802E+02  0.56930801501E+02  0.10000000000E+01 0.  0.
<mgrwt>
<rscale>  0 0.12500538E+03</rscale>
<asrwt>0</asrwt>
<pdfrwt beam="2">  1        4 0.86373670E-02 0.12500538E+03</pdfrwt>
<pdfrwt beam="1">  1       -4 0.10705066E-01 0.12500538E+03</pdfrwt>
<totfact> 0.10435710E+04</totfact>
</mgrwt>
</event>
<event>
 5    1  0.3309219E-002  0.1249948E+03  0.7818608E-02  0.1235077E+00
          4   -1    0    0  501    0  0.00000000000E+00  0.00000000000E+00  0.32712129487E+02  0.32736773140E+02  0.12700000000E+01 0. -1.
         -4   -1    0    0    0  501 -0.00000000000E+00 -0.00000000000E+00 -0.11933002636E+03  0.11933678431E+03  0.12700000000E+01 0. -1.
         25    2    1    2    0    0  0.00000000000E+00  0.00000000000E+00 -0.86617896869E+02  0.15207355745E+03  0.12499482717E+03 0.  0.
    9000005    1    3    3    0    0 -0.45913734178E+00  0.62487218733E+02 -0.43615272257E+02  0.76211254327E+02  0.10000000000E+01 0.  0.
    9000005    1    3    3    0    0  0.45913734178E+00 -0.62487218733E+02 -0.43002624612E+02  0.75862303126E+02  0.10000000000E+01 0.  0.
<mgrwt>
<rscale>  0 0.12499483E+03</rscale>
<asrwt>0</asrwt>
<pdfrwt beam="1">  1        4 0.50350509E-02 0.12499483E+03</pdfrwt>
<pdfrwt beam="2">  1       -4 0.18360881E-01 0.12499483E+03</pdfrwt>
<totfact> 0.98903471E+03</totfact>
</mgrwt>
</event>
<event>
 5    1  0.3309219E-002  0.1250007E+03  0.7818608E-02  0.1235068E+00
         -4   -1    0    0    0  501 -0.00000000000E+00  0.00000000000E+00  0.70526198594E+03  0.70526312942E+03  0.12700000000E+01 0.  1.
          4   -1    0    0  501    0  0.00000000000E+00 -0.00000000000E+00 -0.54648182315E+01  0.56104490286E+01  0.12700000000E+01 0.  1.
         25    2    1    2    0    0  0.00000000000E+00  0.00000000000E+00  0.69979716771E+03  0.71087357845E+03  0.12500067438E+03 0.  0.
    9000005    1    3    3    0    0 -0.27594770446E+02 -0.55002925570E+02  0.28799193321E+03  0.29449473132E+03  0.10000000000E+01 0.  0.
    9000005    1    3    3    0    0  0.27594770446E+02  0.55002925570E+02  0.41180523450E+03  0.41637884713E+03  0.10000000000E+01 0.  0.
<mgrwt>
<rscale>  0 0.12500067E+03</rscale>
<asrwt>0</asrwt>
<pdfrwt beam="2">  1        4 0.85203136E-03 0.12500067E+03</pdfrwt>
<pdfrwt beam="1">  1       -4 0.10851316E+00 0.12500067E+03</pdfrwt>
<totfact> 0.42518241E+03</totfact>
</mgrwt>
</event>
<event>
 5    1  0.3309219E-002  0.1249956E+03  0.7818608E-02  0.1235076E+00
         -4   -1    0    0    0  501 -0.00000000000E+00  0.00000000000E+00  0.71276336184E+03  0.71276449328E+03  0.12700000000E+01 0. -1.
          4   -1    0    0  501    0  0.00000000000E+00 -0.00000000000E+00 -0.54053121187E+01  0.55525038587E+01  0.12700000000E+01 0. -1.
         25    2    1    2    0    0  0.00000000000E+00  0.00000000000E+00  0.70735804972E+03  0.71831699714E+03  0.12499559142E+03 0.  0.
    9000005    1    3    3    0    0  0.57895156791E+01 -0.62091172864E+02  0.37676792251E+03  0.38189514225E+03  0.10000000000E+01 0.  0.
    9000005    1    3    3    0    0 -0.57895156791E+01  0.62091172864E+02  0.33059012721E+03  0.33642185489E+03  0.10000000000E+01 0.  0.
<mgrwt>
<rscale>  0 0.12499559E+03</rscale>
<asrwt>0</asrwt>
<pdfrwt beam="2">  1        4 0.84299662E-03 0.12499559E+03</pdfrwt>
<pdfrwt beam="1">  1       -4 0.10966722E+00 0.12499559E+03</pdfrwt>
<totfact> 0.42141324E+03</totfact>
</mgrwt>
</event>
<event>
 5    1  0.3309219E-002  0.1249998E+03  0.7818608E-02  0.1235070E+00
          4   -1    0    0  501    0  0.00000000000E+00  0.00000000000E+00  0.12519375234E+02  0.12583626515E+02  0.12700000000E+01 0. -1.
         -4   -1    0    0    0  501 -0.00000000000E+00 -0.00000000000E+00 -0.31115099554E+03  0.31115358735E+03  0.12700000000E+01 0. -1.
         25    2    1    2    0    0  0.00000000000E+00  0.00000000000E+00 -0.29863162030E+03  0.32373721387E+03  0.12499975600E+03 0.  0.
    9000005    1    3    3    0    0  0.32424125780E+02 -0.29326873271E+02 -0.33670189481E+02  0.55191222927E+02  0.10000000000E+01 0.  0.
    9000005    1    3    3    0    0 -0.32424125780E+02  0.29326873271E+02 -0.26496143082E+03  0.26854599094E+03  0.10000000000E+01 0.  0.
<mgrwt>
<rscale>  0 0.12499976E+03</rscale>
<asrwt>0</asrwt>
<pdfrwt beam="1">  1        4 0.19311997E-02 0.12499976E+03</pdfrwt>
<pdfrwt beam="2">  1       -4 0.47874520E-01 0.12499976E+03</pdfrwt>
<totfact> 0.72714223E+03</totfact>
</mgrwt>
</event>
<event>
 5    1  0.3309219E-002  0.1249956E+03  0.7818608E-02  0.1235076E+00
          4   -1    0    0  501    0  0.00000000000E+00  0.00000000000E+00  0.26763250713E+02  0.26793366506E+02  0.12700000000E+01 0. -1.
         -4   -1    0    0    0  501 -0.00000000000E+00 -0.00000000000E+00 -0.14583041128E+03  0.14583594123E+03  0.12700000000E+01 0. -1.
         25    2    1    2    0    0  0.00000000000E+00  0.00000000000E+00 -0.11906716057E+03  0.17262930774E+03  0.12499555658E+03 0.  0.
    9000005    1    3    3    0    0  0.38025863255E+02  0.15486877366E+02  0.55264889115E+01  0.41440942636E+02  0.10000000000E+01 0.  0.
    9000005    1    3    3    0    0 -0.38025863255E+02 -0.15486877366E+02 -0.12459364948E+03  0.13118836510E+03  0.10000000000E+01 0.  0.
<mgrwt>
<rscale>  0 0.12499556E+03</rscale>
<asrwt>0</asrwt>
<pdfrwt beam="1">  1        4 0.41201653E-02 0.12499556E+03</pdfrwt>
<pdfrwt beam="2">  1       -4 0.22438189E-01 0.12499556E+03</pdfrwt>
<totfact> 0.94970298E+03</totfact>
</mgrwt>
</event>
<event>
 5    1  0.3309219E-002  0.1250009E+03  0.7818608E-02  0.1235068E+00
         -4   -1    0    0    0  501 -0.00000000000E+00  0.00000000000E+00  0.24471845330E+03  0.24472174869E+03  0.12700000000E+01 0.  1.
          4   -1    0    0  501    0  0.00000000000E+00 -0.00000000000E+00 -0.15933791577E+02  0.15984324009E+02  0.12700000000E+01 0.  1.
         25    2    1    2    0    0  0.00000000000E+00  0.00000000000E+00  0.22878466172E+03  0.26070607270E+03  0.12500093962E+03 0.  0.
    9000005    1    3    3    0    0 -0.13363586685E+02  0.51467446464E+02  0.45920483853E+02  0.70265029224E+02  0.10000000000E+01 0.  0.
    9000005    1    3    3    0    0  0.13363586685E+02 -0.51467446464E+02  0.18286417787E+03  0.19044104348E+03  0.10000000000E+01 0.  0.
<mgrwt>
<rscale>  0 0.12500094E+03</rscale>
<asrwt>0</asrwt>
<pdfrwt beam="2">  1        4 0.24554933E-02 0.12500094E+03</pdfrwt>
<pdfrwt beam="1">  1       -4 0.37653131E-01 0.12500094E+03</pdfrwt>
<totfact> 0.80805387E+03</totfact>
</mgrwt>
</event>
<event>
 5    1  0.3309219E-002  0.1250095E+03  0.7818608E-02  0.1235054E+00
         -4   -1    0    0    0  501 -0.00000000000E+00  0.00000000000E+00  0.70155353614E+03  0.70155468566E+03  0.12700000000E+01 0. -1.
          4   -1    0    0  501    0  0.00000000000E+00 -0.00000000000E+00 -0.54952736096E+01  0.56401180878E+01  0.12700000000E+01 0. -1.
         25    2    1    2    0    0  0.00000000000E+00  0.00000000000E+00  0.69605826253E+03  0.70719480375E+03  0.12500954208E+03 0.  0.
    9000005    1    3    3    0    0  0.84723437266E+01 -0.52197242822E+02  0.53646441187E+03  0.53906530028E+03  0.10000000000E+01 0.  0.
    9000005    1    3    3    0    0 -0.84723437266E+01  0.52197242822E+02  0.15959385066E+03  0.16812950347E+03  0.10000000000E+01 0.  0.
<mgrwt>
<rscale>  0 0.12500954E+03</rscale>
<asrwt>0</asrwt>
<pdfrwt beam="2">  1        4 0.85665712E-03 0.12500954E+03</pdfrwt>
<pdfrwt beam="1">  1       -4 0.10794253E+00 0.12500954E+03</pdfrwt>
<totfact> 0.42700694E+03</totfact>
</mgrwt>
</event>
<event>
 4    1  0.3309219E-002  0.1248950E+03  0.7818608E-02  0.1235233E+00
         -4   -1    0    0    0  501 -0.00000000000E+00  0.00000000000E+00  0.11153682934E+03  0.11154405945E+03  0.12700000000E+01 0. -1.
          4   -1    0    0  501    0  0.00000000000E+00 -0.00000000000E+00 -0.34943371377E+02  0.34966442529E+02  0.12700000000E+01 0. -1.
    9000005    1    1    2    0    0 -0.48084950875E+02 -0.28825138472E+02  0.70543142074E+02  0.90113184397E+02  0.10000000000E+01 0.  0.
    9000005    1    1    2    0    0  0.48084950875E+02  0.28825138472E+02  0.60503158909E+01  0.56397317586E+02  0.10000000000E+01 0.  0.
<mgrwt>
<rscale>  0 0.12489503E+03</rscale>
<asrwt>0</asrwt>
<pdfrwt beam="2">  1        4 0.53782343E-02 0.12489503E+03</pdfrwt>
<pdfrwt beam="1">  1       -4 0.17161843E-01 0.12489503E+03</pdfrwt>
<totfact> 0.10024058E+04</totfact>
</mgrwt>
</event>
<event>
 5    1  0.3309219E-002  0.1250066E+03  0.7818608E-02  0.1235059E+00
          4   -1    0    0  501    0  0.00000000000E+00  0.00000000000E+00  0.39218873993E+02  0.39239431408E+02  0.12700000000E+01 0.  1.
         -4   -1    0    0    0  501 -0.00000000000E+00 -0.00000000000E+00 -0.99561036054E+02  0.99569135781E+02  0.12700000000E+01 0.  1.
         25    2    1    2    0    0  0.00000000000E+00  0.00000000000E+00 -0.60342162061E+02  0.13880856719E+03  0.12500656704E+03 0.  0.
    9000005    1    3    3    0    0  0.49916392378E+02  0.36888668504E+02 -0.22068862940E+02  0.65882128104E+02  0.10000000000E+01 0.  0.
    9000005    1    3    3    0    0 -0.49916392378E+02 -0.36888668504E+02 -0.38273299121E+02  0.72926439085E+02  0.10000000000E+01 0.  0.
<mgrwt>
<rscale>  0 0.12500657E+03</rscale>
<asrwt>0</asrwt>
<pdfrwt beam="1">  1        4 0.60358774E-02 0.12500657E+03</pdfrwt>
<pdfrwt beam="2">  1       -4 0.15319287E-01 0.12500657E+03</pdfrwt>
<totfact> 0.10156836E+04</totfact>
</mgrwt>
</event>
<event>
 5    1  0.3309219E-002  0.1250000E+03  0.7818608E-02  0.1235069E+00
         -4   -1    0    0    0  501 -0.00000000000E+00  0.00000000000E+00  0.50774414354E+02  0.50790294870E+02  0.12700000000E+01 0. -1.
          4   -1    0    0  501    0  0.00000000000E+00 -0.00000000000E+00 -0.76900229735E+02  0.76910715985E+02  0.12700000000E+01 0. -1.
         25    2    1    2    0    0  0.00000000000E+00  0.00000000000E+00 -0.26125815381E+02  0.12770101085E+03  0.12499995978E+03 0.  0.
    9000005    1    3    3    0    0  0.59975166461E+02 -0.21870701185E+01  0.47331361077E+01  0.60209687303E+02  0.10000000000E+01 0.  0.
    9000005    1    3    3    0    0 -0.59975166461E+02  0.21870701185E+01 -0.30858951489E+02  0.67491323551E+02  0.10000000000E+01 0.  0.
<mgrwt>
<rscale>  0 0.12499996E+03</rscale>
<asrwt>0</asrwt>
<pdfrwt beam="2">  1        4 0.11832833E-01 0.12499996E+03</pdfrwt>
<pdfrwt beam="1">  1       -4 0.78134765E-02 0.12499996E+03</pdfrwt>
<totfact> 0.10393959E+04</totfact>
</mgrwt>
</event>
<event>
 5    1  0.3309219E-002  0.1249984E+03  0.7818608E-02  0.1235072E+00
         -4   -1    0    0    0  501 -0.00000000000E+00  0.00000000000E+00  0.77266197318E+03  0.77266301691E+03  0.12700000000E+01 0.  1.
          4   -1    0    0  501    0  0.00000000000E+00 -0.00000000000E+00 -0.49746218461E+01  0.51341759331E+01  0.12700000000E+01 0.  1.
         25    2    1    2    0    0  0.00000000000E+00  0.00000000000E+00  0.76768735134E+03  0.77779719284E+03  0.12499841517E+03 0.  0.
    9000005    1    3    3    0    0 -0.15894499753E+01 -0.54698675065E+02  0.57162165239E+03  0.57423582689E+03  0.10000000000E+01 0.  0.
    9000005    1    3    3    0    0  0.15894499753E+01  0.54698675065E+02  0.19606569894E+03  0.20356136595E+03  0.10000000000E+01 0.  0.
<mgrwt>
<rscale>  0 0.12499842E+03</rscale>
<asrwt>0</asrwt>
<pdfrwt beam="2">  1        4 0.77768079E-03 0.12499842E+03</pdfrwt>
<pdfrwt beam="1">  1       -4 0.11888332E+00 0.12499842E+03</pdfrwt>
<totfact> 0.39276722E+03</totfact>
</mgrwt>
</event>
<event>
 5    1  0.3309219E-002  0.1249969E+03  0.7818608E-02  0.1235074E+00
          4   -1    0    0  501    0  0.00000000000E+00  0.00000000000E+00  0.32004778567E+03  0.32005030544E+03  0.12700000000E+01 0.  1.
         -4   -1    0    0    0  501 -0.00000000000E+00 -0.00000000000E+00 -0.12168995468E+02  0.12235086869E+02  0.12700000000E+01 0.  1.
         25    2    1    2    0    0  0.00000000000E+00  0.00000000000E+00  0.30787879020E+03  0.33228539231E+03  0.12499692991E+03 0.  0.
    9000005    1    3    3    0    0 -0.17742490766E+02  0.49759010487E+02  0.24267819616E+03  0.24836356817E+03  0.10000000000E+01 0.  0.
    9000005    1    3    3    0    0  0.17742490766E+02 -0.49759010487E+02  0.65200594041E+02  0.83921824137E+02  0.10000000000E+01 0.  0.
<mgrwt>
<rscale>  0 0.12499693E+03</rscale>
<asrwt>0</asrwt>
<pdfrwt beam="1">  1        4 0.49243396E-01 0.12499693E+03</pdfrwt>
<pdfrwt beam="2">  1       -4 0.18774310E-02 0.12499693E+03</pdfrwt>
<totfact> 0.71723255E+03</totfact>
</mgrwt>
</event>
<event>
 5    1  0.3309219E-002  0.1250057E+03  0.7818608E-02  0.1235060E+00
         -4   -1    0    0    0  501 -0.00000000000E+00  0.00000000000E+00  0.16224341430E+03  0.16224838484E+03  0.12700000000E+01 0. -1.
          4   -1    0    0  501    0  0.00000000000E+00 -0.00000000000E+00 -0.24056603408E+02  0.24090103103E+02  0.12700000000E+01 0. -1.
         25    2    1    2    0    0  0.00000000000E+00  0.00000000000E+00  0.13818681089E+03  0.18633848794E+03  0.12500574941E+03 0.  0.
    9000005    1    3    3    0    0 -0.43118332848E+02  0.43740872552E+02  0.86294297526E+02  0.10592525829E+03  0.10000000000E+01 0.  0.
    9000005    1    3    3    0    0  0.43118332848E+02 -0.43740872552E+02  0.51892513365E+02  0.80413229649E+02  0.10000000000E+01 0.  0.
<mgrwt>
<rscale>  0 0.12500575E+03</rscale>
<asrwt>0</asrwt>
<pdfrwt beam="2">  1        4 0.37039751E-02 0.12500575E+03</pdfrwt>
<pdfrwt beam="1">  1       -4 0.24963485E-01 0.12500575E+03</pdfrwt>
<totfact> 0.92476422E+03</totfact>
</mgrwt>
</event>
<event>
 5    1  0.3309219E-002  0.1249986E+03  0.7818608E-02  0.1235071E+00
         -4   -1    0    0    0  501 -0.00000000000E+00  0.00000000000E+00  0.16676702187E+04  0.16676707023E+04  0.12700000000E+01 0.  1.
          4   -1    0    0  501    0  0.00000000000E+00 -0.00000000000E+00 -0.21696179251E+01  0.25139892484E+01  0.12700000000E+01 0.  1.
         25    2    1    2    0    0  0.00000000000E+00  0.00000000000E+00  0.16655006008E+04  0.16701846915E+04  0.12499861051E+03 0.  0.
    9000005    1    3    3    0    0 -0.40214580385E+01  0.57703348871E+02  0.11487505142E+04  0.11502063261E+04  0.10000000000E+01 0.  0.
    9000005    1    3    3    0    0  0.40214580385E+01 -0.57703348871E+02  0.51675008654E+03  0.51997836545E+03  0.10000000000E+01 0.  0.
<mgrwt>
<rscale>  0 0.12499861E+03</rscale>
<asrwt>0</asrwt>
<pdfrwt beam="2">  1        4 0.36031567E-03 0.12499861E+03</pdfrwt>
<pdfrwt beam="1">  1       -4 0.25659047E+00 0.12499861E+03</pdfrwt>
<totfact> 0.14811994E+03</totfact>
</mgrwt>
</event>
<event>
 5    1  0.3309219E-002  0.1249982E+03  0.7818608E-02  0.1235072E+00
          4   -1    0    0  501    0  0.00000000000E+00  0.00000000000E+00  0.78968330954E+01  0.79983043789E+01  0.12700000000E+01 0.  1.
         -4   -1    0    0    0  501 -0.00000000000E+00 -0.00000000000E+00 -0.49138590466E+03  0.49138754583E+03  0.12700000000E+01 0.  1.
         25    2    1    2    0    0  0.00000000000E+00  0.00000000000E+00 -0.48348907156E+03  0.49938585021E+03  0.12499818026E+03 0.  0.
    9000005    1    3    3    0    0 -0.22076622637E+02  0.58360178397E+02 -0.25549652893E+03  0.26300715577E+03  0.10000000000E+01 0.  0.
    9000005    1    3    3    0    0  0.22076622637E+02 -0.58360178397E+02 -0.22799254263E+03  0.23637869444E+03  0.10000000000E+01 0.  0.
<mgrwt>
<rscale>  0 0.12499818E+03</rscale>
<asrwt>0</asrwt>
<pdfrwt beam="1">  1        4 0.12228295E-02 0.12499818E+03</pdfrwt>
<pdfrwt beam="2">  1       -4 0.75605739E-01 0.12499818E+03</pdfrwt>
<totfact> 0.55914296E+03</totfact>
</mgrwt>
</event>
<event>
 5    1  0.3309219E-002  0.1250006E+03  0.7818608E-02  0.1235068E+00
          4   -1    0    0  501    0  0.00000000000E+00  0.00000000000E+00  0.13416220636E+02  0.13476196650E+02  0.12700000000E+01 0. -1.
         -4   -1    0    0    0  501 -0.00000000000E+00 -0.00000000000E+00 -0.29045090305E+03  0.29045367958E+03  0.12700000000E+01 0. -1.
         25    2    1    2    0    0  0.00000000000E+00  0.00000000000E+00 -0.27703468241E+03  0.30392987623E+03  0.12500061762E+03 0.  0.
    9000005    1    3    3    0    0 -0.17887725255E+02 -0.13817448095E+02 -0.28017579228E+03  0.28108782821E+03  0.10000000000E+01 0.  0.
    9000005    1    3    3    0    0  0.17887725255E+02  0.13817448095E+02  0.31411098673E+01  0.22842048022E+02  0.10000000000E+01 0.  0.
<mgrwt>
<rscale>  0 0.12500062E+03</rscale>
<asrwt>0</asrwt>
<pdfrwt beam="1">  1        4 0.20688613E-02 0.12500062E+03</pdfrwt>
<pdfrwt beam="2">  1       -4 0.44689577E-01 0.12500062E+03</pdfrwt>
<totfact> 0.75107484E+03</totfact>
</mgrwt>
</event>
<event>
 5    1  0.3309219E-002  0.1250004E+03  0.7818608E-02  0.1235069E+00
         -4   -1    0    0    0  501 -0.00000000000E+00  0.00000000000E+00  0.10054403202E+03  0.10055205256E+03  0.12700000000E+01 0.  1.
          4   -1    0    0  501    0  0.00000000000E+00 -0.00000000000E+00 -0.38831454814E+02  0.38852217221E+02  0.12700000000E+01 0.  1.
         25    2    1    2    0    0  0.00000000000E+00  0.00000000000E+00  0.61712577204E+02  0.13940426978E+03  0.12500043299E+03 0.  0.
    9000005    1    3    3    0    0 -0.30502897910E+02 -0.46835990999E+02 -0.31515083634E+00  0.55902917221E+02  0.10000000000E+01 0.  0.
    9000005    1    3    3    0    0  0.30502897910E+02  0.46835990999E+02  0.62027728041E+02  0.83501352562E+02  0.10000000000E+01 0.  0.
<mgrwt>
<rscale>  0 0.12500043E+03</rscale>
<asrwt>0</asrwt>
<pdfrwt beam="2">  1        4 0.59762842E-02 0.12500043E+03</pdfrwt>
<pdfrwt beam="1">  1       -4 0.15470526E-01 0.12500043E+03</pdfrwt>
<totfact> 0.10145849E+04</totfact>
</mgrwt>
</event>
<event>
 5    1  0.3309219E-002  0.1250001E+03  0.7818608E-02  0.1235069E+00
         -4   -1    0    0    0  501 -0.00000000000E+00  0.00000000000E+00  0.61949415040E+01  0.63237805337E+01  0.12700000000E+01 0.  1.
          4   -1    0    0  501    0  0.00000000000E+00 -0.00000000000E+00 -0.62393711376E+03  0.62393840628E+03  0.12700000000E+01 0.  1.
         25    2    1    2    0    0  0.00000000000E+00  0.00000000000E+00 -0.61774217226E+03  0.63026218681E+03  0.12500013096E+03 0.  0.
    9000005    1    3    3    0    0 -0.58631422999E+02  0.21613596762E+02 -0.30542597914E+03  0.31175442268E+03  0.10000000000E+01 0.  0.
    9000005    1    3    3    0    0  0.58631422999E+02 -0.21613596762E+02 -0.31231619311E+03  0.31850776413E+03  0.10000000000E+01 0.  0.
<mgrwt>
<rscale>  0 0.12500013E+03</rscale>
<asrwt>0</asrwt>
<pdfrwt beam="2">  1        4 0.96000286E-01 0.12500013E+03</pdfrwt>
<pdfrwt beam="1">  1       -4 0.96307854E-03 0.12500013E+03</pdfrwt>
<totfact> 0.47011329E+03</totfact>
</mgrwt>
</event>
<event>
 5    1  0.3309219E-002  0.1249915E+03  0.7818608E-02  0.1235083E+00
         -4   -1    0    0    0  501 -0.00000000000E+00  0.00000000000E+00  0.78445772695E+03  0.78445875498E+03  0.12700000000E+01 0.  1.
          4   -1    0    0  501    0  0.00000000000E+00 -0.00000000000E+00 -0.48968444285E+01  0.50588521778E+01  0.12700000000E+01 0.  1.
         25    2    1    2    0    0  0.00000000000E+00  0.00000000000E+00  0.77956088252E+03  0.78951760716E+03  0.12499152956E+03 0.  0.
    9000005    1    3    3    0    0 -0.55842032030E+02  0.26645222562E+02  0.44499902836E+03  0.44928102082E+03  0.10000000000E+01 0.  0.
    9000005    1    3    3    0    0  0.55842032030E+02 -0.26645222562E+02  0.33456185416E+03  0.34023658634E+03  0.10000000000E+01 0.  0.
<mgrwt>
<rscale>  0 0.12499153E+03</rscale>
<asrwt>0</asrwt>
<pdfrwt beam="2">  1        4 0.76590249E-03 0.12499153E+03</pdfrwt>
<pdfrwt beam="1">  1       -4 0.12069825E+00 0.12499153E+03</pdfrwt>
<totfact> 0.38744191E+03</totfact>
</mgrwt>
</event>
<event>
 5    1  0.3309219E-002  0.1250013E+03  0.7818608E-02  0.1235067E+00
          4   -1    0    0  501    0  0.00000000000E+00  0.00000000000E+00  0.29131993262E+02  0.29159662746E+02  0.12700000000E+01 0.  1.
         -4   -1    0    0    0  501 -0.00000000000E+00 -0.00000000000E+00 -0.13399640385E+03  0.13400242216E+03  0.12700000000E+01 0.  1.
         25    2    1    2    0    0  0.00000000000E+00  0.00000000000E+00 -0.10486441059E+03  0.16316208491E+03  0.12500128537E+03 0.  0.
    9000005    1    3    3    0    0  0.57815923570E+02  0.21396338306E+02 -0.65797568074E+02  0.90170972467E+02  0.10000000000E+01 0.  0.
    9000005    1    3    3    0    0 -0.57815923570E+02 -0.21396338306E+02 -0.39066842515E+02  0.72991112440E+02  0.10000000000E+01 0.  0.
<mgrwt>
<rscale>  0 0.12500129E+03</rscale>
<asrwt>0</asrwt>
<pdfrwt beam="1">  1        4 0.44844366E-02 0.12500129E+03</pdfrwt>
<pdfrwt beam="2">  1       -4 0.20617422E-01 0.12500129E+03</pdfrwt>
<totfact> 0.96733807E+03</totfact>
</mgrwt>
</event>
<event>
 5    1  0.3309219E-002  0.1249977E+03  0.7818608E-02  0.1235073E+00
          4   -1    0    0  501    0  0.00000000000E+00  0.00000000000E+00  0.32427441243E+01  0.34825693756E+01  0.12700000000E+01 0.  1.
         -4   -1    0    0    0  501 -0.00000000000E+00 -0.00000000000E+00 -0.11613727157E+04  0.11613734101E+04  0.12700000000E+01 0.  1.
         25    2    1    2    0    0  0.00000000000E+00  0.00000000000E+00 -0.11581299716E+04  0.11648559795E+04  0.12499768735E+03 0.  0.
    9000005    1    3    3    0    0 -0.66814620500E+00  0.21539336455E+02 -0.32433465670E+02  0.38952780769E+02  0.10000000000E+01 0.  0.
    9000005    1    3    3    0    0  0.66814620500E+00 -0.21539336455E+02 -0.11256965059E+04  0.11259031987E+04  0.10000000000E+01 0.  0.
<mgrwt>
<rscale>  0 0.12499769E+03</rscale>
<asrwt>0</asrwt>
<pdfrwt beam="1">  1        4 0.51738615E-03 0.12499769E+03</pdfrwt>
<pdfrwt beam="2">  1       -4 0.17869091E+00 0.12499769E+03</pdfrwt>
<totfact> 0.25652962E+03</totfact>
</mgrwt>
</event>
<event>
 5    1  0.3309219E-002  0.1249997E+03  0.7818608E-02  0.1235070E+00
          4   -1    0    0  501    0  0.00000000000E+00  0.00000000000E+00  0.18119529635E+03  0.18119974701E+03  0.12700000000E+01 0. -1.
         -4   -1    0    0    0  501 -0.00000000000E+00 -0.00000000000E+00 -0.21534710720E+02  0.21572127058E+02  0.12700000000E+01 0. -1.
         25    2    1    2    0    0  0.00000000000E+00  0.00000000000E+00  0.15966058563E+03  0.20277187407E+03  0.12499972125E+03 0.  0.
    9000005    1    3    3    0    0  0.41401860021E+02 -0.35087024526E+02  0.29568422316E+02  0.61810232984E+02  0.10000000000E+01 0.  0.
    9000005    1    3    3    0    0 -0.41401860021E+02  0.35087024526E+02  0.13009216331E+03  0.14096164109E+03  0.10000000000E+01 0.  0.
<mgrwt>
<rscale>  0 0.12499972E+03</rscale>
<asrwt>0</asrwt>
<pdfrwt beam="1">  1        4 0.27879420E-01 0.12499972E+03</pdfrwt>
<pdfrwt beam="2">  1       -4 0.33162530E-02 0.12499972E+03</pdfrwt>
<totfact> 0.89670663E+03</totfact>
</mgrwt>
</event>
<event>
 5    1  0.3309219E-002  0.1250006E+03  0.7818608E-02  0.1235068E+00
         -4   -1    0    0    0  501 -0.00000000000E+00  0.00000000000E+00  0.63357487648E+01  0.64617809008E+01  0.12700000000E+01 0.  1.
          4   -1    0    0  501    0  0.00000000000E+00 -0.00000000000E+00 -0.61034888948E+03  0.61035021077E+03  0.12700000000E+01 0.  1.
         25    2    1    2    0    0  0.00000000000E+00  0.00000000000E+00 -0.60401314072E+03  0.61681199167E+03  0.12500063566E+03 0.  0.
    9000005    1    3    3    0    0 -0.55150586377E+00 -0.60869235636E+02 -0.23223627202E+03  0.24008343144E+03  0.10000000000E+01 0.  0.
    9000005    1    3    3    0    0  0.55150586377E+00  0.60869235636E+02 -0.37177686869E+03  0.37672856024E+03  0.10000000000E+01 0.  0.
<mgrwt>
<rscale>  0 0.12500064E+03</rscale>
<asrwt>0</asrwt>
<pdfrwt beam="2">  1        4 0.93909580E-01 0.12500064E+03</pdfrwt>
<pdfrwt beam="1">  1       -4 0.98452748E-03 0.12500064E+03</pdfrwt>
<totfact> 0.47822650E+03</totfact>
</mgrwt>
</event>
<event>
 5    1  0.3309219E-002  0.1249981E+03  0.7818608E-02  0.1235072E+00
          4   -1    0    0  501    0  0.00000000000E+00  0.00000000000E+00  0.66468511909E+02  0.66480643614E+02  0.12700000000E+01 0.  1.
         -4   -1    0    0    0  501 -0.00000000000E+00 -0.00000000000E+00 -0.58742270062E+02  0.58755997072E+02  0.12700000000E+01 0.  1.
         25    2    1    2    0    0  0.00000000000E+00  0.00000000000E+00  0.77262418471E+01  0.12523664069E+03  0.12499808541E+03 0.  0.
    9000005    1    3    3    0    0 -0.16753376531E+02  0.49246290108E+02  0.38559511089E+02  0.64758849666E+02  0.10000000000E+01 0.  0.
    9000005    1    3    3    0    0  0.16753376531E+02 -0.49246290108E+02 -0.30833269242E+02  0.60477791021E+02  0.10000000000E+01 0.  0.
<mgrwt>
<rscale>  0 0.12499809E+03</rscale>
<asrwt>0</asrwt>
<pdfrwt beam="1">  1        4 0.10227914E-01 0.12499809E+03</pdfrwt>
<pdfrwt beam="2">  1       -4 0.90392614E-02 0.12499809E+03</pdfrwt>
<totfact> 0.10448177E+04</totfact>
</mgrwt>
</event>
<event>
 5    1  0.3309219E-002  0.1250028E+03  0.7818608E-02  0.1235065E+00
         -4   -1    0    0    0  501 -0.00000000000E+00  0.00000000000E+00  0.30122364610E+03  0.30122632333E+03  0.12700000000E+01 0. -1.
          4   -1    0    0  501    0  0.00000000000E+00 -0.00000000000E+00 -0.12934684925E+02  0.12996883246E+02  0.12700000000E+01 0. -1.
         25    2    1    2    0    0  0.00000000000E+00  0.00000000000E+00  0.28828896117E+03  0.31422320658E+03  0.12500279364E+03 0.  0.
    9000005    1    3    3    0    0  0.56074259652E+02 -0.12149656791E+02  0.81882702416E+02  0.99988567900E+02  0.10000000000E+01 0.  0.
    9000005    1    3    3    0    0 -0.56074259652E+02  0.12149656791E+02  0.20640625876E+03  0.21423463868E+03  0.10000000000E+01 0.  0.
<mgrwt>
<rscale>  0 0.12500279E+03</rscale>
<asrwt>0</asrwt>
<pdfrwt beam="2">  1        4 0.19949421E-02 0.12500279E+03</pdfrwt>
<pdfrwt beam="1">  1       -4 0.46347085E-01 0.12500279E+03</pdfrwt>
<totfact> 0.73843934E+03</totfact>
</mgrwt>
</event>
<event>
 5    1  0.3309219E-002  0.1250170E+03  0.7818608E-02  0.1235043E+00
         -4   -1    0    0    0  501 -0.00000000000E+00  0.00000000000E+00  0.31145918237E+02  0.31171800121E+02  0.12700000000E+01 0. -1.
          4   -1    0    0  501    0  0.00000000000E+00 -0.00000000000E+00 -0.12537059019E+03  0.12537702255E+03  0.12700000000E+01 0. -1.
         25    2    1    2    0    0  0.00000000000E+00  0.00000000000E+00 -0.94224671954E+02  0.15654882268E+03  0.12501697915E+03 0.  0.
    9000005    1    3    3    0    0  0.60507153247E+02  0.14884258953E+02 -0.41022048574E+02  0.74608747663E+02  0.10000000000E+01 0.  0.
    9000005    1    3    3    0    0 -0.60507153247E+02 -0.14884258953E+02 -0.53202623379E+02  0.81940075013E+02  0.10000000000E+01 0.  0.
<mgrwt>
<rscale>  0 0.12501698E+03</rscale>
<asrwt>0</asrwt>
<pdfrwt beam="2">  1        4 0.19290269E-01 0.12501698E+03</pdfrwt>
<pdfrwt beam="1">  1       -4 0.47941655E-02 0.12501698E+03</pdfrwt>
<totfact> 0.97974890E+03</totfact>
</mgrwt>
</event>
<event>
 5    1  0.3309219E-002  0.1249931E+03  0.7818608E-02  0.1235080E+00
          4   -1    0    0  501    0  0.00000000000E+00  0.00000000000E+00  0.64309881841E+03  0.64310007241E+03  0.12700000000E+01 0. -1.
         -4   -1    0    0    0  501 -0.00000000000E+00 -0.00000000000E+00 -0.60057723308E+01  0.61385830034E+01  0.12700000000E+01 0. -1.
         25    2    1    2    0    0  0.00000000000E+00  0.00000000000E+00  0.63709304607E+03  0.64923865541E+03  0.12499312912E+03 0.  0.
    9000005    1    3    3    0    0  0.34981250512E+02 -0.11952061954E+02  0.56855954400E+02  0.67824326190E+02  0.10000000000E+01 0.  0.
    9000005    1    3    3    0    0 -0.34981250512E+02  0.11952061954E+02  0.58023709167E+03  0.58141432922E+03  0.10000000000E+01 0.  0.
<mgrwt>
<rscale>  0 0.12499313E+03</rscale>
<asrwt>0</asrwt>
<pdfrwt beam="1">  1        4 0.98948598E-01 0.12499313E+03</pdfrwt>
<pdfrwt beam="2">  1       -4 0.93427758E-03 0.12499313E+03</pdfrwt>
<totfact> 0.45906797E+03</totfact>
</mgrwt>
</event>
<event>
 5    1  0.3309219E-002  0.1249984E+03  0.7818608E-02  0.1235072E+00
          4   -1    0    0  501    0  0.00000000000E+00  0.00000000000E+00  0.75374371713E+02  0.75385070213E+02  0.12700000000E+01 0. -1.
         -4   -1    0    0    0  501 -0.00000000000E+00 -0.00000000000E+00 -0.51801170539E+02  0.51816736381E+02  0.12700000000E+01 0. -1.
         25    2    1    2    0    0  0.00000000000E+00  0.00000000000E+00  0.23573201174E+02  0.12720180659E+03  0.12499841514E+03 0.  0.
    9000005    1    3    3    0    0 -0.58842495325E+02  0.10356395703E+02 -0.68517315252E+01  0.60146823798E+02  0.10000000000E+01 0.  0.
    9000005    1    3    3    0    0  0.58842495325E+02 -0.10356395703E+02  0.30424932699E+02  0.67054982796E+02  0.10000000000E+01 0.  0.
<mgrwt>
<rscale>  0 0.12499842E+03</rscale>
<asrwt>0</asrwt>
<pdfrwt beam="1">  1        4 0.11598077E-01 0.12499842E+03</pdfrwt>
<pdfrwt beam="2">  1       -4 0.79714312E-02 0.12499842E+03</pdfrwt>
<totfact> 0.10405137E+04</totfact>
</mgrwt>
</event>
<event>
 5    1  0.3309219E-002  0.1249984E+03  0.7818608E-02  0.1235072E+00
          4   -1    0    0  501    0  0.00000000000E+00  0.00000000000E+00  0.26007071075E+02  0.26038061485E+02  0.12700000000E+01 0. -1.
         -4   -1    0    0    0  501 -0.00000000000E+00 -0.00000000000E+00 -0.15007268744E+03  0.15007806107E+03  0.12700000000E+01 0. -1.
         25    2    1    2    0    0  0.00000000000E+00  0.00000000000E+00 -0.12406561636E+03  0.17611612256E+03  0.12499844583E+03 0.  0.
    9000005    1    3    3    0    0 -0.57485882251E+02  0.45131056128E+01 -0.28096259221E+02  0.64151341082E+02  0.10000000000E+01 0.  0.
    9000005    1    3    3    0    0  0.57485882251E+02 -0.45131056128E+01 -0.95969357143E+02  0.11196478148E+03  0.10000000000E+01 0.  0.
<mgrwt>
<rscale>  0 0.12499845E+03</rscale>
<asrwt>0</asrwt>
<pdfrwt beam="1">  1        4 0.40038852E-02 0.12499845E+03</pdfrwt>
<pdfrwt beam="2">  1       -4 0.23090902E-01 0.12499845E+03</pdfrwt>
<totfact> 0.94324111E+03</totfact>
</mgrwt>
</event>
<event>
 5    1  0.3309219E-002  0.1249987E+03  0.7818608E-02  0.1235071E+00
          4   -1    0    0  501    0  0.00000000000E+00  0.00000000000E+00  0.87165781814E+01  0.88086114225E+01  0.12700000000E+01 0. -1.
         -4   -1    0    0    0  501 -0.00000000000E+00 -0.00000000000E+00 -0.44568488941E+03  0.44568669887E+03  0.12700000000E+01 0. -1.
         25    2    1    2    0    0  0.00000000000E+00  0.00000000000E+00 -0.43696831123E+03  0.45449531029E+03  0.12499872823E+03 0.  0.
    9000005    1    3    3    0    0  0.46834720883E+02 -0.41286976026E+02 -0.20881961353E+03  0.21795581310E+03  0.10000000000E+01 0.  0.
    9000005    1    3    3    0    0 -0.46834720883E+02  0.41286976026E+02 -0.22814869770E+03  0.23653949719E+03  0.10000000000E+01 0.  0.
<mgrwt>
<rscale>  0 0.12499873E+03</rscale>
<asrwt>0</asrwt>
<pdfrwt beam="1">  1        4 0.13482310E-02 0.12499873E+03</pdfrwt>
<pdfrwt beam="2">  1       -4 0.68574107E-01 0.12499873E+03</pdfrwt>
<totfact> 0.59578012E+03</totfact>
</mgrwt>
</event>
<event>
 5    1  0.3309219E-002  0.1250008E+03  0.7818608E-02  0.1235068E+00
          4   -1    0    0  501    0  0.00000000000E+00  0.00000000000E+00  0.24394641543E+03  0.24394972126E+03  0.12700000000E+01 0. -1.
         -4   -1    0    0    0  501 -0.00000000000E+00 -0.00000000000E+00 -0.15984348137E+02  0.16034721244E+02  0.12700000000E+01 0. -1.
         25    2    1    2    0    0  0.00000000000E+00  0.00000000000E+00  0.22796206730E+03  0.25998444250E+03  0.12500082487E+03 0.  0.
    9000005    1    3    3    0    0  0.16660146819E+02  0.25573059207E+02  0.22740045254E+03  0.22944173044E+03  0.10000000000E+01 0.  0.
    9000005    1    3    3    0    0 -0.16660146819E+02 -0.25573059207E+02  0.56161475414E+00  0.30542712067E+02  0.10000000000E+01 0.  0.
<mgrwt>
<rscale>  0 0.12500082E+03</rscale>
<asrwt>0</asrwt>
<pdfrwt beam="1">  1        4 0.37534341E-01 0.12500082E+03</pdfrwt>
<pdfrwt beam="2">  1       -4 0.24632600E-02 0.12500082E+03</pdfrwt>
<totfact> 0.80906762E+03</totfact>
</mgrwt>
</event>
<event>
 5    1  0.3309219E-002  0.1250002E+03  0.7818608E-02  0.1235069E+00
         -4   -1    0    0    0  501 -0.00000000000E+00  0.00000000000E+00  0.35174652437E+02  0.35197571991E+02  0.12700000000E+01 0. -1.
          4   -1    0    0  501    0  0.00000000000E+00 -0.00000000000E+00 -0.11099063255E+03  0.11099789824E+03  0.12700000000E+01 0. -1.
         25    2    1    2    0    0  0.00000000000E+00  0.00000000000E+00 -0.75815980117E+02  0.14619547023E+03  0.12500021070E+03 0.  0.
    9000005    1    3    3    0    0 -0.10316041468E+02  0.16628093957E+01  0.34151420930E+02  0.35728212916E+02  0.10000000000E+01 0.  0.
    9000005    1    3    3    0    0  0.10316041468E+02 -0.16628093957E+01 -0.10996740105E+03  0.11046725732E+03  0.10000000000E+01 0.  0.
<mgrwt>
<rscale>  0 0.12500021E+03</rscale>
<asrwt>0</asrwt>
<pdfrwt beam="2">  1        4 0.17077804E-01 0.12500021E+03</pdfrwt>
<pdfrwt beam="1">  1       -4 0.54138070E-02 0.12500021E+03</pdfrwt>
<totfact> 0.10006708E+04</totfact>
</mgrwt>
</event>
<event>
 5    1  0.3309219E-002  0.1249986E+03  0.7818608E-02  0.1235071E+00
          4   -1    0    0  501    0  0.00000000000E+00  0.00000000000E+00  0.12325088951E+03  0.12325743249E+03  0.12700000000E+01 0. -1.
         -4   -1    0    0    0  501 -0.00000000000E+00 -0.00000000000E+00 -0.31672655249E+02  0.31698107050E+02  0.12700000000E+01 0. -1.
         25    2    1    2    0    0  0.00000000000E+00  0.00000000000E+00  0.91578234260E+02  0.15495553954E+03  0.12499858497E+03 0.  0.
    9000005    1    3    3    0    0  0.14967967077E+02  0.21636937542E+02  0.11605669287E+03  0.11900568501E+03  0.10000000000E+01 0.  0.
    9000005    1    3    3    0    0 -0.14967967077E+02 -0.21636937542E+02 -0.24478458613E+02  0.35949854530E+02  0.10000000000E+01 0.  0.
<mgrwt>
<rscale>  0 0.12499858E+03</rscale>
<asrwt>0</asrwt>
<pdfrwt beam="1">  1        4 0.18964136E-01 0.12499858E+03</pdfrwt>
<pdfrwt beam="2">  1       -4 0.48751775E-02 0.12499858E+03</pdfrwt>
<totfact> 0.98327357E+03</totfact>
</mgrwt>
</event>
<event>
 5    1  0.3309219E-002  0.1249637E+03  0.7818608E-02  0.1235126E+00
          4   -1    0    0  501    0  0.00000000000E+00  0.00000000000E+00  0.16993158790E+02  0.17040550040E+02  0.12700000000E+01 0. -1.
         -4   -1    0    0    0  501 -0.00000000000E+00 -0.00000000000E+00 -0.22936933112E+03  0.22937284704E+03  0.12700000000E+01 0. -1.
         25    2    1    2    0    0  0.00000000000E+00  0.00000000000E+00 -0.21237617233E+03  0.24641339708E+03  0.12496368947E+03 0.  0.
    9000005    1    3    3    0    0  0.69876881111E+01  0.58226318864E+02 -0.63719406852E+02  0.86604242408E+02  0.10000000000E+01 0.  0.
    9000005    1    3    3    0    0 -0.69876881111E+01 -0.58226318864E+02 -0.14865676548E+03  0.15980915467E+03  0.10000000000E+01 0.  0.
<mgrwt>
<rscale>  0 0.12496369E+03</rscale>
<asrwt>0</asrwt>
<pdfrwt beam="1">  1        4 0.26182482E-02 0.12496369E+03</pdfrwt>
<pdfrwt beam="2">  1       -4 0.35291503E-01 0.12496369E+03</pdfrwt>
<totfact> 0.82918453E+03</totfact>
</mgrwt>
</event>
<event>
 5    1  0.3309219E-002  0.1250001E+03  0.7818608E-02  0.1235069E+00
          4   -1    0    0  501    0  0.00000000000E+00  0.00000000000E+00  0.78083341454E+02  0.78093668838E+02  0.12700000000E+01 0.  1.
         -4   -1    0    0    0  501 -0.00000000000E+00 -0.00000000000E+00 -0.50005031864E+02  0.50021156641E+02  0.12700000000E+01 0.  1.
         25    2    1    2    0    0  0.00000000000E+00  0.00000000000E+00  0.28078309590E+02  0.12811482548E+03  0.12500006815E+03 0.  0.
    9000005    1    3    3    0    0 -0.88665961526E+01 -0.61183901411E+02  0.23386044384E+02  0.66105925538E+02  0.10000000000E+01 0.  0.
    9000005    1    3    3    0    0  0.88665961526E+01  0.61183901411E+02  0.46922652059E+01  0.62008899942E+02  0.10000000000E+01 0.  0.
<mgrwt>
<rscale>  0 0.12500007E+03</rscale>
<asrwt>0</asrwt>
<pdfrwt beam="1">  1        4 0.12014856E-01 0.12500007E+03</pdfrwt>
<pdfrwt beam="2">  1       -4 0.76951167E-02 0.12500007E+03</pdfrwt>
<totfact> 0.10384993E+04</totfact>
</mgrwt>
</event>
<event>
 5    1  0.3309219E-002  0.1250039E+03  0.7818608E-02  0.1235063E+00
          4   -1    0    0  501    0  0.00000000000E+00  0.00000000000E+00  0.13493800427E+03  0.13494398059E+03  0.12700000000E+01 0. -1.
         -4   -1    0    0    0  501 -0.00000000000E+00 -0.00000000000E+00 -0.28929724154E+02  0.28957586910E+02  0.12700000000E+01 0. -1.
         25    2    1    2    0    0  0.00000000000E+00  0.00000000000E+00  0.10600828012E+03  0.16390156750E+03  0.12500387344E+03 0.  0.
    9000005    1    3    3    0    0 -0.37201567589E+02 -0.47821600556E+02  0.32920085568E+02  0.68960816009E+02  0.10000000000E+01 0.  0.
    9000005    1    3    3    0    0  0.37201567589E+02  0.47821600556E+02  0.73088194552E+02  0.94940751491E+02  0.10000000000E+01 0.  0.
<mgrwt>
<rscale>  0 0.12500387E+03</rscale>
<asrwt>0</asrwt>
<pdfrwt beam="1">  1        4 0.20762296E-01 0.12500387E+03</pdfrwt>
<pdfrwt beam="2">  1       -4 0.44533299E-02 0.12500387E+03</pdfrwt>
<totfact> 0.96587417E+03</totfact>
</mgrwt>
</event>
<event>
 5    1  0.3309219E-002  0.1250019E+03  0.7818608E-02  0.1235066E+00
          4   -1    0    0  501    0  0.00000000000E+00  0.00000000000E+00  0.64281540741E+01  0.65524090837E+01  0.12700000000E+01 0.  1.
         -4   -1    0    0    0  501 -0.00000000000E+00 -0.00000000000E+00 -0.60175499393E+03  0.60175633409E+03  0.12700000000E+01 0.  1.
         25    2    1    2    0    0  0.00000000000E+00  0.00000000000E+00 -0.59532683986E+03  0.60830874318E+03  0.12500192307E+03 0.  0.
    9000005    1    3    3    0    0  0.53167098759E+02  0.32805536076E+02 -0.29008276174E+03  0.29673549205E+03  0.10000000000E+01 0.  0.
    9000005    1    3    3    0    0 -0.53167098759E+02 -0.32805536076E+02 -0.30524407812E+03  0.31157325112E+03  0.10000000000E+01 0.  0.
<mgrwt>
<rscale>  0 0.12500192E+03</rscale>
<asrwt>0</asrwt>
<pdfrwt beam="1">  1        4 0.99860842E-03 0.12500192E+03</pdfrwt>
<pdfrwt beam="2">  1       -4 0.92587309E-01 0.12500192E+03</pdfrwt>
<totfact> 0.48345283E+03</totfact>
</mgrwt>
</event>
<event>
 5    1  0.3309219E-002  0.1250018E+03  0.7818608E-02  0.1235067E+00
          4   -1    0    0  501    0  0.00000000000E+00  0.00000000000E+00  0.48997489874E+02  0.49013946117E+02  0.12700000000E+01 0.  1.
         -4   -1    0    0    0  501 -0.00000000000E+00 -0.00000000000E+00 -0.79690804587E+02  0.79700923682E+02  0.12700000000E+01 0.  1.
         25    2    1    2    0    0  0.00000000000E+00  0.00000000000E+00 -0.30693314714E+02  0.12871486980E+03  0.12500175254E+03 0.  0.
    9000005    1    3    3    0    0 -0.39620477684E+02  0.46246180292E+02 -0.89890512733E+00  0.60912227622E+02  0.10000000000E+01 0.  0.
    9000005    1    3    3    0    0  0.39620477684E+02 -0.46246180292E+02 -0.29794409587E+02  0.67802642176E+02  0.10000000000E+01 0.  0.
<mgrwt>
<rscale>  0 0.12500175E+03</rscale>
<asrwt>0</asrwt>
<pdfrwt beam="1">  1        4 0.75401196E-02 0.12500175E+03</pdfrwt>
<pdfrwt beam="2">  1       -4 0.12262168E-01 0.12500175E+03</pdfrwt>
<totfact> 0.10371667E+04</totfact>
</mgrwt>
</event>
<event>
 5    1  0.3309219E-002  0.1250038E+03  0.7818608E-02  0.1235063E+00
          4   -1    0    0  501    0  0.00000000000E+00  0.00000000000E+00  0.86598441600E+03  0.86598534725E+03  0.12700000000E+01 0.  1.
         -4   -1    0    0    0  501 -0.00000000000E+00 -0.00000000000E+00 -0.44206969959E+01  0.45995067050E+01  0.12700000000E+01 0.  1.
         25    2    1    2    0    0  0.00000000000E+00  0.00000000000E+00  0.86156371901E+03  0.87058485396E+03  0.12500378408E+03 0.  0.
    9000005    1    3    3    0    0 -0.42454304916E+02  0.28771990725E+02  0.67949149071E+03  0.68142489051E+03  0.10000000000E+01 0.  0.
    9000005    1    3    3    0    0  0.42454304916E+02 -0.28771990725E+02  0.18207222830E+03  0.18915996345E+03  0.10000000000E+01 0.  0.
<mgrwt>
<rscale>  0 0.12500378E+03</rscale>
<asrwt>0</asrwt>
<pdfrwt beam="1">  1        4 0.13324200E+00 0.12500378E+03</pdfrwt>
<pdfrwt beam="2">  1       -4 0.69393448E-03 0.12500378E+03</pdfrwt>
<totfact> 0.35296597E+03</totfact>
</mgrwt>
</event>
<event>
 5    1  0.3309219E-002  0.1249998E+03  0.7818608E-02  0.1235070E+00
         -4   -1    0    0    0  501 -0.00000000000E+00  0.00000000000E+00  0.38081382278E+01  0.40143264394E+01  0.12700000000E+01 0.  1.
          4   -1    0    0  501    0  0.00000000000E+00 -0.00000000000E+00 -0.99851664522E+03  0.99851745287E+03  0.12700000000E+01 0.  1.
         25    2    1    2    0    0  0.00000000000E+00  0.00000000000E+00 -0.99470850699E+03  0.10025317793E+04  0.12499981855E+03 0.  0.
    9000005    1    3    3    0    0  0.11112593798E+02 -0.11001511597E+02 -0.98261120355E+03  0.98273612956E+03  0.10000000000E+01 0.  0.
    9000005    1    3    3    0    0 -0.11112593798E+02  0.11001511597E+02 -0.12097303440E+02  0.19795649745E+02  0.10000000000E+01 0.  0.
<mgrwt>
<rscale>  0 0.12499982E+03</rscale>
<asrwt>0</asrwt>
<pdfrwt beam="2">  1        4 0.15363367E+00 0.12499982E+03</pdfrwt>
<pdfrwt beam="1">  1       -4 0.60179097E-03 0.12499982E+03</pdfrwt>
<totfact> 0.30521197E+03</totfact>
</mgrwt>
</event>
<event>
 5    1  0.3309219E-002  0.1249900E+03  0.7818608E-02  0.1235085E+00
          4   -1    0    0  501    0  0.00000000000E+00  0.00000000000E+00  0.38819556990E+02  0.38840325757E+02  0.12700000000E+01 0. -1.
         -4   -1    0    0    0  501 -0.00000000000E+00 -0.00000000000E+00 -0.10055796689E+03  0.10056598632E+03  0.12700000000E+01 0. -1.
         25    2    1    2    0    0  0.00000000000E+00  0.00000000000E+00 -0.61738409900E+02  0.13940631208E+03  0.12498995396E+03 0.  0.
    9000005    1    3    3    0    0 -0.56941180720E+02 -0.48336215637E+01 -0.26760141808E+01  0.57217331388E+02  0.10000000000E+01 0.  0.
    9000005    1    3    3    0    0  0.56941180720E+02  0.48336215637E+01 -0.59062395719E+02  0.82188980693E+02  0.10000000000E+01 0.  0.
<mgrwt>
<rscale>  0 0.12498995E+03</rscale>
<asrwt>0</asrwt>
<pdfrwt beam="1">  1        4 0.59744541E-02 0.12498995E+03</pdfrwt>
<pdfrwt beam="2">  1       -4 0.15472671E-01 0.12498995E+03</pdfrwt>
<totfact> 0.10148202E+04</totfact>
</mgrwt>
</event>
<event>
 5    1  0.3309219E-002  0.1250030E+03  0.7818608E-02  0.1235065E+00
         -4   -1    0    0    0  501 -0.00000000000E+00  0.00000000000E+00  0.34270499980E+02  0.34294023807E+02  0.12700000000E+01 0. -1.
          4   -1    0    0  501    0  0.00000000000E+00 -0.00000000000E+00 -0.11392213949E+03  0.11392921823E+03  0.12700000000E+01 0. -1.
         25    2    1    2    0    0  0.00000000000E+00  0.00000000000E+00 -0.79651639515E+02  0.14822324204E+03  0.12500298318E+03 0.  0.
    9000005    1    3    3    0    0 -0.56604844337E+02  0.57601796133E+01 -0.70475954659E+02  0.90582273413E+02  0.10000000000E+01 0.  0.
    9000005    1    3    3    0    0  0.56604844337E+02 -0.57601796133E+01 -0.91756848559E+01  0.57640968626E+02  0.10000000000E+01 0.  0.
<mgrwt>
<rscale>  0 0.12500298E+03</rscale>
<asrwt>0</asrwt>
<pdfrwt beam="2">  1        4 0.17528837E-01 0.12500298E+03</pdfrwt>
<pdfrwt beam="1">  1       -4 0.52747387E-02 0.12500298E+03</pdfrwt>
<totfact> 0.99652362E+03</totfact>
</mgrwt>
</event>
<event>
 5    1  0.3309219E-002  0.1249994E+03  0.7818608E-02  0.1235070E+00
          4   -1    0    0  501    0  0.00000000000E+00  0.00000000000E+00  0.14163872104E+02  0.14220695235E+02  0.12700000000E+01 0.  1.
         -4   -1    0    0    0  501 -0.00000000000E+00 -0.00000000000E+00 -0.27517667689E+03  0.27517960753E+03  0.12700000000E+01 0.  1.
         25    2    1    2    0    0  0.00000000000E+00  0.00000000000E+00 -0.26101280478E+03  0.28940030277E+03  0.12499940393E+03 0.  0.
    9000005    1    3    3    0    0 -0.28309062723E+02  0.44720295889E+02 -0.53583287936E+02  0.75322484310E+02  0.10000000000E+01 0.  0.
    9000005    1    3    3    0    0  0.28309062723E+02 -0.44720295889E+02 -0.20742951685E+03  0.21407781846E+03  0.10000000000E+01 0.  0.
<mgrwt>
<rscale>  0 0.12499940E+03</rscale>
<asrwt>0</asrwt>
<pdfrwt beam="1">  1        4 0.21836539E-02 0.12499940E+03</pdfrwt>
<pdfrwt beam="2">  1       -4 0.42339466E-01 0.12499940E+03</pdfrwt>
<totfact> 0.76948998E+03</totfact>
</mgrwt>
</event>
<event>
 5    1  0.3309219E-002  0.1250106E+03  0.7818608E-02  0.1235053E+00
          4   -1    0    0  501    0  0.00000000000E+00  0.00000000000E+00  0.90881467117E+03  0.90881555854E+03  0.12700000000E+01 0.  1.
         -4   -1    0    0    0  501 -0.00000000000E+00 -0.00000000000E+00 -0.42042038260E+01  0.43918367241E+01  0.12700000000E+01 0.  1.
         25    2    1    2    0    0  0.00000000000E+00  0.00000000000E+00  0.90461046735E+03  0.91320739526E+03  0.12501059606E+03 0.  0.
    9000005    1    3    3    0    0  0.53576390329E+00  0.57860885755E+02  0.27978512944E+03  0.28570769643E+03  0.10000000000E+01 0.  0.
    9000005    1    3    3    0    0 -0.53576390329E+00 -0.57860885755E+02  0.62482533791E+03  0.62749969884E+03  0.10000000000E+01 0.  0.
<mgrwt>
<rscale>  0 0.12501060E+03</rscale>
<asrwt>0</asrwt>
<pdfrwt beam="1">  1        4 0.13983202E+00 0.12501060E+03</pdfrwt>
<pdfrwt beam="2">  1       -4 0.66130272E-03 0.12501060E+03</pdfrwt>
<totfact> 0.33651465E+03</totfact>
</mgrwt>
</event>
<event>
 5    1  0.3309219E-002  0.1250023E+03  0.7818608E-02  0.1235066E+00
         -4   -1    0    0    0  501 -0.00000000000E+00  0.00000000000E+00  0.10909317884E+03  0.10910057089E+03  0.12700000000E+01 0.  1.
          4   -1    0    0  501    0  0.00000000000E+00 -0.00000000000E+00 -0.35788014729E+02  0.35810541719E+02  0.12700000000E+01 0.  1.
         25    2    1    2    0    0  0.00000000000E+00  0.00000000000E+00  0.73305164111E+02  0.14491111261E+03  0.12500233387E+03 0.  0.
    9000005    1    3    3    0    0  0.54401291376E+02  0.17894315903E+02  0.65650229672E+02  0.87124392112E+02  0.10000000000E+01 0.  0.
    9000005    1    3    3    0    0 -0.54401291376E+02 -0.17894315903E+02  0.76549344388E+01  0.57786720501E+02  0.10000000000E+01 0.  0.
<mgrwt>
<rscale>  0 0.12500233E+03</rscale>
<asrwt>0</asrwt>
<pdfrwt beam="2">  1        4 0.55081499E-02 0.12500233E+03</pdfrwt>
<pdfrwt beam="1">  1       -4 0.16785867E-01 0.12500233E+03</pdfrwt>
<totfact> 0.10032267E+04</totfact>
</mgrwt>
</event>
<event>
 5    1  0.3309219E-002  0.1250011E+03  0.7818608E-02  0.1235068E+00
          4   -1    0    0  501    0  0.00000000000E+00  0.00000000000E+00  0.79328472191E+02  0.79338637498E+02  0.12700000000E+01 0.  1.
         -4   -1    0    0    0  501 -0.00000000000E+00 -0.00000000000E+00 -0.49220820991E+02  0.49237202591E+02  0.12700000000E+01 0.  1.
         25    2    1    2    0    0  0.00000000000E+00  0.00000000000E+00  0.30107651200E+02  0.12857584009E+03  0.12500110397E+03 0.  0.
    9000005    1    3    3    0    0 -0.37862082836E+02 -0.32235147139E+02  0.53986986268E+02  0.73404609624E+02  0.10000000000E+01 0.  0.
    9000005    1    3    3    0    0  0.37862082836E+02  0.32235147139E+02 -0.23879335068E+02  0.55171230466E+02  0.10000000000E+01 0.  0.
<mgrwt>
<rscale>  0 0.12500110E+03</rscale>
<asrwt>0</asrwt>
<pdfrwt beam="1">  1        4 0.12206422E-01 0.12500110E+03</pdfrwt>
<pdfrwt beam="2">  1       -4 0.75744761E-02 0.12500110E+03</pdfrwt>
<totfact> 0.10374812E+04</totfact>
</mgrwt>
</event>
<event>
 5    1  0.3309219E-002  0.1250006E+03  0.7818608E-02  0.1235068E+00
          4   -1    0    0  501    0  0.00000000000E+00  0.00000000000E+00  0.32068514905E+02  0.32093652772E+02  0.12700000000E+01 0. -1.
         -4   -1    0    0    0  501 -0.00000000000E+00 -0.00000000000E+00 -0.12173440793E+03  0.12174103242E+03  0.12700000000E+01 0. -1.
         25    2    1    2    0    0  0.00000000000E+00  0.00000000000E+00 -0.89665893027E+02  0.15383468519E+03  0.12500055198E+03 0.  0.
    9000005    1    3    3    0    0  0.57014758978E+02 -0.22102645953E+02 -0.60692618637E+02  0.86161497529E+02  0.10000000000E+01 0.  0.
    9000005    1    3    3    0    0 -0.57014758978E+02  0.22102645953E+02 -0.28973274389E+02  0.67673187661E+02  0.10000000000E+01 0.  0.
<mgrwt>
<rscale>  0 0.12500055E+03</rscale>
<asrwt>0</asrwt>
<pdfrwt beam="1">  1        4 0.49360610E-02 0.12500055E+03</pdfrwt>
<pdfrwt beam="2">  1       -4 0.18730814E-01 0.12500055E+03</pdfrwt>
<totfact> 0.98543506E+03</totfact>
</mgrwt>
</event>
<event>
 5    1  0.3309219E-002  0.1250037E+03  0.7818608E-02  0.1235064E+00
         -4   -1    0    0    0  501 -0.00000000000E+00  0.00000000000E+00  0.30471967886E+03  0.30472232538E+03  0.12700000000E+01 0.  1.
          4   -1    0    0  501    0  0.00000000000E+00 -0.00000000000E+00 -0.12785753496E+02  0.12848672790E+02  0.12700000000E+01 0.  1.
         25    2    1    2    0    0  0.00000000000E+00  0.00000000000E+00  0.29193392537E+03  0.31757099817E+03  0.12500368835E+03 0.  0.
    9000005    1    3    3    0    0 -0.32187418784E+02  0.38317917705E+02  0.50870102693E+02  0.71365678678E+02  0.10000000000E+01 0.  0.
    9000005    1    3    3    0    0  0.32187418784E+02 -0.38317917705E+02  0.24106382267E+03  0.24620531949E+03  0.10000000000E+01 0.  0.
<mgrwt>
<rscale>  0 0.12500369E+03</rscale>
<asrwt>0</asrwt>
<pdfrwt beam="2">  1        4 0.19720826E-02 0.12500369E+03</pdfrwt>
<pdfrwt beam="1">  1       -4 0.46884992E-01 0.12500369E+03</pdfrwt>
<totfact> 0.73439951E+03</totfact>
</mgrwt>
</event>
<event>
 5    1  0.3309219E-002  0.1250000E+03  0.7818608E-02  0.1235069E+00
         -4   -1    0    0    0  501 -0.00000000000E+00  0.00000000000E+00  0.11569270925E+03  0.11569967966E+03  0.12700000000E+01 0.  1.
          4   -1    0    0  501    0  0.00000000000E+00 -0.00000000000E+00 -0.33744087243E+02  0.33767977787E+02  0.12700000000E+01 0.  1.
         25    2    1    2    0    0  0.00000000000E+00  0.00000000000E+00  0.81948622008E+02  0.14946765745E+03  0.12500001590E+03 0.  0.
    9000005    1    3    3    0    0 -0.53640101513E+02 -0.24522364629E+02  0.65672780977E+02  0.88275257114E+02  0.10000000000E+01 0.  0.
    9000005    1    3    3    0    0  0.53640101513E+02  0.24522364629E+02  0.16275841031E+02  0.61192400334E+02  0.10000000000E+01 0.  0.
<mgrwt>
<rscale>  0 0.12500002E+03</rscale>
<asrwt>0</asrwt>
<pdfrwt beam="2">  1        4 0.51937719E-02 0.12500002E+03</pdfrwt>
<pdfrwt beam="1">  1       -4 0.17801252E-01 0.12500002E+03</pdfrwt>
<totfact> 0.99409882E+03</totfact>
</mgrwt>
</event>
<event>
 5    1  0.3309219E-002  0.1250038E+03  0.7818608E-02  0.1235063E+00
          4   -1    0    0  501    0  0.00000000000E+00  0.00000000000E+00  0.57587468648E+02  0.57601470861E+02  0.12700000000E+01 0. -1.
         -4   -1    0    0    0  501 -0.00000000000E+00 -0.00000000000E+00 -0.67807476365E+02  0.67819368554E+02  0.12700000000E+01 0. -1.
         25    2    1    2    0    0  0.00000000000E+00  0.00000000000E+00 -0.10220007717E+02  0.12542083941E+03  0.12500375355E+03 0.  0.
    9000005    1    3    3    0    0 -0.51286593655E+02 -0.21076557729E+02  0.23812356714E+02  0.60353660259E+02  0.10000000000E+01 0.  0.
    9000005    1    3    3    0    0  0.51286593655E+02  0.21076557729E+02 -0.34032364431E+02  0.65067179155E+02  0.10000000000E+01 0.  0.
<mgrwt>
<rscale>  0 0.12500375E+03</rscale>
<asrwt>0</asrwt>
<pdfrwt beam="1">  1        4 0.88616024E-02 0.12500375E+03</pdfrwt>
<pdfrwt beam="2">  1       -4 0.10433911E-01 0.12500375E+03</pdfrwt>
<totfact> 0.10442821E+04</totfact>
</mgrwt>
</event>
<event>
 5    1  0.3309219E-002  0.1250015E+03  0.7818608E-02  0.1235067E+00
          4   -1    0    0  501    0  0.00000000000E+00  0.00000000000E+00  0.76581421565E+01  0.77627341375E+01  0.12700000000E+01 0.  1.
         -4   -1    0    0    0  501 -0.00000000000E+00 -0.00000000000E+00 -0.50652526048E+03  0.50652685259E+03  0.12700000000E+01 0.  1.
         25    2    1    2    0    0  0.00000000000E+00  0.00000000000E+00 -0.49886711832E+03  0.51428958673E+03  0.12500150912E+03 0.  0.
    9000005    1    3    3    0    0  0.36356725951E+02 -0.50697658657E+02 -0.23444034075E+03  0.24260119020E+03  0.10000000000E+01 0.  0.
    9000005    1    3    3    0    0 -0.36356725951E+02  0.50697658657E+02 -0.26442677757E+03  0.27168839654E+03  0.10000000000E+01 0.  0.
<mgrwt>
<rscale>  0 0.12500151E+03</rscale>
<asrwt>0</asrwt>
<pdfrwt beam="1">  1        4 0.11863441E-02 0.12500151E+03</pdfrwt>
<pdfrwt beam="2">  1       -4 0.77935105E-01 0.12500151E+03</pdfrwt>
<totfact> 0.54770663E+03</totfact>
</mgrwt>
</event>
<event>
 5    1  0.3309219E-002  0.1250063E+03  0.7818608E-02  0.1235059E+00
          4   -1    0    0  501    0  0.00000000000E+00  0.00000000000E+00  0.27881973534E+02  0.27910882253E+02  0.12700000000E+01 0.  1.
         -4   -1    0    0    0  501 -0.00000000000E+00 -0.00000000000E+00 -0.14000927090E+03  0.14001503076E+03  0.12700000000E+01 0.  1.
         25    2    1    2    0    0  0.00000000000E+00  0.00000000000E+00 -0.11212729737E+03  0.16792591301E+03  0.12500632562E+03 0.  0.
    9000005    1    3    3    0    0  0.10024501960E+01 -0.54021416460E+02 -0.98252353550E+02  0.11213314996E+03  0.10000000000E+01 0.  0.
    9000005    1    3    3    0    0 -0.10024501960E+01  0.54021416460E+02 -0.13874943820E+02  0.55792763050E+02  0.10000000000E+01 0.  0.
<mgrwt>
<rscale>  0 0.12500633E+03</rscale>
<asrwt>0</asrwt>
<pdfrwt beam="1">  1        4 0.42922013E-02 0.12500633E+03</pdfrwt>
<pdfrwt beam="2">  1       -4 0.21542554E-01 0.12500633E+03</pdfrwt>
<totfact> 0.95822510E+03</totfact>
</mgrwt>
</event>
<event>
 5    1  0.3309219E-002  0.1250005E+03  0.7818608E-02  0.1235068E+00
         -4   -1    0    0    0  501 -0.00000000000E+00  0.00000000000E+00  0.25598786709E+01  0.28576001837E+01  0.12700000000E+01 0.  1.
          4   -1    0    0  501    0  0.00000000000E+00 -0.00000000000E+00 -0.14418055377E+04  0.14418060970E+04  0.12700000000E+01 0.  1.
         25    2    1    2    0    0  0.00000000000E+00  0.00000000000E+00 -0.14392456590E+04  0.14446636972E+04  0.12500052409E+03 0.  0.
    9000005    1    3    3    0    0 -0.55473187097E+02  0.27241005295E+02 -0.61248514922E+03  0.61559597535E+03  0.10000000000E+01 0.  0.
    9000005    1    3    3    0    0  0.55473187097E+02 -0.27241005295E+02 -0.82676050979E+03  0.82906772185E+03  0.10000000000E+01 0.  0.
<mgrwt>
<rscale>  0 0.12500052E+03</rscale>
<asrwt>0</asrwt>
<pdfrwt beam="2">  1        4 0.22183857E+00 0.12500052E+03</pdfrwt>
<pdfrwt beam="1">  1       -4 0.41677332E-03 0.12500052E+03</pdfrwt>
<totfact> 0.19042159E+03</totfact>
</mgrwt>
</event>
<event>
 5    1  0.3309219E-002  0.1250017E+03  0.7818608E-02  0.1235067E+00
         -4   -1    0    0    0  501 -0.00000000000E+00  0.00000000000E+00  0.33038518266E+02  0.33062918643E+02  0.12700000000E+01 0. -1.
          4   -1    0    0  501    0  0.00000000000E+00 -0.00000000000E+00 -0.11816495301E+03  0.11817177759E+03  0.12700000000E+01 0. -1.
         25    2    1    2    0    0  0.00000000000E+00  0.00000000000E+00 -0.85126434744E+02  0.15123469624E+03  0.12500169380E+03 0.  0.
    9000005    1    3    3    0    0 -0.17457898537E+02  0.44387868373E+02  0.62872372703E+01  0.48120582213E+02  0.10000000000E+01 0.  0.
    9000005    1    3    3    0    0  0.17457898537E+02 -0.44387868373E+02 -0.91413672014E+02  0.10311411402E+03  0.10000000000E+01 0.  0.
<mgrwt>
<rscale>  0 0.12500169E+03</rscale>
<asrwt>0</asrwt>
<pdfrwt beam="2">  1        4 0.18181625E-01 0.12500169E+03</pdfrwt>
<pdfrwt beam="1">  1       -4 0.50852510E-02 0.12500169E+03</pdfrwt>
<totfact> 0.99054372E+03</totfact>
</mgrwt>
</event>
<event>
 5    1  0.3309219E-002  0.1249998E+03  0.7818608E-02  0.1235070E+00
         -4   -1    0    0    0  501 -0.00000000000E+00  0.00000000000E+00  0.16123445919E+02  0.16173385802E+02  0.12700000000E+01 0. -1.
          4   -1    0    0  501    0  0.00000000000E+00 -0.00000000000E+00 -0.24184430823E+03  0.24184764279E+03  0.12700000000E+01 0. -1.
         25    2    1    2    0    0  0.00000000000E+00  0.00000000000E+00 -0.22572086231E+03  0.25802102859E+03  0.12499977405E+03 0.  0.
    9000005    1    3    3    0    0 -0.43723009105E+01  0.45236782575E+02 -0.20139758548E+03  0.20646421227E+03  0.10000000000E+01 0.  0.
    9000005    1    3    3    0    0  0.43723009105E+01 -0.45236782575E+02 -0.24323276830E+02  0.51556816317E+02  0.10000000000E+01 0.  0.
<mgrwt>
<rscale>  0 0.12499977E+03</rscale>
<asrwt>0</asrwt>
<pdfrwt beam="2">  1        4 0.37210912E-01 0.12499977E+03</pdfrwt>
<pdfrwt beam="1">  1       -4 0.24846284E-02 0.12499977E+03</pdfrwt>
<totfact> 0.81184995E+03</totfact>
</mgrwt>
</event>
<event>
 5    1  0.3309219E-002  0.1249966E+03  0.7818608E-02  0.1235075E+00
          4   -1    0    0  501    0  0.00000000000E+00  0.00000000000E+00  0.22684447012E+03  0.22684802517E+03  0.12700000000E+01 0.  1.
         -4   -1    0    0    0  501 -0.00000000000E+00 -0.00000000000E+00 -0.17191903393E+02  0.17238748281E+02  0.12700000000E+01 0.  1.
         25    2    1    2    0    0  0.00000000000E+00  0.00000000000E+00  0.20965256673E+03  0.24408677345E+03  0.12499661691E+03 0.  0.
    9000005    1    3    3    0    0 -0.40016627817E+02  0.29877999998E+02  0.31474357282E+02  0.59039482992E+02  0.10000000000E+01 0.  0.
    9000005    1    3    3    0    0  0.40016627817E+02 -0.29877999998E+02  0.17817820945E+03  0.18504729046E+03  0.10000000000E+01 0.  0.
<mgrwt>
<rscale>  0 0.12499662E+03</rscale>
<asrwt>0</asrwt>
<pdfrwt beam="1">  1        4 0.34903023E-01 0.12499662E+03</pdfrwt>
<pdfrwt beam="2">  1       -4 0.26487854E-02 0.12499662E+03</pdfrwt>
<totfact> 0.83198730E+03</totfact>
</mgrwt>
</event>
<event>
 5    1  0.3309219E-002  0.1249971E+03  0.7818608E-02  0.1235074E+00
          4   -1    0    0  501    0  0.00000000000E+00  0.00000000000E+00  0.19197034281E+02  0.19238997510E+02  0.12700000000E+01 0.  1.
         -4   -1    0    0    0  501 -0.00000000000E+00 -0.00000000000E+00 -0.20320641847E+03  0.20321038705E+03  0.12700000000E+01 0.  1.
         25    2    1    2    0    0  0.00000000000E+00  0.00000000000E+00 -0.18400938419E+03  0.22244938456E+03  0.12499710086E+03 0.  0.
    9000005    1    3    3    0    0  0.26624965727E+02  0.18342598932E+02 -0.18717329929E+03  0.18994784469E+03  0.10000000000E+01 0.  0.
    9000005    1    3    3    0    0 -0.26624965727E+02 -0.18342598932E+02  0.31639151007E+01  0.32501539876E+02  0.10000000000E+01 0.  0.
<mgrwt>
<rscale>  0 0.12499710E+03</rscale>
<asrwt>0</asrwt>
<pdfrwt beam="1">  1        4 0.29569233E-02 0.12499710E+03</pdfrwt>
<pdfrwt beam="2">  1       -4 0.31266058E-01 0.12499710E+03</pdfrwt>
<totfact> 0.86487844E+03</totfact>
</mgrwt>
</event>
<event>
 5    1  0.3309219E-002  0.1249998E+03  0.7818608E-02  0.1235070E+00
          4   -1    0    0  501    0  0.00000000000E+00  0.00000000000E+00  0.97382853035E+01  0.98207484772E+01  0.12700000000E+01 0.  1.
         -4   -1    0    0    0  501 -0.00000000000E+00 -0.00000000000E+00 -0.39934706749E+03  0.39934908691E+03  0.12700000000E+01 0.  1.
         25    2    1    2    0    0  0.00000000000E+00  0.00000000000E+00 -0.38960878219E+03  0.40916983539E+03  0.12499980412E+03 0.  0.
    9000005    1    3    3    0    0  0.27913075954E+02 -0.38991651015E+02 -0.32597396885E+03  0.32948371283E+03  0.10000000000E+01 0.  0.
    9000005    1    3    3    0    0 -0.27913075954E+02  0.38991651015E+02 -0.63634813345E+02  0.79686122553E+02  0.10000000000E+01 0.  0.
<mgrwt>
<rscale>  0 0.12499980E+03</rscale>
<asrwt>0</asrwt>
<pdfrwt beam="1">  1        4 0.15046967E-02 0.12499980E+03</pdfrwt>
<pdfrwt beam="2">  1       -4 0.61444496E-01 0.12499980E+03</pdfrwt>
<totfact> 0.63670888E+03</totfact>
</mgrwt>
</event>
<event>
 5    1  0.3309219E-002  0.1250018E+03  0.7818608E-02  0.1235066E+00
         -4   -1    0    0    0  501 -0.00000000000E+00  0.00000000000E+00  0.35956577801E+01  0.38133521830E+01  0.12700000000E+01 0. -1.
          4   -1    0    0  501    0  0.00000000000E+00 -0.00000000000E+00 -0.10542721626E+04  0.10542729276E+04  0.12700000000E+01 0. -1.
         25    2    1    2    0    0  0.00000000000E+00  0.00000000000E+00 -0.10506765049E+04  0.10580862798E+04  0.12500183018E+03 0.  0.
    9000005    1    3    3    0    0  0.25951133026E+02 -0.56595752571E+02 -0.47989379999E+03  0.48391693479E+03  0.10000000000E+01 0.  0.
    9000005    1    3    3    0    0 -0.25951133026E+02  0.56595752571E+02 -0.57078270488E+03  0.57416934497E+03  0.10000000000E+01 0.  0.
<mgrwt>
<rscale>  0 0.12500183E+03</rscale>
<asrwt>0</asrwt>
<pdfrwt beam="2">  1        4 0.16221228E+00 0.12500183E+03</pdfrwt>
<pdfrwt beam="1">  1       -4 0.56998352E-03 0.12500183E+03</pdfrwt>
<totfact> 0.28742521E+03</totfact>
</mgrwt>
</event>
<event>
 5    1  0.3309219E-002  0.1250035E+03  0.7818608E-02  0.1235064E+00
          4   -1    0    0  501    0  0.00000000000E+00  0.00000000000E+00  0.16598390872E+02  0.16646906005E+02  0.12700000000E+01 0. -1.
         -4   -1    0    0    0  501 -0.00000000000E+00 -0.00000000000E+00 -0.23495860196E+03  0.23496203424E+03  0.12700000000E+01 0. -1.
         25    2    1    2    0    0  0.00000000000E+00  0.00000000000E+00 -0.21836021109E+03  0.25160894025E+03  0.12500350805E+03 0.  0.
    9000005    1    3    3    0    0 -0.17450786669E+02  0.56036540349E+02 -0.15238983209E+03  0.16330427041E+03  0.10000000000E+01 0.  0.
    9000005    1    3    3    0    0  0.17450786669E+02 -0.56036540349E+02 -0.65970378996E+02  0.88304669834E+02  0.10000000000E+01 0.  0.
<mgrwt>
<rscale>  0 0.12500351E+03</rscale>
<asrwt>0</asrwt>
<pdfrwt beam="1">  1        4 0.25575947E-02 0.12500351E+03</pdfrwt>
<pdfrwt beam="2">  1       -4 0.36151471E-01 0.12500351E+03</pdfrwt>
<totfact> 0.82091827E+03</totfact>
</mgrwt>
</event>
<event>
 5    1  0.3309219E-002  0.1249938E+03  0.7818608E-02  0.1235079E+00
         -4   -1    0    0    0  501 -0.00000000000E+00  0.00000000000E+00  0.59209403321E+02  0.59223022057E+02  0.12700000000E+01 0.  1.
          4   -1    0    0  501    0  0.00000000000E+00 -0.00000000000E+00 -0.65939642420E+02  0.65951871410E+02  0.12700000000E+01 0.  1.
         25    2    1    2    0    0  0.00000000000E+00  0.00000000000E+00 -0.67302390994E+01  0.12517489347E+03  0.12499383119E+03 0.  0.
    9000005    1    3    3    0    0 -0.19990026794E+01  0.62447691244E+02 -0.44410620539E+01  0.62645296596E+02  0.10000000000E+01 0.  0.
    9000005    1    3    3    0    0  0.19990026794E+01 -0.62447691244E+02 -0.22891770454E+01  0.62529596872E+02  0.10000000000E+01 0.  0.
<mgrwt>
<rscale>  0 0.12499383E+03</rscale>
<asrwt>0</asrwt>
<pdfrwt beam="2">  1        4 0.10146549E-01 0.12499383E+03</pdfrwt>
<pdfrwt beam="1">  1       -4 0.91111273E-02 0.12499383E+03</pdfrwt>
<totfact> 0.10450522E+04</totfact>
</mgrwt>
</event>
<event>
 5    1  0.3309219E-002  0.1250005E+03  0.7818608E-02  0.1235068E+00
          4   -1    0    0  501    0  0.00000000000E+00  0.00000000000E+00  0.43766627008E+01  0.45572004999E+01  0.12700000000E+01 0.  1.
         -4   -1    0    0    0  501 -0.00000000000E+00 -0.00000000000E+00 -0.87430806283E+03  0.87430898522E+03  0.12700000000E+01 0.  1.
         25    2    1    2    0    0  0.00000000000E+00  0.00000000000E+00 -0.86993140013E+03  0.87886618572E+03  0.12500052586E+03 0.  0.
    9000005    1    3    3    0    0  0.85371530917E+01  0.44610678769E+02 -0.73674509635E+03  0.73814452016E+03  0.10000000000E+01 0.  0.
    9000005    1    3    3    0    0 -0.85371530917E+01 -0.44610678769E+02 -0.13318630378E+03  0.14072166556E+03  0.10000000000E+01 0.  0.
<mgrwt>
<rscale>  0 0.12500053E+03</rscale>
<asrwt>0</asrwt>
<pdfrwt beam="1">  1        4 0.68729190E-03 0.12500053E+03</pdfrwt>
<pdfrwt beam="2">  1       -4 0.13452275E+00 0.12500053E+03</pdfrwt>
<totfact> 0.34973950E+03</totfact>
</mgrwt>
</event>
<event>
 5    1  0.3309219E-002  0.1249963E+03  0.7818608E-02  0.1235075E+00
         -4   -1    0    0    0  501 -0.00000000000E+00  0.00000000000E+00  0.12368439748E+02  0.12433471028E+02  0.12700000000E+01 0.  1.
          4   -1    0    0  501    0  0.00000000000E+00 -0.00000000000E+00 -0.31491105766E+03  0.31491361853E+03  0.12700000000E+01 0.  1.
         25    2    1    2    0    0  0.00000000000E+00  0.00000000000E+00 -0.30254261791E+03  0.32734708956E+03  0.12499632551E+03 0.  0.
    9000005    1    3    3    0    0 -0.62452759533E+02  0.13806177508E+00 -0.15692106512E+03  0.16889519505E+03  0.10000000000E+01 0.  0.
    9000005    1    3    3    0    0  0.62452759533E+02 -0.13806177508E+00 -0.14562155280E+03  0.15845189451E+03  0.10000000000E+01 0.  0.
<mgrwt>
<rscale>  0 0.12499633E+03</rscale>
<asrwt>0</asrwt>
<pdfrwt beam="2">  1        4 0.48453048E-01 0.12499633E+03</pdfrwt>
<pdfrwt beam="1">  1       -4 0.19080365E-02 0.12499633E+03</pdfrwt>
<totfact> 0.72296613E+03</totfact>
</mgrwt>
</event>
<event>
 5    1  0.3309219E-002  0.1249926E+03  0.7818608E-02  0.1235081E+00
         -4   -1    0    0    0  501 -0.00000000000E+00  0.00000000000E+00  0.44813606051E+03  0.44813786007E+03  0.12700000000E+01 0.  1.
          4   -1    0    0  501    0  0.00000000000E+00 -0.00000000000E+00 -0.86675303970E+01  0.87600789485E+01  0.12700000000E+01 0.  1.
         25    2    1    2    0    0  0.00000000000E+00  0.00000000000E+00  0.43946853012E+03  0.45689793902E+03  0.12499255066E+03 0.  0.
    9000005    1    3    3    0    0  0.47854492421E+02 -0.39001616178E+02  0.25510032907E+03  0.26246591474E+03  0.10000000000E+01 0.  0.
    9000005    1    3    3    0    0 -0.47854492421E+02  0.39001616178E+02  0.18436820105E+03  0.19443202428E+03  0.10000000000E+01 0.  0.
<mgrwt>
<rscale>  0 0.12499255E+03</rscale>
<asrwt>0</asrwt>
<pdfrwt beam="2">  1        4 0.13407238E-02 0.12499255E+03</pdfrwt>
<pdfrwt beam="1">  1       -4 0.68951263E-01 0.12499255E+03</pdfrwt>
<totfact> 0.59380592E+03</totfact>
</mgrwt>
</event>
<event>
 5    1  0.3309219E-002  0.1250007E+03  0.7818608E-02  0.1235068E+00
          4   -1    0    0  501    0  0.00000000000E+00  0.00000000000E+00  0.20526185584E+01  0.24137404471E+01  0.12700000000E+01 0.  1.
         -4   -1    0    0    0  501 -0.00000000000E+00 -0.00000000000E+00 -0.17488456392E+04  0.17488461003E+04  0.12700000000E+01 0.  1.
         25    2    1    2    0    0  0.00000000000E+00  0.00000000000E+00 -0.17467930206E+04  0.17512598408E+04  0.12500069186E+03 0.  0.
    9000005    1    3    3    0    0 -0.62346285262E+02 -0.10865515034E+01 -0.81554120785E+03  0.81792218553E+03  0.10000000000E+01 0.  0.
    9000005    1    3    3    0    0  0.62346285262E+02  0.10865515034E+01 -0.93125181276E+03  0.93333765522E+03  0.10000000000E+01 0.  0.
<mgrwt>
<rscale>  0 0.12500069E+03</rscale>
<asrwt>0</asrwt>
<pdfrwt beam="1">  1        4 0.34360295E-03 0.12500069E+03</pdfrwt>
<pdfrwt beam="2">  1       -4 0.26907989E+00 0.12500069E+03</pdfrwt>
<totfact> 0.13469474E+03</totfact>
</mgrwt>
</event>
<event>
 5    1  0.3309219E-002  0.1250002E+03  0.7818608E-02  0.1235069E+00
          4   -1    0    0  501    0  0.00000000000E+00  0.00000000000E+00  0.14318383443E+02  0.14374595800E+02  0.12700000000E+01 0. -1.
         -4   -1    0    0    0  501 -0.00000000000E+00 -0.00000000000E+00 -0.27222248845E+03  0.27222545090E+03  0.12700000000E+01 0. -1.
         25    2    1    2    0    0  0.00000000000E+00  0.00000000000E+00 -0.25790410501E+03  0.28660004670E+03  0.12500023756E+03 0.  0.
    9000005    1    3    3    0    0  0.45550235044E+02 -0.35320488798E+02 -0.73596149667E+02  0.93486651921E+02  0.10000000000E+01 0.  0.
    9000005    1    3    3    0    0 -0.45550235044E+02  0.35320488798E+02 -0.18430795534E+03  0.19311339478E+03  0.10000000000E+01 0.  0.
<mgrwt>
<rscale>  0 0.12500024E+03</rscale>
<asrwt>0</asrwt>
<pdfrwt beam="1">  1        4 0.22073803E-02 0.12500024E+03</pdfrwt>
<pdfrwt beam="2">  1       -4 0.41884931E-01 0.12500024E+03</pdfrwt>
<totfact> 0.77310641E+03</totfact>
</mgrwt>
</event>
<event>
 5    1  0.3309219E-002  0.1250013E+03  0.7818608E-02  0.1235067E+00
         -4   -1    0    0    0  501 -0.00000000000E+00  0.00000000000E+00  0.33671621681E+02  0.33695563605E+02  0.12700000000E+01 0. -1.
          4   -1    0    0  501    0  0.00000000000E+00 -0.00000000000E+00 -0.11594392801E+03  0.11595088332E+03  0.12700000000E+01 0. -1.
         25    2    1    2    0    0  0.00000000000E+00  0.00000000000E+00 -0.82272306326E+02  0.14964644692E+03  0.12500130674E+03 0.  0.
    9000005    1    3    3    0    0 -0.91846121309E+01 -0.24848232454E+01 -0.11507756803E+03  0.11547457776E+03  0.10000000000E+01 0.  0.
    9000005    1    3    3    0    0  0.91846121309E+01  0.24848232454E+01  0.32805261700E+02  0.34171869159E+02  0.10000000000E+01 0.  0.
<mgrwt>
<rscale>  0 0.12500131E+03</rscale>
<asrwt>0</asrwt>
<pdfrwt beam="2">  1        4 0.17839904E-01 0.12500131E+03</pdfrwt>
<pdfrwt beam="1">  1       -4 0.51826263E-02 0.12500131E+03</pdfrwt>
<totfact> 0.99371297E+03</totfact>
</mgrwt>
</event>
<event>
 5    1  0.3309219E-002  0.1250008E+03  0.7818608E-02  0.1235068E+00
          4   -1    0    0  501    0  0.00000000000E+00  0.00000000000E+00  0.24370149455E+02  0.24403218732E+02  0.12700000000E+01 0.  1.
         -4   -1    0    0    0  501 -0.00000000000E+00 -0.00000000000E+00 -0.16014603399E+03  0.16015106963E+03  0.12700000000E+01 0.  1.
         25    2    1    2    0    0  0.00000000000E+00  0.00000000000E+00 -0.13577588453E+03  0.18455428836E+03  0.12500077812E+03 0.  0.
    9000005    1    3    3    0    0 -0.52862690844E+02 -0.18613257078E+02 -0.10870732434E+03  0.12230780754E+03  0.10000000000E+01 0.  0.
    9000005    1    3    3    0    0  0.52862690844E+02  0.18613257078E+02 -0.27068560198E+02  0.62246480812E+02  0.10000000000E+01 0.  0.
<mgrwt>
<rscale>  0 0.12500078E+03</rscale>
<asrwt>0</asrwt>
<pdfrwt beam="1">  1        4 0.37521850E-02 0.12500078E+03</pdfrwt>
<pdfrwt beam="2">  1       -4 0.24640782E-01 0.12500078E+03</pdfrwt>
<totfact> 0.92801963E+03</totfact>
</mgrwt>
</event>
<event>
 5    1  0.3309219E-002  0.1250003E+03  0.7818608E-02  0.1235069E+00
         -4   -1    0    0    0  501 -0.00000000000E+00  0.00000000000E+00  0.48553491361E+03  0.48553657456E+03  0.12700000000E+01 0. -1.
          4   -1    0    0  501    0  0.00000000000E+00 -0.00000000000E+00 -0.79934819937E+01  0.80937416800E+01  0.12700000000E+01 0. -1.
         25    2    1    2    0    0  0.00000000000E+00  0.00000000000E+00  0.47754143161E+03  0.49363031624E+03  0.12500028080E+03 0.  0.
    9000005    1    3    3    0    0  0.71421233281E+01  0.59407352779E+02  0.30996556771E+03  0.31568955740E+03  0.10000000000E+01 0.  0.
    9000005    1    3    3    0    0 -0.71421233281E+01 -0.59407352779E+02  0.16757586391E+03  0.17794075883E+03  0.10000000000E+01 0.  0.
<mgrwt>
<rscale>  0 0.12500028E+03</rscale>
<asrwt>0</asrwt>
<pdfrwt beam="2">  1        4 0.12376064E-02 0.12500028E+03</pdfrwt>
<pdfrwt beam="1">  1       -4 0.74705527E-01 0.12500028E+03</pdfrwt>
<totfact> 0.56361631E+03</totfact>
</mgrwt>
</event>
<event>
 5    1  0.3309219E-002  0.1249951E+03  0.7818608E-02  0.1235077E+00
         -4   -1    0    0    0  501 -0.00000000000E+00  0.00000000000E+00  0.85392444235E+01  0.86331683248E+01  0.12700000000E+01 0.  1.
          4   -1    0    0  501    0  0.00000000000E+00 -0.00000000000E+00 -0.45481420096E+03  0.45481597410E+03  0.12700000000E+01 0.  1.
         25    2    1    2    0    0  0.00000000000E+00  0.00000000000E+00 -0.44627495654E+03  0.46344914242E+03  0.12499508303E+03 0.  0.
    9000005    1    3    3    0    0 -0.56592444774E+02 -0.17118417750E+02 -0.29813997594E+03  0.30394767688E+03  0.10000000000E+01 0.  0.
    9000005    1    3    3    0    0  0.56592444774E+02  0.17118417750E+02 -0.14813498060E+03  0.15950146554E+03  0.10000000000E+01 0.  0.
<mgrwt>
<rscale>  0 0.12499508E+03</rscale>
<asrwt>0</asrwt>
<pdfrwt beam="2">  1        4 0.69978758E-01 0.12499508E+03</pdfrwt>
<pdfrwt beam="1">  1       -4 0.13210916E-02 0.12499508E+03</pdfrwt>
<totfact> 0.58822525E+03</totfact>
</mgrwt>
</event>
<event>
 5    1  0.3309219E-002  0.1249984E+03  0.7818608E-02  0.1235072E+00
          4   -1    0    0  501    0  0.00000000000E+00  0.00000000000E+00  0.16140311678E+02  0.16190199538E+02  0.12700000000E+01 0.  1.
         -4   -1    0    0    0  501 -0.00000000000E+00 -0.00000000000E+00 -0.24158697138E+03  0.24159030949E+03  0.12700000000E+01 0.  1.
         25    2    1    2    0    0  0.00000000000E+00  0.00000000000E+00 -0.22544665970E+03  0.25778050903E+03  0.12499837785E+03 0.  0.
    9000005    1    3    3    0    0  0.75766613926E+01  0.32751481832E+02 -0.22136181681E+03  0.22390203059E+03  0.10000000000E+01 0.  0.
    9000005    1    3    3    0    0 -0.75766613926E+01 -0.32751481832E+02 -0.40848428902E+01  0.33878478441E+02  0.10000000000E+01 0.  0.
<mgrwt>
<rscale>  0 0.12499838E+03</rscale>
<asrwt>0</asrwt>
<pdfrwt beam="1">  1        4 0.24872194E-02 0.12499838E+03</pdfrwt>
<pdfrwt beam="2">  1       -4 0.37171318E-01 0.12499838E+03</pdfrwt>
<totfact> 0.81221482E+03</totfact>
</mgrwt>
</event>
<event>
 5    1  0.3309219E-002  0.1250042E+03  0.7818608E-02  0.1235063E+00
         -4   -1    0    0    0  501 -0.00000000000E+00  0.00000000000E+00  0.71289066427E+02  0.71300377924E+02  0.12700000000E+01 0.  1.
          4   -1    0    0  501    0  0.00000000000E+00 -0.00000000000E+00 -0.54775164554E+02  0.54789885489E+02  0.12700000000E+01 0.  1.
         25    2    1    2    0    0  0.00000000000E+00  0.00000000000E+00  0.16513901874E+02  0.12609026341E+03  0.12500418222E+03 0.  0.
    9000005    1    3    3    0    0 -0.31827151750E+02  0.38392027848E+02  0.46248445129E+02  0.68020835540E+02  0.10000000000E+01 0.  0.
    9000005    1    3    3    0    0  0.31827151750E+02 -0.38392027848E+02 -0.29734543255E+02  0.58069427872E+02  0.10000000000E+01 0.  0.
<mgrwt>
<rscale>  0 0.12500418E+03</rscale>
<asrwt>0</asrwt>
<pdfrwt beam="2">  1        4 0.84289509E-02 0.12500418E+03</pdfrwt>
<pdfrwt beam="1">  1       -4 0.10969551E-01 0.12500418E+03</pdfrwt>
<totfact> 0.10427996E+04</totfact>
</mgrwt>
</event>
<event>
 5    1  0.3309219E-002  0.1250016E+03  0.7818608E-02  0.1235067E+00
         -4   -1    0    0    0  501 -0.00000000000E+00  0.00000000000E+00  0.42006278652E+01  0.43884136612E+01  0.12700000000E+01 0.  1.
          4   -1    0    0  501    0  0.00000000000E+00 -0.00000000000E+00 -0.90942450634E+03  0.90942539311E+03  0.12700000000E+01 0.  1.
         25    2    1    2    0    0  0.00000000000E+00  0.00000000000E+00 -0.90522387847E+03  0.91381380677E+03  0.12500161312E+03 0.  0.
    9000005    1    3    3    0    0  0.20948162373E+02 -0.20782092684E+02 -0.49899571978E+02  0.57980066977E+02  0.10000000000E+01 0.  0.
    9000005    1    3    3    0    0 -0.20948162373E+02  0.20782092684E+02 -0.85532430649E+03  0.85583373979E+03  0.10000000000E+01 0.  0.
<mgrwt>
<rscale>  0 0.12500161E+03</rscale>
<asrwt>0</asrwt>
<pdfrwt beam="2">  1        4 0.13992582E+00 0.12500161E+03</pdfrwt>
<pdfrwt beam="1">  1       -4 0.66076444E-03 0.12500161E+03</pdfrwt>
<totfact> 0.33635322E+03</totfact>
</mgrwt>
</event>
<event>
 5    1  0.3309219E-002  0.1250014E+03  0.7818608E-02  0.1235067E+00
         -4   -1    0    0    0  501 -0.00000000000E+00  0.00000000000E+00  0.11652739380E+04  0.11652746301E+04  0.12700000000E+01 0.  1.
          4   -1    0    0  501    0  0.00000000000E+00 -0.00000000000E+00 -0.32312885657E+01  0.34719052111E+01  0.12700000000E+01 0.  1.
         25    2    1    2    0    0  0.00000000000E+00  0.00000000000E+00  0.11620426494E+04  0.11687465353E+04  0.12500137849E+03 0.  0.
    9000005    1    3    3    0    0  0.43534846145E+02 -0.10610994868E+02  0.17374247077E+03  0.17943054977E+03  0.10000000000E+01 0.  0.
    9000005    1    3    3    0    0 -0.43534846145E+02  0.10610994868E+02  0.98830017865E+03  0.98931598549E+03  0.10000000000E+01 0.  0.
<mgrwt>
<rscale>  0 0.12500138E+03</rscale>
<asrwt>0</asrwt>
<pdfrwt beam="2">  1        4 0.51568327E-03 0.12500138E+03</pdfrwt>
<pdfrwt beam="1">  1       -4 0.17929157E+00 0.12500138E+03</pdfrwt>
<totfact> 0.25544989E+03</totfact>
</mgrwt>
</event>
<event>
 5    1  0.3309219E-002  0.1249968E+03  0.7818608E-02  0.1235074E+00
         -4   -1    0    0    0  501 -0.00000000000E+00  0.00000000000E+00  0.21366759738E+03  0.21367137167E+03  0.12700000000E+01 0.  1.
          4   -1    0    0  501    0  0.00000000000E+00 -0.00000000000E+00 -0.18254956681E+02  0.18299080398E+02  0.12700000000E+01 0.  1.
         25    2    1    2    0    0  0.00000000000E+00  0.00000000000E+00  0.19541264070E+03  0.23197045207E+03  0.12499676190E+03 0.  0.
    9000005    1    3    3    0    0  0.24138496066E+00  0.17109018377E+02  0.20924463019E+03  0.20994545015E+03  0.10000000000E+01 0.  0.
    9000005    1    3    3    0    0 -0.24138496066E+00 -0.17109018377E+02 -0.13831989483E+02  0.22025001920E+02  0.10000000000E+01 0.  0.
<mgrwt>
<rscale>  0 0.12499676E+03</rscale>
<asrwt>0</asrwt>
<pdfrwt beam="2">  1        4 0.28121394E-02 0.12499676E+03</pdfrwt>
<pdfrwt beam="1">  1       -4 0.32875622E-01 0.12499676E+03</pdfrwt>
<totfact> 0.85014089E+03</totfact>
</mgrwt>
</event>
<event>
 5    1  0.3309219E-002  0.1249988E+03  0.7818608E-02  0.1235071E+00
          4   -1    0    0  501    0  0.00000000000E+00  0.00000000000E+00  0.11530806202E+03  0.11531505568E+03  0.12700000000E+01 0.  1.
         -4   -1    0    0    0  501 -0.00000000000E+00 -0.00000000000E+00 -0.33856065619E+02  0.33879877201E+02  0.12700000000E+01 0.  1.
         25    2    1    2    0    0  0.00000000000E+00  0.00000000000E+00  0.81451996399E+02  0.14919493288E+03  0.12499880111E+03 0.  0.
    9000005    1    3    3    0    0 -0.58343438548E+01 -0.58814597804E+02  0.16499784290E+02  0.61371323635E+02  0.10000000000E+01 0.  0.
    9000005    1    3    3    0    0  0.58343438548E+01  0.58814597804E+02  0.64952212109E+02  0.87823609245E+02  0.10000000000E+01 0.  0.
<mgrwt>
<rscale>  0 0.12499880E+03</rscale>
<asrwt>0</asrwt>
<pdfrwt beam="1">  1        4 0.17742071E-01 0.12499880E+03</pdfrwt>
<pdfrwt beam="2">  1       -4 0.52109951E-02 0.12499880E+03</pdfrwt>
<totfact> 0.99467102E+03</totfact>
</mgrwt>
</event>
<event>
 5    1  0.3309219E-002  0.1250009E+03  0.7818608E-02  0.1235068E+00
         -4   -1    0    0    0  501 -0.00000000000E+00  0.00000000000E+00  0.13684613938E+02  0.13743418739E+02  0.12700000000E+01 0. -1.
          4   -1    0    0  501    0  0.00000000000E+00 -0.00000000000E+00 -0.28478038596E+03  0.28478321778E+03  0.12700000000E+01 0. -1.
         25    2    1    2    0    0  0.00000000000E+00  0.00000000000E+00 -0.27109577202E+03  0.29852663652E+03  0.12500094040E+03 0.  0.
    9000005    1    3    3    0    0 -0.88226013007E+01  0.59809534367E+02 -0.17333046740E+03  0.18357415293E+03  0.10000000000E+01 0.  0.
    9000005    1    3    3    0    0  0.88226013007E+01 -0.59809534367E+02 -0.97765304622E+02  0.11495248359E+03  0.10000000000E+01 0.  0.
<mgrwt>
<rscale>  0 0.12500094E+03</rscale>
<asrwt>0</asrwt>
<pdfrwt beam="2">  1        4 0.43817104E-01 0.12500094E+03</pdfrwt>
<pdfrwt beam="1">  1       -4 0.21100667E-02 0.12500094E+03</pdfrwt>
<totfact> 0.75782447E+03</totfact>
</mgrwt>
</event>
<event>
 5    1  0.3309219E-002  0.1250026E+03  0.7818608E-02  0.1235065E+00
          4   -1    0    0  501    0  0.00000000000E+00  0.00000000000E+00  0.20224826385E+03  0.20225225123E+03  0.12700000000E+01 0.  1.
         -4   -1    0    0    0  501 -0.00000000000E+00 -0.00000000000E+00 -0.19289882005E+02  0.19331643690E+02  0.12700000000E+01 0.  1.
         25    2    1    2    0    0  0.00000000000E+00  0.00000000000E+00  0.18295838184E+03  0.22158389492E+03  0.12500261198E+03 0.  0.
    9000005    1    3    3    0    0 -0.46076509290E+02  0.21814974845E+02  0.27406977846E+02  0.57888515877E+02  0.10000000000E+01 0.  0.
    9000005    1    3    3    0    0  0.46076509290E+02 -0.21814974845E+02  0.15555140400E+03  0.16369537904E+03  0.10000000000E+01 0.  0.
<mgrwt>
<rscale>  0 0.12500261E+03</rscale>
<asrwt>0</asrwt>
<pdfrwt beam="1">  1        4 0.31118636E-01 0.12500261E+03</pdfrwt>
<pdfrwt beam="2">  1       -4 0.29711934E-02 0.12500261E+03</pdfrwt>
<totfact> 0.86613285E+03</totfact>
</mgrwt>
</event>
<event>
 5    1  0.3309219E-002  0.1250005E+03  0.7818608E-02  0.1235069E+00
         -4   -1    0    0    0  501 -0.00000000000E+00  0.00000000000E+00  0.81180316428E+03  0.81180415769E+03  0.12700000000E+01 0. -1.
          4   -1    0    0  501    0  0.00000000000E+00 -0.00000000000E+00 -0.47270430859E+01  0.48946742829E+01  0.12700000000E+01 0. -1.
         25    2    1    2    0    0  0.00000000000E+00  0.00000000000E+00  0.80707612120E+03  0.81669883197E+03  0.12500046694E+03 0.  0.
    9000005    1    3    3    0    0 -0.75073320800E+01  0.50003492725E+02  0.64346942540E+03  0.64545380217E+03  0.10000000000E+01 0.  0.
    9000005    1    3    3    0    0  0.75073320800E+01 -0.50003492725E+02  0.16360669580E+03  0.17124502980E+03  0.10000000000E+01 0.  0.
<mgrwt>
<rscale>  0 0.12500047E+03</rscale>
<asrwt>0</asrwt>
<pdfrwt beam="2">  1        4 0.74020856E-03 0.12500047E+03</pdfrwt>
<pdfrwt beam="1">  1       -4 0.12490576E+00 0.12500047E+03</pdfrwt>
<totfact> 0.37529652E+03</totfact>
</mgrwt>
</event>
<event>
 5    1  0.3309219E-002  0.1250053E+03  0.7818608E-02  0.1235061E+00
         -4   -1    0    0    0  501 -0.00000000000E+00  0.00000000000E+00  0.41710897941E+02  0.41730227738E+02  0.12700000000E+01 0. -1.
          4   -1    0    0  501    0  0.00000000000E+00 -0.00000000000E+00 -0.93613137865E+02  0.93621752178E+02  0.12700000000E+01 0. -1.
         25    2    1    2    0    0  0.00000000000E+00  0.00000000000E+00 -0.51902239924E+02  0.13535197992E+03  0.12500526372E+03 0.  0.
    9000005    1    3    3    0    0  0.59078138343E+02  0.11356130587E+02 -0.44274934491E+02  0.74702462852E+02  0.10000000000E+01 0.  0.
    9000005    1    3    3    0    0 -0.59078138343E+02 -0.11356130587E+02 -0.76273054328E+01  0.60649517064E+02  0.10000000000E+01 0.  0.
<mgrwt>
<rscale>  0 0.12500526E+03</rscale>
<asrwt>0</asrwt>
<pdfrwt beam="2">  1        4 0.14404171E-01 0.12500526E+03</pdfrwt>
<pdfrwt beam="1">  1       -4 0.64192108E-02 0.12500526E+03</pdfrwt>
<totfact> 0.10229443E+04</totfact>
</mgrwt>
</event>
<event>
 5    1  0.3309219E-002  0.1249962E+03  0.7818608E-02  0.1235075E+00
          4   -1    0    0  501    0  0.00000000000E+00  0.00000000000E+00  0.90139986176E+02  0.90148932372E+02  0.12700000000E+01 0.  1.
         -4   -1    0    0    0  501 -0.00000000000E+00 -0.00000000000E+00 -0.43312341033E+02  0.43330956437E+02  0.12700000000E+01 0.  1.
         25    2    1    2    0    0  0.00000000000E+00  0.00000000000E+00  0.46827645143E+02  0.13347988881E+03  0.12499620941E+03 0.  0.
    9000005    1    3    3    0    0  0.43098355394E+02 -0.25211019795E+01  0.71659742544E+02  0.83665661381E+02  0.10000000000E+01 0.  0.
    9000005    1    3    3    0    0 -0.43098355394E+02  0.25211019795E+01 -0.24832097401E+02  0.49814227427E+02  0.10000000000E+01 0.  0.
<mgrwt>
<rscale>  0 0.12499621E+03</rscale>
<asrwt>0</asrwt>
<pdfrwt beam="1">  1        4 0.13869810E-01 0.12499621E+03</pdfrwt>
<pdfrwt beam="2">  1       -4 0.66655572E-02 0.12499621E+03</pdfrwt>
<totfact> 0.10271089E+04</totfact>
</mgrwt>
</event>
<event>
 5    1  0.3309219E-002  0.1249994E+03  0.7818608E-02  0.1235070E+00
          4   -1    0    0  501    0  0.00000000000E+00  0.00000000000E+00  0.88437961655E+01  0.89345190478E+01  0.12700000000E+01 0. -1.
         -4   -1    0    0    0  501 -0.00000000000E+00 -0.00000000000E+00 -0.43934384558E+03  0.43934568116E+03  0.12700000000E+01 0. -1.
         25    2    1    2    0    0  0.00000000000E+00  0.00000000000E+00 -0.43050004942E+03  0.44828020021E+03  0.12499938139E+03 0.  0.
    9000005    1    3    3    0    0 -0.52010805846E+02 -0.21825837524E+02 -0.11877230075E+03  0.13148897495E+03  0.10000000000E+01 0.  0.
    9000005    1    3    3    0    0  0.52010805846E+02  0.21825837524E+02 -0.31172774867E+03  0.31679122526E+03  0.10000000000E+01 0.  0.
<mgrwt>
<rscale>  0 0.12499938E+03</rscale>
<asrwt>0</asrwt>
<pdfrwt beam="1">  1        4 0.13677042E-02 0.12499938E+03</pdfrwt>
<pdfrwt beam="2">  1       -4 0.67598464E-01 0.12499938E+03</pdfrwt>
<totfact> 0.60113897E+03</totfact>
</mgrwt>
</event>
<event>
 5    1  0.3309219E-002  0.1249879E+03  0.7818608E-02  0.1235088E+00
         -4   -1    0    0    0  501 -0.00000000000E+00  0.00000000000E+00  0.16240248179E+03  0.16240744747E+03  0.12700000000E+01 0.  1.
          4   -1    0    0  501    0  0.00000000000E+00 -0.00000000000E+00 -0.24026127421E+02  0.24059669550E+02  0.12700000000E+01 0.  1.
         25    2    1    2    0    0  0.00000000000E+00  0.00000000000E+00  0.13837635437E+03  0.18646711702E+03  0.12498788053E+03 0.  0.
    9000005    1    3    3    0    0  0.18479872270E+02 -0.59140802855E+02  0.57127689065E+02  0.84283528043E+02  0.10000000000E+01 0.  0.
    9000005    1    3    3    0    0 -0.18479872270E+02  0.59140802855E+02  0.81248665309E+02  0.10218358898E+03  0.10000000000E+01 0.  0.
<mgrwt>
<rscale>  0 0.12498788E+03</rscale>
<asrwt>0</asrwt>
<pdfrwt beam="2">  1        4 0.36992893E-02 0.12498788E+03</pdfrwt>
<pdfrwt beam="1">  1       -4 0.24987961E-01 0.12498788E+03</pdfrwt>
<totfact> 0.92490798E+03</totfact>
</mgrwt>
</event>
<event>
 5    1  0.3309219E-002  0.1250041E+03  0.7818608E-02  0.1235063E+00
         -4   -1    0    0    0  501 -0.00000000000E+00  0.00000000000E+00  0.24661019103E+02  0.24693698856E+02  0.12700000000E+01 0. -1.
          4   -1    0    0  501    0  0.00000000000E+00 -0.00000000000E+00 -0.15826814578E+03  0.15827324117E+03  0.12700000000E+01 0. -1.
         25    2    1    2    0    0  0.00000000000E+00  0.00000000000E+00 -0.13360712668E+03  0.18296694003E+03  0.12500414730E+03 0.  0.
    9000005    1    3    3    0    0 -0.26303844451E+02  0.18484170375E+02  0.11636299122E+02  0.34204681618E+02  0.10000000000E+01 0.  0.
    9000005    1    3    3    0    0  0.26303844451E+02 -0.18484170375E+02 -0.14524342580E+03  0.14876225841E+03  0.10000000000E+01 0.  0.
<mgrwt>
<rscale>  0 0.12500415E+03</rscale>
<asrwt>0</asrwt>
<pdfrwt beam="2">  1        4 0.24351851E-01 0.12500415E+03</pdfrwt>
<pdfrwt beam="1">  1       -4 0.37969088E-02 0.12500415E+03</pdfrwt>
<totfact> 0.93077002E+03</totfact>
</mgrwt>
</event>
<event>
 5    1  0.3309219E-002  0.1250054E+03  0.7818608E-02  0.1235061E+00
          4   -1    0    0  501    0  0.00000000000E+00  0.00000000000E+00  0.55777494487E+03  0.55777639070E+03  0.12700000000E+01 0. -1.
         -4   -1    0    0    0  501 -0.00000000000E+00 -0.00000000000E+00 -0.69448356567E+01  0.70600029957E+01  0.12700000000E+01 0. -1.
         25    2    1    2    0    0  0.00000000000E+00  0.00000000000E+00  0.55083010921E+03  0.56483639369E+03  0.12500536960E+03 0.  0.
    9000005    1    3    3    0    0  0.43032588045E+02 -0.10203643376E+02  0.47492947655E+03  0.47698524680E+03  0.10000000000E+01 0.  0.
    9000005    1    3    3    0    0 -0.43032588045E+02  0.10203643376E+02  0.75900632662E+02  0.87851146893E+02  0.10000000000E+01 0.  0.
<mgrwt>
<rscale>  0 0.12500537E+03</rscale>
<asrwt>0</asrwt>
<pdfrwt beam="1">  1        4 0.85820480E-01 0.12500537E+03</pdfrwt>
<pdfrwt beam="2">  1       -4 0.10774068E-02 0.12500537E+03</pdfrwt>
<totfact> 0.51159208E+03</totfact>
</mgrwt>
</event>
<event>
 5    1  0.3309219E-002  0.1249940E+03  0.7818608E-02  0.1235079E+00
          4   -1    0    0  501    0  0.00000000000E+00  0.00000000000E+00  0.26858859331E+03  0.26859159584E+03  0.12700000000E+01 0.  1.
         -4   -1    0    0    0  501 -0.00000000000E+00 -0.00000000000E+00 -0.14511405435E+02  0.14566872956E+02  0.12700000000E+01 0.  1.
         25    2    1    2    0    0  0.00000000000E+00  0.00000000000E+00  0.25407718787E+03  0.28315846879E+03  0.12499400407E+03 0.  0.
    9000005    1    3    3    0    0 -0.31278696222E+02 -0.47016275828E+02  0.66421750501E+02  0.87187934771E+02  0.10000000000E+01 0.  0.
    9000005    1    3    3    0    0  0.31278696222E+02  0.47016275828E+02  0.18765543737E+03  0.19597053402E+03  0.10000000000E+01 0.  0.
<mgrwt>
<rscale>  0 0.12499400E+03</rscale>
<asrwt>0</asrwt>
<pdfrwt beam="1">  1        4 0.41325820E-01 0.12499400E+03</pdfrwt>
<pdfrwt beam="2">  1       -4 0.22370216E-02 0.12499400E+03</pdfrwt>
<totfact> 0.77771532E+03</totfact>
</mgrwt>
</event>
<event>
 5    1  0.3309219E-002  0.1249980E+03  0.7818608E-02  0.1235072E+00
         -4   -1    0    0    0  501 -0.00000000000E+00  0.00000000000E+00  0.22572474895E+03  0.22572832164E+03  0.12700000000E+01 0.  1.
          4   -1    0    0  501    0  0.00000000000E+00 -0.00000000000E+00 -0.17277793583E+02  0.17324406227E+02  0.12700000000E+01 0.  1.
         25    2    1    2    0    0  0.00000000000E+00  0.00000000000E+00  0.20844695537E+03  0.24305272786E+03  0.12499798126E+03 0.  0.
    9000005    1    3    3    0    0  0.43154849436E+02  0.43188939073E+02  0.13012913706E+03  0.14374358350E+03  0.10000000000E+01 0.  0.
    9000005    1    3    3    0    0 -0.43154849436E+02 -0.43188939073E+02  0.78317818312E+02  0.99309144358E+02  0.10000000000E+01 0.  0.
<mgrwt>
<rscale>  0 0.12499798E+03</rscale>
<asrwt>0</asrwt>
<pdfrwt beam="2">  1        4 0.26619826E-02 0.12499798E+03</pdfrwt>
<pdfrwt beam="1">  1       -4 0.34730743E-01 0.12499798E+03</pdfrwt>
<totfact> 0.83348559E+03</totfact>
</mgrwt>
</event>
<event>
 5    1  0.3309219E-002  0.1250001E+03  0.7818608E-02  0.1235069E+00
         -4   -1    0    0    0  501 -0.00000000000E+00  0.00000000000E+00  0.26378566863E+02  0.26409121336E+02  0.12700000000E+01 0.  1.
          4   -1    0    0  501    0  0.00000000000E+00 -0.00000000000E+00 -0.14796546323E+03  0.14797091339E+03  0.12700000000E+01 0.  1.
         25    2    1    2    0    0  0.00000000000E+00  0.00000000000E+00 -0.12158689637E+03  0.17438003473E+03  0.12500009257E+03 0.  0.
    9000005    1    3    3    0    0  0.13574173712E+02 -0.60132944208E+02 -0.46496738171E+02  0.77221602105E+02  0.10000000000E+01 0.  0.
    9000005    1    3    3    0    0 -0.13574173712E+02  0.60132944208E+02 -0.75090158198E+02  0.97158432621E+02  0.10000000000E+01 0.  0.
<mgrwt>
<rscale>  0 0.12500009E+03</rscale>
<asrwt>0</asrwt>
<pdfrwt beam="2">  1        4 0.22766686E-01 0.12500009E+03</pdfrwt>
<pdfrwt beam="1">  1       -4 0.40610107E-02 0.12500009E+03</pdfrwt>
<totfact> 0.94638312E+03</totfact>
</mgrwt>
</event>
<event>
 5    1  0.3309219E-002  0.1249900E+03  0.7818608E-02  0.1235085E+00
          4   -1    0    0  501    0  0.00000000000E+00  0.00000000000E+00  0.33563347803E+01  0.35885767593E+01  0.12700000000E+01 0.  1.
         -4   -1    0    0    0  501 -0.00000000000E+00 -0.00000000000E+00 -0.11245119425E+04  0.11245126597E+04  0.12700000000E+01 0.  1.
         25    2    1    2    0    0  0.00000000000E+00  0.00000000000E+00 -0.11211556078E+04  0.11281012365E+04  0.12499001112E+03 0.  0.
    9000005    1    3    3    0    0  0.61579761164E+02  0.75539123637E+01 -0.49334084207E+03  0.49722762899E+03  0.10000000000E+01 0.  0.
    9000005    1    3    3    0    0 -0.61579761164E+02 -0.75539123637E+01 -0.62781476569E+03  0.63087360747E+03  0.10000000000E+01 0.  0.
<mgrwt>
<rscale>  0 0.12499001E+03</rscale>
<asrwt>0</asrwt>
<pdfrwt beam="1">  1        4 0.53428003E-03 0.12499001E+03</pdfrwt>
<pdfrwt beam="2">  1       -4 0.17301947E+00 0.12499001E+03</pdfrwt>
<totfact> 0.26681018E+03</totfact>
</mgrwt>
</event>
<event>
 5    1  0.3309219E-002  0.1250004E+03  0.7818608E-02  0.1235069E+00
          4   -1    0    0  501    0  0.00000000000E+00  0.00000000000E+00  0.10776573312E+02  0.10851148895E+02  0.12700000000E+01 0.  1.
         -4   -1    0    0    0  501 -0.00000000000E+00 -0.00000000000E+00 -0.36115294528E+03  0.36115517826E+03  0.12700000000E+01 0.  1.
         25    2    1    2    0    0  0.00000000000E+00  0.00000000000E+00 -0.35037637197E+03  0.37200632715E+03  0.12500042164E+03 0.  0.
    9000005    1    3    3    0    0 -0.21903501758E+02  0.51364653506E+02 -0.25868643062E+03  0.26464648195E+03  0.10000000000E+01 0.  0.
    9000005    1    3    3    0    0  0.21903501758E+02 -0.51364653506E+02 -0.91689941343E+02  0.10735984521E+03  0.10000000000E+01 0.  0.
<mgrwt>
<rscale>  0 0.12500042E+03</rscale>
<asrwt>0</asrwt>
<pdfrwt beam="1">  1        4 0.16638430E-02 0.12500042E+03</pdfrwt>
<pdfrwt beam="2">  1       -4 0.55567891E-01 0.12500042E+03</pdfrwt>
<totfact> 0.67368935E+03</totfact>
</mgrwt>
</event>
<event>
 5    1  0.3309219E-002  0.1250003E+03  0.7818608E-02  0.1235069E+00
         -4   -1    0    0    0  501 -0.00000000000E+00  0.00000000000E+00  0.78622210949E+03  0.78622313522E+03  0.12700000000E+01 0.  1.
          4   -1    0    0  501    0  0.00000000000E+00 -0.00000000000E+00 -0.48861970341E+01  0.50485464696E+01  0.12700000000E+01 0.  1.
         25    2    1    2    0    0  0.00000000000E+00  0.00000000000E+00  0.78133591246E+03  0.79127168169E+03  0.12500026459E+03 0.  0.
    9000005    1    3    3    0    0 -0.15871419440E+02  0.12797725999E+02  0.16728369014E+02  0.26391704675E+02  0.10000000000E+01 0.  0.
    9000005    1    3    3    0    0  0.15871419440E+02 -0.12797725999E+02  0.76460754344E+03  0.76487997701E+03  0.10000000000E+01 0.  0.
<mgrwt>
<rscale>  0 0.12500026E+03</rscale>
<asrwt>0</asrwt>
<pdfrwt beam="2">  1        4 0.76428936E-03 0.12500026E+03</pdfrwt>
<pdfrwt beam="1">  1       -4 0.12096991E+00 0.12500026E+03</pdfrwt>
<totfact> 0.38657113E+03</totfact>
</mgrwt>
</event>
<event>
 5    1  0.3309219E-002  0.1249999E+03  0.7818608E-02  0.1235069E+00
         -4   -1    0    0    0  501 -0.00000000000E+00  0.00000000000E+00  0.53378274708E+02  0.53393380777E+02  0.12700000000E+01 0. -1.
          4   -1    0    0  501    0  0.00000000000E+00 -0.00000000000E+00 -0.73149468080E+02  0.73160491936E+02  0.12700000000E+01 0. -1.
         25    2    1    2    0    0  0.00000000000E+00  0.00000000000E+00 -0.19771193372E+02  0.12655387271E+03  0.12499993045E+03 0.  0.
    9000005    1    3    3    0    0  0.54910054598E+02 -0.21460559388E+02  0.11098276198E+02  0.59998678650E+02  0.10000000000E+01 0.  0.
    9000005    1    3    3    0    0 -0.54910054598E+02  0.21460559388E+02 -0.30869469570E+02  0.66555194063E+02  0.10000000000E+01 0.  0.
<mgrwt>
<rscale>  0 0.12499993E+03</rscale>
<asrwt>0</asrwt>
<pdfrwt beam="2">  1        4 0.11255774E-01 0.12499993E+03</pdfrwt>
<pdfrwt beam="1">  1       -4 0.82140523E-02 0.12499993E+03</pdfrwt>
<totfact> 0.10418870E+04</totfact>
</mgrwt>
</event>
<event>
 5    1  0.3309219E-002  0.1249999E+03  0.7818608E-02  0.1235069E+00
         -4   -1    0    0    0  501 -0.00000000000E+00  0.00000000000E+00  0.17789404379E+02  0.17834679929E+02  0.12700000000E+01 0. -1.
          4   -1    0    0  501    0  0.00000000000E+00 -0.00000000000E+00 -0.21925653714E+03  0.21926021522E+03  0.12700000000E+01 0. -1.
         25    2    1    2    0    0  0.00000000000E+00  0.00000000000E+00 -0.20146713276E+03  0.23709489515E+03  0.12499993489E+03 0.  0.
    9000005    1    3    3    0    0 -0.10942865680E+02  0.58989139150E+02 -0.67565685545E+02  0.90363635994E+02  0.10000000000E+01 0.  0.
    9000005    1    3    3    0    0  0.10942865680E+02 -0.58989139150E+02 -0.13390144722E+03  0.14673125916E+03  0.10000000000E+01 0.  0.
<mgrwt>
<rscale>  0 0.12499993E+03</rscale>
<asrwt>0</asrwt>
<pdfrwt beam="2">  1        4 0.33735539E-01 0.12499993E+03</pdfrwt>
<pdfrwt beam="1">  1       -4 0.27405973E-02 0.12499993E+03</pdfrwt>
<totfact> 0.84232065E+03</totfact>
</mgrwt>
</event>
<event>
 5    1  0.3309219E-002  0.1249972E+03  0.7818608E-02  0.1235074E+00
         -4   -1    0    0    0  501 -0.00000000000E+00  0.00000000000E+00  0.50516923777E+02  0.50532885213E+02  0.12700000000E+01 0.  1.
          4   -1    0    0  501    0  0.00000000000E+00 -0.00000000000E+00 -0.77288743176E+02  0.77299176721E+02  0.12700000000E+01 0.  1.
         25    2    1    2    0    0  0.00000000000E+00  0.00000000000E+00 -0.26771819399E+02  0.12783206193E+03  0.12499722295E+03 0.  0.
    9000005    1    3    3    0    0 -0.43483586933E+01 -0.15884572189E+02  0.48262636995E+02  0.51004999624E+02  0.10000000000E+01 0.  0.
    9000005    1    3    3    0    0  0.43483586933E+01  0.15884572189E+02 -0.75034456393E+02  0.76827062310E+02  0.10000000000E+01 0.  0.
<mgrwt>
<rscale>  0 0.12499722E+03</rscale>
<asrwt>0</asrwt>
<pdfrwt beam="2">  1        4 0.11892606E-01 0.12499722E+03</pdfrwt>
<pdfrwt beam="1">  1       -4 0.77738648E-02 0.12499722E+03</pdfrwt>
<totfact> 0.10391767E+04</totfact>
</mgrwt>
</event>
<event>
 5    1  0.3309219E-002  0.1250108E+03  0.7818608E-02  0.1235052E+00
         -4   -1    0    0    0  501 -0.00000000000E+00  0.00000000000E+00  0.39233643710E+02  0.39254193391E+02  0.12700000000E+01 0. -1.
          4   -1    0    0  501    0  0.00000000000E+00 -0.00000000000E+00 -0.99530302503E+02  0.99538404731E+02  0.12700000000E+01 0. -1.
         25    2    1    2    0    0  0.00000000000E+00  0.00000000000E+00 -0.60296658793E+02  0.13879259812E+03  0.12501079246E+03 0.  0.
    9000005    1    3    3    0    0 -0.50624982257E+02  0.34417163357E+02 -0.16170941206E+02  0.63324002570E+02  0.10000000000E+01 0.  0.
    9000005    1    3    3    0    0  0.50624982257E+02 -0.34417163357E+02 -0.44125717587E+02  0.75468595552E+02  0.10000000000E+01 0.  0.
<mgrwt>
<rscale>  0 0.12501079E+03</rscale>
<asrwt>0</asrwt>
<pdfrwt beam="2">  1        4 0.15314558E-01 0.12501079E+03</pdfrwt>
<pdfrwt beam="1">  1       -4 0.60381492E-02 0.12501079E+03</pdfrwt>
<totfact> 0.10156201E+04</totfact>
</mgrwt>
</event>
<event>
 5    1  0.3309219E-002  0.1250049E+03  0.7818608E-02  0.1235062E+00
          4   -1    0    0  501    0  0.00000000000E+00  0.00000000000E+00  0.11333654650E+02  0.11404588012E+02  0.12700000000E+01 0. -1.
         -4   -1    0    0    0  501 -0.00000000000E+00 -0.00000000000E+00 -0.34353877785E+03  0.34354112532E+03  0.12700000000E+01 0. -1.
         25    2    1    2    0    0  0.00000000000E+00  0.00000000000E+00 -0.33220512320E+03  0.35494571333E+03  0.12500486204E+03 0.  0.
    9000005    1    3    3    0    0 -0.48541917197E+02 -0.23017320953E+02 -0.75442570396E+02  0.92621251433E+02  0.10000000000E+01 0.  0.
    9000005    1    3    3    0    0  0.48541917197E+02  0.23017320953E+02 -0.25676255280E+03  0.26232446190E+03  0.10000000000E+01 0.  0.
<mgrwt>
<rscale>  0 0.12500486E+03</rscale>
<asrwt>0</asrwt>
<pdfrwt beam="1">  1        4 0.17492764E-02 0.12500486E+03</pdfrwt>
<pdfrwt beam="2">  1       -4 0.52857749E-01 0.12500486E+03</pdfrwt>
<totfact> 0.69176434E+03</totfact>
</mgrwt>
</event>
<event>
 5    1  0.3309219E-002  0.1250012E+03  0.7818608E-02  0.1235067E+00
         -4   -1    0    0    0  501 -0.00000000000E+00  0.00000000000E+00  0.67172578068E+01  0.68362601211E+01  0.12700000000E+01 0.  1.
          4   -1    0    0  501    0  0.00000000000E+00 -0.00000000000E+00 -0.57630969989E+03  0.57631109923E+03  0.12700000000E+01 0.  1.
         25    2    1    2    0    0  0.00000000000E+00  0.00000000000E+00 -0.56959244209E+03  0.58314735935E+03  0.12500117052E+03 0.  0.
    9000005    1    3    3    0    0  0.18839408942E+02 -0.94420485456E+01 -0.55925717222E+03  0.55965494752E+03  0.10000000000E+01 0.  0.
    9000005    1    3    3    0    0 -0.18839408942E+02  0.94420485456E+01 -0.10335269867E+02  0.23492411823E+02  0.10000000000E+01 0.  0.
<mgrwt>
<rscale>  0 0.12500117E+03</rscale>
<asrwt>0</asrwt>
<pdfrwt beam="2">  1        4 0.88672254E-01 0.12500117E+03</pdfrwt>
<pdfrwt beam="1">  1       -4 0.10426864E-02 0.12500117E+03</pdfrwt>
<totfact> 0.49947708E+03</totfact>
</mgrwt>
</event>
<event>
 5    1  0.3309219E-002  0.1250023E+03  0.7818608E-02  0.1235066E+00
         -4   -1    0    0    0  501 -0.00000000000E+00  0.00000000000E+00  0.23998987856E+02  0.24032567864E+02  0.12700000000E+01 0.  1.
          4   -1    0    0  501    0  0.00000000000E+00 -0.00000000000E+00 -0.16262331504E+03  0.16262827397E+03  0.12700000000E+01 0.  1.
         25    2    1    2    0    0  0.00000000000E+00  0.00000000000E+00 -0.13862432719E+03  0.18666084184E+03  0.12500226313E+03 0.  0.
    9000005    1    3    3    0    0 -0.28368794467E+02 -0.40113558399E+02 -0.11642455068E+02  0.50501810136E+02  0.10000000000E+01 0.  0.
    9000005    1    3    3    0    0  0.28368794467E+02  0.40113558399E+02 -0.12698187212E+03  0.13615903170E+03  0.10000000000E+01 0.  0.
<mgrwt>
<rscale>  0 0.12500226E+03</rscale>
<asrwt>0</asrwt>
<pdfrwt beam="2">  1        4 0.25021935E-01 0.12500226E+03</pdfrwt>
<pdfrwt beam="1">  1       -4 0.36951166E-02 0.12500226E+03</pdfrwt>
<totfact> 0.92426898E+03</totfact>
</mgrwt>
</event>
<event>
 5    1  0.3309219E-002  0.1249934E+03  0.7818608E-02  0.1235080E+00
          4   -1    0    0  501    0  0.00000000000E+00  0.00000000000E+00  0.50220326660E+03  0.50220487242E+03  0.12700000000E+01 0.  1.
         -4   -1    0    0    0  501 -0.00000000000E+00 -0.00000000000E+00 -0.77239270112E+01  0.78276400322E+01  0.12700000000E+01 0.  1.
         25    2    1    2    0    0  0.00000000000E+00  0.00000000000E+00  0.49447933959E+03  0.51003251245E+03  0.12499338574E+03 0.  0.
    9000005    1    3    3    0    0 -0.34648317503E+02 -0.29272111120E+02  0.71851610192E+02  0.84976563136E+02  0.10000000000E+01 0.  0.
    9000005    1    3    3    0    0  0.34648317503E+02  0.29272111120E+02  0.42262772939E+03  0.42505594931E+03  0.10000000000E+01 0.  0.
<mgrwt>
<rscale>  0 0.12499339E+03</rscale>
<asrwt>0</asrwt>
<pdfrwt beam="1">  1        4 0.77270155E-01 0.12499339E+03</pdfrwt>
<pdfrwt beam="2">  1       -4 0.11963977E-02 0.12499339E+03</pdfrwt>
<totfact> 0.55102287E+03</totfact>
</mgrwt>
</event>
<event>
 5    1  0.3309219E-002  0.1250018E+03  0.7818608E-02  0.1235066E+00
         -4   -1    0    0    0  501 -0.00000000000E+00  0.00000000000E+00  0.11576338663E+02  0.11645793955E+02  0.12700000000E+01 0. -1.
          4   -1    0    0  501    0  0.00000000000E+00 -0.00000000000E+00 -0.33636376227E+03  0.33636615982E+03  0.12700000000E+01 0. -1.
         25    2    1    2    0    0  0.00000000000E+00  0.00000000000E+00 -0.32478742361E+03  0.34801195377E+03  0.12500179772E+03 0.  0.
    9000005    1    3    3    0    0 -0.28586355561E+02  0.18268718870E+02 -0.30850853897E+03  0.31036985103E+03  0.10000000000E+01 0.  0.
    9000005    1    3    3    0    0  0.28586355561E+02 -0.18268718870E+02 -0.16278884637E+02  0.37642102737E+02  0.10000000000E+01 0.  0.
<mgrwt>
<rscale>  0 0.12500180E+03</rscale>
<asrwt>0</asrwt>
<pdfrwt beam="2">  1        4 0.51753791E-01 0.12500180E+03</pdfrwt>
<pdfrwt beam="1">  1       -4 0.17865026E-02 0.12500180E+03</pdfrwt>
<totfact> 0.69941041E+03</totfact>
</mgrwt>
</event>
<event>
 5    1  0.3309219E-002  0.1250031E+03  0.7818608E-02  0.1235064E+00
         -4   -1    0    0    0  501 -0.00000000000E+00  0.00000000000E+00  0.23910375781E+03  0.23910713059E+03  0.12700000000E+01 0. -1.
          4   -1    0    0  501    0  0.00000000000E+00 -0.00000000000E+00 -0.16309692271E+02  0.16359063603E+02  0.12700000000E+01 0. -1.
         25    2    1    2    0    0  0.00000000000E+00  0.00000000000E+00  0.22279406554E+03  0.25546619419E+03  0.12500312291E+03 0.  0.
    9000005    1    3    3    0    0  0.22871248723E+02 -0.20976064582E+02  0.54078487555E+00  0.31054496483E+02  0.10000000000E+01 0.  0.
    9000005    1    3    3    0    0 -0.22871248723E+02  0.20976064582E+02  0.22225328067E+03  0.22441169771E+03  0.10000000000E+01 0.  0.
<mgrwt>
<rscale>  0 0.12500312E+03</rscale>
<asrwt>0</asrwt>
<pdfrwt beam="2">  1        4 0.25132406E-02 0.12500312E+03</pdfrwt>
<pdfrwt beam="1">  1       -4 0.36789251E-01 0.12500312E+03</pdfrwt>
<totfact> 0.81540884E+03</totfact>
</mgrwt>
</event>
<event>
 5    1  0.3309219E-002  0.1250008E+03  0.7818608E-02  0.1235068E+00
          4   -1    0    0  501    0  0.00000000000E+00  0.00000000000E+00  0.15777630689E+02  0.15828661666E+02  0.12700000000E+01 0. -1.
         -4   -1    0    0    0  501 -0.00000000000E+00 -0.00000000000E+00 -0.24713215125E+03  0.24713541446E+03  0.12700000000E+01 0. -1.
         25    2    1    2    0    0  0.00000000000E+00  0.00000000000E+00 -0.23135452056E+03  0.26296407613E+03  0.12500076460E+03 0.  0.
    9000005    1    3    3    0    0 -0.39200450378E+02 -0.23301993814E+02 -0.20556309850E+03  0.21056316318E+03  0.10000000000E+01 0.  0.
    9000005    1    3    3    0    0  0.39200450378E+02  0.23301993814E+02 -0.25791422063E+02  0.52400912946E+02  0.10000000000E+01 0.  0.
<mgrwt>
<rscale>  0 0.12500076E+03</rscale>
<asrwt>0</asrwt>
<pdfrwt beam="1">  1        4 0.24315045E-02 0.12500076E+03</pdfrwt>
<pdfrwt beam="2">  1       -4 0.38024505E-01 0.12500076E+03</pdfrwt>
<totfact> 0.80490518E+03</totfact>
</mgrwt>
</event>
<event>
 5    1  0.3309219E-002  0.1249994E+03  0.7818608E-02  0.1235070E+00
          4   -1    0    0  501    0  0.00000000000E+00  0.00000000000E+00  0.58246842211E+02  0.58260685952E+02  0.12700000000E+01 0.  1.
         -4   -1    0    0    0  501 -0.00000000000E+00 -0.00000000000E+00 -0.67035231757E+02  0.67047260919E+02  0.12700000000E+01 0.  1.
         25    2    1    2    0    0  0.00000000000E+00  0.00000000000E+00 -0.87883895460E+01  0.12530794687E+03  0.12499938303E+03 0.  0.
    9000005    1    3    3    0    0  0.28771579322E+02 -0.49629417638E+02 -0.29241031181E+02  0.64396589788E+02  0.10000000000E+01 0.  0.
    9000005    1    3    3    0    0 -0.28771579322E+02  0.49629417638E+02  0.20452641635E+02  0.60911357083E+02  0.10000000000E+01 0.  0.
<mgrwt>
<rscale>  0 0.12499938E+03</rscale>
<asrwt>0</asrwt>
<pdfrwt beam="1">  1        4 0.89630429E-02 0.12499938E+03</pdfrwt>
<pdfrwt beam="2">  1       -4 0.10315103E-01 0.12499938E+03</pdfrwt>
<totfact> 0.10446323E+04</totfact>
</mgrwt>
</event>
<event>
 5    1  0.3309219E-002  0.1249952E+03  0.7818608E-02  0.1235077E+00
          4   -1    0    0  501    0  0.00000000000E+00  0.00000000000E+00  0.76653248578E+02  0.76663768611E+02  0.12700000000E+01 0. -1.
         -4   -1    0    0    0  501 -0.00000000000E+00 -0.00000000000E+00 -0.50934170024E+02  0.50950000746E+02  0.12700000000E+01 0. -1.
         25    2    1    2    0    0  0.00000000000E+00  0.00000000000E+00  0.25719078554E+02  0.12761376936E+03  0.12499521242E+03 0.  0.
    9000005    1    3    3    0    0 -0.55171639522E+02  0.19996911848E+02  0.34784159926E+02  0.68225538273E+02  0.10000000000E+01 0.  0.
    9000005    1    3    3    0    0  0.55171639522E+02 -0.19996911848E+02 -0.90650813715E+01  0.59388231084E+02  0.10000000000E+01 0.  0.
<mgrwt>
<rscale>  0 0.12499521E+03</rscale>
<asrwt>0</asrwt>
<pdfrwt beam="1">  1        4 0.11794834E-01 0.12499521E+03</pdfrwt>
<pdfrwt beam="2">  1       -4 0.78380531E-02 0.12499521E+03</pdfrwt>
<totfact> 0.10396961E+04</totfact>
</mgrwt>
</event>
<event>
 5    1  0.3309219E-002  0.1249995E+03  0.7818608E-02  0.1235070E+00
         -4   -1    0    0    0  501 -0.00000000000E+00  0.00000000000E+00  0.79049557785E+01  0.80063241166E+01  0.12700000000E+01 0. -1.
          4   -1    0    0  501    0  0.00000000000E+00 -0.00000000000E+00 -0.49089773380E+03  0.49089937661E+03  0.12700000000E+01 0. -1.
         25    2    1    2    0    0  0.00000000000E+00  0.00000000000E+00 -0.48299277802E+03  0.49890570072E+03  0.12499949836E+03 0.  0.
    9000005    1    3    3    0    0  0.47850979588E+02  0.13337309578E+02 -0.39282882878E+03  0.39595844327E+03  0.10000000000E+01 0.  0.
    9000005    1    3    3    0    0 -0.47850979588E+02 -0.13337309578E+02 -0.90163949246E+02  0.10294725746E+03  0.10000000000E+01 0.  0.
<mgrwt>
<rscale>  0 0.12499950E+03</rscale>
<asrwt>0</asrwt>
<pdfrwt beam="2">  1        4 0.75530628E-01 0.12499950E+03</pdfrwt>
<pdfrwt beam="1">  1       -4 0.12240714E-02 0.12499950E+03</pdfrwt>
<totfact> 0.55949998E+03</totfact>
</mgrwt>
</event>
<event>
 5    1  0.3309219E-002  0.1249984E+03  0.7818608E-02  0.1235072E+00
          4   -1    0    0  501    0  0.00000000000E+00  0.00000000000E+00  0.27441027901E+02  0.27470400657E+02  0.12700000000E+01 0.  1.
         -4   -1    0    0    0  501 -0.00000000000E+00 -0.00000000000E+00 -0.14223872683E+03  0.14224439641E+03  0.12700000000E+01 0.  1.
         25    2    1    2    0    0  0.00000000000E+00  0.00000000000E+00 -0.11479769893E+03  0.16971479707E+03  0.12499840265E+03 0.  0.
    9000005    1    3    3    0    0  0.12708999224E+02 -0.33749687377E+02  0.11893444518E+02  0.37987025178E+02  0.10000000000E+01 0.  0.
    9000005    1    3    3    0    0 -0.12708999224E+02  0.33749687377E+02 -0.12669114345E+03  0.13172777189E+03  0.10000000000E+01 0.  0.
<mgrwt>
<rscale>  0 0.12499840E+03</rscale>
<asrwt>0</asrwt>
<pdfrwt beam="1">  1        4 0.42243922E-02 0.12499840E+03</pdfrwt>
<pdfrwt beam="2">  1       -4 0.21885576E-01 0.12499840E+03</pdfrwt>
<totfact> 0.95505245E+03</totfact>
</mgrwt>
</event>
<event>
 5    1  0.3309219E-002  0.1249987E+03  0.7818608E-02  0.1235071E+00
          4   -1    0    0  501    0  0.00000000000E+00  0.00000000000E+00  0.18061722218E+03  0.18062168709E+03  0.12700000000E+01 0.  1.
         -4   -1    0    0    0  501 -0.00000000000E+00 -0.00000000000E+00 -0.21603406202E+02  0.21640703767E+02  0.12700000000E+01 0.  1.
         25    2    1    2    0    0  0.00000000000E+00  0.00000000000E+00  0.15901381597E+03  0.20226239086E+03  0.12499872433E+03 0.  0.
    9000005    1    3    3    0    0  0.60839055497E+02  0.52805211309E+01  0.58046540263E+02  0.84259571645E+02  0.10000000000E+01 0.  0.
    9000005    1    3    3    0    0 -0.60839055497E+02 -0.52805211309E+01  0.10096727571E+03  0.11800281921E+03  0.10000000000E+01 0.  0.
<mgrwt>
<rscale>  0 0.12499872E+03</rscale>
<asrwt>0</asrwt>
<pdfrwt beam="1">  1        4 0.27790479E-01 0.12499872E+03</pdfrwt>
<pdfrwt beam="2">  1       -4 0.33268133E-02 0.12499872E+03</pdfrwt>
<totfact> 0.89757894E+03</totfact>
</mgrwt>
</event>
<event>
 5    1  0.3309219E-002  0.1250091E+03  0.7818608E-02  0.1235055E+00
         -4   -1    0    0    0  501 -0.00000000000E+00  0.00000000000E+00  0.20390041127E+02  0.20429554012E+02  0.12700000000E+01 0. -1.
          4   -1    0    0  501    0  0.00000000000E+00 -0.00000000000E+00 -0.19137730829E+03  0.19138152217E+03  0.12700000000E+01 0. -1.
         25    2    1    2    0    0  0.00000000000E+00  0.00000000000E+00 -0.17098726716E+03  0.21181107618E+03  0.12500914551E+03 0.  0.
    9000005    1    3    3    0    0  0.18533807951E+02  0.27196390007E+02  0.45260312478E+01  0.33235983895E+02  0.10000000000E+01 0.  0.
    9000005    1    3    3    0    0 -0.18533807951E+02 -0.27196390007E+02 -0.17551329841E+03  0.17857509229E+03  0.10000000000E+01 0.  0.
<mgrwt>
<rscale>  0 0.12500915E+03</rscale>
<asrwt>0</asrwt>
<pdfrwt beam="2">  1        4 0.29446025E-01 0.12500915E+03</pdfrwt>
<pdfrwt beam="1">  1       -4 0.31402931E-02 0.12500915E+03</pdfrwt>
<totfact> 0.88162936E+03</totfact>
</mgrwt>
</event>
<event>
 5    1  0.3309219E-002  0.1250008E+03  0.7818608E-02  0.1235068E+00
         -4   -1    0    0    0  501 -0.00000000000E+00  0.00000000000E+00  0.22752537977E+02  0.22787954809E+02  0.12700000000E+01 0. -1.
          4   -1    0    0  501    0  0.00000000000E+00 -0.00000000000E+00 -0.17151493748E+03  0.17151963933E+03  0.12700000000E+01 0. -1.
         25    2    1    2    0    0  0.00000000000E+00  0.00000000000E+00 -0.14876239950E+03  0.19430759414E+03  0.12500075855E+03 0.  0.
    9000005    1    3    3    0    0 -0.51651827005E+02  0.10341340318E+02 -0.22117345628E+02  0.57140454410E+02  0.10000000000E+01 0.  0.
    9000005    1    3    3    0    0  0.51651827005E+02 -0.10341340318E+02 -0.12664505387E+03  0.13716713973E+03  0.10000000000E+01 0.  0.
<mgrwt>
<rscale>  0 0.12500076E+03</rscale>
<asrwt>0</asrwt>
<pdfrwt beam="2">  1        4 0.26389999E-01 0.12500076E+03</pdfrwt>
<pdfrwt beam="1">  1       -4 0.35034766E-02 0.12500076E+03</pdfrwt>
<totfact> 0.91101616E+03</totfact>
</mgrwt>
</event>
<event>
 5    1  0.3309219E-002  0.1250000E+03  0.7818608E-02  0.1235069E+00
         -4   -1    0    0    0  501 -0.00000000000E+00  0.00000000000E+00  0.22678581821E+02  0.22714113969E+02  0.12700000000E+01 0. -1.
          4   -1    0    0  501    0  0.00000000000E+00 -0.00000000000E+00 -0.17207141374E+03  0.17207610039E+03  0.12700000000E+01 0. -1.
         25    2    1    2    0    0  0.00000000000E+00  0.00000000000E+00 -0.14939283192E+03  0.19479021436E+03  0.12500003753E+03 0.  0.
    9000005    1    3    3    0    0 -0.17575512725E+02 -0.59718200168E+02 -0.83244524147E+02  0.10395101192E+03  0.10000000000E+01 0.  0.
    9000005    1    3    3    0    0  0.17575512725E+02  0.59718200168E+02 -0.66148307769E+02  0.90839202438E+02  0.10000000000E+01 0.  0.
<mgrwt>
<rscale>  0 0.12500004E+03</rscale>
<asrwt>0</asrwt>
<pdfrwt beam="2">  1        4 0.26475618E-01 0.12500004E+03</pdfrwt>
<pdfrwt beam="1">  1       -4 0.34921065E-02 0.12500004E+03</pdfrwt>
<totfact> 0.91020373E+03</totfact>
</mgrwt>
</event>
<event>
 5    1  0.3309219E-002  0.1249907E+03  0.7818608E-02  0.1235084E+00
          4   -1    0    0  501    0  0.00000000000E+00  0.00000000000E+00  0.43128509570E+02  0.43147204286E+02  0.12700000000E+01 0. -1.
         -4   -1    0    0    0  501 -0.00000000000E+00 -0.00000000000E+00 -0.90516070286E+02  0.90524979315E+02  0.12700000000E+01 0. -1.
         25    2    1    2    0    0  0.00000000000E+00  0.00000000000E+00 -0.47387560716E+02  0.13367218360E+03  0.12499068669E+03 0.  0.
    9000005    1    3    3    0    0  0.40514355148E+02  0.14934121414E+02  0.24612392613E+02  0.49711274633E+02  0.10000000000E+01 0.  0.
    9000005    1    3    3    0    0 -0.40514355148E+02 -0.14934121414E+02 -0.71999953329E+02  0.83960908969E+02  0.10000000000E+01 0.  0.
<mgrwt>
<rscale>  0 0.12499069E+03</rscale>
<asrwt>0</asrwt>
<pdfrwt beam="1">  1        4 0.66372787E-02 0.12499069E+03</pdfrwt>
<pdfrwt beam="2">  1       -4 0.13927673E-01 0.12499069E+03</pdfrwt>
<totfact> 0.10268291E+04</totfact>
</mgrwt>
</event>
<event>
 5    1  0.3309219E-002  0.1250002E+03  0.7818608E-02  0.1235069E+00
          4   -1    0    0  501    0  0.00000000000E+00  0.00000000000E+00  0.68190392010E+03  0.68190510274E+03  0.12700000000E+01 0.  1.
         -4   -1    0    0    0  501 -0.00000000000E+00 -0.00000000000E+00 -0.56568691946E+01  0.57976779046E+01  0.12700000000E+01 0.  1.
         25    2    1    2    0    0  0.00000000000E+00  0.00000000000E+00  0.67624705091E+03  0.68770278065E+03  0.12500016261E+03 0.  0.
    9000005    1    3    3    0    0  0.45396462241E+02  0.25652229726E+02  0.52762078445E+03  0.53019201037E+03  0.10000000000E+01 0.  0.
    9000005    1    3    3    0    0 -0.45396462241E+02 -0.25652229726E+02  0.14862626645E+03  0.15751077028E+03  0.10000000000E+01 0.  0.
<mgrwt>
<rscale>  0 0.12500016E+03</rscale>
<asrwt>0</asrwt>
<pdfrwt beam="1">  1        4 0.10491914E+00 0.12500016E+03</pdfrwt>
<pdfrwt beam="2">  1       -4 0.88121061E-03 0.12500016E+03</pdfrwt>
<totfact> 0.43743714E+03</totfact>
</mgrwt>
</event>
<event>
 5    1  0.3309219E-002  0.1249992E+03  0.7818608E-02  0.1235071E+00
          4   -1    0    0  501    0  0.00000000000E+00  0.00000000000E+00  0.11908550058E+03  0.11909227242E+03  0.12700000000E+01 0.  1.
         -4   -1    0    0    0  501 -0.00000000000E+00 -0.00000000000E+00 -0.32781641787E+02  0.32806233222E+02  0.12700000000E+01 0.  1.
         25    2    1    2    0    0  0.00000000000E+00  0.00000000000E+00  0.86303858797E+02  0.15189850564E+03  0.12499919989E+03 0.  0.
    9000005    1    3    3    0    0 -0.80022005748E+01 -0.44436522679E+02 -0.93490339596E+01  0.46119889395E+02  0.10000000000E+01 0.  0.
    9000005    1    3    3    0    0  0.80022005748E+01  0.44436522679E+02  0.95652892756E+02  0.10577861624E+03  0.10000000000E+01 0.  0.
<mgrwt>
<rscale>  0 0.12499920E+03</rscale>
<asrwt>0</asrwt>
<pdfrwt beam="1">  1        4 0.18323259E-01 0.12499920E+03</pdfrwt>
<pdfrwt beam="2">  1       -4 0.50457420E-02 0.12499920E+03</pdfrwt>
<totfact> 0.98928378E+03</totfact>
</mgrwt>
</event>
<event>
 5    1  0.3309219E-002  0.1250067E+03  0.7818608E-02  0.1235059E+00
          4   -1    0    0  501    0  0.00000000000E+00  0.00000000000E+00  0.30026946398E+02  0.30053791940E+02  0.12700000000E+01 0. -1.
         -4   -1    0    0    0  501 -0.00000000000E+00 -0.00000000000E+00 -0.13001725793E+03  0.13002346042E+03  0.12700000000E+01 0. -1.
         25    2    1    2    0    0  0.00000000000E+00  0.00000000000E+00 -0.99990311530E+02  0.16007725236E+03  0.12500665711E+03 0.  0.
    9000005    1    3    3    0    0  0.55676987917E+02  0.32687997343E+01 -0.13887873123E+02  0.57484650604E+02  0.10000000000E+01 0.  0.
    9000005    1    3    3    0    0 -0.55676987917E+02 -0.32687997343E+01 -0.86102438407E+02  0.10259260175E+03  0.10000000000E+01 0.  0.
<mgrwt>
<rscale>  0 0.12500666E+03</rscale>
<asrwt>0</asrwt>
<pdfrwt beam="1">  1        4 0.46220724E-02 0.12500666E+03</pdfrwt>
<pdfrwt beam="2">  1       -4 0.20005197E-01 0.12500666E+03</pdfrwt>
<totfact> 0.97313331E+03</totfact>
</mgrwt>
</event>
<event>
 5    1  0.3309219E-002  0.1249983E+03  0.7818608E-02  0.1235072E+00
         -4   -1    0    0    0  501 -0.00000000000E+00  0.00000000000E+00  0.14822193080E+02  0.14876501863E+02  0.12700000000E+01 0.  1.
          4   -1    0    0  501    0  0.00000000000E+00 -0.00000000000E+00 -0.26299566149E+03  0.26299872787E+03  0.12700000000E+01 0.  1.
         25    2    1    2    0    0  0.00000000000E+00  0.00000000000E+00 -0.24817346841E+03  0.27787522974E+03  0.12499829150E+03 0.  0.
    9000005    1    3    3    0    0  0.52425295312E+02 -0.33691549501E+02 -0.11375235422E+03  0.12970786478E+03  0.10000000000E+01 0.  0.
    9000005    1    3    3    0    0 -0.52425295312E+02  0.33691549501E+02 -0.13442111419E+03  0.14816736495E+03  0.10000000000E+01 0.  0.
<mgrwt>
<rscale>  0 0.12499829E+03</rscale>
<asrwt>0</asrwt>
<pdfrwt beam="2">  1        4 0.40465281E-01 0.12499829E+03</pdfrwt>
<pdfrwt beam="1">  1       -4 0.22847511E-02 0.12499829E+03</pdfrwt>
<totfact> 0.78463662E+03</totfact>
</mgrwt>
</event>
<event>
 5    1  0.3309219E-002  0.1249945E+03  0.7818608E-02  0.1235078E+00
          4   -1    0    0  501    0  0.00000000000E+00  0.00000000000E+00  0.18437994956E+03  0.18438432336E+03  0.12700000000E+01 0.  1.
         -4   -1    0    0    0  501 -0.00000000000E+00 -0.00000000000E+00 -0.21160360413E+02  0.21198437509E+02  0.12700000000E+01 0.  1.
         25    2    1    2    0    0  0.00000000000E+00  0.00000000000E+00  0.16321958915E+03  0.20558276087E+03  0.12499454902E+03 0.  0.
    9000005    1    3    3    0    0 -0.59507596779E+02  0.92642189993E+01  0.10902950966E+03  0.12456088393E+03  0.10000000000E+01 0.  0.
    9000005    1    3    3    0    0  0.59507596779E+02 -0.92642189993E+01  0.54190079493E+02  0.81021876945E+02  0.10000000000E+01 0.  0.
<mgrwt>
<rscale>  0 0.12499455E+03</rscale>
<asrwt>0</asrwt>
<pdfrwt beam="1">  1        4 0.28369412E-01 0.12499455E+03</pdfrwt>
<pdfrwt beam="2">  1       -4 0.32587055E-02 0.12499455E+03</pdfrwt>
<totfact> 0.89213269E+03</totfact>
</mgrwt>
</event>
<event>
 5    1  0.3309219E-002  0.1249975E+03  0.7818608E-02  0.1235073E+00
         -4   -1    0    0    0  501 -0.00000000000E+00  0.00000000000E+00  0.43799358635E+03  0.43799542758E+03  0.12700000000E+01 0. -1.
          4   -1    0    0  501    0  0.00000000000E+00 -0.00000000000E+00 -0.88710657988E+01  0.89615126182E+01  0.12700000000E+01 0. -1.
         25    2    1    2    0    0  0.00000000000E+00  0.00000000000E+00  0.42912252055E+03  0.44695694020E+03  0.12499747497E+03 0.  0.
    9000005    1    3    3    0    0 -0.50615630097E+01  0.19999607926E+02  0.42548338852E+03  0.42598441009E+03  0.10000000000E+01 0.  0.
    9000005    1    3    3    0    0  0.50615630097E+01 -0.19999607926E+02  0.36391320364E+01  0.20972530112E+02  0.10000000000E+01 0.  0.
<mgrwt>
<rscale>  0 0.12499747E+03</rscale>
<asrwt>0</asrwt>
<pdfrwt beam="2">  1        4 0.13718784E-02 0.12499747E+03</pdfrwt>
<pdfrwt beam="1">  1       -4 0.67390727E-01 0.12499747E+03</pdfrwt>
<totfact> 0.60231673E+03</totfact>
</mgrwt>
</event>
<event>
 5    1  0.3309219E-002  0.1249937E+03  0.7818608E-02  0.1235079E+00
          4   -1    0    0  501    0  0.00000000000E+00  0.00000000000E+00  0.84284968579E+02  0.84294536172E+02  0.12700000000E+01 0. -1.
         -4   -1    0    0    0  501 -0.00000000000E+00 -0.00000000000E+00 -0.46320139983E+02  0.46337547065E+02  0.12700000000E+01 0. -1.
         25    2    1    2    0    0  0.00000000000E+00  0.00000000000E+00  0.37964828596E+02  0.13063208324E+03  0.12499365168E+03 0.  0.
    9000005    1    3    3    0    0  0.19408112101E+02  0.22305566239E+02 -0.38552183587E+02  0.48595102222E+02  0.10000000000E+01 0.  0.
    9000005    1    3    3    0    0 -0.19408112101E+02 -0.22305566239E+02  0.76517012184E+02  0.82036981015E+02  0.10000000000E+01 0.  0.
<mgrwt>
<rscale>  0 0.12499365E+03</rscale>
<asrwt>0</asrwt>
<pdfrwt beam="1">  1        4 0.12968993E-01 0.12499365E+03</pdfrwt>
<pdfrwt beam="2">  1       -4 0.71282504E-02 0.12499365E+03</pdfrwt>
<totfact> 0.10332463E+04</totfact>
</mgrwt>
</event>
<event>
 5    1  0.3309219E-002  0.1250071E+03  0.7818608E-02  0.1235058E+00
          4   -1    0    0  501    0  0.00000000000E+00  0.00000000000E+00  0.62965860685E+01  0.64233866549E+01  0.12700000000E+01 0. -1.
         -4   -1    0    0    0  501 -0.00000000000E+00 -0.00000000000E+00 -0.61413371920E+03  0.61413503235E+03  0.12700000000E+01 0. -1.
         25    2    1    2    0    0  0.00000000000E+00  0.00000000000E+00 -0.60783713313E+03  0.62055841901E+03  0.12500708373E+03 0.  0.
    9000005    1    3    3    0    0 -0.45369508001E+02  0.33619007306E+02 -0.43684968412E+03  0.44048527379E+03  0.10000000000E+01 0.  0.
    9000005    1    3    3    0    0  0.45369508001E+02 -0.33619007306E+02 -0.17098744901E+03  0.18007314522E+03  0.10000000000E+01 0.  0.
<mgrwt>
<rscale>  0 0.12500708E+03</rscale>
<asrwt>0</asrwt>
<pdfrwt beam="1">  1        4 0.97856094E-03 0.12500708E+03</pdfrwt>
<pdfrwt beam="2">  1       -4 0.94491919E-01 0.12500708E+03</pdfrwt>
<totfact> 0.47587726E+03</totfact>
</mgrwt>
</event>
<event>
 5    1  0.3309219E-002  0.1250039E+03  0.7818608E-02  0.1235063E+00
          4   -1    0    0  501    0  0.00000000000E+00  0.00000000000E+00  0.27704159929E+03  0.27704451021E+03  0.12700000000E+01 0.  1.
         -4   -1    0    0    0  501 -0.00000000000E+00 -0.00000000000E+00 -0.14069159941E+02  0.14126364056E+02  0.12700000000E+01 0.  1.
         25    2    1    2    0    0  0.00000000000E+00  0.00000000000E+00  0.26297243935E+03  0.29117087426E+03  0.12500389659E+03 0.  0.
    9000005    1    3    3    0    0  0.54738315389E+02 -0.30790308131E+01  0.61617873168E+02  0.82483488627E+02  0.10000000000E+01 0.  0.
    9000005    1    3    3    0    0 -0.54738315389E+02  0.30790308131E+01  0.20135456618E+03  0.20868738563E+03  0.10000000000E+01 0.  0.
<mgrwt>
<rscale>  0 0.12500390E+03</rscale>
<asrwt>0</asrwt>
<pdfrwt beam="1">  1        4 0.42626408E-01 0.12500390E+03</pdfrwt>
<pdfrwt beam="2">  1       -4 0.21691104E-02 0.12500390E+03</pdfrwt>
<totfact> 0.76713225E+03</totfact>
</mgrwt>
</event>
<event>
 5    1  0.3309219E-002  0.1250002E+03  0.7818608E-02  0.1235069E+00
         -4   -1    0    0    0  501 -0.00000000000E+00  0.00000000000E+00  0.33791424224E+02  0.33815281324E+02  0.12700000000E+01 0.  1.
          4   -1    0    0  501    0  0.00000000000E+00 -0.00000000000E+00 -0.11553116075E+03  0.11553814090E+03  0.12700000000E+01 0.  1.
         25    2    1    2    0    0  0.00000000000E+00  0.00000000000E+00 -0.81739736522E+02  0.14935342223E+03  0.12500024082E+03 0.  0.
    9000005    1    3    3    0    0  0.42363249230E+02 -0.42753103124E+02 -0.20777175262E+02  0.63680167430E+02  0.10000000000E+01 0.  0.
    9000005    1    3    3    0    0 -0.42363249230E+02  0.42753103124E+02 -0.60962561260E+02  0.85673254796E+02  0.10000000000E+01 0.  0.
<mgrwt>
<rscale>  0 0.12500024E+03</rscale>
<asrwt>0</asrwt>
<pdfrwt beam="2">  1        4 0.17776397E-01 0.12500024E+03</pdfrwt>
<pdfrwt beam="1">  1       -4 0.52010528E-02 0.12500024E+03</pdfrwt>
<totfact> 0.99432201E+03</totfact>
</mgrwt>
</event>
<event>
 5    1  0.3309219E-002  0.1250009E+03  0.7818608E-02  0.1235068E+00
         -4   -1    0    0    0  501 -0.00000000000E+00  0.00000000000E+00  0.23814463204E+03  0.23814801840E+03  0.12700000000E+01 0.  1.
          4   -1    0    0  501    0  0.00000000000E+00 -0.00000000000E+00 -0.16375002454E+02  0.16424177464E+02  0.12700000000E+01 0.  1.
         25    2    1    2    0    0  0.00000000000E+00  0.00000000000E+00  0.22176962958E+03  0.25457219587E+03  0.12500093720E+03 0.  0.
    9000005    1    3    3    0    0 -0.26164486098E+02 -0.54987387158E+02  0.82291922833E+02  0.10237750555E+03  0.10000000000E+01 0.  0.
    9000005    1    3    3    0    0  0.26164486098E+02  0.54987387158E+02  0.13947770675E+03  0.15219469031E+03  0.10000000000E+01 0.  0.
<mgrwt>
<rscale>  0 0.12500094E+03</rscale>
<asrwt>0</asrwt>
<pdfrwt beam="2">  1        4 0.25232745E-02 0.12500094E+03</pdfrwt>
<pdfrwt beam="1">  1       -4 0.36641676E-01 0.12500094E+03</pdfrwt>
<totfact> 0.81672159E+03</totfact>
</mgrwt>
</event>
<event>
 5    1  0.3309219E-002  0.1249998E+03  0.7818608E-02  0.1235070E+00
          4   -1    0    0  501    0  0.00000000000E+00  0.00000000000E+00  0.39646489773E+02  0.39666825577E+02  0.12700000000E+01 0. -1.
         -4   -1    0    0    0  501 -0.00000000000E+00 -0.00000000000E+00 -0.98476932732E+02  0.98485121619E+02  0.12700000000E+01 0. -1.
         25    2    1    2    0    0  0.00000000000E+00  0.00000000000E+00 -0.58830442959E+02  0.13815194720E+03  0.12499975798E+03 0.  0.
    9000005    1    3    3    0    0  0.43894447454E+02  0.11406022885E+02  0.18101621706E+02  0.48841463775E+02  0.10000000000E+01 0.  0.
    9000005    1    3    3    0    0 -0.43894447454E+02 -0.11406022885E+02 -0.76932064665E+02  0.89310483421E+02  0.10000000000E+01 0.  0.
<mgrwt>
<rscale>  0 0.12499976E+03</rscale>
<asrwt>0</asrwt>
<pdfrwt beam="1">  1        4 0.61016542E-02 0.12499976E+03</pdfrwt>
<pdfrwt beam="2">  1       -4 0.15152492E-01 0.12499976E+03</pdfrwt>
<totfact> 0.10172087E+04</totfact>
</mgrwt>
</event>
<event>
 5    1  0.3309219E-002  0.1249946E+03  0.7818608E-02  0.1235078E+00
         -4   -1    0    0    0  501 -0.00000000000E+00  0.00000000000E+00  0.50033059778E+03  0.50033220961E+03  0.12700000000E+01 0.  1.
          4   -1    0    0  501    0  0.00000000000E+00 -0.00000000000E+00 -0.77533749229E+01  0.78566992239E+01  0.12700000000E+01 0.  1.
         25    2    1    2    0    0  0.00000000000E+00  0.00000000000E+00  0.49257722286E+03  0.50818890884E+03  0.12499458623E+03 0.  0.
    9000005    1    3    3    0    0  0.35992448322E+02  0.45333946148E+02  0.34200845208E+03  0.34687375845E+03  0.10000000000E+01 0.  0.
    9000005    1    3    3    0    0 -0.35992448322E+02 -0.45333946148E+02  0.15056877078E+03  0.16131515039E+03  0.10000000000E+01 0.  0.
<mgrwt>
<rscale>  0 0.12499459E+03</rscale>
<asrwt>0</asrwt>
<pdfrwt beam="2">  1        4 0.12008991E-02 0.12499459E+03</pdfrwt>
<pdfrwt beam="1">  1       -4 0.76982001E-01 0.12499459E+03</pdfrwt>
<totfact> 0.55241136E+03</totfact>
</mgrwt>
</event>
<event>
 5    1  0.3309219E-002  0.1250004E+03  0.7818608E-02  0.1235069E+00
         -4   -1    0    0    0  501 -0.00000000000E+00  0.00000000000E+00  0.31377002969E+02  0.31402694396E+02  0.12700000000E+01 0.  1.
          4   -1    0    0  501    0  0.00000000000E+00 -0.00000000000E+00 -0.12441497982E+03  0.12442146159E+03  0.12700000000E+01 0.  1.
         25    2    1    2    0    0  0.00000000000E+00  0.00000000000E+00 -0.93037976850E+02  0.15582415598E+03  0.12500040980E+03 0.  0.
    9000005    1    3    3    0    0 -0.48760386702E+02 -0.31692630200E+02 -0.75035038843E+02  0.94938165005E+02  0.10000000000E+01 0.  0.
    9000005    1    3    3    0    0  0.48760386702E+02  0.31692630200E+02 -0.18002938006E+02  0.60885990977E+02  0.10000000000E+01 0.  0.
<mgrwt>
<rscale>  0 0.12500041E+03</rscale>
<asrwt>0</asrwt>
<pdfrwt beam="2">  1        4 0.19143241E-01 0.12500041E+03</pdfrwt>
<pdfrwt beam="1">  1       -4 0.48297062E-02 0.12500041E+03</pdfrwt>
<totfact> 0.98153045E+03</totfact>
</mgrwt>
</event>
<event>
 4    1  0.3309219E-002  0.1243620E+03  0.7818608E-02  0.1236070E+00
          4   -1    0    0  501    0  0.00000000000E+00  0.00000000000E+00  0.42571012157E+02  0.42589951586E+02  0.12700000000E+01 0.  1.
         -4   -1    0    0    0  501 -0.00000000000E+00 -0.00000000000E+00 -0.90780566299E+02  0.90789449373E+02  0.12700000000E+01 0.  1.
    9000005    1    1    2    0    0  0.48632826808E+01 -0.28630988084E+02  0.34854869901E+02  0.45378926309E+02  0.10000000000E+01 0.  0.
    9000005    1    1    2    0    0 -0.48632826808E+01  0.28630988084E+02 -0.83064424043E+02  0.88000474650E+02  0.10000000000E+01 0.  0.
<mgrwt>
<rscale>  0 0.12436199E+03</rscale>
<asrwt>0</asrwt>
<pdfrwt beam="1">  1        4 0.65515267E-02 0.12436199E+03</pdfrwt>
<pdfrwt beam="2">  1       -4 0.13968381E-01 0.12436199E+03</pdfrwt>
<totfact> 0.10421583E+04</totfact>
</mgrwt>
</event>
<event>
 5    1  0.3309219E-002  0.1249998E+03  0.7818608E-02  0.1235070E+00
          4   -1    0    0  501    0  0.00000000000E+00  0.00000000000E+00  0.48010606911E+03  0.48010774884E+03  0.12700000000E+01 0.  1.
         -4   -1    0    0    0  501 -0.00000000000E+00 -0.00000000000E+00 -0.80849370409E+01  0.81840764265E+01  0.12700000000E+01 0.  1.
         25    2    1    2    0    0  0.00000000000E+00  0.00000000000E+00  0.47202113207E+03  0.48829182526E+03  0.12499983001E+03 0.  0.
    9000005    1    3    3    0    0  0.26045214325E+02 -0.35584115607E+02  0.40898058481E+03  0.41135228360E+03  0.10000000000E+01 0.  0.
    9000005    1    3    3    0    0 -0.26045214325E+02  0.35584115607E+02  0.63040547254E+02  0.76939541660E+02  0.10000000000E+01 0.  0.
<mgrwt>
<rscale>  0 0.12499983E+03</rscale>
<asrwt>0</asrwt>
<pdfrwt beam="1">  1        4 0.73870245E-01 0.12499983E+03</pdfrwt>
<pdfrwt beam="2">  1       -4 0.12515915E-02 0.12499983E+03</pdfrwt>
<totfact> 0.56784561E+03</totfact>
</mgrwt>
</event>
<event>
 5    1  0.3309219E-002  0.1249990E+03  0.7818608E-02  0.1235071E+00
          4   -1    0    0  501    0  0.00000000000E+00  0.00000000000E+00  0.28908251142E+02  0.28936134574E+02  0.12700000000E+01 0. -1.
         -4   -1    0    0    0  501 -0.00000000000E+00 -0.00000000000E+00 -0.13502756009E+03  0.13503353244E+03  0.12700000000E+01 0. -1.
         25    2    1    2    0    0  0.00000000000E+00  0.00000000000E+00 -0.10611930895E+03  0.16396966701E+03  0.12499897587E+03 0.  0.
    9000005    1    3    3    0    0  0.25612011836E+02 -0.20562809594E+02  0.16678823769E+02  0.36850881278E+02  0.10000000000E+01 0.  0.
    9000005    1    3    3    0    0 -0.25612011836E+02  0.20562809594E+02 -0.12279813272E+03  0.12711878574E+03  0.10000000000E+01 0.  0.
<mgrwt>
<rscale>  0 0.12499898E+03</rscale>
<asrwt>0</asrwt>
<pdfrwt beam="1">  1        4 0.44500276E-02 0.12499898E+03</pdfrwt>
<pdfrwt beam="2">  1       -4 0.20776075E-01 0.12499898E+03</pdfrwt>
<totfact> 0.96585100E+03</totfact>
</mgrwt>
</event>
<event>
 5    1  0.3309219E-002  0.1249997E+03  0.7818608E-02  0.1235070E+00
         -4   -1    0    0    0  501 -0.00000000000E+00  0.00000000000E+00  0.18945970690E+01  0.22808765977E+01  0.12700000000E+01 0. -1.
          4   -1    0    0  501    0  0.00000000000E+00 -0.00000000000E+00 -0.18706497489E+04  0.18706501800E+04  0.12700000000E+01 0. -1.
         25    2    1    2    0    0  0.00000000000E+00  0.00000000000E+00 -0.18687551518E+04  0.18729310566E+04  0.12499970119E+03 0.  0.
    9000005    1    3    3    0    0  0.44196737375E+02  0.53953999439E+01 -0.15913942872E+04  0.15920173489E+04  0.10000000000E+01 0.  0.
    9000005    1    3    3    0    0 -0.44196737375E+02 -0.53953999439E+01 -0.27736086462E+03  0.28091370767E+03  0.10000000000E+01 0.  0.
<mgrwt>
<rscale>  0 0.12499970E+03</rscale>
<asrwt>0</asrwt>
<pdfrwt beam="2">  1        4 0.28782068E+00 0.12499970E+03</pdfrwt>
<pdfrwt beam="1">  1       -4 0.32122494E-03 0.12499970E+03</pdfrwt>
<totfact> 0.11612558E+03</totfact>
</mgrwt>
</event>
<event>
 5    1  0.3309219E-002  0.1249702E+03  0.7818608E-02  0.1235116E+00
         -4   -1    0    0    0  501 -0.00000000000E+00  0.00000000000E+00  0.14435577483E+03  0.14436136127E+03  0.12700000000E+01 0. -1.
          4   -1    0    0  501    0  0.00000000000E+00 -0.00000000000E+00 -0.27025973283E+02  0.27055796641E+02  0.12700000000E+01 0. -1.
         25    2    1    2    0    0  0.00000000000E+00  0.00000000000E+00  0.11732980155E+03  0.17141715791E+03  0.12497023523E+03 0.  0.
    9000005    1    3    3    0    0 -0.18579672325E+02 -0.53631570687E+02  0.22847914185E+02  0.61192947148E+02  0.10000000000E+01 0.  0.
    9000005    1    3    3    0    0  0.18579672325E+02  0.53631570687E+02  0.94481887364E+02  0.11022421076E+03  0.10000000000E+01 0.  0.
<mgrwt>
<rscale>  0 0.12497024E+03</rscale>
<asrwt>0</asrwt>
<pdfrwt beam="2">  1        4 0.41605659E-02 0.12497024E+03</pdfrwt>
<pdfrwt beam="1">  1       -4 0.22211304E-01 0.12497024E+03</pdfrwt>
<totfact> 0.95248764E+03</totfact>
</mgrwt>
</event>
<event>
 5    1  0.3309219E-002  0.1249876E+03  0.7818608E-02  0.1235089E+00
         -4   -1    0    0    0  501 -0.00000000000E+00  0.00000000000E+00  0.12022380417E+02  0.12089273381E+02  0.12700000000E+01 0.  1.
          4   -1    0    0  501    0  0.00000000000E+00 -0.00000000000E+00 -0.32388093003E+03  0.32388341998E+03  0.12700000000E+01 0.  1.
         25    2    1    2    0    0  0.00000000000E+00  0.00000000000E+00 -0.31185854962E+03  0.33597269336E+03  0.12498758225E+03 0.  0.
    9000005    1    3    3    0    0  0.36023627935E+01  0.38794876942E+02 -0.24614471623E+02  0.46096547679E+02  0.10000000000E+01 0.  0.
    9000005    1    3    3    0    0 -0.36023627935E+01 -0.38794876942E+02 -0.28724407799E+03  0.28987614569E+03  0.10000000000E+01 0.  0.
<mgrwt>
<rscale>  0 0.12498758E+03</rscale>
<asrwt>0</asrwt>
<pdfrwt beam="2">  1        4 0.49833166E-01 0.12498758E+03</pdfrwt>
<pdfrwt beam="1">  1       -4 0.18549344E-02 0.12498758E+03</pdfrwt>
<totfact> 0.71315422E+03</totfact>
</mgrwt>
</event>
<event>
 5    1  0.3309219E-002  0.1250014E+03  0.7818608E-02  0.1235067E+00
         -4   -1    0    0    0  501 -0.00000000000E+00  0.00000000000E+00  0.10856206972E+03  0.10856949794E+03  0.12700000000E+01 0.  1.
          4   -1    0    0  501    0  0.00000000000E+00 -0.00000000000E+00 -0.35962635586E+02  0.35985053263E+02  0.12700000000E+01 0.  1.
         25    2    1    2    0    0  0.00000000000E+00  0.00000000000E+00  0.72599434137E+02  0.14455455120E+03  0.12500136174E+03 0.  0.
    9000005    1    3    3    0    0 -0.16479058326E+02 -0.49079815899E+02 -0.41742476402E+01  0.51950091775E+02  0.10000000000E+01 0.  0.
    9000005    1    3    3    0    0  0.16479058326E+02  0.49079815899E+02  0.76773681777E+02  0.92604459427E+02  0.10000000000E+01 0.  0.
<mgrwt>
<rscale>  0 0.12500136E+03</rscale>
<asrwt>0</asrwt>
<pdfrwt beam="2">  1        4 0.55350091E-02 0.12500136E+03</pdfrwt>
<pdfrwt beam="1">  1       -4 0.16704152E-01 0.12500136E+03</pdfrwt>
<totfact> 0.10039739E+04</totfact>
</mgrwt>
</event>
<event>
 5    1  0.3309219E-002  0.1250047E+03  0.7818608E-02  0.1235062E+00
          4   -1    0    0  501    0  0.00000000000E+00  0.00000000000E+00  0.90553586953E+01  0.91439827811E+01  0.12700000000E+01 0. -1.
         -4   -1    0    0    0  501 -0.00000000000E+00 -0.00000000000E+00 -0.42921635857E+03  0.42921823745E+03  0.12700000000E+01 0. -1.
         25    2    1    2    0    0  0.00000000000E+00  0.00000000000E+00 -0.42016099987E+03  0.43836222024E+03  0.12500468117E+03 0.  0.
    9000005    1    3    3    0    0  0.37870513095E+02 -0.12759312135E+02 -0.41588974883E+02  0.57685514993E+02  0.10000000000E+01 0.  0.
    9000005    1    3    3    0    0 -0.37870513095E+02  0.12759312135E+02 -0.37857202499E+03  0.38067670524E+03  0.10000000000E+01 0.  0.
<mgrwt>
<rscale>  0 0.12500468E+03</rscale>
<asrwt>0</asrwt>
<pdfrwt beam="1">  1        4 0.14000942E-02 0.12500468E+03</pdfrwt>
<pdfrwt beam="2">  1       -4 0.66040232E-01 0.12500468E+03</pdfrwt>
<totfact> 0.60978968E+03</totfact>
</mgrwt>
</event>
<event>
 5    1  0.3309219E-002  0.1250014E+03  0.7818608E-02  0.1235067E+00
          4   -1    0    0  501    0  0.00000000000E+00  0.00000000000E+00  0.20000210089E+02  0.20040491601E+02  0.12700000000E+01 0.  1.
         -4   -1    0    0    0  501 -0.00000000000E+00 -0.00000000000E+00 -0.19507583752E+03  0.19507997151E+03  0.12700000000E+01 0.  1.
         25    2    1    2    0    0  0.00000000000E+00  0.00000000000E+00 -0.17507562743E+03  0.21512046311E+03  0.12500135331E+03 0.  0.
    9000005    1    3    3    0    0 -0.38158624938E+01  0.45420170364E+02 -0.16111263154E+03  0.16743904181E+03  0.10000000000E+01 0.  0.
    9000005    1    3    3    0    0  0.38158624938E+01 -0.45420170364E+02 -0.13962995893E+02  0.47681421296E+02  0.10000000000E+01 0.  0.
<mgrwt>
<rscale>  0 0.12500135E+03</rscale>
<asrwt>0</asrwt>
<pdfrwt beam="1">  1        4 0.30803721E-02 0.12500135E+03</pdfrwt>
<pdfrwt beam="2">  1       -4 0.30015083E-01 0.12500135E+03</pdfrwt>
<totfact> 0.87643761E+03</totfact>
</mgrwt>
</event>
<event>
 5    1  0.3309219E-002  0.1249994E+03  0.7818608E-02  0.1235070E+00
          4   -1    0    0  501    0  0.00000000000E+00  0.00000000000E+00  0.72641599878E+03  0.72641710895E+03  0.12700000000E+01 0.  1.
         -4   -1    0    0    0  501 -0.00000000000E+00 -0.00000000000E+00 -0.53012633488E+01  0.54512652746E+01  0.12700000000E+01 0.  1.
         25    2    1    2    0    0  0.00000000000E+00  0.00000000000E+00  0.72111473543E+03  0.73186837423E+03  0.12499942217E+03 0.  0.
    9000005    1    3    3    0    0  0.18759555596E+02  0.35657024693E+02  0.64024314483E+03  0.64151042769E+03  0.10000000000E+01 0.  0.
    9000005    1    3    3    0    0 -0.18759555596E+02 -0.35657024693E+02  0.80871590597E+02  0.90357946534E+02  0.10000000000E+01 0.  0.
<mgrwt>
<rscale>  0 0.12499942E+03</rscale>
<asrwt>0</asrwt>
<pdfrwt beam="1">  1        4 0.11176782E+00 0.12499942E+03</pdfrwt>
<pdfrwt beam="2">  1       -4 0.82720377E-03 0.12499942E+03</pdfrwt>
<totfact> 0.41457306E+03</totfact>
</mgrwt>
</event>
<event>
 5    1  0.3309219E-002  0.1249990E+03  0.7818608E-02  0.1235071E+00
         -4   -1    0    0    0  501 -0.00000000000E+00  0.00000000000E+00  0.57959918147E+03  0.57960057286E+03  0.12700000000E+01 0.  1.
          4   -1    0    0  501    0  0.00000000000E+00 -0.00000000000E+00 -0.66782219526E+01  0.67979076522E+01  0.12700000000E+01 0.  1.
         25    2    1    2    0    0  0.00000000000E+00  0.00000000000E+00  0.57292095952E+03  0.58639848051E+03  0.12499900837E+03 0.  0.
    9000005    1    3    3    0    0 -0.59139068389E+02  0.13797348621E+02  0.21729206341E+03  0.22562055992E+03  0.10000000000E+01 0.  0.
    9000005    1    3    3    0    0  0.59139068389E+02 -0.13797348621E+02  0.35562889611E+03  0.36077792059E+03  0.10000000000E+01 0.  0.
<mgrwt>
<rscale>  0 0.12499901E+03</rscale>
<asrwt>0</asrwt>
<pdfrwt beam="2">  1        4 0.10367324E-02 0.12499901E+03</pdfrwt>
<pdfrwt beam="1">  1       -4 0.89178417E-01 0.12499901E+03</pdfrwt>
<totfact> 0.49738671E+03</totfact>
</mgrwt>
</event>
<event>
 5    1  0.3309219E-002  0.1250001E+03  0.7818608E-02  0.1235069E+00
         -4   -1    0    0    0  501 -0.00000000000E+00  0.00000000000E+00  0.23943972518E+04  0.23943975886E+04  0.12700000000E+01 0. -1.
          4   -1    0    0  501    0  0.00000000000E+00 -0.00000000000E+00 -0.13838654529E+01  0.18782927332E+01  0.12700000000E+01 0. -1.
         25    2    1    2    0    0  0.00000000000E+00  0.00000000000E+00  0.23930133863E+04  0.23962758813E+04  0.12500012903E+03 0.  0.
    9000005    1    3    3    0    0 -0.11948188117E+02  0.55301250755E+02  0.68776642668E+03  0.69009031670E+03  0.10000000000E+01 0.  0.
    9000005    1    3    3    0    0  0.11948188117E+02 -0.55301250755E+02  0.17052469596E+04  0.17061855646E+04  0.10000000000E+01 0.  0.
<mgrwt>
<rscale>  0 0.12500013E+03</rscale>
<asrwt>0</asrwt>
<pdfrwt beam="2">  1        4 0.25095972E-03 0.12500013E+03</pdfrwt>
<pdfrwt beam="1">  1       -4 0.36840897E+00 0.12500013E+03</pdfrwt>
<totfact> 0.55360969E+02</totfact>
</mgrwt>
</event>
<event>
 5    1  0.3309219E-002  0.1250004E+03  0.7818608E-02  0.1235069E+00
         -4   -1    0    0    0  501 -0.00000000000E+00  0.00000000000E+00  0.12613615991E+02  0.12677389651E+02  0.12700000000E+01 0. -1.
          4   -1    0    0  501    0  0.00000000000E+00 -0.00000000000E+00 -0.30884108830E+03  0.30884369951E+03  0.12700000000E+01 0. -1.
         25    2    1    2    0    0  0.00000000000E+00  0.00000000000E+00 -0.29622747231E+03  0.32152108916E+03  0.12500038168E+03 0.  0.
    9000005    1    3    3    0    0  0.54520120114E+02 -0.29870992657E+02 -0.16449380814E+03  0.17585201908E+03  0.10000000000E+01 0.  0.
    9000005    1    3    3    0    0 -0.54520120114E+02  0.29870992657E+02 -0.13173366417E+03  0.14566907007E+03  0.10000000000E+01 0.  0.
<mgrwt>
<rscale>  0 0.12500038E+03</rscale>
<asrwt>0</asrwt>
<pdfrwt beam="2">  1        4 0.47519115E-01 0.12500038E+03</pdfrwt>
<pdfrwt beam="1">  1       -4 0.19456631E-02 0.12500038E+03</pdfrwt>
<totfact> 0.72974961E+03</totfact>
</mgrwt>
</event>
<event>
 5    1  0.3309219E-002  0.1250124E+03  0.7818608E-02  0.1235050E+00
         -4   -1    0    0    0  501 -0.00000000000E+00  0.00000000000E+00  0.43740089447E+02  0.43758522882E+02  0.12700000000E+01 0.  1.
          4   -1    0    0  501    0  0.00000000000E+00 -0.00000000000E+00 -0.89281909945E+02  0.89290942113E+02  0.12700000000E+01 0.  1.
         25    2    1    2    0    0  0.00000000000E+00  0.00000000000E+00 -0.45541820498E+02  0.13304946500E+03  0.12501241027E+03 0.  0.
    9000005    1    3    3    0    0 -0.48435491879E+02  0.39425355992E+02 -0.20236623155E+02  0.65657265290E+02  0.10000000000E+01 0.  0.
    9000005    1    3    3    0    0  0.48435491879E+02 -0.39425355992E+02 -0.25305197343E+02  0.67392199706E+02  0.10000000000E+01 0.  0.
<mgrwt>
<rscale>  0 0.12501241E+03</rscale>
<asrwt>0</asrwt>
<pdfrwt beam="2">  1        4 0.13737791E-01 0.12501241E+03</pdfrwt>
<pdfrwt beam="1">  1       -4 0.67313573E-02 0.12501241E+03</pdfrwt>
<totfact> 0.10276472E+04</totfact>
</mgrwt>
</event>
<event>
 5    1  0.3309219E-002  0.1249955E+03  0.7818608E-02  0.1235076E+00
         -4   -1    0    0    0  501 -0.00000000000E+00  0.00000000000E+00  0.22068124015E+03  0.22068489449E+03  0.12700000000E+01 0. -1.
          4   -1    0    0  501    0  0.00000000000E+00 -0.00000000000E+00 -0.17672997293E+02  0.17718570296E+02  0.12700000000E+01 0. -1.
         25    2    1    2    0    0  0.00000000000E+00  0.00000000000E+00  0.20300824286E+03  0.23840346478E+03  0.12499546133E+03 0.  0.
    9000005    1    3    3    0    0 -0.25347983182E+02  0.44818089815E+01  0.21010889148E+03  0.21168219846E+03  0.10000000000E+01 0.  0.
    9000005    1    3    3    0    0  0.25347983182E+02 -0.44818089815E+01 -0.71006486257E+01  0.26721266325E+02  0.10000000000E+01 0.  0.
<mgrwt>
<rscale>  0 0.12499546E+03</rscale>
<asrwt>0</asrwt>
<pdfrwt beam="2">  1        4 0.27227094E-02 0.12499546E+03</pdfrwt>
<pdfrwt beam="1">  1       -4 0.33954746E-01 0.12499546E+03</pdfrwt>
<totfact> 0.84044223E+03</totfact>
</mgrwt>
</event>
<event>
 5    1  0.3309219E-002  0.1249983E+03  0.7818608E-02  0.1235072E+00
          4   -1    0    0  501    0  0.00000000000E+00  0.00000000000E+00  0.30547171080E+03  0.30547435080E+03  0.12700000000E+01 0. -1.
         -4   -1    0    0    0  501 -0.00000000000E+00 -0.00000000000E+00 -0.12753022499E+02  0.12816102483E+02  0.12700000000E+01 0. -1.
         25    2    1    2    0    0  0.00000000000E+00  0.00000000000E+00  0.29271868830E+03  0.31829045329E+03  0.12499832868E+03 0.  0.
    9000005    1    3    3    0    0 -0.96871731911E+01 -0.29823443010E+02  0.28400090490E+03  0.28572853036E+03  0.10000000000E+01 0.  0.
    9000005    1    3    3    0    0  0.96871731911E+01  0.29823443010E+02  0.87177834030E+01  0.32561922930E+02  0.10000000000E+01 0.  0.
<mgrwt>
<rscale>  0 0.12499833E+03</rscale>
<asrwt>0</asrwt>
<pdfrwt beam="1">  1        4 0.47000702E-01 0.12499833E+03</pdfrwt>
<pdfrwt beam="2">  1       -4 0.19670589E-02 0.12499833E+03</pdfrwt>
<totfact> 0.73362633E+03</totfact>
</mgrwt>
</event>
<event>
 5    1  0.3309219E-002  0.1249991E+03  0.7818608E-02  0.1235071E+00
         -4   -1    0    0    0  501 -0.00000000000E+00  0.00000000000E+00  0.78987412341E+01  0.80001883155E+01  0.12700000000E+01 0. -1.
          4   -1    0    0  501    0  0.00000000000E+00 -0.00000000000E+00 -0.49127596480E+03  0.49127760634E+03  0.12700000000E+01 0. -1.
         25    2    1    2    0    0  0.00000000000E+00  0.00000000000E+00 -0.48337722357E+03  0.49927779466E+03  0.12499910389E+03 0.  0.
    9000005    1    3    3    0    0 -0.99920557729E+01 -0.70946463986E+01  0.30719323089E+01  0.12673277169E+02  0.10000000000E+01 0.  0.
    9000005    1    3    3    0    0  0.99920557729E+01  0.70946463986E+01 -0.48644915588E+03  0.48660451749E+03  0.10000000000E+01 0.  0.
<mgrwt>
<rscale>  0 0.12499910E+03</rscale>
<asrwt>0</asrwt>
<pdfrwt beam="2">  1        4 0.75588824E-01 0.12499910E+03</pdfrwt>
<pdfrwt beam="1">  1       -4 0.12231212E-02 0.12499910E+03</pdfrwt>
<totfact> 0.55921557E+03</totfact>
</mgrwt>
</event>
<event>
 5    1  0.3309219E-002  0.1250000E+03  0.7818608E-02  0.1235069E+00
         -4   -1    0    0    0  501 -0.00000000000E+00  0.00000000000E+00  0.79284722518E+02  0.79294893434E+02  0.12700000000E+01 0.  1.
          4   -1    0    0  501    0  0.00000000000E+00 -0.00000000000E+00 -0.49247120746E+02  0.49263493601E+02  0.12700000000E+01 0.  1.
         25    2    1    2    0    0  0.00000000000E+00  0.00000000000E+00  0.30037601772E+02  0.12855838703E+03  0.12500000543E+03 0.  0.
    9000005    1    3    3    0    0  0.19172159078E+02  0.33340673458E+02  0.65676186931E+02  0.76115266013E+02  0.10000000000E+01 0.  0.
    9000005    1    3    3    0    0 -0.19172159078E+02 -0.33340673458E+02 -0.35638585159E+02  0.52443121022E+02  0.10000000000E+01 0.  0.
<mgrwt>
<rscale>  0 0.12500001E+03</rscale>
<asrwt>0</asrwt>
<pdfrwt beam="2">  1        4 0.75785220E-02 0.12500001E+03</pdfrwt>
<pdfrwt beam="1">  1       -4 0.12199691E-01 0.12500001E+03</pdfrwt>
<totfact> 0.10375445E+04</totfact>
</mgrwt>
</event>
<event>
 5    1  0.3309219E-002  0.1249927E+03  0.7818608E-02  0.1235081E+00
          4   -1    0    0  501    0  0.00000000000E+00  0.00000000000E+00  0.11548665003E+03  0.11549363288E+03  0.12700000000E+01 0.  1.
         -4   -1    0    0    0  501 -0.00000000000E+00 -0.00000000000E+00 -0.33800390932E+02  0.33824241709E+02  0.12700000000E+01 0.  1.
         25    2    1    2    0    0  0.00000000000E+00  0.00000000000E+00  0.81686259102E+02  0.14931787459E+03  0.12499273077E+03 0.  0.
    9000005    1    3    3    0    0  0.45636416301E+02 -0.13379957175E+01 -0.10125301700E+02  0.46776003034E+02  0.10000000000E+01 0.  0.
    9000005    1    3    3    0    0 -0.45636416301E+02  0.13379957175E+01  0.91811560801E+02  0.10254187156E+03  0.10000000000E+01 0.  0.
<mgrwt>
<rscale>  0 0.12499273E+03</rscale>
<asrwt>0</asrwt>
<pdfrwt beam="1">  1        4 0.17769549E-01 0.12499273E+03</pdfrwt>
<pdfrwt beam="2">  1       -4 0.52024319E-02 0.12499273E+03</pdfrwt>
<totfact> 0.99456114E+03</totfact>
</mgrwt>
</event>
<event>
 5    1  0.3309219E-002  0.1250094E+03  0.7818608E-02  0.1235055E+00
         -4   -1    0    0    0  501 -0.00000000000E+00  0.00000000000E+00  0.10566055828E+03  0.10566819046E+03  0.12700000000E+01 0. -1.
          4   -1    0    0  501    0  0.00000000000E+00 -0.00000000000E+00 -0.36955487588E+02  0.36977303348E+02  0.12700000000E+01 0. -1.
         25    2    1    2    0    0  0.00000000000E+00  0.00000000000E+00  0.68705070688E+02  0.14264549381E+03  0.12500940031E+03 0.  0.
    9000005    1    3    3    0    0  0.97870382073E+01 -0.85384728030E+01  0.10410915261E+03  0.10492095735E+03  0.10000000000E+01 0.  0.
    9000005    1    3    3    0    0 -0.97870382073E+01  0.85384728030E+01 -0.35404081918E+02  0.37724536460E+02  0.10000000000E+01 0.  0.
<mgrwt>
<rscale>  0 0.12500940E+03</rscale>
<asrwt>0</asrwt>
<pdfrwt beam="2">  1        4 0.56877249E-02 0.12500940E+03</pdfrwt>
<pdfrwt beam="1">  1       -4 0.16257736E-01 0.12500940E+03</pdfrwt>
<totfact> 0.10076914E+04</totfact>
</mgrwt>
</event>
<event>
 5    1  0.3309219E-002  0.1250013E+03  0.7818608E-02  0.1235067E+00
          4   -1    0    0  501    0  0.00000000000E+00  0.00000000000E+00  0.15226934348E+04  0.15226939644E+04  0.12700000000E+01 0. -1.
         -4   -1    0    0    0  501 -0.00000000000E+00 -0.00000000000E+00 -0.24076689859E+01  0.27220892612E+01  0.12700000000E+01 0. -1.
         25    2    1    2    0    0  0.00000000000E+00  0.00000000000E+00  0.15202857658E+04  0.15254160537E+04  0.12500130837E+03 0.  0.
    9000005    1    3    3    0    0  0.25767373275E+02  0.53772277388E+02  0.53186915945E+03  0.53520203485E+03  0.10000000000E+01 0.  0.
    9000005    1    3    3    0    0 -0.25767373275E+02 -0.53772277388E+02  0.98841660634E+03  0.99021401881E+03  0.10000000000E+01 0.  0.
<mgrwt>
<rscale>  0 0.12500131E+03</rscale>
<asrwt>0</asrwt>
<pdfrwt beam="1">  1        4 0.23428524E+00 0.12500131E+03</pdfrwt>
<pdfrwt beam="2">  1       -4 0.39463672E-03 0.12500131E+03</pdfrwt>
<totfact> 0.17435601E+03</totfact>
</mgrwt>
</event>
<event>
 5    1  0.3309219E-002  0.1249981E+03  0.7818608E-02  0.1235072E+00
          4   -1    0    0  501    0  0.00000000000E+00  0.00000000000E+00  0.37865920364E+02  0.37887211892E+02  0.12700000000E+01 0.  1.
         -4   -1    0    0    0  501 -0.00000000000E+00 -0.00000000000E+00 -0.10310276974E+03  0.10311059125E+03  0.12700000000E+01 0.  1.
         25    2    1    2    0    0  0.00000000000E+00  0.00000000000E+00 -0.65236849373E+02  0.14099780314E+03  0.12499813588E+03 0.  0.
    9000005    1    3    3    0    0  0.13756406806E+02  0.12339225962E+02 -0.99955711975E+02  0.10165451088E+03  0.10000000000E+01 0.  0.
    9000005    1    3    3    0    0 -0.13756406806E+02 -0.12339225962E+02  0.34718862602E+02  0.39343292261E+02  0.10000000000E+01 0.  0.
<mgrwt>
<rscale>  0 0.12499814E+03</rscale>
<asrwt>0</asrwt>
<pdfrwt beam="1">  1        4 0.58277657E-02 0.12499814E+03</pdfrwt>
<pdfrwt beam="2">  1       -4 0.15864204E-01 0.12499814E+03</pdfrwt>
<totfact> 0.10113372E+04</totfact>
</mgrwt>
</event>
<event>
 5    1  0.3309219E-002  0.1250020E+03  0.7818608E-02  0.1235066E+00
          4   -1    0    0  501    0  0.00000000000E+00  0.00000000000E+00  0.53981344345E+02  0.53996281699E+02  0.12700000000E+01 0.  1.
         -4   -1    0    0    0  501 -0.00000000000E+00 -0.00000000000E+00 -0.72334788929E+02  0.72345936924E+02  0.12700000000E+01 0.  1.
         25    2    1    2    0    0  0.00000000000E+00  0.00000000000E+00 -0.18353444584E+02  0.12634221862E+03  0.12500202910E+03 0.  0.
    9000005    1    3    3    0    0  0.31923857221E+01  0.27287121766E+02 -0.65908705509E+02  0.71412434511E+02  0.10000000000E+01 0.  0.
    9000005    1    3    3    0    0 -0.31923857221E+01 -0.27287121766E+02  0.47555260926E+02  0.54929784112E+02  0.10000000000E+01 0.  0.
<mgrwt>
<rscale>  0 0.12500203E+03</rscale>
<asrwt>0</asrwt>
<pdfrwt beam="1">  1        4 0.83068287E-02 0.12500203E+03</pdfrwt>
<pdfrwt beam="2">  1       -4 0.11130436E-01 0.12500203E+03</pdfrwt>
<totfact> 0.10422994E+04</totfact>
</mgrwt>
</event>
<event>
 5    1  0.3309219E-002  0.1249841E+03  0.7818608E-02  0.1235094E+00
         -4   -1    0    0    0  501 -0.00000000000E+00  0.00000000000E+00  0.42995085936E+03  0.42995273503E+03  0.12700000000E+01 0. -1.
          4   -1    0    0  501    0  0.00000000000E+00 -0.00000000000E+00 -0.90367365267E+01  0.91255414662E+01  0.12700000000E+01 0. -1.
         25    2    1    2    0    0  0.00000000000E+00  0.00000000000E+00  0.42091412283E+03  0.43907827650E+03  0.12498413537E+03 0.  0.
    9000005    1    3    3    0    0  0.12141927971E+02 -0.30277779804E+02  0.23236746573E+02  0.40063908397E+02  0.10000000000E+01 0.  0.
    9000005    1    3    3    0    0 -0.12141927971E+02  0.30277779804E+02  0.39767737626E+03  0.39901436810E+03  0.10000000000E+01 0.  0.
<mgrwt>
<rscale>  0 0.12498414E+03</rscale>
<asrwt>0</asrwt>
<pdfrwt beam="2">  1        4 0.13972427E-02 0.12498414E+03</pdfrwt>
<pdfrwt beam="1">  1       -4 0.66153254E-01 0.12498414E+03</pdfrwt>
<totfact> 0.60942943E+03</totfact>
</mgrwt>
</event>
<event>
 5    1  0.3309219E-002  0.1249980E+03  0.7818608E-02  0.1235072E+00
         -4   -1    0    0    0  501 -0.00000000000E+00  0.00000000000E+00  0.19634627114E+02  0.19675657090E+02  0.12700000000E+01 0.  1.
          4   -1    0    0  501    0  0.00000000000E+00 -0.00000000000E+00 -0.19868985564E+03  0.19869391444E+03  0.12700000000E+01 0.  1.
         25    2    1    2    0    0  0.00000000000E+00  0.00000000000E+00 -0.17905522853E+03  0.21836957153E+03  0.12499797961E+03 0.  0.
    9000005    1    3    3    0    0 -0.51766949364E+02  0.42307323801E+01 -0.28823786326E+02  0.59409820746E+02  0.10000000000E+01 0.  0.
    9000005    1    3    3    0    0  0.51766949364E+02 -0.42307323801E+01 -0.15023144220E+03  0.15895975078E+03  0.10000000000E+01 0.  0.
<mgrwt>
<rscale>  0 0.12499798E+03</rscale>
<asrwt>0</asrwt>
<pdfrwt beam="2">  1        4 0.30571137E-01 0.12499798E+03</pdfrwt>
<pdfrwt beam="1">  1       -4 0.30241804E-02 0.12499798E+03</pdfrwt>
<totfact> 0.87130936E+03</totfact>
</mgrwt>
</event>
<event>
 5    1  0.3309219E-002  0.1250004E+03  0.7818608E-02  0.1235069E+00
          4   -1    0    0  501    0  0.00000000000E+00  0.00000000000E+00  0.96383384440E+03  0.96383468111E+03  0.12700000000E+01 0. -1.
         -4   -1    0    0    0  501 -0.00000000000E+00 -0.00000000000E+00 -0.39525017924E+01  0.41515262758E+01  0.12700000000E+01 0. -1.
         25    2    1    2    0    0  0.00000000000E+00  0.00000000000E+00  0.95988134261E+03  0.96798620739E+03  0.12500042321E+03 0.  0.
    9000005    1    3    3    0    0 -0.26891722731E+02 -0.56202749538E+02  0.51737057233E+03  0.52110960740E+03  0.10000000000E+01 0.  0.
    9000005    1    3    3    0    0  0.26891722731E+02  0.56202749538E+02  0.44251077028E+03  0.44687659999E+03  0.10000000000E+01 0.  0.
<mgrwt>
<rscale>  0 0.12500042E+03</rscale>
<asrwt>0</asrwt>
<pdfrwt beam="1">  1        4 0.14829756E+00 0.12500042E+03</pdfrwt>
<pdfrwt beam="2">  1       -4 0.62345089E-03 0.12500042E+03</pdfrwt>
<totfact> 0.31685568E+03</totfact>
</mgrwt>
</event>
<event>
 5    1  0.3309219E-002  0.1250022E+03  0.7818608E-02  0.1235066E+00
         -4   -1    0    0    0  501 -0.00000000000E+00  0.00000000000E+00  0.63512220040E+01  0.64769530602E+01  0.12700000000E+01 0. -1.
          4   -1    0    0  501    0  0.00000000000E+00 -0.00000000000E+00 -0.60890613228E+03  0.60890745670E+03  0.12700000000E+01 0. -1.
         25    2    1    2    0    0  0.00000000000E+00  0.00000000000E+00 -0.60255491028E+03  0.61538440976E+03  0.12500220751E+03 0.  0.
    9000005    1    3    3    0    0  0.10084690630E+02  0.16776429742E+02 -0.91057331852E+01  0.21611662519E+02  0.10000000000E+01 0.  0.
    9000005    1    3    3    0    0 -0.10084690630E+02 -0.16776429742E+02 -0.59344917709E+03  0.59377274725E+03  0.10000000000E+01 0.  0.
<mgrwt>
<rscale>  0 0.12500221E+03</rscale>
<asrwt>0</asrwt>
<pdfrwt beam="2">  1        4 0.93687594E-01 0.12500221E+03</pdfrwt>
<pdfrwt beam="1">  1       -4 0.98688506E-03 0.12500221E+03</pdfrwt>
<totfact> 0.47908381E+03</totfact>
</mgrwt>
</event>
<event>
 5    1  0.3309219E-002  0.1250025E+03  0.7818608E-02  0.1235065E+00
         -4   -1    0    0    0  501 -0.00000000000E+00  0.00000000000E+00  0.14127618314E+02  0.14184586678E+02  0.12700000000E+01 0. -1.
          4   -1    0    0  501    0  0.00000000000E+00 -0.00000000000E+00 -0.27589354893E+03  0.27589647196E+03  0.12700000000E+01 0. -1.
         25    2    1    2    0    0  0.00000000000E+00  0.00000000000E+00 -0.26176593061E+03  0.29008105864E+03  0.12500247258E+03 0.  0.
    9000005    1    3    3    0    0  0.23915472083E+02 -0.32789582176E+02 -0.20604326643E+02  0.45526308665E+02  0.10000000000E+01 0.  0.
    9000005    1    3    3    0    0 -0.23915472083E+02  0.32789582176E+02 -0.24116160397E+03  0.24455474997E+03  0.10000000000E+01 0.  0.
<mgrwt>
<rscale>  0 0.12500247E+03</rscale>
<asrwt>0</asrwt>
<pdfrwt beam="2">  1        4 0.42449764E-01 0.12500247E+03</pdfrwt>
<pdfrwt beam="1">  1       -4 0.21780870E-02 0.12500247E+03</pdfrwt>
<totfact> 0.76855920E+03</totfact>
</mgrwt>
</event>
<event>
 5    1  0.3309219E-002  0.1250059E+03  0.7818608E-02  0.1235060E+00
          4   -1    0    0  501    0  0.00000000000E+00  0.00000000000E+00  0.46326750573E+03  0.46326924652E+03  0.12700000000E+01 0. -1.
         -4   -1    0    0    0  501 -0.00000000000E+00 -0.00000000000E+00 -0.83831597286E+01  0.84788128317E+01  0.12700000000E+01 0. -1.
         25    2    1    2    0    0  0.00000000000E+00  0.00000000000E+00  0.45488434600E+03  0.47174805935E+03  0.12500585290E+03 0.  0.
    9000005    1    3    3    0    0  0.60986907154E+02  0.73785248843E+01  0.18412215687E+03  0.19410258660E+03  0.10000000000E+01 0.  0.
    9000005    1    3    3    0    0 -0.60986907154E+02 -0.73785248843E+01  0.27076218913E+03  0.27764547275E+03  0.10000000000E+01 0.  0.
<mgrwt>
<rscale>  0 0.12500585E+03</rscale>
<asrwt>0</asrwt>
<pdfrwt beam="1">  1        4 0.71279421E-01 0.12500585E+03</pdfrwt>
<pdfrwt beam="2">  1       -4 0.12972086E-02 0.12500585E+03</pdfrwt>
<totfact> 0.58117502E+03</totfact>
</mgrwt>
</event>
<event>
 5    1  0.3309219E-002  0.1249973E+03  0.7818608E-02  0.1235073E+00
         -4   -1    0    0    0  501 -0.00000000000E+00  0.00000000000E+00  0.74111462446E+02  0.74122343230E+02  0.12700000000E+01 0.  1.
          4   -1    0    0  501    0  0.00000000000E+00 -0.00000000000E+00 -0.52683091955E+02  0.52698397300E+02  0.12700000000E+01 0.  1.
         25    2    1    2    0    0  0.00000000000E+00  0.00000000000E+00  0.21428370491E+02  0.12682074053E+03  0.12499730064E+03 0.  0.
    9000005    1    3    3    0    0 -0.37439610656E+02 -0.49796810001E+02  0.15646643344E+02  0.64243787095E+02  0.10000000000E+01 0.  0.
    9000005    1    3    3    0    0  0.37439610656E+02  0.49796810001E+02  0.57817271472E+01  0.62576953435E+02  0.10000000000E+01 0.  0.
<mgrwt>
<rscale>  0 0.12499730E+03</rscale>
<asrwt>0</asrwt>
<pdfrwt beam="2">  1        4 0.81071054E-02 0.12499730E+03</pdfrwt>
<pdfrwt beam="1">  1       -4 0.11403778E-01 0.12499730E+03</pdfrwt>
<totfact> 0.10413677E+04</totfact>
</mgrwt>
</event>
<event>
 5    1  0.3309219E-002  0.1250017E+03  0.7818608E-02  0.1235067E+00
         -4   -1    0    0    0  501 -0.00000000000E+00  0.00000000000E+00  0.77257799260E+02  0.77268236983E+02  0.12700000000E+01 0. -1.
          4   -1    0    0  501    0  0.00000000000E+00 -0.00000000000E+00 -0.50540775525E+02  0.50556729430E+02  0.12700000000E+01 0. -1.
         25    2    1    2    0    0  0.00000000000E+00  0.00000000000E+00  0.26717023735E+02  0.12782496641E+03  0.12500169071E+03 0.  0.
    9000005    1    3    3    0    0 -0.38425755446E+02 -0.44795916607E+02 -0.76516556937E+01  0.59521094253E+02  0.10000000000E+01 0.  0.
    9000005    1    3    3    0    0  0.38425755446E+02  0.44795916607E+02  0.34368679429E+02  0.68303872159E+02  0.10000000000E+01 0.  0.
<mgrwt>
<rscale>  0 0.12500169E+03</rscale>
<asrwt>0</asrwt>
<pdfrwt beam="2">  1        4 0.77775341E-02 0.12500169E+03</pdfrwt>
<pdfrwt beam="1">  1       -4 0.11887845E-01 0.12500169E+03</pdfrwt>
<totfact> 0.10390873E+04</totfact>
</mgrwt>
</event>
<event>
 5    1  0.3309219E-002  0.1249994E+03  0.7818608E-02  0.1235070E+00
          4   -1    0    0  501    0  0.00000000000E+00  0.00000000000E+00  0.88885324984E+01  0.89788033710E+01  0.12700000000E+01 0.  1.
         -4   -1    0    0    0  501 -0.00000000000E+00 -0.00000000000E+00 -0.43715478920E+03  0.43715663397E+03  0.12700000000E+01 0.  1.
         25    2    1    2    0    0  0.00000000000E+00  0.00000000000E+00 -0.42826625670E+03  0.44613543734E+03  0.12499936727E+03 0.  0.
    9000005    1    3    3    0    0  0.33251854548E+02 -0.15062158653E+02 -0.33103455662E+02  0.49288875326E+02  0.10000000000E+01 0.  0.
    9000005    1    3    3    0    0 -0.33251854548E+02  0.15062158653E+02 -0.39516280104E+03  0.39684656201E+03  0.10000000000E+01 0.  0.
<mgrwt>
<rscale>  0 0.12499937E+03</rscale>
<asrwt>0</asrwt>
<pdfrwt beam="1">  1        4 0.13745527E-02 0.12499937E+03</pdfrwt>
<pdfrwt beam="2">  1       -4 0.67261652E-01 0.12499937E+03</pdfrwt>
<totfact> 0.60300898E+03</totfact>
</mgrwt>
</event>
<event>
 5    1  0.3309219E-002  0.1250189E+03  0.7818608E-02  0.1235040E+00
         -4   -1    0    0    0  501 -0.00000000000E+00  0.00000000000E+00  0.40059653003E+02  0.40079779175E+02  0.12700000000E+01 0.  1.
          4   -1    0    0  501    0  0.00000000000E+00 -0.00000000000E+00 -0.97491586372E+02  0.97499858017E+02  0.12700000000E+01 0.  1.
         25    2    1    2    0    0  0.00000000000E+00  0.00000000000E+00 -0.57431933369E+02  0.13757963719E+03  0.12501891697E+03 0.  0.
    9000005    1    3    3    0    0  0.41877787301E+02 -0.37895378045E+01  0.22171994834E+02  0.47546892863E+02  0.10000000000E+01 0.  0.
    9000005    1    3    3    0    0 -0.41877787301E+02  0.37895378045E+01 -0.79603928203E+02  0.90032744329E+02  0.10000000000E+01 0.  0.
<mgrwt>
<rscale>  0 0.12501892E+03</rscale>
<asrwt>0</asrwt>
<pdfrwt beam="2">  1        4 0.15000890E-01 0.12501892E+03</pdfrwt>
<pdfrwt beam="1">  1       -4 0.61652080E-02 0.12501892E+03</pdfrwt>
<totfact> 0.10179638E+04</totfact>
</mgrwt>
</event>
<event>
 5    1  0.3309219E-002  0.1250056E+03  0.7818608E-02  0.1235061E+00
         -4   -1    0    0    0  501 -0.00000000000E+00  0.00000000000E+00  0.24843236899E+03  0.24843561512E+03  0.12700000000E+01 0.  1.
          4   -1    0    0  501    0  0.00000000000E+00 -0.00000000000E+00 -0.15696000861E+02  0.15747296372E+02  0.12700000000E+01 0.  1.
         25    2    1    2    0    0  0.00000000000E+00  0.00000000000E+00  0.23273636813E+03  0.26418291150E+03  0.12500557458E+03 0.  0.
    9000005    1    3    3    0    0 -0.50235193900E+02 -0.27618711696E+02  0.16895798212E+03  0.17842132065E+03  0.10000000000E+01 0.  0.
    9000005    1    3    3    0    0  0.50235193900E+02  0.27618711696E+02  0.63778386014E+02  0.85761590846E+02  0.10000000000E+01 0.  0.
<mgrwt>
<rscale>  0 0.12500557E+03</rscale>
<asrwt>0</asrwt>
<pdfrwt beam="2">  1        4 0.24189649E-02 0.12500557E+03</pdfrwt>
<pdfrwt beam="1">  1       -4 0.38224559E-01 0.12500557E+03</pdfrwt>
<totfact> 0.80312645E+03</totfact>
</mgrwt>
</event>
<event>
 5    1  0.3309219E-002  0.1250011E+03  0.7818608E-02  0.1235068E+00
          4   -1    0    0  501    0  0.00000000000E+00  0.00000000000E+00  0.85329613495E+02  0.85339063969E+02  0.12700000000E+01 0.  1.
         -4   -1    0    0    0  501 -0.00000000000E+00 -0.00000000000E+00 -0.45758388376E+02  0.45776009074E+02  0.12700000000E+01 0.  1.
         25    2    1    2    0    0  0.00000000000E+00  0.00000000000E+00  0.39571225119E+02  0.13111507304E+03  0.12500112208E+03 0.  0.
    9000005    1    3    3    0    0 -0.43989029440E+02  0.15750232303E+02 -0.23743766229E+02  0.52420138911E+02  0.10000000000E+01 0.  0.
    9000005    1    3    3    0    0  0.43989029440E+02 -0.15750232303E+02  0.63314991348E+02  0.78694934132E+02  0.10000000000E+01 0.  0.
<mgrwt>
<rscale>  0 0.12500112E+03</rscale>
<asrwt>0</asrwt>
<pdfrwt beam="1">  1        4 0.13129715E-01 0.12500112E+03</pdfrwt>
<pdfrwt beam="2">  1       -4 0.70418345E-02 0.12500112E+03</pdfrwt>
<totfact> 0.10320362E+04</totfact>
</mgrwt>
</event>
<event>
 5    1  0.3309219E-002  0.1250021E+03  0.7818608E-02  0.1235066E+00
          4   -1    0    0  501    0  0.00000000000E+00  0.00000000000E+00  0.79936634163E+02  0.79946722142E+02  0.12700000000E+01 0. -1.
         -4   -1    0    0    0  501 -0.00000000000E+00 -0.00000000000E+00 -0.48847049164E+02  0.48863556072E+02  0.12700000000E+01 0. -1.
         25    2    1    2    0    0  0.00000000000E+00  0.00000000000E+00  0.31089584999E+02  0.12881027821E+03  0.12500210190E+03 0.  0.
    9000005    1    3    3    0    0 -0.59746320568E+00  0.30955917860E+02 -0.40392991571E+02  0.50904023229E+02  0.10000000000E+01 0.  0.
    9000005    1    3    3    0    0  0.59746320568E+00 -0.30955917860E+02  0.71482576569E+02  0.77906254985E+02  0.10000000000E+01 0.  0.
<mgrwt>
<rscale>  0 0.12500210E+03</rscale>
<asrwt>0</asrwt>
<pdfrwt beam="1">  1        4 0.12299990E-01 0.12500210E+03</pdfrwt>
<pdfrwt beam="2">  1       -4 0.75169764E-02 0.12500210E+03</pdfrwt>
<totfact> 0.10369533E+04</totfact>
</mgrwt>
</event>
<event>
 5    1  0.3309219E-002  0.1249966E+03  0.7818608E-02  0.1235075E+00
          4   -1    0    0  501    0  0.00000000000E+00  0.00000000000E+00  0.85529622704E+02  0.85539051081E+02  0.12700000000E+01 0. -1.
         -4   -1    0    0    0  501 -0.00000000000E+00 -0.00000000000E+00 -0.45648053236E+02  0.45665716508E+02  0.12700000000E+01 0. -1.
         25    2    1    2    0    0  0.00000000000E+00  0.00000000000E+00  0.39881569468E+02  0.13120476759E+03  0.12499660577E+03 0.  0.
    9000005    1    3    3    0    0 -0.49157220470E+02 -0.18755012752E+02 -0.15451120400E+02  0.54844507011E+02  0.10000000000E+01 0.  0.
    9000005    1    3    3    0    0  0.49157220470E+02  0.18755012752E+02  0.55332689868E+02  0.76360260579E+02  0.10000000000E+01 0.  0.
<mgrwt>
<rscale>  0 0.12499661E+03</rscale>
<asrwt>0</asrwt>
<pdfrwt beam="1">  1        4 0.13160487E-01 0.12499661E+03</pdfrwt>
<pdfrwt beam="2">  1       -4 0.70248614E-02 0.12499661E+03</pdfrwt>
<totfact> 0.10319492E+04</totfact>
</mgrwt>
</event>
<event>
 5    1  0.3309219E-002  0.1250157E+03  0.7818608E-02  0.1235045E+00
          4   -1    0    0  501    0  0.00000000000E+00  0.00000000000E+00  0.14689261837E+02  0.14744060273E+02  0.12700000000E+01 0. -1.
         -4   -1    0    0    0  501 -0.00000000000E+00 -0.00000000000E+00 -0.26544065640E+03  0.26544369454E+03  0.12700000000E+01 0. -1.
         25    2    1    2    0    0  0.00000000000E+00  0.00000000000E+00 -0.25075139456E+03  0.28018775481E+03  0.12501566330E+03 0.  0.
    9000005    1    3    3    0    0  0.50124153988E+02 -0.26247105664E+02 -0.65871901276E+02  0.86841515109E+02  0.10000000000E+01 0.  0.
    9000005    1    3    3    0    0 -0.50124153988E+02  0.26247105664E+02 -0.18487949329E+03  0.19334623970E+03  0.10000000000E+01 0.  0.
<mgrwt>
<rscale>  0 0.12501566E+03</rscale>
<asrwt>0</asrwt>
<pdfrwt beam="1">  1        4 0.22643356E-02 0.12501566E+03</pdfrwt>
<pdfrwt beam="2">  1       -4 0.40841469E-01 0.12501566E+03</pdfrwt>
<totfact> 0.78126015E+03</totfact>
</mgrwt>
</event>
<event>
 5    1  0.3309219E-002  0.1250022E+03  0.7818608E-02  0.1235066E+00
          4   -1    0    0  501    0  0.00000000000E+00  0.00000000000E+00  0.29291531257E+03  0.29291806574E+03  0.12700000000E+01 0.  1.
         -4   -1    0    0    0  501 -0.00000000000E+00 -0.00000000000E+00 -0.13303168217E+02  0.13363651620E+02  0.12700000000E+01 0.  1.
         25    2    1    2    0    0  0.00000000000E+00  0.00000000000E+00  0.27961214435E+03  0.30628171736E+03  0.12500215646E+03 0.  0.
    9000005    1    3    3    0    0 -0.35281208703E+02  0.92716582618E+01  0.15479690092E+02  0.39640233852E+02  0.10000000000E+01 0.  0.
    9000005    1    3    3    0    0  0.35281208703E+02 -0.92716582618E+01  0.26413245426E+03  0.26664148350E+03  0.10000000000E+01 0.  0.
<mgrwt>
<rscale>  0 0.12500216E+03</rscale>
<asrwt>0</asrwt>
<pdfrwt beam="1">  1        4 0.45068755E-01 0.12500216E+03</pdfrwt>
<pdfrwt beam="2">  1       -4 0.20515058E-02 0.12500216E+03</pdfrwt>
<totfact> 0.74813989E+03</totfact>
</mgrwt>
</event>
<event>
 5    1  0.3309219E-002  0.1250070E+03  0.7818608E-02  0.1235058E+00
         -4   -1    0    0    0  501 -0.00000000000E+00  0.00000000000E+00  0.16853971776E+02  0.16901753300E+02  0.12700000000E+01 0.  1.
          4   -1    0    0  501    0  0.00000000000E+00 -0.00000000000E+00 -0.23141862314E+03  0.23142210793E+03  0.12700000000E+01 0.  1.
         25    2    1    2    0    0  0.00000000000E+00  0.00000000000E+00 -0.21456465137E+03  0.24832386123E+03  0.12500700156E+03 0.  0.
    9000005    1    3    3    0    0  0.48614357735E+02 -0.13428384821E+02 -0.33970453171E+02  0.60816683447E+02  0.10000000000E+01 0.  0.
    9000005    1    3    3    0    0 -0.48614357735E+02  0.13428384821E+02 -0.18059419820E+03  0.18750717778E+03  0.10000000000E+01 0.  0.
<mgrwt>
<rscale>  0 0.12500700E+03</rscale>
<asrwt>0</asrwt>
<pdfrwt beam="2">  1        4 0.35606806E-01 0.12500700E+03</pdfrwt>
<pdfrwt beam="1">  1       -4 0.25968625E-02 0.12500700E+03</pdfrwt>
<totfact> 0.82560209E+03</totfact>
</mgrwt>
</event>
<event>
 5    1  0.3309219E-002  0.1249950E+03  0.7818608E-02  0.1235077E+00
         -4   -1    0    0    0  501 -0.00000000000E+00  0.00000000000E+00  0.11547055591E+04  0.11547062575E+04  0.12700000000E+01 0.  1.
          4   -1    0    0  501    0  0.00000000000E+00 -0.00000000000E+00 -0.32626975581E+01  0.35011562884E+01  0.12700000000E+01 0.  1.
         25    2    1    2    0    0  0.00000000000E+00  0.00000000000E+00  0.11514428615E+04  0.11582074138E+04  0.12499499976E+03 0.  0.
    9000005    1    3    3    0    0 -0.11219964558E+02 -0.37984853596E+02  0.12785472004E+03  0.13385277787E+03  0.10000000000E+01 0.  0.
    9000005    1    3    3    0    0  0.11219964558E+02  0.37984853596E+02  0.10235881415E+04  0.10243546359E+04  0.10000000000E+01 0.  0.
<mgrwt>
<rscale>  0 0.12499500E+03</rscale>
<asrwt>0</asrwt>
<pdfrwt beam="2">  1        4 0.52034915E-03 0.12499500E+03</pdfrwt>
<pdfrwt beam="1">  1       -4 0.17766576E+00 0.12499500E+03</pdfrwt>
<totfact> 0.25836357E+03</totfact>
</mgrwt>
</event>
<event>
 5    1  0.3309219E-002  0.1250080E+03  0.7818608E-02  0.1235057E+00
          4   -1    0    0  501    0  0.00000000000E+00  0.00000000000E+00  0.20020824751E+03  0.20021227552E+03  0.12700000000E+01 0.  1.
         -4   -1    0    0    0  501 -0.00000000000E+00 -0.00000000000E+00 -0.19488535102E+02  0.19529872003E+02  0.12700000000E+01 0.  1.
         25    2    1    2    0    0  0.00000000000E+00  0.00000000000E+00  0.18071971240E+03  0.21974214752E+03  0.12500798753E+03 0.  0.
    9000005    1    3    3    0    0 -0.60227392555E+02 -0.13023663411E+02  0.10869478801E+03  0.12495003626E+03  0.10000000000E+01 0.  0.
    9000005    1    3    3    0    0  0.60227392555E+02  0.13023663411E+02  0.72024924398E+02  0.94792111260E+02  0.10000000000E+01 0.  0.
<mgrwt>
<rscale>  0 0.12500799E+03</rscale>
<asrwt>0</asrwt>
<pdfrwt beam="1">  1        4 0.30804759E-01 0.12500799E+03</pdfrwt>
<pdfrwt beam="2">  1       -4 0.30017257E-02 0.12500799E+03</pdfrwt>
<totfact> 0.86893662E+03</totfact>
</mgrwt>
</event>
<event>
 5    1  0.3309219E-002  0.1250096E+03  0.7818608E-02  0.1235054E+00
         -4   -1    0    0    0  501 -0.00000000000E+00  0.00000000000E+00  0.91310802767E+03  0.91310891086E+03  0.12700000000E+01 0. -1.
          4   -1    0    0  501    0  0.00000000000E+00 -0.00000000000E+00 -0.41834794796E+01  0.43720018934E+01  0.12700000000E+01 0. -1.
         25    2    1    2    0    0  0.00000000000E+00  0.00000000000E+00  0.90892454819E+03  0.91748091276E+03  0.12500956350E+03 0.  0.
    9000005    1    3    3    0    0  0.53743380122E+02  0.31614531478E+02  0.42330855395E+03  0.42787727371E+03  0.10000000000E+01 0.  0.
    9000005    1    3    3    0    0 -0.53743380122E+02 -0.31614531478E+02  0.48561599424E+03  0.48960363905E+03  0.10000000000E+01 0.  0.
<mgrwt>
<rscale>  0 0.12500956E+03</rscale>
<asrwt>0</asrwt>
<pdfrwt beam="2">  1        4 0.65818154E-03 0.12500956E+03</pdfrwt>
<pdfrwt beam="1">  1       -4 0.14049280E+00 0.12500956E+03</pdfrwt>
<totfact> 0.33492336E+03</totfact>
</mgrwt>
</event>
<event>
 5    1  0.3309219E-002  0.1250044E+03  0.7818608E-02  0.1235062E+00
         -4   -1    0    0    0  501 -0.00000000000E+00  0.00000000000E+00  0.10874946847E+03  0.10875688389E+03  0.12700000000E+01 0. -1.
          4   -1    0    0  501    0  0.00000000000E+00 -0.00000000000E+00 -0.35902381671E+02  0.35924836946E+02  0.12700000000E+01 0. -1.
         25    2    1    2    0    0  0.00000000000E+00  0.00000000000E+00  0.72847086800E+02  0.14468172083E+03  0.12500440907E+03 0.  0.
    9000005    1    3    3    0    0 -0.51263149069E+02 -0.12231191081E+01  0.77769585114E+02  0.93158546799E+02  0.10000000000E+01 0.  0.
    9000005    1    3    3    0    0  0.51263149069E+02  0.12231191081E+01 -0.49224983148E+01  0.51523174033E+02  0.10000000000E+01 0.  0.
<mgrwt>
<rscale>  0 0.12500441E+03</rscale>
<asrwt>0</asrwt>
<pdfrwt beam="2">  1        4 0.55257412E-02 0.12500441E+03</pdfrwt>
<pdfrwt beam="1">  1       -4 0.16732985E-01 0.12500441E+03</pdfrwt>
<totfact> 0.10036463E+04</totfact>
</mgrwt>
</event>
<event>
 5    1  0.3309219E-002  0.1250005E+03  0.7818608E-02  0.1235068E+00
         -4   -1    0    0    0  501 -0.00000000000E+00  0.00000000000E+00  0.63316215873E+01  0.64577342717E+01  0.12700000000E+01 0. -1.
          4   -1    0    0  501    0  0.00000000000E+00 -0.00000000000E+00 -0.61073780697E+03  0.61073912742E+03  0.12700000000E+01 0. -1.
         25    2    1    2    0    0  0.00000000000E+00  0.00000000000E+00 -0.60440618538E+03  0.61719686169E+03  0.12500051661E+03 0.  0.
    9000005    1    3    3    0    0  0.45509258601E+02 -0.36161011542E+02 -0.18890037303E+03  0.19764377629E+03  0.10000000000E+01 0.  0.
    9000005    1    3    3    0    0 -0.45509258601E+02  0.36161011542E+02 -0.41550581235E+03  0.41955308540E+03  0.10000000000E+01 0.  0.
<mgrwt>
<rscale>  0 0.12500052E+03</rscale>
<asrwt>0</asrwt>
<pdfrwt beam="2">  1        4 0.93969419E-01 0.12500052E+03</pdfrwt>
<pdfrwt beam="1">  1       -4 0.98389866E-03 0.12500052E+03</pdfrwt>
<totfact> 0.47799257E+03</totfact>
</mgrwt>
</event>
<event>
 5    1  0.3309219E-002  0.1249989E+03  0.7818608E-02  0.1235071E+00
          4   -1    0    0  501    0  0.00000000000E+00  0.00000000000E+00  0.77676600732E+02  0.77686982187E+02  0.12700000000E+01 0.  1.
         -4   -1    0    0    0  501 -0.00000000000E+00 -0.00000000000E+00 -0.50266005791E+02  0.50282046877E+02  0.12700000000E+01 0.  1.
         25    2    1    2    0    0  0.00000000000E+00  0.00000000000E+00  0.27410594941E+02  0.12796902906E+03  0.12499892673E+03 0.  0.
    9000005    1    3    3    0    0 -0.47395182348E+02  0.25755839697E+02 -0.18596209614E+02  0.57065625382E+02  0.10000000000E+01 0.  0.
    9000005    1    3    3    0    0  0.47395182348E+02 -0.25755839697E+02  0.46006804555E+02  0.70903403681E+02  0.10000000000E+01 0.  0.
<mgrwt>
<rscale>  0 0.12499893E+03</rscale>
<asrwt>0</asrwt>
<pdfrwt beam="1">  1        4 0.11952279E-01 0.12499893E+03</pdfrwt>
<pdfrwt beam="2">  1       -4 0.77352642E-02 0.12499893E+03</pdfrwt>
<totfact> 0.10388408E+04</totfact>
</mgrwt>
</event>
<event>
 5    1  0.3309219E-002  0.1250008E+03  0.7818608E-02  0.1235068E+00
          4   -1    0    0  501    0  0.00000000000E+00  0.00000000000E+00  0.21580274270E+01  0.25039932858E+01  0.12700000000E+01 0. -1.
         -4   -1    0    0    0  501 -0.00000000000E+00 -0.00000000000E+00 -0.16754503447E+04  0.16754508260E+04  0.12700000000E+01 0. -1.
         25    2    1    2    0    0  0.00000000000E+00  0.00000000000E+00 -0.16732923173E+04  0.16779548193E+04  0.12500078652E+03 0.  0.
    9000005    1    3    3    0    0  0.21497485559E+02  0.10395592826E+02 -0.16118594782E+04  0.16120366583E+04  0.10000000000E+01 0.  0.
    9000005    1    3    3    0    0 -0.21497485559E+02 -0.10395592826E+02 -0.61432839053E+02  0.65918161000E+02  0.10000000000E+01 0.  0.
<mgrwt>
<rscale>  0 0.12500079E+03</rscale>
<asrwt>0</asrwt>
<pdfrwt beam="1">  1        4 0.35865534E-03 0.12500079E+03</pdfrwt>
<pdfrwt beam="2">  1       -4 0.25778728E+00 0.12500079E+03</pdfrwt>
<totfact> 0.14678903E+03</totfact>
</mgrwt>
</event>
<event>
 5    1  0.3309219E-002  0.1250011E+03  0.7818608E-02  0.1235068E+00
          4   -1    0    0  501    0  0.00000000000E+00  0.00000000000E+00  0.17648831626E+03  0.17649288563E+03  0.12700000000E+01 0.  1.
         -4   -1    0    0    0  501 -0.00000000000E+00 -0.00000000000E+00 -0.22110504523E+02  0.22146948103E+02  0.12700000000E+01 0.  1.
         25    2    1    2    0    0  0.00000000000E+00  0.00000000000E+00  0.15437781174E+03  0.19863983373E+03  0.12500109914E+03 0.  0.
    9000005    1    3    3    0    0  0.32782950041E+02  0.52245163269E+02  0.93162356602E+02  0.11173407531E+03  0.10000000000E+01 0.  0.
    9000005    1    3    3    0    0 -0.32782950041E+02 -0.52245163269E+02  0.61215455135E+02  0.86905758415E+02  0.10000000000E+01 0.  0.
<mgrwt>
<rscale>  0 0.12500110E+03</rscale>
<asrwt>0</asrwt>
<pdfrwt beam="1">  1        4 0.27155202E-01 0.12500110E+03</pdfrwt>
<pdfrwt beam="2">  1       -4 0.34047711E-02 0.12500110E+03</pdfrwt>
<totfact> 0.90363142E+03</totfact>
</mgrwt>
</event>
<event>
 5    1  0.3309219E-002  0.1249997E+03  0.7818608E-02  0.1235070E+00
          4   -1    0    0  501    0  0.00000000000E+00  0.00000000000E+00  0.22226432306E+03  0.22226795136E+03  0.12700000000E+01 0.  1.
         -4   -1    0    0    0  501 -0.00000000000E+00 -0.00000000000E+00 -0.17547994460E+02  0.17593891257E+02  0.12700000000E+01 0.  1.
         25    2    1    2    0    0  0.00000000000E+00  0.00000000000E+00  0.20471632860E+03  0.23986184262E+03  0.12499971341E+03 0.  0.
    9000005    1    3    3    0    0 -0.33269701562E+02  0.27194735172E+02  0.18942641123E+03  0.19424158138E+03  0.10000000000E+01 0.  0.
    9000005    1    3    3    0    0  0.33269701562E+02 -0.27194735172E+02  0.15289917365E+02  0.45620261246E+02  0.10000000000E+01 0.  0.
<mgrwt>
<rscale>  0 0.12499971E+03</rscale>
<asrwt>0</asrwt>
<pdfrwt beam="1">  1        4 0.34198320E-01 0.12499971E+03</pdfrwt>
<pdfrwt beam="2">  1       -4 0.27035011E-02 0.12499971E+03</pdfrwt>
<totfact> 0.83818483E+03</totfact>
</mgrwt>
</event>
<event>
 5    1  0.3309219E-002  0.1250002E+03  0.7818608E-02  0.1235069E+00
          4   -1    0    0  501    0  0.00000000000E+00  0.00000000000E+00  0.47538525700E+02  0.47555486810E+02  0.12700000000E+01 0. -1.
         -4   -1    0    0    0  501 -0.00000000000E+00 -0.00000000000E+00 -0.82133968894E+02  0.82143787022E+02  0.12700000000E+01 0. -1.
         25    2    1    2    0    0  0.00000000000E+00  0.00000000000E+00 -0.34595443194E+02  0.12969927383E+03  0.12500022777E+03 0.  0.
    9000005    1    3    3    0    0 -0.89319538534E+01 -0.61740559886E+02 -0.13473000863E+02  0.63829446864E+02  0.10000000000E+01 0.  0.
    9000005    1    3    3    0    0  0.89319538534E+01  0.61740559886E+02 -0.21122442331E+02  0.65869826967E+02  0.10000000000E+01 0.  0.
<mgrwt>
<rscale>  0 0.12500023E+03</rscale>
<asrwt>0</asrwt>
<pdfrwt beam="1">  1        4 0.73156793E-02 0.12500023E+03</pdfrwt>
<pdfrwt beam="2">  1       -4 0.12638055E-01 0.12500023E+03</pdfrwt>
<totfact> 0.10350892E+04</totfact>
</mgrwt>
</event>
<event>
 5    1  0.3309219E-002  0.1249970E+03  0.7818608E-02  0.1235074E+00
          4   -1    0    0  501    0  0.00000000000E+00  0.00000000000E+00  0.29522781850E+02  0.29550085417E+02  0.12700000000E+01 0.  1.
         -4   -1    0    0    0  501 -0.00000000000E+00 -0.00000000000E+00 -0.13221519157E+03  0.13222129096E+03  0.12700000000E+01 0.  1.
         25    2    1    2    0    0  0.00000000000E+00  0.00000000000E+00 -0.10269240972E+03  0.16177137637E+03  0.12499698876E+03 0.  0.
    9000005    1    3    3    0    0 -0.44608549987E+02  0.34660043427E+02 -0.16768463224E+02  0.58935750621E+02  0.10000000000E+01 0.  0.
    9000005    1    3    3    0    0  0.44608549987E+02 -0.34660043427E+02 -0.85923946496E+02  0.10283562575E+03  0.10000000000E+01 0.  0.
<mgrwt>
<rscale>  0 0.12499699E+03</rscale>
<asrwt>0</asrwt>
<pdfrwt beam="1">  1        4 0.45445359E-02 0.12499699E+03</pdfrwt>
<pdfrwt beam="2">  1       -4 0.20343368E-01 0.12499699E+03</pdfrwt>
<totfact> 0.97008925E+03</totfact>
</mgrwt>
</event>
<event>
 5    1  0.3309219E-002  0.1249936E+03  0.7818608E-02  0.1235079E+00
          4   -1    0    0  501    0  0.00000000000E+00  0.00000000000E+00  0.14439192575E+02  0.14494936434E+02  0.12700000000E+01 0. -1.
         -4   -1    0    0    0  501 -0.00000000000E+00 -0.00000000000E+00 -0.26992498779E+03  0.26992797545E+03  0.12700000000E+01 0. -1.
         25    2    1    2    0    0  0.00000000000E+00  0.00000000000E+00 -0.25548579521E+03  0.28442291189E+03  0.12499360484E+03 0.  0.
    9000005    1    3    3    0    0  0.42979646427E+02  0.21865435165E+02 -0.21817799685E+03  0.22344571057E+03  0.10000000000E+01 0.  0.
    9000005    1    3    3    0    0 -0.42979646427E+02 -0.21865435165E+02 -0.37307798360E+02  0.60977201317E+02  0.10000000000E+01 0.  0.
<mgrwt>
<rscale>  0 0.12499360E+03</rscale>
<asrwt>0</asrwt>
<pdfrwt beam="1">  1        4 0.22259323E-02 0.12499360E+03</pdfrwt>
<pdfrwt beam="2">  1       -4 0.41531435E-01 0.12499360E+03</pdfrwt>
<totfact> 0.77606321E+03</totfact>
</mgrwt>
</event>
<event>
 5    1  0.3309219E-002  0.1249888E+03  0.7818608E-02  0.1235087E+00
          4   -1    0    0  501    0  0.00000000000E+00  0.00000000000E+00  0.34453003480E+03  0.34453237552E+03  0.12700000000E+01 0.  1.
         -4   -1    0    0    0  501 -0.00000000000E+00 -0.00000000000E+00 -0.11297921775E+02  0.11369078082E+02  0.12700000000E+01 0.  1.
         25    2    1    2    0    0  0.00000000000E+00  0.00000000000E+00  0.33323211303E+03  0.35590145360E+03  0.12498881359E+03 0.  0.
    9000005    1    3    3    0    0  0.42035128640E+02 -0.30717353647E+02  0.68222059232E+02  0.85823989774E+02  0.10000000000E+01 0.  0.
    9000005    1    3    3    0    0 -0.42035128640E+02  0.30717353647E+02  0.26501005380E+03  0.27007746383E+03  0.10000000000E+01 0.  0.
<mgrwt>
<rscale>  0 0.12498881E+03</rscale>
<asrwt>0</asrwt>
<pdfrwt beam="1">  1        4 0.53010263E-01 0.12498881E+03</pdfrwt>
<pdfrwt beam="2">  1       -4 0.17437958E-02 0.12498881E+03</pdfrwt>
<totfact> 0.69097271E+03</totfact>
</mgrwt>
</event>
<event>
 4    1  0.3309219E-002  0.1250732E+03  0.7818608E-02  0.1234955E+00
         -4   -1    0    0    0  501 -0.00000000000E+00  0.00000000000E+00  0.46703336591E+01  0.48399293887E+01  0.12700000000E+01 0. -1.
          4   -1    0    0  501    0  0.00000000000E+00 -0.00000000000E+00 -0.82227358745E+03  0.82227456821E+03  0.12700000000E+01 0. -1.
    9000005    1    1    2    0    0  0.13998391719E+02  0.51115280573E+02 -0.62824115721E+03  0.63047337651E+03  0.10000000000E+01 0.  0.
    9000005    1    1    2    0    0 -0.13998391719E+02 -0.51115280573E+02 -0.18936209658E+03  0.19664112108E+03  0.10000000000E+01 0.  0.
<mgrwt>
<rscale>  0 0.12507322E+03</rscale>
<asrwt>0</asrwt>
<pdfrwt beam="2">  1        4 0.12651664E+00 0.12507322E+03</pdfrwt>
<pdfrwt beam="1">  1       -4 0.73163479E-03 0.12507322E+03</pdfrwt>
<totfact> 0.37023327E+03</totfact>
</mgrwt>
</event>
<event>
 5    1  0.3309219E-002  0.1250003E+03  0.7818608E-02  0.1235069E+00
          4   -1    0    0  501    0  0.00000000000E+00  0.00000000000E+00  0.61103263733E+01  0.62409124644E+01  0.12700000000E+01 0. -1.
         -4   -1    0    0    0  501 -0.00000000000E+00 -0.00000000000E+00 -0.63239981513E+03  0.63240109035E+03  0.12700000000E+01 0. -1.
         25    2    1    2    0    0  0.00000000000E+00  0.00000000000E+00 -0.62628948875E+03  0.63864200281E+03  0.12500033613E+03 0.  0.
    9000005    1    3    3    0    0  0.54728665872E+02  0.18902092975E+02 -0.43326400369E+03  0.43711693273E+03  0.10000000000E+01 0.  0.
    9000005    1    3    3    0    0 -0.54728665872E+02 -0.18902092975E+02 -0.19302548507E+03  0.20152507008E+03  0.10000000000E+01 0.  0.
<mgrwt>
<rscale>  0 0.12500034E+03</rscale>
<asrwt>0</asrwt>
<pdfrwt beam="1">  1        4 0.95019389E-03 0.12500034E+03</pdfrwt>
<pdfrwt beam="2">  1       -4 0.97302371E-01 0.12500034E+03</pdfrwt>
<totfact> 0.46515501E+03</totfact>
</mgrwt>
</event>
<event>
 5    1  0.3309219E-002  0.1250047E+03  0.7818608E-02  0.1235062E+00
          4   -1    0    0  501    0  0.00000000000E+00  0.00000000000E+00  0.17432439727E+03  0.17432902335E+03  0.12700000000E+01 0.  1.
         -4   -1    0    0    0  501 -0.00000000000E+00 -0.00000000000E+00 -0.22386688819E+02  0.22422683521E+02  0.12700000000E+01 0.  1.
         25    2    1    2    0    0  0.00000000000E+00  0.00000000000E+00  0.15193770845E+03  0.19675170687E+03  0.12500466755E+03 0.  0.
    9000005    1    3    3    0    0  0.42984350965E+02  0.40159635232E+02  0.42762844999E+02  0.72733153667E+02  0.10000000000E+01 0.  0.
    9000005    1    3    3    0    0 -0.42984350965E+02 -0.40159635232E+02  0.10917486345E+03  0.12401855321E+03  0.10000000000E+01 0.  0.
<mgrwt>
<rscale>  0 0.12500467E+03</rscale>
<asrwt>0</asrwt>
<pdfrwt beam="1">  1        4 0.26822263E-01 0.12500467E+03</pdfrwt>
<pdfrwt beam="2">  1       -4 0.34472306E-02 0.12500467E+03</pdfrwt>
<totfact> 0.90676155E+03</totfact>
</mgrwt>
</event>
<event>
 5    1  0.3309219E-002  0.1250070E+03  0.7818608E-02  0.1235058E+00
          4   -1    0    0  501    0  0.00000000000E+00  0.00000000000E+00  0.15198246410E+03  0.15198777021E+03  0.12700000000E+01 0. -1.
         -4   -1    0    0    0  501 -0.00000000000E+00 -0.00000000000E+00 -0.25683431268E+02  0.25714811718E+02  0.12700000000E+01 0. -1.
         25    2    1    2    0    0  0.00000000000E+00  0.00000000000E+00  0.12629903283E+03  0.17770258193E+03  0.12500704752E+03 0.  0.
    9000005    1    3    3    0    0  0.56991080755E+02 -0.20194296566E+02  0.85621440958E+02  0.10482282219E+03  0.10000000000E+01 0.  0.
    9000005    1    3    3    0    0 -0.56991080755E+02  0.20194296566E+02  0.40677591870E+02  0.72879759740E+02  0.10000000000E+01 0.  0.
<mgrwt>
<rscale>  0 0.12500705E+03</rscale>
<asrwt>0</asrwt>
<pdfrwt beam="1">  1        4 0.23384740E-01 0.12500705E+03</pdfrwt>
<pdfrwt beam="2">  1       -4 0.39541191E-02 0.12500705E+03</pdfrwt>
<totfact> 0.94017327E+03</totfact>
</mgrwt>
</event>
<event>
 5    1  0.3309219E-002  0.1250012E+03  0.7818608E-02  0.1235067E+00
          4   -1    0    0  501    0  0.00000000000E+00  0.00000000000E+00  0.30416209015E+02  0.30442711292E+02  0.12700000000E+01 0.  1.
         -4   -1    0    0    0  501 -0.00000000000E+00 -0.00000000000E+00 -0.12834339064E+03  0.12834967402E+03  0.12700000000E+01 0.  1.
         25    2    1    2    0    0  0.00000000000E+00  0.00000000000E+00 -0.97927181621E+02  0.15879238531E+03  0.12500115492E+03 0.  0.
    9000005    1    3    3    0    0 -0.13011672112E+02  0.60075839461E+02 -0.34652684582E+02  0.70570664209E+02  0.10000000000E+01 0.  0.
    9000005    1    3    3    0    0  0.13011672112E+02 -0.60075839461E+02 -0.63274497039E+02  0.88221721099E+02  0.10000000000E+01 0.  0.
<mgrwt>
<rscale>  0 0.12500115E+03</rscale>
<asrwt>0</asrwt>
<pdfrwt beam="1">  1        4 0.46819388E-02 0.12500115E+03</pdfrwt>
<pdfrwt beam="2">  1       -4 0.19747659E-01 0.12500115E+03</pdfrwt>
<totfact> 0.97573576E+03</totfact>
</mgrwt>
</event>
<event>
 5    1  0.3309219E-002  0.1249979E+03  0.7818608E-02  0.1235073E+00
         -4   -1    0    0    0  501 -0.00000000000E+00  0.00000000000E+00  0.39365954376E+03  0.39366159236E+03  0.12700000000E+01 0. -1.
          4   -1    0    0  501    0  0.00000000000E+00 -0.00000000000E+00 -0.98798618291E+01  0.99611530338E+01  0.12700000000E+01 0. -1.
         25    2    1    2    0    0  0.00000000000E+00  0.00000000000E+00  0.38377968193E+03  0.40362274539E+03  0.12499790530E+03 0.  0.
    9000005    1    3    3    0    0  0.36134416395E+02  0.42171394042E+02  0.28441153273E+03  0.28978447590E+03  0.10000000000E+01 0.  0.
    9000005    1    3    3    0    0 -0.36134416395E+02 -0.42171394042E+02  0.99368149204E+02  0.11383826949E+03  0.10000000000E+01 0.  0.
<mgrwt>
<rscale>  0 0.12499791E+03</rscale>
<asrwt>0</asrwt>
<pdfrwt beam="2">  1        4 0.15263897E-02 0.12499791E+03</pdfrwt>
<pdfrwt beam="1">  1       -4 0.60569409E-01 0.12499791E+03</pdfrwt>
<totfact> 0.64204936E+03</totfact>
</mgrwt>
</event>
<event>
 5    1  0.3309219E-002  0.1249988E+03  0.7818608E-02  0.1235071E+00
          4   -1    0    0  501    0  0.00000000000E+00  0.00000000000E+00  0.10514711896E+03  0.10515478841E+03  0.12700000000E+01 0. -1.
         -4   -1    0    0    0  501 -0.00000000000E+00 -0.00000000000E+00 -0.37129752372E+02  0.37151465802E+02  0.12700000000E+01 0. -1.
         25    2    1    2    0    0  0.00000000000E+00  0.00000000000E+00  0.68017366590E+02  0.14230625421E+03  0.12499883132E+03 0.  0.
    9000005    1    3    3    0    0  0.10678722192E+01 -0.28484124294E+02  0.97320724990E+02  0.10141404834E+03  0.10000000000E+01 0.  0.
    9000005    1    3    3    0    0 -0.10678722192E+01  0.28484124294E+02 -0.29303358400E+02  0.40892205876E+02  0.10000000000E+01 0.  0.
<mgrwt>
<rscale>  0 0.12499883E+03</rscale>
<asrwt>0</asrwt>
<pdfrwt beam="1">  1        4 0.16178740E-01 0.12499883E+03</pdfrwt>
<pdfrwt beam="2">  1       -4 0.57145299E-02 0.12499883E+03</pdfrwt>
<totfact> 0.10086275E+04</totfact>
</mgrwt>
</event>
<event>
 5    1  0.3309219E-002  0.1249988E+03  0.7818608E-02  0.1235071E+00
          4   -1    0    0  501    0  0.00000000000E+00  0.00000000000E+00  0.48578954895E+02  0.48595552870E+02  0.12700000000E+01 0.  1.
         -4   -1    0    0    0  501 -0.00000000000E+00 -0.00000000000E+00 -0.80373377254E+02  0.80383410423E+02  0.12700000000E+01 0.  1.
         25    2    1    2    0    0  0.00000000000E+00  0.00000000000E+00 -0.31794422358E+02  0.12897896329E+03  0.12499875071E+03 0.  0.
    9000005    1    3    3    0    0 -0.74620957909E+01 -0.45741766663E+02 -0.59150716989E+02  0.75151842368E+02  0.10000000000E+01 0.  0.
    9000005    1    3    3    0    0  0.74620957909E+01  0.45741766663E+02  0.27356294630E+02  0.53827120924E+02  0.10000000000E+01 0.  0.
<mgrwt>
<rscale>  0 0.12499875E+03</rscale>
<asrwt>0</asrwt>
<pdfrwt beam="1">  1        4 0.74757339E-02 0.12499875E+03</pdfrwt>
<pdfrwt beam="2">  1       -4 0.12367184E-01 0.12499875E+03</pdfrwt>
<totfact> 0.10366691E+04</totfact>
</mgrwt>
</event>
<event>
 5    1  0.3309219E-002  0.1250009E+03  0.7818608E-02  0.1235068E+00
          4   -1    0    0  501    0  0.00000000000E+00  0.00000000000E+00  0.96018314401E+02  0.96026712952E+02  0.12700000000E+01 0. -1.
         -4   -1    0    0    0  501 -0.00000000000E+00 -0.00000000000E+00 -0.40662848479E+02  0.40682676244E+02  0.12700000000E+01 0. -1.
         25    2    1    2    0    0  0.00000000000E+00  0.00000000000E+00  0.55355465922E+02  0.13670938920E+03  0.12500091794E+03 0.  0.
    9000005    1    3    3    0    0  0.24708987959E+02  0.56529749881E+02  0.16787056550E+02  0.63944913599E+02  0.10000000000E+01 0.  0.
    9000005    1    3    3    0    0 -0.24708987959E+02 -0.56529749881E+02  0.38568409373E+02  0.72764475598E+02  0.10000000000E+01 0.  0.
<mgrwt>
<rscale>  0 0.12500092E+03</rscale>
<asrwt>0</asrwt>
<pdfrwt beam="1">  1        4 0.14774220E-01 0.12500092E+03</pdfrwt>
<pdfrwt beam="2">  1       -4 0.62579941E-02 0.12500092E+03</pdfrwt>
<totfact> 0.10201954E+04</totfact>
</mgrwt>
</event>
<event>
 5    1  0.3309219E-002  0.1249995E+03  0.7818608E-02  0.1235070E+00
         -4   -1    0    0    0  501 -0.00000000000E+00  0.00000000000E+00  0.12559788836E+03  0.12560430908E+03  0.12700000000E+01 0. -1.
          4   -1    0    0  501    0  0.00000000000E+00 -0.00000000000E+00 -0.31080789643E+02  0.31106725717E+02  0.12700000000E+01 0. -1.
         25    2    1    2    0    0  0.00000000000E+00  0.00000000000E+00  0.94517098713E+02  0.15671103480E+03  0.12499946591E+03 0.  0.
    9000005    1    3    3    0    0 -0.51112643567E+02  0.30072129142E+02  0.22551516282E+02  0.63453968908E+02  0.10000000000E+01 0.  0.
    9000005    1    3    3    0    0  0.51112643567E+02 -0.30072129142E+02  0.71965582431E+02  0.93257065889E+02  0.10000000000E+01 0.  0.
<mgrwt>
<rscale>  0 0.12499947E+03</rscale>
<asrwt>0</asrwt>
<pdfrwt beam="2">  1        4 0.47841490E-02 0.12499947E+03</pdfrwt>
<pdfrwt beam="1">  1       -4 0.19325241E-01 0.12499947E+03</pdfrwt>
<totfact> 0.97981821E+03</totfact>
</mgrwt>
</event>
<event>
 5    1  0.3309219E-002  0.1249994E+03  0.7818608E-02  0.1235070E+00
          4   -1    0    0  501    0  0.00000000000E+00  0.00000000000E+00  0.42094437817E+02  0.42113591573E+02  0.12700000000E+01 0. -1.
         -4   -1    0    0    0  501 -0.00000000000E+00 -0.00000000000E+00 -0.92751805797E+02  0.92760500099E+02  0.12700000000E+01 0. -1.
         25    2    1    2    0    0  0.00000000000E+00  0.00000000000E+00 -0.50657367980E+02  0.13487409167E+03  0.12499940669E+03 0.  0.
    9000005    1    3    3    0    0  0.35958623100E+02 -0.78951758071E+01  0.29156504147E+02  0.46972950837E+02  0.10000000000E+01 0.  0.
    9000005    1    3    3    0    0 -0.35958623100E+02  0.78951758071E+01 -0.79813872126E+02  0.87901140835E+02  0.10000000000E+01 0.  0.
<mgrwt>
<rscale>  0 0.12499941E+03</rscale>
<asrwt>0</asrwt>
<pdfrwt beam="1">  1        4 0.64782095E-02 0.12499941E+03</pdfrwt>
<pdfrwt beam="2">  1       -4 0.14271651E-01 0.12499941E+03</pdfrwt>
<totfact> 0.10240862E+04</totfact>
</mgrwt>
</event>
<event>
 5    1  0.3309219E-002  0.1249946E+03  0.7818608E-02  0.1235078E+00
          4   -1    0    0  501    0  0.00000000000E+00  0.00000000000E+00  0.67450602004E+03  0.67450721565E+03  0.12700000000E+01 0. -1.
         -4   -1    0    0    0  501 -0.00000000000E+00 -0.00000000000E+00 -0.57199240286E+01  0.58592176008E+01  0.12700000000E+01 0. -1.
         25    2    1    2    0    0  0.00000000000E+00  0.00000000000E+00  0.66878609601E+03  0.68036643325E+03  0.12499456501E+03 0.  0.
    9000005    1    3    3    0    0 -0.87621815703E+01  0.48992001004E+02  0.12870766291E+03  0.13799874811E+03  0.10000000000E+01 0.  0.
    9000005    1    3    3    0    0  0.87621815703E+01 -0.48992001004E+02  0.54007843310E+03  0.54236768515E+03  0.10000000000E+01 0.  0.
<mgrwt>
<rscale>  0 0.12499457E+03</rscale>
<asrwt>0</asrwt>
<pdfrwt beam="1">  1        4 0.10378095E+00 0.12499457E+03</pdfrwt>
<pdfrwt beam="2">  1       -4 0.89079529E-03 0.12499457E+03</pdfrwt>
<totfact> 0.44148846E+03</totfact>
</mgrwt>
</event>
<event>
 5    1  0.3309219E-002  0.1250007E+03  0.7818608E-02  0.1235068E+00
         -4   -1    0    0    0  501 -0.00000000000E+00  0.00000000000E+00  0.24659729117E+02  0.24692410577E+02  0.12700000000E+01 0. -1.
          4   -1    0    0  501    0  0.00000000000E+00 -0.00000000000E+00 -0.15826767810E+03  0.15827277350E+03  0.12700000000E+01 0. -1.
         25    2    1    2    0    0  0.00000000000E+00  0.00000000000E+00 -0.13360794898E+03  0.18296518408E+03  0.12500069821E+03 0.  0.
    9000005    1    3    3    0    0  0.23677836416E+02 -0.13874526410E+02  0.15374777194E+02  0.31472626109E+02  0.10000000000E+01 0.  0.
    9000005    1    3    3    0    0 -0.23677836416E+02  0.13874526410E+02 -0.14898272618E+03  0.15149255797E+03  0.10000000000E+01 0.  0.
<mgrwt>
<rscale>  0 0.12500070E+03</rscale>
<asrwt>0</asrwt>
<pdfrwt beam="2">  1        4 0.24351779E-01 0.12500070E+03</pdfrwt>
<pdfrwt beam="1">  1       -4 0.37967105E-02 0.12500070E+03</pdfrwt>
<totfact> 0.93084510E+03</totfact>
</mgrwt>
</event>
<event>
 5    1  0.3309219E-002  0.1250004E+03  0.7818608E-02  0.1235069E+00
         -4   -1    0    0    0  501 -0.00000000000E+00  0.00000000000E+00  0.63437535646E+01  0.64696297644E+01  0.12700000000E+01 0.  1.
          4   -1    0    0  501    0  0.00000000000E+00 -0.00000000000E+00 -0.60959097845E+03  0.60959230138E+03  0.12700000000E+01 0.  1.
         25    2    1    2    0    0  0.00000000000E+00  0.00000000000E+00 -0.60324722488E+03  0.61606193114E+03  0.12500035472E+03 0.  0.
    9000005    1    3    3    0    0 -0.50902229588E+02 -0.22593593135E+02 -0.16189749124E+03  0.17121128788E+03  0.10000000000E+01 0.  0.
    9000005    1    3    3    0    0  0.50902229588E+02  0.22593593135E+02 -0.44134973365E+03  0.44485064327E+03  0.10000000000E+01 0.  0.
<mgrwt>
<rscale>  0 0.12500035E+03</rscale>
<asrwt>0</asrwt>
<pdfrwt beam="2">  1        4 0.93792966E-01 0.12500035E+03</pdfrwt>
<pdfrwt beam="1">  1       -4 0.98574712E-03 0.12500035E+03</pdfrwt>
<totfact> 0.47868826E+03</totfact>
</mgrwt>
</event>
<event>
 5    1  0.3309219E-002  0.1249928E+03  0.7818608E-02  0.1235081E+00
          4   -1    0    0  501    0  0.00000000000E+00  0.00000000000E+00  0.92619013928E+01  0.93485676663E+01  0.12700000000E+01 0.  1.
         -4   -1    0    0    0  501 -0.00000000000E+00 -0.00000000000E+00 -0.41965429395E+03  0.41965621564E+03  0.12700000000E+01 0.  1.
         25    2    1    2    0    0  0.00000000000E+00  0.00000000000E+00 -0.41039239256E+03  0.42900478331E+03  0.12499275274E+03 0.  0.
    9000005    1    3    3    0    0  0.43534873140E+02  0.60049772668E+00 -0.35904127956E+03  0.36167289946E+03  0.10000000000E+01 0.  0.
    9000005    1    3    3    0    0 -0.43534873140E+02 -0.60049772668E+00 -0.51351112994E+02  0.67331883848E+02  0.10000000000E+01 0.  0.
<mgrwt>
<rscale>  0 0.12499275E+03</rscale>
<asrwt>0</asrwt>
<pdfrwt beam="1">  1        4 0.14317227E-02 0.12499275E+03</pdfrwt>
<pdfrwt beam="2">  1       -4 0.64568999E-01 0.12499275E+03</pdfrwt>
<totfact> 0.61836193E+03</totfact>
</mgrwt>
</event>
<event>
 5    1  0.3309219E-002  0.1250038E+03  0.7818608E-02  0.1235063E+00
          4   -1    0    0  501    0  0.00000000000E+00  0.00000000000E+00  0.53087612607E+02  0.53102801360E+02  0.12700000000E+01 0.  1.
         -4   -1    0    0    0  501 -0.00000000000E+00 -0.00000000000E+00 -0.73554496311E+02  0.73565459474E+02  0.12700000000E+01 0.  1.
         25    2    1    2    0    0  0.00000000000E+00  0.00000000000E+00 -0.20466883704E+02  0.12666826083E+03  0.12500381984E+03 0.  0.
    9000005    1    3    3    0    0 -0.66924445749E+01  0.52215741890E+02 -0.44359997038E+02  0.68848252357E+02  0.10000000000E+01 0.  0.
    9000005    1    3    3    0    0  0.66924445749E+01 -0.52215741890E+02  0.23893113334E+02  0.57820008477E+02  0.10000000000E+01 0.  0.
<mgrwt>
<rscale>  0 0.12500382E+03</rscale>
<asrwt>0</asrwt>
<pdfrwt beam="1">  1        4 0.81693367E-02 0.12500382E+03</pdfrwt>
<pdfrwt beam="2">  1       -4 0.11318088E-01 0.12500382E+03</pdfrwt>
<totfact> 0.10415463E+04</totfact>
</mgrwt>
</event>
<event>
 5    1  0.3309219E-002  0.1249986E+03  0.7818608E-02  0.1235071E+00
          4   -1    0    0  501    0  0.00000000000E+00  0.00000000000E+00  0.13980391686E+02  0.14037957533E+02  0.12700000000E+01 0.  1.
         -4   -1    0    0    0  501 -0.00000000000E+00 -0.00000000000E+00 -0.27877001884E+03  0.27877291171E+03  0.12700000000E+01 0.  1.
         25    2    1    2    0    0  0.00000000000E+00  0.00000000000E+00 -0.26478962715E+03  0.29281086924E+03  0.12499863399E+03 0.  0.
    9000005    1    3    3    0    0  0.59006223676E+02 -0.12682918014E+02 -0.17035318818E+03  0.18073129105E+03  0.10000000000E+01 0.  0.
    9000005    1    3    3    0    0 -0.59006223676E+02  0.12682918014E+02 -0.94436438972E+02  0.11207957819E+03  0.10000000000E+01 0.  0.
<mgrwt>
<rscale>  0 0.12499863E+03</rscale>
<asrwt>0</asrwt>
<pdfrwt beam="1">  1        4 0.21554804E-02 0.12499863E+03</pdfrwt>
<pdfrwt beam="2">  1       -4 0.42892342E-01 0.12499863E+03</pdfrwt>
<totfact> 0.76511894E+03</totfact>
</mgrwt>
</event>
<event>
 5    1  0.3309219E-002  0.1250143E+03  0.7818608E-02  0.1235047E+00
          4   -1    0    0  501    0  0.00000000000E+00  0.00000000000E+00  0.13660180442E+04  0.13660186345E+04  0.12700000000E+01 0.  1.
         -4   -1    0    0    0  501 -0.00000000000E+00 -0.00000000000E+00 -0.27186493772E+01  0.30006590003E+01  0.12700000000E+01 0.  1.
         25    2    1    2    0    0  0.00000000000E+00  0.00000000000E+00  0.13632993948E+04  0.13690192935E+04  0.12501434410E+03 0.  0.
    9000005    1    3    3    0    0  0.61205761007E+01  0.28244936002E+02  0.74797157253E+02  0.80192596882E+02  0.10000000000E+01 0.  0.
    9000005    1    3    3    0    0 -0.61205761007E+01 -0.28244936002E+02  0.12885022375E+04  0.12888266967E+04  0.10000000000E+01 0.  0.
<mgrwt>
<rscale>  0 0.12501434E+03</rscale>
<asrwt>0</asrwt>
<pdfrwt beam="1">  1        4 0.21017863E+00 0.12501434E+03</pdfrwt>
<pdfrwt beam="2">  1       -4 0.43999165E-03 0.12501434E+03</pdfrwt>
<totfact> 0.20649120E+03</totfact>
</mgrwt>
</event>
<event>
 5    1  0.3309219E-002  0.1250072E+03  0.7818608E-02  0.1235058E+00
         -4   -1    0    0    0  501 -0.00000000000E+00  0.00000000000E+00  0.74152937455E+03  0.74153046210E+03  0.12700000000E+01 0. -1.
          4   -1    0    0  501    0  0.00000000000E+00 -0.00000000000E+00 -0.51907954212E+01  0.53438990545E+01  0.12700000000E+01 0. -1.
         25    2    1    2    0    0  0.00000000000E+00  0.00000000000E+00  0.73633857913E+03  0.74687436116E+03  0.12500723273E+03 0.  0.
    9000005    1    3    3    0    0 -0.12248030816E+01 -0.57188584144E+02  0.51856768935E+03  0.52171398557E+03  0.10000000000E+01 0.  0.
    9000005    1    3    3    0    0  0.12248030816E+01  0.57188584144E+02  0.21777088978E+03  0.22516037559E+03  0.10000000000E+01 0.  0.
<mgrwt>
<rscale>  0 0.12500723E+03</rscale>
<asrwt>0</asrwt>
<pdfrwt beam="2">  1        4 0.81044445E-03 0.12500723E+03</pdfrwt>
<pdfrwt beam="1">  1       -4 0.11409335E+00 0.12500723E+03</pdfrwt>
<totfact> 0.40717628E+03</totfact>
</mgrwt>
</event>
<event>
 5    1  0.3309219E-002  0.1250030E+03  0.7818608E-02  0.1235065E+00
          4   -1    0    0  501    0  0.00000000000E+00  0.00000000000E+00  0.64892593202E+02  0.64905019471E+02  0.12700000000E+01 0.  1.
         -4   -1    0    0    0  501 -0.00000000000E+00 -0.00000000000E+00 -0.60173623494E+02  0.60187024053E+02  0.12700000000E+01 0.  1.
         25    2    1    2    0    0  0.00000000000E+00  0.00000000000E+00  0.47189697087E+01  0.12509204352E+03  0.12500300268E+03 0.  0.
    9000005    1    3    3    0    0  0.15616788321E+02  0.49205470329E+02 -0.32884563915E+02  0.61216475982E+02  0.10000000000E+01 0.  0.
    9000005    1    3    3    0    0 -0.15616788321E+02 -0.49205470329E+02  0.37603533624E+02  0.63875567542E+02  0.10000000000E+01 0.  0.
<mgrwt>
<rscale>  0 0.12500300E+03</rscale>
<asrwt>0</asrwt>
<pdfrwt beam="1">  1        4 0.99854626E-02 0.12500300E+03</pdfrwt>
<pdfrwt beam="2">  1       -4 0.92594672E-02 0.12500300E+03</pdfrwt>
<totfact> 0.10450155E+04</totfact>
</mgrwt>
</event>
<event>
 5    1  0.3309219E-002  0.1250006E+03  0.7818608E-02  0.1235068E+00
          4   -1    0    0  501    0  0.00000000000E+00  0.00000000000E+00  0.14632381515E+03  0.14632932645E+03  0.12700000000E+01 0. -1.
         -4   -1    0    0    0  501 -0.00000000000E+00 -0.00000000000E+00 -0.26675072620E+02  0.26705287853E+02  0.12700000000E+01 0. -1.
         25    2    1    2    0    0  0.00000000000E+00  0.00000000000E+00  0.11964874252E+03  0.17303461430E+03  0.12500062463E+03 0.  0.
    9000005    1    3    3    0    0  0.38183423936E+02  0.23564784424E+02  0.12003639458E+03  0.12815228813E+03  0.10000000000E+01 0.  0.
    9000005    1    3    3    0    0 -0.38183423936E+02 -0.23564784424E+02 -0.38765205779E+00  0.44882326171E+02  0.10000000000E+01 0.  0.
<mgrwt>
<rscale>  0 0.12500062E+03</rscale>
<asrwt>0</asrwt>
<pdfrwt beam="1">  1        4 0.22514104E-01 0.12500062E+03</pdfrwt>
<pdfrwt beam="2">  1       -4 0.41066055E-02 0.12500062E+03</pdfrwt>
<totfact> 0.94884704E+03</totfact>
</mgrwt>
</event>
<event>
 5    1  0.3309219E-002  0.1250017E+03  0.7818608E-02  0.1235067E+00
         -4   -1    0    0    0  501 -0.00000000000E+00  0.00000000000E+00  0.24320831246E+02  0.24353967490E+02  0.12700000000E+01 0.  1.
          4   -1    0    0  501    0  0.00000000000E+00 -0.00000000000E+00 -0.16047264457E+03  0.16047766996E+03  0.12700000000E+01 0.  1.
         25    2    1    2    0    0  0.00000000000E+00  0.00000000000E+00 -0.13615181333E+03  0.18483163745E+03  0.12500167171E+03 0.  0.
    9000005    1    3    3    0    0  0.40689679067E+01  0.18812732135E+02 -0.15598782800E+03  0.15717403690E+03  0.10000000000E+01 0.  0.
    9000005    1    3    3    0    0 -0.40689679067E+01 -0.18812732135E+02  0.19836014674E+02  0.27657600553E+02  0.10000000000E+01 0.  0.
<mgrwt>
<rscale>  0 0.12500167E+03</rscale>
<asrwt>0</asrwt>
<pdfrwt beam="2">  1        4 0.24691034E-01 0.12500167E+03</pdfrwt>
<pdfrwt beam="1">  1       -4 0.37446020E-02 0.12500167E+03</pdfrwt>
<totfact> 0.92750977E+03</totfact>
</mgrwt>
</event>
<event>
 5    1  0.3309219E-002  0.1250031E+03  0.7818608E-02  0.1235064E+00
         -4   -1    0    0    0  501 -0.00000000000E+00  0.00000000000E+00  0.72819176392E+02  0.72830250242E+02  0.12700000000E+01 0. -1.
          4   -1    0    0  501    0  0.00000000000E+00 -0.00000000000E+00 -0.53623108074E+02  0.53638145191E+02  0.12700000000E+01 0. -1.
         25    2    1    2    0    0  0.00000000000E+00  0.00000000000E+00  0.19196068317E+02  0.12646839543E+03  0.12500306398E+03 0.  0.
    9000005    1    3    3    0    0  0.54167614508E+02 -0.30908354507E+02  0.55530849747E+01  0.62620233092E+02  0.10000000000E+01 0.  0.
    9000005    1    3    3    0    0 -0.54167614508E+02  0.30908354507E+02  0.13642983343E+02  0.63848162341E+02  0.10000000000E+01 0.  0.
<mgrwt>
<rscale>  0 0.12500306E+03</rscale>
<asrwt>0</asrwt>
<pdfrwt beam="2">  1        4 0.82517175E-02 0.12500306E+03</pdfrwt>
<pdfrwt beam="1">  1       -4 0.11204959E-01 0.12500306E+03</pdfrwt>
<totfact> 0.10419997E+04</totfact>
</mgrwt>
</event>
<event>
 5    1  0.3309219E-002  0.1250007E+03  0.7818608E-02  0.1235068E+00
         -4   -1    0    0    0  501 -0.00000000000E+00  0.00000000000E+00  0.56052660951E+03  0.56052804824E+03  0.12700000000E+01 0.  1.
          4   -1    0    0  501    0  0.00000000000E+00 -0.00000000000E+00 -0.69096560426E+01  0.70254001044E+01  0.12700000000E+01 0.  1.
         25    2    1    2    0    0  0.00000000000E+00  0.00000000000E+00  0.55361695347E+03  0.56755344835E+03  0.12500074226E+03 0.  0.
    9000005    1    3    3    0    0 -0.15004899160E+02  0.52298987768E+02  0.13723525647E+03  0.14763077842E+03  0.10000000000E+01 0.  0.
    9000005    1    3    3    0    0  0.15004899160E+02 -0.52298987768E+02  0.41638169700E+03  0.41992266992E+03  0.10000000000E+01 0.  0.
<mgrwt>
<rscale>  0 0.12500074E+03</rscale>
<asrwt>0</asrwt>
<pdfrwt beam="2">  1        4 0.10720382E-02 0.12500074E+03</pdfrwt>
<pdfrwt beam="1">  1       -4 0.86243868E-01 0.12500074E+03</pdfrwt>
<totfact> 0.50981119E+03</totfact>
</mgrwt>
</event>
<event>
 5    1  0.3309219E-002  0.1249963E+03  0.7818608E-02  0.1235075E+00
         -4   -1    0    0    0  501 -0.00000000000E+00  0.00000000000E+00  0.13251852649E+03  0.13252461191E+03  0.12700000000E+01 0.  1.
          4   -1    0    0  501    0  0.00000000000E+00 -0.00000000000E+00 -0.29454807935E+02  0.29482174453E+02  0.12700000000E+01 0.  1.
         25    2    1    2    0    0  0.00000000000E+00  0.00000000000E+00  0.10306371855E+03  0.16200678637E+03  0.12499627493E+03 0.  0.
    9000005    1    3    3    0    0  0.40864977487E+02  0.39906103014E+02  0.18677150298E+02  0.60102241106E+02  0.10000000000E+01 0.  0.
    9000005    1    3    3    0    0 -0.40864977487E+02 -0.39906103014E+02  0.84386568257E+02  0.10190454526E+03  0.10000000000E+01 0.  0.
<mgrwt>
<rscale>  0 0.12499627E+03</rscale>
<asrwt>0</asrwt>
<pdfrwt beam="2">  1        4 0.45340820E-02 0.12499627E+03</pdfrwt>
<pdfrwt beam="1">  1       -4 0.20390039E-01 0.12499627E+03</pdfrwt>
<totfact> 0.96965398E+03</totfact>
</mgrwt>
</event>
<event>
 5    1  0.3309219E-002  0.1250020E+03  0.7818608E-02  0.1235066E+00
          4   -1    0    0  501    0  0.00000000000E+00  0.00000000000E+00  0.68388748848E+03  0.68388866770E+03  0.12700000000E+01 0. -1.
         -4   -1    0    0    0  501 -0.00000000000E+00 -0.00000000000E+00 -0.56402217108E+01  0.57814358897E+01  0.12700000000E+01 0. -1.
         25    2    1    2    0    0  0.00000000000E+00  0.00000000000E+00  0.67824726677E+03  0.68967010359E+03  0.12500198757E+03 0.  0.
    9000005    1    3    3    0    0 -0.32162326674E+02 -0.28859860816E+00  0.43505088653E+02  0.54112764528E+02  0.10000000000E+01 0.  0.
    9000005    1    3    3    0    0  0.32162326674E+02  0.28859860816E+00  0.63474217812E+03  0.63555733906E+03  0.10000000000E+01 0.  0.
<mgrwt>
<rscale>  0 0.12500199E+03</rscale>
<asrwt>0</asrwt>
<pdfrwt beam="1">  1        4 0.10522434E+00 0.12500199E+03</pdfrwt>
<pdfrwt beam="2">  1       -4 0.87868036E-03 0.12500199E+03</pdfrwt>
<totfact> 0.43635757E+03</totfact>
</mgrwt>
</event>
<event>
 5    1  0.3309219E-002  0.1249996E+03  0.7818608E-02  0.1235070E+00
          4   -1    0    0  501    0  0.00000000000E+00  0.00000000000E+00  0.25471455470E+01  0.28461992969E+01  0.12700000000E+01 0. -1.
         -4   -1    0    0    0  501 -0.00000000000E+00 -0.00000000000E+00 -0.14482349044E+04  0.14482354613E+04  0.12700000000E+01 0. -1.
         25    2    1    2    0    0  0.00000000000E+00  0.00000000000E+00 -0.14456877589E+04  0.14510816606E+04  0.12499955792E+03 0.  0.
    9000005    1    3    3    0    0 -0.27761194667E+02 -0.28721068573E+02 -0.12807426400E+04  0.12813657922E+04  0.10000000000E+01 0.  0.
    9000005    1    3    3    0    0  0.27761194667E+02  0.28721068573E+02 -0.16494511894E+03  0.16971586836E+03  0.10000000000E+01 0.  0.
<mgrwt>
<rscale>  0 0.12499956E+03</rscale>
<asrwt>0</asrwt>
<pdfrwt beam="1">  1        4 0.41491667E-03 0.12499956E+03</pdfrwt>
<pdfrwt beam="2">  1       -4 0.22282780E+00 0.12499956E+03</pdfrwt>
<totfact> 0.18910853E+03</totfact>
</mgrwt>
</event>
<event>
 5    1  0.3309219E-002  0.1249951E+03  0.7818608E-02  0.1235077E+00
          4   -1    0    0  501    0  0.00000000000E+00  0.00000000000E+00  0.15684046201E+03  0.15684560377E+03  0.12700000000E+01 0.  1.
         -4   -1    0    0    0  501 -0.00000000000E+00 -0.00000000000E+00 -0.24882192064E+02  0.24914581712E+02  0.12700000000E+01 0.  1.
         25    2    1    2    0    0  0.00000000000E+00  0.00000000000E+00  0.13195826994E+03  0.18176018549E+03  0.12499511999E+03 0.  0.
    9000005    1    3    3    0    0  0.50782618647E+02 -0.32026064011E+02  0.91182412238E+02  0.10917772407E+03  0.10000000000E+01 0.  0.
    9000005    1    3    3    0    0 -0.50782618647E+02  0.32026064011E+02  0.40775857707E+02  0.72582461411E+02  0.10000000000E+01 0.  0.
<mgrwt>
<rscale>  0 0.12499512E+03</rscale>
<asrwt>0</asrwt>
<pdfrwt beam="1">  1        4 0.24132188E-01 0.12499512E+03</pdfrwt>
<pdfrwt beam="2">  1       -4 0.38309167E-02 0.12499512E+03</pdfrwt>
<totfact> 0.93311328E+03</totfact>
</mgrwt>
</event>
<event>
 5    1  0.3309219E-002  0.1249972E+03  0.7818608E-02  0.1235074E+00
          4   -1    0    0  501    0  0.00000000000E+00  0.00000000000E+00  0.21882047676E+03  0.21882416217E+03  0.12700000000E+01 0.  1.
         -4   -1    0    0    0  501 -0.00000000000E+00 -0.00000000000E+00 -0.17824174851E+02  0.17869362303E+02  0.12700000000E+01 0.  1.
         25    2    1    2    0    0  0.00000000000E+00  0.00000000000E+00  0.20099630191E+03  0.23669352448E+03  0.12499724456E+03 0.  0.
    9000005    1    3    3    0    0 -0.43479375389E+02 -0.22542007244E+02  0.27001497231E+02  0.55934595981E+02  0.10000000000E+01 0.  0.
    9000005    1    3    3    0    0  0.43479375389E+02  0.22542007244E+02  0.17399480468E+03  0.18075892849E+03  0.10000000000E+01 0.  0.
<mgrwt>
<rscale>  0 0.12499724E+03</rscale>
<asrwt>0</asrwt>
<pdfrwt beam="1">  1        4 0.33668451E-01 0.12499724E+03</pdfrwt>
<pdfrwt beam="2">  1       -4 0.27459400E-02 0.12499724E+03</pdfrwt>
<totfact> 0.84297462E+03</totfact>
</mgrwt>
</event>
<event>
 5    1  0.3309219E-002  0.1249991E+03  0.7818608E-02  0.1235071E+00
          4   -1    0    0  501    0  0.00000000000E+00  0.00000000000E+00  0.58710635019E+02  0.58724369425E+02  0.12700000000E+01 0. -1.
         -4   -1    0    0    0  501 -0.00000000000E+00 -0.00000000000E+00 -0.66505430328E+02  0.66517555301E+02  0.12700000000E+01 0. -1.
         25    2    1    2    0    0  0.00000000000E+00  0.00000000000E+00 -0.77947953091E+01  0.12524192473E+03  0.12499912350E+03 0.  0.
    9000005    1    3    3    0    0  0.23559735143E+01 -0.54265831676E+02 -0.34858295956E+02  0.64547903883E+02  0.10000000000E+01 0.  0.
    9000005    1    3    3    0    0 -0.23559735143E+01  0.54265831676E+02  0.27063500647E+02  0.60694020842E+02  0.10000000000E+01 0.  0.
<mgrwt>
<rscale>  0 0.12499912E+03</rscale>
<asrwt>0</asrwt>
<pdfrwt beam="1">  1        4 0.90343946E-02 0.12499912E+03</pdfrwt>
<pdfrwt beam="2">  1       -4 0.10233594E-01 0.12499912E+03</pdfrwt>
<totfact> 0.10447817E+04</totfact>
</mgrwt>
</event>
<event>
 5    1  0.3309219E-002  0.1249937E+03  0.7818608E-02  0.1235079E+00
          4   -1    0    0  501    0  0.00000000000E+00  0.00000000000E+00  0.56425692084E+02  0.56439982523E+02  0.12700000000E+01 0.  1.
         -4   -1    0    0    0  501 -0.00000000000E+00 -0.00000000000E+00 -0.69192375368E+02  0.69204029572E+02  0.12700000000E+01 0.  1.
         25    2    1    2    0    0  0.00000000000E+00  0.00000000000E+00 -0.12766683284E+02  0.12564401210E+03  0.12499371814E+03 0.  0.
    9000005    1    3    3    0    0  0.33871999784E+02  0.14211070892E+02  0.44432513738E+02  0.57658608918E+02  0.10000000000E+01 0.  0.
    9000005    1    3    3    0    0 -0.33871999784E+02 -0.14211070892E+02 -0.57199197022E+02  0.67985403177E+02  0.10000000000E+01 0.  0.
<mgrwt>
<rscale>  0 0.12499372E+03</rscale>
<asrwt>0</asrwt>
<pdfrwt beam="1">  1        4 0.86828715E-02 0.12499372E+03</pdfrwt>
<pdfrwt beam="2">  1       -4 0.10646977E-01 0.12499372E+03</pdfrwt>
<totfact> 0.10440257E+04</totfact>
</mgrwt>
</event>
<event>
 5    1  0.3309219E-002  0.1250002E+03  0.7818608E-02  0.1235069E+00
         -4   -1    0    0    0  501 -0.00000000000E+00  0.00000000000E+00  0.23353399024E+02  0.23387905977E+02  0.12700000000E+01 0. -1.
          4   -1    0    0  501    0  0.00000000000E+00 -0.00000000000E+00 -0.16710701076E+03  0.16711183664E+03  0.12700000000E+01 0. -1.
         25    2    1    2    0    0  0.00000000000E+00  0.00000000000E+00 -0.14375361174E+03  0.19049974262E+03  0.12500020420E+03 0.  0.
    9000005    1    3    3    0    0 -0.86293161969E+01  0.22761612074E+02  0.15838455645E+02  0.29058781107E+02  0.10000000000E+01 0.  0.
    9000005    1    3    3    0    0  0.86293161969E+01 -0.22761612074E+02 -0.15959206738E+03  0.16144096151E+03  0.10000000000E+01 0.  0.
<mgrwt>
<rscale>  0 0.12500020E+03</rscale>
<asrwt>0</asrwt>
<pdfrwt beam="2">  1        4 0.25711796E-01 0.12500020E+03</pdfrwt>
<pdfrwt beam="1">  1       -4 0.35958563E-02 0.12500020E+03</pdfrwt>
<totfact> 0.91760014E+03</totfact>
</mgrwt>
</event>
<event>
 5    1  0.3309219E-002  0.1249965E+03  0.7818608E-02  0.1235075E+00
         -4   -1    0    0    0  501 -0.00000000000E+00  0.00000000000E+00  0.47554225219E+03  0.47554394804E+03  0.12700000000E+01 0. -1.
          4   -1    0    0  501    0  0.00000000000E+00 -0.00000000000E+00 -0.81630368382E+01  0.82612390367E+01  0.12700000000E+01 0. -1.
         25    2    1    2    0    0  0.00000000000E+00  0.00000000000E+00  0.46737921535E+03  0.48380518708E+03  0.12499651235E+03 0.  0.
    9000005    1    3    3    0    0 -0.10420460638E+02  0.55874728185E+02  0.33420925901E+03  0.33900943948E+03  0.10000000000E+01 0.  0.
    9000005    1    3    3    0    0  0.10420460638E+02 -0.55874728185E+02  0.13316995634E+03  0.14479574759E+03  0.10000000000E+01 0.  0.
<mgrwt>
<rscale>  0 0.12499651E+03</rscale>
<asrwt>0</asrwt>
<pdfrwt beam="2">  1        4 0.12635363E-02 0.12499651E+03</pdfrwt>
<pdfrwt beam="1">  1       -4 0.73168030E-01 0.12499651E+03</pdfrwt>
<totfact> 0.57147532E+03</totfact>
</mgrwt>
</event>
<event>
 5    1  0.3309219E-002  0.1249985E+03  0.7818608E-02  0.1235072E+00
         -4   -1    0    0    0  501 -0.00000000000E+00  0.00000000000E+00  0.34201718280E+02  0.34225289382E+02  0.12700000000E+01 0. -1.
          4   -1    0    0  501    0  0.00000000000E+00 -0.00000000000E+00 -0.11414291118E+03  0.11414997623E+03  0.12700000000E+01 0. -1.
         25    2    1    2    0    0  0.00000000000E+00  0.00000000000E+00 -0.79941192904E+02  0.14837526561E+03  0.12499850048E+03 0.  0.
    9000005    1    3    3    0    0 -0.32035808934E+02 -0.37499057747E+02  0.55818257412E+01  0.49645031620E+02  0.10000000000E+01 0.  0.
    9000005    1    3    3    0    0  0.32035808934E+02  0.37499057747E+02 -0.85523018645E+02  0.98730233992E+02  0.10000000000E+01 0.  0.
<mgrwt>
<rscale>  0 0.12499850E+03</rscale>
<asrwt>0</asrwt>
<pdfrwt beam="2">  1        4 0.17562804E-01 0.12499850E+03</pdfrwt>
<pdfrwt beam="1">  1       -4 0.52641595E-02 0.12499850E+03</pdfrwt>
<totfact> 0.99631918E+03</totfact>
</mgrwt>
</event>
<event>
 5    1  0.3309219E-002  0.1250017E+03  0.7818608E-02  0.1235067E+00
          4   -1    0    0  501    0  0.00000000000E+00  0.00000000000E+00  0.69726532163E+02  0.69738097102E+02  0.12700000000E+01 0. -1.
         -4   -1    0    0    0  501 -0.00000000000E+00 -0.00000000000E+00 -0.56000521576E+02  0.56014920484E+02  0.12700000000E+01 0. -1.
         25    2    1    2    0    0  0.00000000000E+00  0.00000000000E+00  0.13726010586E+02  0.12575301759E+03  0.12500167225E+03 0.  0.
    9000005    1    3    3    0    0  0.28347462882E+02  0.91209625312E+01  0.62134882960E+02  0.68909464443E+02  0.10000000000E+01 0.  0.
    9000005    1    3    3    0    0 -0.28347462882E+02 -0.91209625312E+01 -0.48408872374E+02  0.56843553143E+02  0.10000000000E+01 0.  0.
<mgrwt>
<rscale>  0 0.12500167E+03</rscale>
<asrwt>0</asrwt>
<pdfrwt beam="1">  1        4 0.10729156E-01 0.12500167E+03</pdfrwt>
<pdfrwt beam="2">  1       -4 0.86174622E-02 0.12500167E+03</pdfrwt>
<totfact> 0.10435984E+04</totfact>
</mgrwt>
</event>
<event>
 5    1  0.3309219E-002  0.1249995E+03  0.7818608E-02  0.1235070E+00
          4   -1    0    0  501    0  0.00000000000E+00  0.00000000000E+00  0.19227069212E+03  0.19227488643E+03  0.12700000000E+01 0.  1.
         -4   -1    0    0    0  501 -0.00000000000E+00 -0.00000000000E+00 -0.20291986601E+02  0.20331690048E+02  0.12700000000E+01 0.  1.
         25    2    1    2    0    0  0.00000000000E+00  0.00000000000E+00  0.17197870552E+03  0.21260657647E+03  0.12499952483E+03 0.  0.
    9000005    1    3    3    0    0 -0.35894280588E+02  0.11947896298E+02  0.17059010203E+03  0.17473733005E+03  0.10000000000E+01 0.  0.
    9000005    1    3    3    0    0  0.35894280588E+02 -0.11947896298E+02  0.13886034980E+01  0.37869246422E+02  0.10000000000E+01 0.  0.
<mgrwt>
<rscale>  0 0.12499952E+03</rscale>
<asrwt>0</asrwt>
<pdfrwt beam="1">  1        4 0.29583483E-01 0.12499952E+03</pdfrwt>
<pdfrwt beam="2">  1       -4 0.31252208E-02 0.12499952E+03</pdfrwt>
<totfact> 0.88052889E+03</totfact>
</mgrwt>
</event>
<event>
 5    1  0.3309219E-002  0.1250454E+03  0.7818608E-02  0.1234998E+00
         -4   -1    0    0    0  501 -0.00000000000E+00  0.00000000000E+00  0.54921095512E+02  0.54935777343E+02  0.12700000000E+01 0. -1.
          4   -1    0    0  501    0  0.00000000000E+00 -0.00000000000E+00 -0.71146632469E+02  0.71157966607E+02  0.12700000000E+01 0. -1.
         25    2    1    2    0    0  0.00000000000E+00  0.00000000000E+00 -0.16225536957E+02  0.12609374395E+03  0.12504544859E+03 0.  0.
    9000005    1    3    3    0    0  0.91033970684E+01 -0.51386463234E+02 -0.42820065503E+02  0.67512950250E+02  0.10000000000E+01 0.  0.
    9000005    1    3    3    0    0 -0.91033970684E+01  0.51386463234E+02  0.26594528546E+02  0.58580793699E+02  0.10000000000E+01 0.  0.
<mgrwt>
<rscale>  0 0.12504545E+03</rscale>
<asrwt>0</asrwt>
<pdfrwt beam="2">  1        4 0.10947637E-01 0.12504545E+03</pdfrwt>
<pdfrwt beam="1">  1       -4 0.84514005E-02 0.12504545E+03</pdfrwt>
<totfact> 0.10418214E+04</totfact>
</mgrwt>
</event>
<event>
 5    1  0.3309219E-002  0.1250026E+03  0.7818608E-02  0.1235065E+00
         -4   -1    0    0    0  501 -0.00000000000E+00  0.00000000000E+00  0.70156497590E+01  0.71296733124E+01  0.12700000000E+01 0. -1.
          4   -1    0    0  501    0  0.00000000000E+00 -0.00000000000E+00 -0.55221096964E+03  0.55221243004E+03  0.12700000000E+01 0. -1.
         25    2    1    2    0    0  0.00000000000E+00  0.00000000000E+00 -0.54519531988E+03  0.55934210335E+03  0.12500260702E+03 0.  0.
    9000005    1    3    3    0    0  0.49924188326E+02  0.13980939776E+02 -0.42873141072E+03  0.43185589471E+03  0.10000000000E+01 0.  0.
    9000005    1    3    3    0    0 -0.49924188326E+02 -0.13980939776E+02 -0.11646390915E+03  0.12748620863E+03  0.10000000000E+01 0.  0.
<mgrwt>
<rscale>  0 0.12500261E+03</rscale>
<asrwt>0</asrwt>
<pdfrwt beam="2">  1        4 0.84964384E-01 0.12500261E+03</pdfrwt>
<pdfrwt beam="1">  1       -4 0.10882145E-02 0.12500261E+03</pdfrwt>
<totfact> 0.51535988E+03</totfact>
</mgrwt>
</event>
<event>
 5    1  0.3309219E-002  0.1249997E+03  0.7818608E-02  0.1235070E+00
          4   -1    0    0  501    0  0.00000000000E+00  0.00000000000E+00  0.85833406447E+02  0.85842801459E+02  0.12700000000E+01 0. -1.
         -4   -1    0    0    0  501 -0.00000000000E+00 -0.00000000000E+00 -0.45488682720E+02  0.45506407852E+02  0.12700000000E+01 0. -1.
         25    2    1    2    0    0  0.00000000000E+00  0.00000000000E+00  0.40344723727E+02  0.13134920931E+03  0.12499967222E+03 0.  0.
    9000005    1    3    3    0    0 -0.66104650356E+01  0.38063736059E+02  0.71786507671E+02  0.81528209439E+02  0.10000000000E+01 0.  0.
    9000005    1    3    3    0    0  0.66104650356E+01 -0.38063736059E+02 -0.31441783943E+02  0.49820999872E+02  0.10000000000E+01 0.  0.
<mgrwt>
<rscale>  0 0.12499967E+03</rscale>
<asrwt>0</asrwt>
<pdfrwt beam="1">  1        4 0.13207225E-01 0.12499967E+03</pdfrwt>
<pdfrwt beam="2">  1       -4 0.70003451E-02 0.12499967E+03</pdfrwt>
<totfact> 0.10315685E+04</totfact>
</mgrwt>
</event>
<event>
 5    1  0.3309219E-002  0.1250070E+03  0.7818608E-02  0.1235058E+00
          4   -1    0    0  501    0  0.00000000000E+00  0.00000000000E+00  0.13483938829E+03  0.13484536897E+03  0.12700000000E+01 0. -1.
         -4   -1    0    0    0  501 -0.00000000000E+00 -0.00000000000E+00 -0.28952335450E+02  0.28980176466E+02  0.12700000000E+01 0. -1.
         25    2    1    2    0    0  0.00000000000E+00  0.00000000000E+00  0.10588705283E+03  0.16382554544E+03  0.12500696533E+03 0.  0.
    9000005    1    3    3    0    0 -0.26078937537E+02  0.26221501677E+02 -0.13079257997E+02  0.39239586173E+02  0.10000000000E+01 0.  0.
    9000005    1    3    3    0    0  0.26078937537E+02 -0.26221501677E+02  0.11896631083E+03  0.12458595927E+03  0.10000000000E+01 0.  0.
<mgrwt>
<rscale>  0 0.12500697E+03</rscale>
<asrwt>0</asrwt>
<pdfrwt beam="1">  1        4 0.20747123E-01 0.12500697E+03</pdfrwt>
<pdfrwt beam="2">  1       -4 0.44568072E-02 0.12500697E+03</pdfrwt>
<totfact> 0.96595161E+03</totfact>
</mgrwt>
</event>
<event>
 5    1  0.3309219E-002  0.1250059E+03  0.7818608E-02  0.1235060E+00
         -4   -1    0    0    0  501 -0.00000000000E+00  0.00000000000E+00  0.40571024720E+03  0.40571223495E+03  0.12700000000E+01 0.  1.
          4   -1    0    0  501    0  0.00000000000E+00 -0.00000000000E+00 -0.95851911158E+01  0.96689600644E+01  0.12700000000E+01 0.  1.
         25    2    1    2    0    0  0.00000000000E+00  0.00000000000E+00  0.39612505609E+03  0.41538119501E+03  0.12500590830E+03 0.  0.
    9000005    1    3    3    0    0  0.93200403500E+01  0.61637407179E+02  0.18335665014E+03  0.19366645106E+03  0.10000000000E+01 0.  0.
    9000005    1    3    3    0    0 -0.93200403500E+01 -0.61637407179E+02  0.21276840595E+03  0.22171474396E+03  0.10000000000E+01 0.  0.
<mgrwt>
<rscale>  0 0.12500591E+03</rscale>
<asrwt>0</asrwt>
<pdfrwt beam="2">  1        4 0.14812413E-02 0.12500591E+03</pdfrwt>
<pdfrwt beam="1">  1       -4 0.62423565E-01 0.12500591E+03</pdfrwt>
<totfact> 0.63075599E+03</totfact>
</mgrwt>
</event>
<event>
 5    1  0.3309219E-002  0.1250014E+03  0.7818608E-02  0.1235067E+00
         -4   -1    0    0    0  501 -0.00000000000E+00  0.00000000000E+00  0.12780418075E+04  0.12780424385E+04  0.12700000000E+01 0.  1.
          4   -1    0    0  501    0  0.00000000000E+00 -0.00000000000E+00 -0.29239174190E+01  0.31878194856E+01  0.12700000000E+01 0.  1.
         25    2    1    2    0    0  0.00000000000E+00  0.00000000000E+00  0.12751178901E+04  0.12812302580E+04  0.12500136153E+03 0.  0.
    9000005    1    3    3    0    0 -0.21629262018E+02 -0.23317102648E+01  0.37089770998E+02  0.43010614514E+02  0.10000000000E+01 0.  0.
    9000005    1    3    3    0    0  0.21629262018E+02  0.23317102648E+01  0.12380281191E+04  0.12382196435E+04  0.10000000000E+01 0.  0.
<mgrwt>
<rscale>  0 0.12500136E+03</rscale>
<asrwt>0</asrwt>
<pdfrwt beam="2">  1        4 0.47018197E-03 0.12500136E+03</pdfrwt>
<pdfrwt beam="1">  1       -4 0.19664224E+00 0.12500136E+03</pdfrwt>
<totfact> 0.22675210E+03</totfact>
</mgrwt>
</event>
<event>
 5    1  0.3309219E-002  0.1250361E+03  0.7818608E-02  0.1235013E+00
          4   -1    0    0  501    0  0.00000000000E+00  0.00000000000E+00  0.24011029805E+02  0.24044592995E+02  0.12700000000E+01 0.  1.
         -4   -1    0    0    0  501 -0.00000000000E+00 -0.00000000000E+00 -0.16262981943E+03  0.16263477816E+03  0.12700000000E+01 0.  1.
         25    2    1    2    0    0  0.00000000000E+00  0.00000000000E+00 -0.13861878963E+03  0.18667937116E+03  0.12503606991E+03 0.  0.
    9000005    1    3    3    0    0  0.33973925465E+02 -0.40020089504E+02 -0.11997636688E+03  0.13096245181E+03  0.10000000000E+01 0.  0.
    9000005    1    3    3    0    0 -0.33973925465E+02  0.40020089504E+02 -0.18642422744E+02  0.55716919344E+02  0.10000000000E+01 0.  0.
<mgrwt>
<rscale>  0 0.12503607E+03</rscale>
<asrwt>0</asrwt>
<pdfrwt beam="1">  1        4 0.36969679E-02 0.12503607E+03</pdfrwt>
<pdfrwt beam="2">  1       -4 0.25022935E-01 0.12503607E+03</pdfrwt>
<totfact> 0.92353662E+03</totfact>
</mgrwt>
</event>
<event>
 5    1  0.3309219E-002  0.1250037E+03  0.7818608E-02  0.1235063E+00
         -4   -1    0    0    0  501 -0.00000000000E+00  0.00000000000E+00  0.15665371191E+02  0.15716766670E+02  0.12700000000E+01 0.  1.
          4   -1    0    0  501    0  0.00000000000E+00 -0.00000000000E+00 -0.24890924355E+03  0.24891248347E+03  0.12700000000E+01 0.  1.
         25    2    1    2    0    0  0.00000000000E+00  0.00000000000E+00 -0.23324387236E+03  0.26462925014E+03  0.12500374408E+03 0.  0.
    9000005    1    3    3    0    0  0.38406599051E+02 -0.49271227902E+02 -0.12014098763E+03  0.13541631238E+03  0.10000000000E+01 0.  0.
    9000005    1    3    3    0    0 -0.38406599051E+02  0.49271227902E+02 -0.11310288473E+03  0.12921293776E+03  0.10000000000E+01 0.  0.
<mgrwt>
<rscale>  0 0.12500374E+03</rscale>
<asrwt>0</asrwt>
<pdfrwt beam="2">  1        4 0.38297930E-01 0.12500374E+03</pdfrwt>
<pdfrwt beam="1">  1       -4 0.24142600E-02 0.12500374E+03</pdfrwt>
<totfact> 0.80254084E+03</totfact>
</mgrwt>
</event>
<event>
 5    1  0.3309219E-002  0.1249977E+03  0.7818608E-02  0.1235073E+00
          4   -1    0    0  501    0  0.00000000000E+00  0.00000000000E+00  0.57214902492E+02  0.57228995860E+02  0.12700000000E+01 0. -1.
         -4   -1    0    0    0  501 -0.00000000000E+00 -0.00000000000E+00 -0.68242320911E+02  0.68254137334E+02  0.12700000000E+01 0. -1.
         25    2    1    2    0    0  0.00000000000E+00  0.00000000000E+00 -0.11027418418E+02  0.12548313319E+03  0.12499765102E+03 0.  0.
    9000005    1    3    3    0    0  0.58842196922E+02 -0.19049777908E+02  0.34543525096E+01  0.61953456144E+02  0.10000000000E+01 0.  0.
    9000005    1    3    3    0    0 -0.58842196922E+02  0.19049777908E+02 -0.14481770928E+02  0.63529677051E+02  0.10000000000E+01 0.  0.
<mgrwt>
<rscale>  0 0.12499765E+03</rscale>
<asrwt>0</asrwt>
<pdfrwt beam="1">  1        4 0.88042857E-02 0.12499765E+03</pdfrwt>
<pdfrwt beam="2">  1       -4 0.10500812E-01 0.12499765E+03</pdfrwt>
<totfact> 0.10442880E+04</totfact>
</mgrwt>
</event>
<event>
 5    1  0.3309219E-002  0.1250004E+03  0.7818608E-02  0.1235069E+00
          4   -1    0    0  501    0  0.00000000000E+00  0.00000000000E+00  0.28469924295E+03  0.28470207557E+03  0.12700000000E+01 0. -1.
         -4   -1    0    0    0  501 -0.00000000000E+00 -0.00000000000E+00 -0.13688409012E+02  0.13747197579E+02  0.12700000000E+01 0. -1.
         25    2    1    2    0    0  0.00000000000E+00  0.00000000000E+00  0.27101083394E+03  0.29844927315E+03  0.12500038614E+03 0.  0.
    9000005    1    3    3    0    0  0.20184966815E+02  0.87323660792E+01 -0.41548817181E+01  0.22404243901E+02  0.10000000000E+01 0.  0.
    9000005    1    3    3    0    0 -0.20184966815E+02 -0.87323660792E+01  0.27516571565E+03  0.27604502925E+03  0.10000000000E+01 0.  0.
<mgrwt>
<rscale>  0 0.12500039E+03</rscale>
<asrwt>0</asrwt>
<pdfrwt beam="1">  1        4 0.43804624E-01 0.12500039E+03</pdfrwt>
<pdfrwt beam="2">  1       -4 0.21106492E-02 0.12500039E+03</pdfrwt>
<totfact> 0.75793120E+03</totfact>
</mgrwt>
</event>
<event>
 5    1  0.3309219E-002  0.1250007E+03  0.7818608E-02  0.1235068E+00
         -4   -1    0    0    0  501 -0.00000000000E+00  0.00000000000E+00  0.98900396546E+03  0.98900478088E+03  0.12700000000E+01 0.  1.
          4   -1    0    0  501    0  0.00000000000E+00 -0.00000000000E+00 -0.38468004528E+01  0.40510213186E+01  0.12700000000E+01 0.  1.
         25    2    1    2    0    0  0.00000000000E+00  0.00000000000E+00  0.98515716501E+03  0.99305580220E+03  0.12500074603E+03 0.  0.
    9000005    1    3    3    0    0  0.60579745333E+02  0.65184263952E+01  0.60291744755E+03  0.60598914510E+03  0.10000000000E+01 0.  0.
    9000005    1    3    3    0    0 -0.60579745333E+02 -0.65184263952E+01  0.38223971746E+03  0.38706665709E+03  0.10000000000E+01 0.  0.
<mgrwt>
<rscale>  0 0.12500075E+03</rscale>
<asrwt>0</asrwt>
<pdfrwt beam="2">  1        4 0.60758861E-03 0.12500075E+03</pdfrwt>
<pdfrwt beam="1">  1       -4 0.15216994E+00 0.12500075E+03</pdfrwt>
<totfact> 0.30834438E+03</totfact>
</mgrwt>
</event>
<event>
 4    1  0.3309219E-002  0.1251611E+03  0.7818608E-02  0.1234818E+00
          4   -1    0    0  501    0  0.00000000000E+00  0.00000000000E+00  0.43635706457E+01  0.45446285635E+01  0.12700000000E+01 0.  1.
         -4   -1    0    0    0  501 -0.00000000000E+00 -0.00000000000E+00 -0.87908191949E+03  0.87908283687E+03  0.12700000000E+01 0.  1.
    9000005    1    1    2    0    0  0.59694467735E+02  0.16712911728E+02 -0.37721459989E+03  0.38227556195E+03  0.10000000000E+01 0.  0.
    9000005    1    1    2    0    0 -0.59694467735E+02 -0.16712911728E+02 -0.49750374896E+03  0.50135190348E+03  0.10000000000E+01 0.  0.
<mgrwt>
<rscale>  0 0.12516113E+03</rscale>
<asrwt>0</asrwt>
<pdfrwt beam="1">  1        4 0.68531736E-03 0.12516113E+03</pdfrwt>
<pdfrwt beam="2">  1       -4 0.13525723E+00 0.12516113E+03</pdfrwt>
<totfact> 0.34667293E+03</totfact>
</mgrwt>
</event>
<event>
 5    1  0.3309219E-002  0.1250038E+03  0.7818608E-02  0.1235063E+00
          4   -1    0    0  501    0  0.00000000000E+00  0.00000000000E+00  0.66682155762E+02  0.66694248605E+02  0.12700000000E+01 0.  1.
         -4   -1    0    0    0  501 -0.00000000000E+00 -0.00000000000E+00 -0.58559387453E+02  0.58573157323E+02  0.12700000000E+01 0.  1.
         25    2    1    2    0    0  0.00000000000E+00  0.00000000000E+00  0.81227683089E+01  0.12526740593E+03  0.12500377444E+03 0.  0.
    9000005    1    3    3    0    0 -0.66077312787E+01 -0.30982405675E+02  0.58044413390E+02  0.66134147760E+02  0.10000000000E+01 0.  0.
    9000005    1    3    3    0    0  0.66077312787E+01  0.30982405675E+02 -0.49921645081E+02  0.59133258169E+02  0.10000000000E+01 0.  0.
<mgrwt>
<rscale>  0 0.12500377E+03</rscale>
<asrwt>0</asrwt>
<pdfrwt beam="1">  1        4 0.10260783E-01 0.12500377E+03</pdfrwt>
<pdfrwt beam="2">  1       -4 0.90111261E-02 0.12500377E+03</pdfrwt>
<totfact> 0.10446166E+04</totfact>
</mgrwt>
</event>
<event>
 5    1  0.3309219E-002  0.1249949E+03  0.7818608E-02  0.1235077E+00
         -4   -1    0    0    0  501 -0.00000000000E+00  0.00000000000E+00  0.38005301512E+02  0.38026514999E+02  0.12700000000E+01 0.  1.
          4   -1    0    0  501    0  0.00000000000E+00 -0.00000000000E+00 -0.10271945390E+03  0.10272730460E+03  0.12700000000E+01 0.  1.
         25    2    1    2    0    0  0.00000000000E+00  0.00000000000E+00 -0.64714152389E+02  0.14075381960E+03  0.12499486474E+03 0.  0.
    9000005    1    3    3    0    0 -0.60059312826E+02 -0.80925554817E+01 -0.49520738231E+02  0.78268218494E+02  0.10000000000E+01 0.  0.
    9000005    1    3    3    0    0  0.60059312826E+02  0.80925554817E+01 -0.15193414158E+02  0.62485601102E+02  0.10000000000E+01 0.  0.
<mgrwt>
<rscale>  0 0.12499486E+03</rscale>
<asrwt>0</asrwt>
<pdfrwt beam="2">  1        4 0.15805229E-01 0.12499486E+03</pdfrwt>
<pdfrwt beam="1">  1       -4 0.58492052E-02 0.12499486E+03</pdfrwt>
<totfact> 0.10119157E+04</totfact>
</mgrwt>
</event>
<event>
 5    1  0.3309219E-002  0.1250080E+03  0.7818608E-02  0.1235057E+00
         -4   -1    0    0    0  501 -0.00000000000E+00  0.00000000000E+00  0.23454427579E+03  0.23454771414E+03  0.12700000000E+01 0. -1.
          4   -1    0    0  501    0  0.00000000000E+00 -0.00000000000E+00 -0.16628987279E+02  0.16677413406E+02  0.12700000000E+01 0. -1.
         25    2    1    2    0    0  0.00000000000E+00  0.00000000000E+00  0.21791528851E+03  0.25122512754E+03  0.12500796671E+03 0.  0.
    9000005    1    3    3    0    0  0.12065912822E+02  0.46891654066E+02  0.18836730797E+03  0.19449333199E+03  0.10000000000E+01 0.  0.
    9000005    1    3    3    0    0 -0.12065912822E+02 -0.46891654066E+02  0.29547980540E+02  0.56731795558E+02  0.10000000000E+01 0.  0.
<mgrwt>
<rscale>  0 0.12500797E+03</rscale>
<asrwt>0</asrwt>
<pdfrwt beam="2">  1        4 0.25622955E-02 0.12500797E+03</pdfrwt>
<pdfrwt beam="1">  1       -4 0.36087721E-01 0.12500797E+03</pdfrwt>
<totfact> 0.82138905E+03</totfact>
</mgrwt>
</event>
<event>
 5    1  0.3309219E-002  0.1250012E+03  0.7818608E-02  0.1235067E+00
         -4   -1    0    0    0  501 -0.00000000000E+00  0.00000000000E+00  0.12708265038E+03  0.12708899609E+03  0.12700000000E+01 0.  1.
          4   -1    0    0  501    0  0.00000000000E+00 -0.00000000000E+00 -0.30718212866E+02  0.30744454812E+02  0.12700000000E+01 0.  1.
         25    2    1    2    0    0  0.00000000000E+00  0.00000000000E+00  0.96364437515E+02  0.15783345091E+03  0.12500117362E+03 0.  0.
    9000005    1    3    3    0    0  0.28424202322E+02 -0.18208401804E+02  0.11458689431E+03  0.11945977366E+03  0.10000000000E+01 0.  0.
    9000005    1    3    3    0    0 -0.28424202322E+02  0.18208401804E+02 -0.18222456797E+02  0.38373677249E+02  0.10000000000E+01 0.  0.
<mgrwt>
<rscale>  0 0.12500117E+03</rscale>
<asrwt>0</asrwt>
<pdfrwt beam="2">  1        4 0.47283858E-02 0.12500117E+03</pdfrwt>
<pdfrwt beam="1">  1       -4 0.19553683E-01 0.12500117E+03</pdfrwt>
<totfact> 0.97759532E+03</totfact>
</mgrwt>
</event>
<event>
 5    1  0.3309219E-002  0.1249992E+03  0.7818608E-02  0.1235071E+00
         -4   -1    0    0    0  501 -0.00000000000E+00  0.00000000000E+00  0.64613345911E+01  0.65849635305E+01  0.12700000000E+01 0.  1.
          4   -1    0    0  501    0  0.00000000000E+00 -0.00000000000E+00 -0.59869643884E+03  0.59869778585E+03  0.12700000000E+01 0.  1.
         25    2    1    2    0    0  0.00000000000E+00  0.00000000000E+00 -0.59223510425E+03  0.60528274938E+03  0.12499915196E+03 0.  0.
    9000005    1    3    3    0    0 -0.48376697525E+02  0.37449891873E+02 -0.35782551523E+03  0.36301914360E+03  0.10000000000E+01 0.  0.
    9000005    1    3    3    0    0  0.48376697525E+02 -0.37449891873E+02 -0.23440958902E+03  0.24226360579E+03  0.10000000000E+01 0.  0.
<mgrwt>
<rscale>  0 0.12499915E+03</rscale>
<asrwt>0</asrwt>
<pdfrwt beam="2">  1        4 0.92116715E-01 0.12499915E+03</pdfrwt>
<pdfrwt beam="1">  1       -4 0.10036655E-02 0.12499915E+03</pdfrwt>
<totfact> 0.48536756E+03</totfact>
</mgrwt>
</event>
<event>
 5    1  0.3309219E-002  0.1250021E+03  0.7818608E-02  0.1235066E+00
         -4   -1    0    0    0  501 -0.00000000000E+00  0.00000000000E+00  0.17921061007E+03  0.17921511002E+03  0.12700000000E+01 0. -1.
          4   -1    0    0  501    0  0.00000000000E+00 -0.00000000000E+00 -0.21774438743E+02  0.21811443845E+02  0.12700000000E+01 0. -1.
         25    2    1    2    0    0  0.00000000000E+00  0.00000000000E+00  0.15743617132E+03  0.20102655387E+03  0.12500210926E+03 0.  0.
    9000005    1    3    3    0    0  0.44027557118E+02 -0.18681352427E+02  0.14030581526E+02  0.49852541883E+02  0.10000000000E+01 0.  0.
    9000005    1    3    3    0    0 -0.44027557118E+02  0.18681352427E+02  0.14340558980E+03  0.15117401198E+03  0.10000000000E+01 0.  0.
<mgrwt>
<rscale>  0 0.12500211E+03</rscale>
<asrwt>0</asrwt>
<pdfrwt beam="2">  1        4 0.33531066E-02 0.12500211E+03</pdfrwt>
<pdfrwt beam="1">  1       -4 0.27574054E-01 0.12500211E+03</pdfrwt>
<totfact> 0.89958414E+03</totfact>
</mgrwt>
</event>
<event>
 5    1  0.3309219E-002  0.1249901E+03  0.7818608E-02  0.1235085E+00
         -4   -1    0    0    0  501 -0.00000000000E+00  0.00000000000E+00  0.11089772485E+03  0.11090499663E+03  0.12700000000E+01 0.  1.
          4   -1    0    0  501    0  0.00000000000E+00 -0.00000000000E+00 -0.35198465705E+02  0.35221369763E+02  0.12700000000E+01 0.  1.
         25    2    1    2    0    0  0.00000000000E+00  0.00000000000E+00  0.75699259147E+02  0.14612636639E+03  0.12499014809E+03 0.  0.
    9000005    1    3    3    0    0  0.58987430713E+02 -0.32672046058E+01  0.61650072258E+02  0.85392757407E+02  0.10000000000E+01 0.  0.
    9000005    1    3    3    0    0 -0.58987430713E+02  0.32672046058E+01  0.14049186889E+02  0.60733608985E+02  0.10000000000E+01 0.  0.
<mgrwt>
<rscale>  0 0.12499015E+03</rscale>
<asrwt>0</asrwt>
<pdfrwt beam="2">  1        4 0.54174697E-02 0.12499015E+03</pdfrwt>
<pdfrwt beam="1">  1       -4 0.17063510E-01 0.12499015E+03</pdfrwt>
<totfact> 0.10010373E+04</totfact>
</mgrwt>
</event>
<event>
 5    1  0.3309219E-002  0.1249986E+03  0.7818608E-02  0.1235072E+00
          4   -1    0    0  501    0  0.00000000000E+00  0.00000000000E+00  0.21480595824E+02  0.21518106259E+02  0.12700000000E+01 0. -1.
         -4   -1    0    0    0  501 -0.00000000000E+00 -0.00000000000E+00 -0.18164761556E+03  0.18165205515E+03  0.12700000000E+01 0. -1.
         25    2    1    2    0    0  0.00000000000E+00  0.00000000000E+00 -0.16016701974E+03  0.20317016141E+03  0.12499856109E+03 0.  0.
    9000005    1    3    3    0    0 -0.34925137703E+02  0.50569703890E+02 -0.61687261590E+02  0.87082595491E+02  0.10000000000E+01 0.  0.
    9000005    1    3    3    0    0  0.34925137703E+02 -0.50569703890E+02 -0.98479758149E+02  0.11608756592E+03  0.10000000000E+01 0.  0.
<mgrwt>
<rscale>  0 0.12499856E+03</rscale>
<asrwt>0</asrwt>
<pdfrwt beam="1">  1        4 0.33079341E-02 0.12499856E+03</pdfrwt>
<pdfrwt beam="2">  1       -4 0.27949013E-01 0.12499856E+03</pdfrwt>
<totfact> 0.89606459E+03</totfact>
</mgrwt>
</event>
<event>
 5    1  0.3309219E-002  0.1250005E+03  0.7818608E-02  0.1235069E+00
          4   -1    0    0  501    0  0.00000000000E+00  0.00000000000E+00  0.65974286097E+03  0.65974408333E+03  0.12700000000E+01 0.  1.
         -4   -1    0    0    0  501 -0.00000000000E+00 -0.00000000000E+00 -0.58515684916E+01  0.59878004152E+01  0.12700000000E+01 0.  1.
         25    2    1    2    0    0  0.00000000000E+00  0.00000000000E+00  0.65389129247E+03  0.66573188375E+03  0.12500047467E+03 0.  0.
    9000005    1    3    3    0    0  0.48520507657E+02 -0.34385079938E+02  0.42921086766E+03  0.43331229189E+03  0.10000000000E+01 0.  0.
    9000005    1    3    3    0    0 -0.48520507657E+02  0.34385079938E+02  0.22468042482E+03  0.23241959186E+03  0.10000000000E+01 0.  0.
<mgrwt>
<rscale>  0 0.12500047E+03</rscale>
<asrwt>0</asrwt>
<pdfrwt beam="1">  1        4 0.10150948E+00 0.12500047E+03</pdfrwt>
<pdfrwt beam="2">  1       -4 0.91081469E-03 0.12500047E+03</pdfrwt>
<totfact> 0.44957914E+03</totfact>
</mgrwt>
</event>
<event>
 5    1  0.3309219E-002  0.1250009E+03  0.7818608E-02  0.1235068E+00
          4   -1    0    0  501    0  0.00000000000E+00  0.00000000000E+00  0.25837184110E+03  0.25837496236E+03  0.12700000000E+01 0.  1.
         -4   -1    0    0    0  501 -0.00000000000E+00 -0.00000000000E+00 -0.15089054082E+02  0.15142405790E+02  0.12700000000E+01 0.  1.
         25    2    1    2    0    0  0.00000000000E+00  0.00000000000E+00  0.24328278702E+03  0.27351736815E+03  0.12500094487E+03 0.  0.
    9000005    1    3    3    0    0  0.14317189264E+02 -0.26452315480E+00  0.25474430881E+03  0.25514841710E+03  0.10000000000E+01 0.  0.
    9000005    1    3    3    0    0 -0.14317189264E+02  0.26452315480E+00 -0.11461521786E+02  0.18368951047E+02  0.10000000000E+01 0.  0.
<mgrwt>
<rscale>  0 0.12500094E+03</rscale>
<asrwt>0</asrwt>
<pdfrwt beam="1">  1        4 0.39753855E-01 0.12500094E+03</pdfrwt>
<pdfrwt beam="2">  1       -4 0.23257372E-02 0.12500094E+03</pdfrwt>
<totfact> 0.79043922E+03</totfact>
</mgrwt>
</event>
<event>
 5    1  0.3309219E-002  0.1250024E+03  0.7818608E-02  0.1235066E+00
         -4   -1    0    0    0  501 -0.00000000000E+00  0.00000000000E+00  0.16119189313E+02  0.16169142343E+02  0.12700000000E+01 0. -1.
          4   -1    0    0  501    0  0.00000000000E+00 -0.00000000000E+00 -0.24191797160E+03  0.24192130514E+03  0.12700000000E+01 0. -1.
         25    2    1    2    0    0  0.00000000000E+00  0.00000000000E+00 -0.22579878229E+03  0.25809044749E+03  0.12500235599E+03 0.  0.
    9000005    1    3    3    0    0  0.50767589682E+02 -0.75374994411E+01 -0.39284328592E+02  0.64640703375E+02  0.10000000000E+01 0.  0.
    9000005    1    3    3    0    0 -0.50767589682E+02  0.75374994411E+01 -0.18651445369E+03  0.19344974411E+03  0.10000000000E+01 0.  0.
<mgrwt>
<rscale>  0 0.12500236E+03</rscale>
<asrwt>0</asrwt>
<pdfrwt beam="2">  1        4 0.37222246E-01 0.12500236E+03</pdfrwt>
<pdfrwt beam="1">  1       -4 0.24839744E-02 0.12500236E+03</pdfrwt>
<totfact> 0.81170532E+03</totfact>
</mgrwt>
</event>
<event>
 5    1  0.3309219E-002  0.1250083E+03  0.7818608E-02  0.1235056E+00
          4   -1    0    0  501    0  0.00000000000E+00  0.00000000000E+00  0.25524077438E+03  0.25524393392E+03  0.12700000000E+01 0. -1.
         -4   -1    0    0    0  501 -0.00000000000E+00 -0.00000000000E+00 -0.15276594306E+02  0.15329293317E+02  0.12700000000E+01 0. -1.
         25    2    1    2    0    0  0.00000000000E+00  0.00000000000E+00  0.23996418007E+03  0.27057322724E+03  0.12500825406E+03 0.  0.
    9000005    1    3    3    0    0  0.59239154611E+02 -0.19826027808E+02  0.11598104381E+03  0.13173819241E+03  0.10000000000E+01 0.  0.
    9000005    1    3    3    0    0 -0.59239154611E+02  0.19826027808E+02  0.12398313626E+03  0.13883503483E+03  0.10000000000E+01 0.  0.
<mgrwt>
<rscale>  0 0.12500825E+03</rscale>
<asrwt>0</asrwt>
<pdfrwt beam="1">  1        4 0.39272108E-01 0.12500825E+03</pdfrwt>
<pdfrwt beam="2">  1       -4 0.23545421E-02 0.12500825E+03</pdfrwt>
<totfact> 0.79430196E+03</totfact>
</mgrwt>
</event>
<event>
 5    1  0.3309219E-002  0.1250003E+03  0.7818608E-02  0.1235069E+00
          4   -1    0    0  501    0  0.00000000000E+00  0.00000000000E+00  0.31220910864E+01  0.33705122388E+01  0.12700000000E+01 0. -1.
         -4   -1    0    0    0  501 -0.00000000000E+00 -0.00000000000E+00 -0.12030498080E+04  0.12030504784E+04  0.12700000000E+01 0. -1.
         25    2    1    2    0    0  0.00000000000E+00  0.00000000000E+00 -0.11999277169E+04  0.12064209906E+04  0.12500032275E+03 0.  0.
    9000005    1    3    3    0    0 -0.63265108997E+01  0.23752029700E+02 -0.11544825681E+04  0.11547446400E+04  0.10000000000E+01 0.  0.
    9000005    1    3    3    0    0  0.63265108997E+01 -0.23752029700E+02 -0.45445148892E+02  0.51676350615E+02  0.10000000000E+01 0.  0.
<mgrwt>
<rscale>  0 0.12500032E+03</rscale>
<asrwt>0</asrwt>
<pdfrwt beam="1">  1        4 0.49948355E-03 0.12500032E+03</pdfrwt>
<pdfrwt beam="2">  1       -4 0.18510339E+00 0.12500032E+03</pdfrwt>
<totfact> 0.24545183E+03</totfact>
</mgrwt>
</event>
<event>
 5    1  0.3309219E-002  0.1250108E+03  0.7818608E-02  0.1235052E+00
          4   -1    0    0  501    0  0.00000000000E+00  0.00000000000E+00  0.73304795487E+02  0.73315795988E+02  0.12700000000E+01 0.  1.
         -4   -1    0    0    0  501 -0.00000000000E+00 -0.00000000000E+00 -0.53274449787E+02  0.53289585287E+02  0.12700000000E+01 0.  1.
         25    2    1    2    0    0  0.00000000000E+00  0.00000000000E+00  0.20030345700E+02  0.12660538128E+03  0.12501083081E+03 0.  0.
    9000005    1    3    3    0    0  0.10106607638E+01  0.49582041193E+01  0.73101957321E+02  0.73283704788E+02  0.10000000000E+01 0.  0.
    9000005    1    3    3    0    0 -0.10106607638E+01 -0.49582041193E+01 -0.53071611622E+02  0.53321676487E+02  0.10000000000E+01 0.  0.
<mgrwt>
<rscale>  0 0.12501083E+03</rscale>
<asrwt>0</asrwt>
<pdfrwt beam="1">  1        4 0.11279671E-01 0.12501083E+03</pdfrwt>
<pdfrwt beam="2">  1       -4 0.81980797E-02 0.12501083E+03</pdfrwt>
<totfact> 0.10415185E+04</totfact>
</mgrwt>
</event>
<event>
 5    1  0.3309219E-002  0.1250006E+03  0.7818608E-02  0.1235068E+00
          4   -1    0    0  501    0  0.00000000000E+00  0.00000000000E+00  0.67591356135E+03  0.67591475447E+03  0.12700000000E+01 0. -1.
         -4   -1    0    0    0  501 -0.00000000000E+00 -0.00000000000E+00 -0.57082861946E+01  0.58478569818E+01  0.12700000000E+01 0. -1.
         25    2    1    2    0    0  0.00000000000E+00  0.00000000000E+00  0.67020527515E+03  0.68176261146E+03  0.12500059013E+03 0.  0.
    9000005    1    3    3    0    0  0.28715547429E+02  0.37393072131E+02  0.55881696445E+03  0.56080319566E+03  0.10000000000E+01 0.  0.
    9000005    1    3    3    0    0 -0.28715547429E+02 -0.37393072131E+02  0.11138831071E+03  0.12095941580E+03  0.10000000000E+01 0.  0.
<mgrwt>
<rscale>  0 0.12500059E+03</rscale>
<asrwt>0</asrwt>
<pdfrwt beam="1">  1        4 0.10399745E+00 0.12500059E+03</pdfrwt>
<pdfrwt beam="2">  1       -4 0.88902657E-03 0.12500059E+03</pdfrwt>
<totfact> 0.44066528E+03</totfact>
</mgrwt>
</event>
<event>
 5    1  0.3309219E-002  0.1250044E+03  0.7818608E-02  0.1235062E+00
          4   -1    0    0  501    0  0.00000000000E+00  0.00000000000E+00  0.64023768566E+02  0.64036363431E+02  0.12700000000E+01 0.  1.
         -4   -1    0    0    0  501 -0.00000000000E+00 -0.00000000000E+00 -0.60991566107E+02  0.61004786994E+02  0.12700000000E+01 0.  1.
         25    2    1    2    0    0  0.00000000000E+00  0.00000000000E+00  0.30322024589E+01  0.12504115042E+03  0.12500438011E+03 0.  0.
    9000005    1    3    3    0    0  0.31096561977E+02 -0.31983038130E+02 -0.42264488034E+02  0.61458911832E+02  0.10000000000E+01 0.  0.
    9000005    1    3    3    0    0 -0.31096561977E+02  0.31983038130E+02  0.45296690493E+02  0.63582238593E+02  0.10000000000E+01 0.  0.
<mgrwt>
<rscale>  0 0.12500438E+03</rscale>
<asrwt>0</asrwt>
<pdfrwt beam="1">  1        4 0.98517963E-02 0.12500438E+03</pdfrwt>
<pdfrwt beam="2">  1       -4 0.93853037E-02 0.12500438E+03</pdfrwt>
<totfact> 0.10450934E+04</totfact>
</mgrwt>
</event>
<event>
 5    1  0.3309219E-002  0.1249980E+03  0.7818608E-02  0.1235072E+00
          4   -1    0    0  501    0  0.00000000000E+00  0.00000000000E+00  0.24961797619E+03  0.24962120690E+03  0.12700000000E+01 0. -1.
         -4   -1    0    0    0  501 -0.00000000000E+00 -0.00000000000E+00 -0.15619311512E+02  0.15670858052E+02  0.12700000000E+01 0. -1.
         25    2    1    2    0    0  0.00000000000E+00  0.00000000000E+00  0.23399866467E+03  0.26529206495E+03  0.12499801862E+03 0.  0.
    9000005    1    3    3    0    0  0.32293520437E+02  0.49341614199E+02  0.73108850274E+02  0.93932796947E+02  0.10000000000E+01 0.  0.
    9000005    1    3    3    0    0 -0.32293520437E+02 -0.49341614199E+02  0.16088981440E+03  0.17135926801E+03  0.10000000000E+01 0.  0.
<mgrwt>
<rscale>  0 0.12499802E+03</rscale>
<asrwt>0</asrwt>
<pdfrwt beam="1">  1        4 0.38406974E-01 0.12499802E+03</pdfrwt>
<pdfrwt beam="2">  1       -4 0.24071850E-02 0.12499802E+03</pdfrwt>
<totfact> 0.80172621E+03</totfact>
</mgrwt>
</event>
<event>
 5    1  0.3309219E-002  0.1250115E+03  0.7818608E-02  0.1235051E+00
         -4   -1    0    0    0  501 -0.00000000000E+00  0.00000000000E+00  0.46537507319E+02  0.46554833127E+02  0.12700000000E+01 0. -1.
          4   -1    0    0  501    0  0.00000000000E+00 -0.00000000000E+00 -0.83915299664E+02  0.83924909399E+02  0.12700000000E+01 0. -1.
         25    2    1    2    0    0  0.00000000000E+00  0.00000000000E+00 -0.37377792345E+02  0.13047974253E+03  0.12501145487E+03 0.  0.
    9000005    1    3    3    0    0  0.27968258950E+02 -0.18167088912E+02 -0.73856372039E+02  0.81043385412E+02  0.10000000000E+01 0.  0.
    9000005    1    3    3    0    0 -0.27968258950E+02  0.18167088912E+02  0.36478579694E+02  0.49436357114E+02  0.10000000000E+01 0.  0.
<mgrwt>
<rscale>  0 0.12501145E+03</rscale>
<asrwt>0</asrwt>
<pdfrwt beam="2">  1        4 0.12912118E-01 0.12501145E+03</pdfrwt>
<pdfrwt beam="1">  1       -4 0.71616885E-02 0.12501145E+03</pdfrwt>
<totfact> 0.10331584E+04</totfact>
</mgrwt>
</event>
<event>
 5    1  0.3309219E-002  0.1249968E+03  0.7818608E-02  0.1235074E+00
          4   -1    0    0  501    0  0.00000000000E+00  0.00000000000E+00  0.12902739414E+02  0.12965090990E+02  0.12700000000E+01 0. -1.
         -4   -1    0    0    0  501 -0.00000000000E+00 -0.00000000000E+00 -0.30193708699E+03  0.30193975790E+03  0.12700000000E+01 0. -1.
         25    2    1    2    0    0  0.00000000000E+00  0.00000000000E+00 -0.28903434757E+03  0.31490484889E+03  0.12499683906E+03 0.  0.
    9000005    1    3    3    0    0  0.10261689337E+02 -0.31247646185E+02 -0.10653880073E+02  0.34586454296E+02  0.10000000000E+01 0.  0.
    9000005    1    3    3    0    0 -0.10261689337E+02  0.31247646185E+02 -0.27838046750E+03  0.28031839459E+03  0.10000000000E+01 0.  0.
<mgrwt>
<rscale>  0 0.12499684E+03</rscale>
<asrwt>0</asrwt>
<pdfrwt beam="1">  1        4 0.19900388E-02 0.12499684E+03</pdfrwt>
<pdfrwt beam="2">  1       -4 0.46456856E-01 0.12499684E+03</pdfrwt>
<totfact> 0.73771425E+03</totfact>
</mgrwt>
</event>
<event>
 5    1  0.3309219E-002  0.1249909E+03  0.7818608E-02  0.1235083E+00
          4   -1    0    0  501    0  0.00000000000E+00  0.00000000000E+00  0.27890289381E+02  0.27919189489E+02  0.12700000000E+01 0. -1.
         -4   -1    0    0    0  501 -0.00000000000E+00 -0.00000000000E+00 -0.13993305295E+03  0.13993881594E+03  0.12700000000E+01 0. -1.
         25    2    1    2    0    0  0.00000000000E+00  0.00000000000E+00 -0.11204276357E+03  0.16785800543E+03  0.12499091615E+03 0.  0.
    9000005    1    3    3    0    0  0.36964486899E+02  0.16063255490E+02 -0.12015086989E+03  0.12673449808E+03  0.10000000000E+01 0.  0.
    9000005    1    3    3    0    0 -0.36964486899E+02 -0.16063255490E+02  0.81081063224E+01  0.41123507350E+02  0.10000000000E+01 0.  0.
<mgrwt>
<rscale>  0 0.12499092E+03</rscale>
<asrwt>0</asrwt>
<pdfrwt beam="1">  1        4 0.42934802E-02 0.12499092E+03</pdfrwt>
<pdfrwt beam="2">  1       -4 0.21530828E-01 0.12499092E+03</pdfrwt>
<totfact> 0.95868409E+03</totfact>
</mgrwt>
</event>
<event>
 5    1  0.3309219E-002  0.1250001E+03  0.7818608E-02  0.1235069E+00
         -4   -1    0    0    0  501 -0.00000000000E+00  0.00000000000E+00  0.10206786115E+03  0.10207576196E+03  0.12700000000E+01 0. -1.
          4   -1    0    0  501    0  0.00000000000E+00 -0.00000000000E+00 -0.38251226650E+02  0.38272303827E+02  0.12700000000E+01 0. -1.
         25    2    1    2    0    0  0.00000000000E+00  0.00000000000E+00  0.63816634499E+02  0.14034806579E+03  0.12500006693E+03 0.  0.
    9000005    1    3    3    0    0 -0.26869386807E+02 -0.30601716161E+02 -0.21312413048E+02  0.45974426906E+02  0.10000000000E+01 0.  0.
    9000005    1    3    3    0    0  0.26869386807E+02  0.30601716161E+02  0.85129047547E+02  0.94373638881E+02  0.10000000000E+01 0.  0.
<mgrwt>
<rscale>  0 0.12500007E+03</rscale>
<asrwt>0</asrwt>
<pdfrwt beam="2">  1        4 0.58870332E-02 0.12500007E+03</pdfrwt>
<pdfrwt beam="1">  1       -4 0.15704977E-01 0.12500007E+03</pdfrwt>
<totfact> 0.10126362E+04</totfact>
</mgrwt>
</event>
<event>
 5    1  0.3309219E-002  0.1250000E+03  0.7818608E-02  0.1235069E+00
          4   -1    0    0  501    0  0.00000000000E+00  0.00000000000E+00  0.80266143323E+02  0.80276189895E+02  0.12700000000E+01 0. -1.
         -4   -1    0    0    0  501 -0.00000000000E+00 -0.00000000000E+00 -0.48644839808E+02  0.48661415310E+02  0.12700000000E+01 0. -1.
         25    2    1    2    0    0  0.00000000000E+00  0.00000000000E+00  0.31621303516E+02  0.12893760520E+03  0.12499999680E+03 0.  0.
    9000005    1    3    3    0    0  0.22838570511E+02 -0.33914235051E+02  0.64559017825E+02  0.76424095838E+02  0.10000000000E+01 0.  0.
    9000005    1    3    3    0    0 -0.22838570511E+02  0.33914235051E+02 -0.32937714310E+02  0.52513509367E+02  0.10000000000E+01 0.  0.
<mgrwt>
<rscale>  0 0.12500000E+03</rscale>
<asrwt>0</asrwt>
<pdfrwt beam="1">  1        4 0.12350685E-01 0.12500000E+03</pdfrwt>
<pdfrwt beam="2">  1       -4 0.74858694E-02 0.12500000E+03</pdfrwt>
<totfact> 0.10367288E+04</totfact>
</mgrwt>
</event>
<event>
 5    1  0.3309219E-002  0.1249957E+03  0.7818608E-02  0.1235076E+00
          4   -1    0    0  501    0  0.00000000000E+00  0.00000000000E+00  0.18385897660E+02  0.18429707886E+02  0.12700000000E+01 0. -1.
         -4   -1    0    0    0  501 -0.00000000000E+00 -0.00000000000E+00 -0.21214591345E+03  0.21214971481E+03  0.12700000000E+01 0. -1.
         25    2    1    2    0    0  0.00000000000E+00  0.00000000000E+00 -0.19376001579E+03  0.23057942269E+03  0.12499570573E+03 0.  0.
    9000005    1    3    3    0    0  0.36882827585E+02 -0.32037362492E+02 -0.16875809886E+03  0.17569015766E+03  0.10000000000E+01 0.  0.
    9000005    1    3    3    0    0 -0.36882827585E+02  0.32037362492E+02 -0.25001916926E+02  0.54889265035E+02  0.10000000000E+01 0.  0.
<mgrwt>
<rscale>  0 0.12499571E+03</rscale>
<asrwt>0</asrwt>
<pdfrwt beam="1">  1        4 0.28322622E-02 0.12499571E+03</pdfrwt>
<pdfrwt beam="2">  1       -4 0.32641493E-01 0.12499571E+03</pdfrwt>
<totfact> 0.85228871E+03</totfact>
</mgrwt>
</event>
<event>
 5    1  0.3309219E-002  0.1249982E+03  0.7818608E-02  0.1235072E+00
          4   -1    0    0  501    0  0.00000000000E+00  0.00000000000E+00  0.10240494369E+04  0.10240502244E+04  0.12700000000E+01 0. -1.
         -4   -1    0    0    0  501 -0.00000000000E+00 -0.00000000000E+00 -0.37078785956E+01  0.39193448023E+01  0.12700000000E+01 0. -1.
         25    2    1    2    0    0  0.00000000000E+00  0.00000000000E+00  0.10203415583E+04  0.10279695692E+04  0.12499815848E+03 0.  0.
    9000005    1    3    3    0    0  0.62434226716E+02  0.66418284365E+00  0.48894568286E+03  0.49291718837E+03  0.10000000000E+01 0.  0.
    9000005    1    3    3    0    0 -0.62434226716E+02 -0.66418284365E+00  0.53139587541E+03  0.53505238080E+03  0.10000000000E+01 0.  0.
<mgrwt>
<rscale>  0 0.12499816E+03</rscale>
<asrwt>0</asrwt>
<pdfrwt beam="1">  1        4 0.15756237E+00 0.12499816E+03</pdfrwt>
<pdfrwt beam="2">  1       -4 0.58677017E-03 0.12499816E+03</pdfrwt>
<totfact> 0.29693930E+03</totfact>
</mgrwt>
</event>
<event>
 5    1  0.3309219E-002  0.1249942E+03  0.7818608E-02  0.1235078E+00
          4   -1    0    0  501    0  0.00000000000E+00  0.00000000000E+00  0.22591644185E+04  0.22591647754E+04  0.12700000000E+01 0.  1.
         -4   -1    0    0    0  501 -0.00000000000E+00 -0.00000000000E+00 -0.14952759228E+01  0.19618231534E+01  0.12700000000E+01 0.  1.
         25    2    1    2    0    0  0.00000000000E+00  0.00000000000E+00  0.22576691425E+04  0.22611265986E+04  0.12499415046E+03 0.  0.
    9000005    1    3    3    0    0  0.61008491303E+02 -0.11079577622E+02  0.98860448246E+03  0.99054763429E+03  0.10000000000E+01 0.  0.
    9000005    1    3    3    0    0 -0.61008491303E+02  0.11079577622E+02  0.12690646601E+04  0.12705789643E+04  0.10000000000E+01 0.  0.
<mgrwt>
<rscale>  0 0.12499415E+03</rscale>
<asrwt>0</asrwt>
<pdfrwt beam="1">  1        4 0.34759934E+00 0.12499415E+03</pdfrwt>
<pdfrwt beam="2">  1       -4 0.26595841E-03 0.12499415E+03</pdfrwt>
<totfact> 0.68272437E+02</totfact>
</mgrwt>
</event>
<event>
 5    1  0.3309219E-002  0.1250021E+03  0.7818608E-02  0.1235066E+00
         -4   -1    0    0    0  501 -0.00000000000E+00  0.00000000000E+00  0.33646637457E+03  0.33646877138E+03  0.12700000000E+01 0. -1.
          4   -1    0    0  501    0  0.00000000000E+00 -0.00000000000E+00 -0.11572842800E+02  0.11642318947E+02  0.12700000000E+01 0. -1.
         25    2    1    2    0    0  0.00000000000E+00  0.00000000000E+00  0.32489353177E+03  0.34811109033E+03  0.12500209688E+03 0.  0.
    9000005    1    3    3    0    0 -0.26433543401E+02  0.23438260221E+02  0.18891015607E+02  0.40074364993E+02  0.10000000000E+01 0.  0.
    9000005    1    3    3    0    0  0.26433543401E+02 -0.23438260221E+02  0.30600251616E+03  0.30803672533E+03  0.10000000000E+01 0.  0.
<mgrwt>
<rscale>  0 0.12500210E+03</rscale>
<asrwt>0</asrwt>
<pdfrwt beam="2">  1        4 0.17859660E-02 0.12500210E+03</pdfrwt>
<pdfrwt beam="1">  1       -4 0.51769588E-01 0.12500210E+03</pdfrwt>
<totfact> 0.69929611E+03</totfact>
</mgrwt>
</event>
<event>
 5    1  0.3309219E-002  0.1250018E+03  0.7818608E-02  0.1235067E+00
          4   -1    0    0  501    0  0.00000000000E+00  0.00000000000E+00  0.24849001929E+03  0.24849326468E+03  0.12700000000E+01 0. -1.
         -4   -1    0    0    0  501 -0.00000000000E+00 -0.00000000000E+00 -0.15691389561E+02  0.15742700097E+02  0.12700000000E+01 0. -1.
         25    2    1    2    0    0  0.00000000000E+00  0.00000000000E+00  0.23279862973E+03  0.26423596477E+03  0.12500177228E+03 0.  0.
    9000005    1    3    3    0    0  0.28501798369E+02  0.49532188987E+02  0.62940420307E+02  0.85019331711E+02  0.10000000000E+01 0.  0.
    9000005    1    3    3    0    0 -0.28501798369E+02 -0.49532188987E+02  0.16985820943E+03  0.17921663306E+03  0.10000000000E+01 0.  0.
<mgrwt>
<rscale>  0 0.12500177E+03</rscale>
<asrwt>0</asrwt>
<pdfrwt beam="1">  1        4 0.38233429E-01 0.12500177E+03</pdfrwt>
<pdfrwt beam="2">  1       -4 0.24182566E-02 0.12500177E+03</pdfrwt>
<totfact> 0.80312087E+03</totfact>
</mgrwt>
</event>
<event>
 5    1  0.3309219E-002  0.1249986E+03  0.7818608E-02  0.1235071E+00
          4   -1    0    0  501    0  0.00000000000E+00  0.00000000000E+00  0.27673589114E+02  0.27702715291E+02  0.12700000000E+01 0.  1.
         -4   -1    0    0    0  501 -0.00000000000E+00 -0.00000000000E+00 -0.14104505120E+03  0.14105076877E+03  0.12700000000E+01 0.  1.
         25    2    1    2    0    0  0.00000000000E+00  0.00000000000E+00 -0.11337146209E+03  0.16875348406E+03  0.12499859985E+03 0.  0.
    9000005    1    3    3    0    0 -0.32604860596E+02 -0.53097000328E+02 -0.63131265686E+02  0.88706961877E+02  0.10000000000E+01 0.  0.
    9000005    1    3    3    0    0  0.32604860596E+02  0.53097000328E+02 -0.50240196404E+02  0.80046522179E+02  0.10000000000E+01 0.  0.
<mgrwt>
<rscale>  0 0.12499860E+03</rscale>
<asrwt>0</asrwt>
<pdfrwt beam="1">  1        4 0.42601556E-02 0.12499860E+03</pdfrwt>
<pdfrwt beam="2">  1       -4 0.21701919E-01 0.12499860E+03</pdfrwt>
<totfact> 0.95684235E+03</totfact>
</mgrwt>
</event>
<event>
 5    1  0.3309219E-002  0.1249956E+03  0.7818608E-02  0.1235076E+00
          4   -1    0    0  501    0  0.00000000000E+00  0.00000000000E+00  0.62118856857E+03  0.62118986681E+03  0.12700000000E+01 0.  1.
         -4   -1    0    0    0  501 -0.00000000000E+00 -0.00000000000E+00 -0.62224605387E+01  0.63507413076E+01  0.12700000000E+01 0.  1.
         25    2    1    2    0    0  0.00000000000E+00  0.00000000000E+00  0.61496610803E+03  0.62754060811E+03  0.12499560314E+03 0.  0.
    9000005    1    3    3    0    0 -0.41932494874E+02 -0.38328231060E+02  0.17679680895E+03  0.18570271694E+03  0.10000000000E+01 0.  0.
    9000005    1    3    3    0    0  0.41932494874E+02  0.38328231060E+02  0.43816929908E+03  0.44183789118E+03  0.10000000000E+01 0.  0.
<mgrwt>
<rscale>  0 0.12499560E+03</rscale>
<asrwt>0</asrwt>
<pdfrwt beam="1">  1        4 0.95577421E-01 0.12499560E+03</pdfrwt>
<pdfrwt beam="2">  1       -4 0.96726942E-03 0.12499560E+03</pdfrwt>
<totfact> 0.47178622E+03</totfact>
</mgrwt>
</event>
<event>
 5    1  0.3309219E-002  0.1249996E+03  0.7818608E-02  0.1235070E+00
         -4   -1    0    0    0  501 -0.00000000000E+00  0.00000000000E+00  0.22635827562E+02  0.22671426717E+02  0.12700000000E+01 0. -1.
          4   -1    0    0  501    0  0.00000000000E+00 -0.00000000000E+00 -0.17239477181E+03  0.17239944967E+03  0.12700000000E+01 0. -1.
         25    2    1    2    0    0  0.00000000000E+00  0.00000000000E+00 -0.14975894425E+03  0.19507087639E+03  0.12499962173E+03 0.  0.
    9000005    1    3    3    0    0 -0.37038546615E+02 -0.49888120864E+02 -0.64463568269E+02  0.89538986886E+02  0.10000000000E+01 0.  0.
    9000005    1    3    3    0    0  0.37038546615E+02  0.49888120864E+02 -0.85295375979E+02  0.10553188950E+03  0.10000000000E+01 0.  0.
<mgrwt>
<rscale>  0 0.12499962E+03</rscale>
<asrwt>0</asrwt>
<pdfrwt beam="2">  1        4 0.26525370E-01 0.12499962E+03</pdfrwt>
<pdfrwt beam="1">  1       -4 0.34855334E-02 0.12499962E+03</pdfrwt>
<totfact> 0.90973179E+03</totfact>
</mgrwt>
</event>
<event>
 5    1  0.3309219E-002  0.1250136E+03  0.7818608E-02  0.1235048E+00
          4   -1    0    0  501    0  0.00000000000E+00  0.00000000000E+00  0.40785007466E+03  0.40785205197E+03  0.12700000000E+01 0.  1.
         -4   -1    0    0    0  501 -0.00000000000E+00 -0.00000000000E+00 -0.95356442037E+01  0.96198446130E+01  0.12700000000E+01 0.  1.
         25    2    1    2    0    0  0.00000000000E+00  0.00000000000E+00  0.39831443045E+03  0.41747189658E+03  0.12501359498E+03 0.  0.
    9000005    1    3    3    0    0  0.48973784378E+02  0.30556646915E+02  0.27916101737E+03  0.28506843713E+03  0.10000000000E+01 0.  0.
    9000005    1    3    3    0    0 -0.48973784378E+02 -0.30556646915E+02  0.11915341308E+03  0.13240345946E+03  0.10000000000E+01 0.  0.
<mgrwt>
<rscale>  0 0.12501359E+03</rscale>
<asrwt>0</asrwt>
<pdfrwt beam="1">  1        4 0.62752799E-01 0.12501359E+03</pdfrwt>
<pdfrwt beam="2">  1       -4 0.14736511E-02 0.12501359E+03</pdfrwt>
<totfact> 0.62869380E+03</totfact>
</mgrwt>
</event>
<event>
 5    1  0.3309219E-002  0.1249999E+03  0.7818608E-02  0.1235069E+00
          4   -1    0    0  501    0  0.00000000000E+00  0.00000000000E+00  0.93499059616E+02  0.93507684438E+02  0.12700000000E+01 0. -1.
         -4   -1    0    0    0  501 -0.00000000000E+00 -0.00000000000E+00 -0.41758241048E+02  0.41777548939E+02  0.12700000000E+01 0. -1.
         25    2    1    2    0    0  0.00000000000E+00  0.00000000000E+00  0.51740818568E+02  0.13528523338E+03  0.12499992826E+03 0.  0.
    9000005    1    3    3    0    0  0.27840037808E+02 -0.55518731480E+02  0.18383997147E+02  0.64779384077E+02  0.10000000000E+01 0.  0.
    9000005    1    3    3    0    0 -0.27840037808E+02  0.55518731480E+02  0.33356821421E+02  0.70505849301E+02  0.10000000000E+01 0.  0.
<mgrwt>
<rscale>  0 0.12499993E+03</rscale>
<asrwt>0</asrwt>
<pdfrwt beam="1">  1        4 0.14386619E-01 0.12499993E+03</pdfrwt>
<pdfrwt beam="2">  1       -4 0.64264935E-02 0.12499993E+03</pdfrwt>
<totfact> 0.10232079E+04</totfact>
</mgrwt>
</event>
<event>
 4    1  0.3309219E-002  0.1250884E+03  0.7818608E-02  0.1234931E+00
         -4   -1    0    0    0  501 -0.00000000000E+00  0.00000000000E+00  0.20634727093E+02  0.20673772327E+02  0.12700000000E+01 0. -1.
          4   -1    0    0  501    0  0.00000000000E+00 -0.00000000000E+00 -0.18935216152E+03  0.18935642047E+03  0.12700000000E+01 0. -1.
    9000005    1    1    2    0    0  0.16810781443E+02  0.37670100511E+02 -0.54407041988E+01  0.41620188700E+02  0.10000000000E+01 0.  0.
    9000005    1    1    2    0    0 -0.16810781443E+02 -0.37670100511E+02 -0.16327673023E+03  0.16841000410E+03  0.10000000000E+01 0.  0.
<mgrwt>
<rscale>  0 0.12508841E+03</rscale>
<asrwt>0</asrwt>
<pdfrwt beam="2">  1        4 0.29134432E-01 0.12508841E+03</pdfrwt>
<pdfrwt beam="1">  1       -4 0.31779046E-02 0.12508841E+03</pdfrwt>
<totfact> 0.88296320E+03</totfact>
</mgrwt>
</event>
<event>
 5    1  0.3309219E-002  0.1249949E+03  0.7818608E-02  0.1235077E+00
          4   -1    0    0  501    0  0.00000000000E+00  0.00000000000E+00  0.99310407184E+02  0.99318527351E+02  0.12700000000E+01 0. -1.
         -4   -1    0    0    0  501 -0.00000000000E+00 -0.00000000000E+00 -0.39310560325E+02  0.39331069818E+02  0.12700000000E+01 0. -1.
         25    2    1    2    0    0  0.00000000000E+00  0.00000000000E+00  0.59999846859E+02  0.13864959717E+03  0.12499491658E+03 0.  0.
    9000005    1    3    3    0    0  0.33055849911E+02 -0.46744416149E+02  0.22200540474E+01  0.57303213648E+02  0.10000000000E+01 0.  0.
    9000005    1    3    3    0    0 -0.33055849911E+02  0.46744416149E+02  0.57779792812E+02  0.81346383521E+02  0.10000000000E+01 0.  0.
<mgrwt>
<rscale>  0 0.12499492E+03</rscale>
<asrwt>0</asrwt>
<pdfrwt beam="1">  1        4 0.15280726E-01 0.12499492E+03</pdfrwt>
<pdfrwt beam="2">  1       -4 0.60499809E-02 0.12499492E+03</pdfrwt>
<totfact> 0.10162815E+04</totfact>
</mgrwt>
</event>
<event>
 5    1  0.3309219E-002  0.1250055E+03  0.7818608E-02  0.1235061E+00
          4   -1    0    0  501    0  0.00000000000E+00  0.00000000000E+00  0.74758795250E+02  0.74769581832E+02  0.12700000000E+01 0. -1.
         -4   -1    0    0    0  501 -0.00000000000E+00 -0.00000000000E+00 -0.52233712417E+02  0.52249149398E+02  0.12700000000E+01 0. -1.
         25    2    1    2    0    0  0.00000000000E+00  0.00000000000E+00  0.22525082833E+02  0.12701873123E+03  0.12500551479E+03 0.  0.
    9000005    1    3    3    0    0  0.13423892622E+02 -0.35759888421E+02  0.61522511782E+02  0.72422302981E+02  0.10000000000E+01 0.  0.
    9000005    1    3    3    0    0 -0.13423892622E+02  0.35759888421E+02 -0.38997428949E+02  0.54596428250E+02  0.10000000000E+01 0.  0.
<mgrwt>
<rscale>  0 0.12500551E+03</rscale>
<asrwt>0</asrwt>
<pdfrwt beam="1">  1        4 0.11503370E-01 0.12500551E+03</pdfrwt>
<pdfrwt beam="2">  1       -4 0.80379730E-02 0.12500551E+03</pdfrwt>
<totfact> 0.10407443E+04</totfact>
</mgrwt>
</event>
<event>
 5    1  0.3309219E-002  0.1250003E+03  0.7818608E-02  0.1235069E+00
         -4   -1    0    0    0  501 -0.00000000000E+00  0.00000000000E+00  0.49747343678E+02  0.49763551953E+02  0.12700000000E+01 0.  1.
          4   -1    0    0  501    0  0.00000000000E+00 -0.00000000000E+00 -0.78488027477E+02  0.78498301620E+02  0.12700000000E+01 0.  1.
         25    2    1    2    0    0  0.00000000000E+00  0.00000000000E+00 -0.28740683799E+02  0.12826185357E+03  0.12500030471E+03 0.  0.
    9000005    1    3    3    0    0 -0.18043788409E+02 -0.27599589863E+02  0.40099152289E+02  0.51925501202E+02  0.10000000000E+01 0.  0.
    9000005    1    3    3    0    0  0.18043788409E+02  0.27599589863E+02 -0.68839836088E+02  0.76336352371E+02  0.10000000000E+01 0.  0.
<mgrwt>
<rscale>  0 0.12500030E+03</rscale>
<asrwt>0</asrwt>
<pdfrwt beam="2">  1        4 0.12077118E-01 0.12500030E+03</pdfrwt>
<pdfrwt beam="1">  1       -4 0.76554745E-02 0.12500030E+03</pdfrwt>
<totfact> 0.10381765E+04</totfact>
</mgrwt>
</event>
<event>
 5    1  0.3309219E-002  0.1249993E+03  0.7818608E-02  0.1235070E+00
         -4   -1    0    0    0  501 -0.00000000000E+00  0.00000000000E+00  0.21932711044E+03  0.21933078734E+03  0.12700000000E+01 0. -1.
          4   -1    0    0  501    0  0.00000000000E+00 -0.00000000000E+00 -0.17783493623E+02  0.17828784183E+02  0.12700000000E+01 0. -1.
         25    2    1    2    0    0  0.00000000000E+00  0.00000000000E+00  0.20154361682E+03  0.23715957152E+03  0.12499933154E+03 0.  0.
    9000005    1    3    3    0    0  0.57013060729E+02 -0.14201955909E+02  0.60389292920E+02  0.84261802406E+02  0.10000000000E+01 0.  0.
    9000005    1    3    3    0    0 -0.57013060729E+02  0.14201955909E+02  0.14115432390E+03  0.15289776911E+03  0.10000000000E+01 0.  0.
<mgrwt>
<rscale>  0 0.12499933E+03</rscale>
<asrwt>0</asrwt>
<pdfrwt beam="2">  1        4 0.27396890E-02 0.12499933E+03</pdfrwt>
<pdfrwt beam="1">  1       -4 0.33746397E-01 0.12499933E+03</pdfrwt>
<totfact> 0.84223482E+03</totfact>
</mgrwt>
</event>
<event>
 5    1  0.3309219E-002  0.1249996E+03  0.7818608E-02  0.1235070E+00
          4   -1    0    0  501    0  0.00000000000E+00  0.00000000000E+00  0.31643993823E+03  0.31644248672E+03  0.12700000000E+01 0.  1.
         -4   -1    0    0    0  501 -0.00000000000E+00 -0.00000000000E+00 -0.12309017838E+02  0.12374361404E+02  0.12700000000E+01 0.  1.
         25    2    1    2    0    0  0.00000000000E+00  0.00000000000E+00  0.30413092039E+03  0.32881684813E+03  0.12499961151E+03 0.  0.
    9000005    1    3    3    0    0  0.29683029016E+02  0.29593948019E+02  0.27399167263E+03  0.27718102503E+03  0.10000000000E+01 0.  0.
    9000005    1    3    3    0    0 -0.29683029016E+02 -0.29593948019E+02  0.30139247761E+02  0.51635823093E+02  0.10000000000E+01 0.  0.
<mgrwt>
<rscale>  0 0.12499961E+03</rscale>
<asrwt>0</asrwt>
<pdfrwt beam="1">  1        4 0.48688287E-01 0.12499961E+03</pdfrwt>
<pdfrwt beam="2">  1       -4 0.18989176E-02 0.12499961E+03</pdfrwt>
<totfact> 0.72120226E+03</totfact>
</mgrwt>
</event>
<event>
 5    1  0.3309219E-002  0.1250003E+03  0.7818608E-02  0.1235069E+00
         -4   -1    0    0    0  501 -0.00000000000E+00  0.00000000000E+00  0.16378561267E+02  0.16427725624E+02  0.12700000000E+01 0.  1.
          4   -1    0    0  501    0  0.00000000000E+00 -0.00000000000E+00 -0.23809073048E+03  0.23809411761E+03  0.12700000000E+01 0.  1.
         25    2    1    2    0    0  0.00000000000E+00  0.00000000000E+00 -0.22171216922E+03  0.25452184324E+03  0.12500033083E+03 0.  0.
    9000005    1    3    3    0    0  0.46259159241E+02  0.18244107854E+02 -0.33790009288E+02  0.60129210978E+02  0.10000000000E+01 0.  0.
    9000005    1    3    3    0    0 -0.46259159241E+02 -0.18244107854E+02 -0.18792215993E+03  0.19439263226E+03  0.10000000000E+01 0.  0.
<mgrwt>
<rscale>  0 0.12500033E+03</rscale>
<asrwt>0</asrwt>
<pdfrwt beam="2">  1        4 0.36633383E-01 0.12500033E+03</pdfrwt>
<pdfrwt beam="1">  1       -4 0.25238212E-02 0.12500033E+03</pdfrwt>
<totfact> 0.81680441E+03</totfact>
</mgrwt>
</event>
<event>
 5    1  0.3309219E-002  0.1250049E+03  0.7818608E-02  0.1235062E+00
          4   -1    0    0  501    0  0.00000000000E+00  0.00000000000E+00  0.51192992276E+02  0.51208742986E+02  0.12700000000E+01 0.  1.
         -4   -1    0    0    0  501 -0.00000000000E+00 -0.00000000000E+00 -0.76277649181E+02  0.76288221008E+02  0.12700000000E+01 0.  1.
         25    2    1    2    0    0  0.00000000000E+00  0.00000000000E+00 -0.25084656904E+02  0.12749696399E+03  0.12500494316E+03 0.  0.
    9000005    1    3    3    0    0 -0.62472737743E+02 -0.15236599240E+01 -0.13182904051E+02  0.63874513383E+02  0.10000000000E+01 0.  0.
    9000005    1    3    3    0    0  0.62472737743E+02  0.15236599240E+01 -0.11901752854E+02  0.63622450610E+02  0.10000000000E+01 0.  0.
<mgrwt>
<rscale>  0 0.12500494E+03</rscale>
<asrwt>0</asrwt>
<pdfrwt beam="1">  1        4 0.78778698E-02 0.12500494E+03</pdfrwt>
<pdfrwt beam="2">  1       -4 0.11737048E-01 0.12500494E+03</pdfrwt>
<totfact> 0.10397206E+04</totfact>
</mgrwt>
</event>
<event>
 5    1  0.3309219E-002  0.1250023E+03  0.7818608E-02  0.1235066E+00
         -4   -1    0    0    0  501 -0.00000000000E+00  0.00000000000E+00  0.76457448952E+03  0.76457554429E+03  0.12700000000E+01 0.  1.
          4   -1    0    0  501    0  0.00000000000E+00 -0.00000000000E+00 -0.50292469726E+01  0.51871210812E+01  0.12700000000E+01 0.  1.
         25    2    1    2    0    0  0.00000000000E+00  0.00000000000E+00  0.75954524255E+03  0.76976266537E+03  0.12500234206E+03 0.  0.
    9000005    1    3    3    0    0  0.15251685111E+02 -0.36277230869E+02  0.80825076723E+02  0.89901859856E+02  0.10000000000E+01 0.  0.
    9000005    1    3    3    0    0 -0.15251685111E+02  0.36277230869E+02  0.67872016583E+03  0.67986080552E+03  0.10000000000E+01 0.  0.
<mgrwt>
<rscale>  0 0.12500234E+03</rscale>
<asrwt>0</asrwt>
<pdfrwt beam="2">  1        4 0.78595602E-03 0.12500234E+03</pdfrwt>
<pdfrwt beam="1">  1       -4 0.11763901E+00 0.12500234E+03</pdfrwt>
<totfact> 0.39644234E+03</totfact>
</mgrwt>
</event>
<event>
 5    1  0.3309219E-002  0.1249960E+03  0.7818608E-02  0.1235076E+00
          4   -1    0    0  501    0  0.00000000000E+00  0.00000000000E+00  0.11459478302E+03  0.11460182021E+03  0.12700000000E+01 0.  1.
         -4   -1    0    0    0  501 -0.00000000000E+00 -0.00000000000E+00 -0.34065414170E+02  0.34089079521E+02  0.12700000000E+01 0.  1.
         25    2    1    2    0    0  0.00000000000E+00  0.00000000000E+00  0.80529368846E+02  0.14869089973E+03  0.12499601760E+03 0.  0.
    9000005    1    3    3    0    0 -0.20626036199E+02 -0.88580323641E+01  0.10963890309E+03  0.11191776972E+03  0.10000000000E+01 0.  0.
    9000005    1    3    3    0    0  0.20626036199E+02  0.88580323641E+01 -0.29109534248E+02  0.36773130010E+02  0.10000000000E+01 0.  0.
<mgrwt>
<rscale>  0 0.12499602E+03</rscale>
<asrwt>0</asrwt>
<pdfrwt beam="1">  1        4 0.17632328E-01 0.12499602E+03</pdfrwt>
<pdfrwt beam="2">  1       -4 0.52431947E-02 0.12499602E+03</pdfrwt>
<totfact> 0.99574215E+03</totfact>
</mgrwt>
</event>
<event>
 5    1  0.3309219E-002  0.1250009E+03  0.7818608E-02  0.1235068E+00
          4   -1    0    0  501    0  0.00000000000E+00  0.00000000000E+00  0.92739231385E+02  0.92747926866E+02  0.12700000000E+01 0.  1.
         -4   -1    0    0    0  501 -0.00000000000E+00 -0.00000000000E+00 -0.42101126760E+02  0.42120277473E+02  0.12700000000E+01 0.  1.
         25    2    1    2    0    0  0.00000000000E+00  0.00000000000E+00  0.50638104625E+02  0.13486820434E+03  0.12500085960E+03 0.  0.
    9000005    1    3    3    0    0 -0.29039182293E+02  0.55148523740E+02  0.30224359965E+02  0.69275866752E+02  0.10000000000E+01 0.  0.
    9000005    1    3    3    0    0  0.29039182293E+02 -0.55148523740E+02  0.20413744661E+02  0.65592337587E+02  0.10000000000E+01 0.  0.
<mgrwt>
<rscale>  0 0.12500086E+03</rscale>
<asrwt>0</asrwt>
<pdfrwt beam="1">  1        4 0.14269716E-01 0.12500086E+03</pdfrwt>
<pdfrwt beam="2">  1       -4 0.64792386E-02 0.12500086E+03</pdfrwt>
<totfact> 0.10240651E+04</totfact>
</mgrwt>
</event>
<event>
 5    1  0.3309219E-002  0.1250074E+03  0.7818608E-02  0.1235058E+00
         -4   -1    0    0    0  501 -0.00000000000E+00  0.00000000000E+00  0.66527589168E+03  0.66527710388E+03  0.12700000000E+01 0.  1.
          4   -1    0    0  501    0  0.00000000000E+00 -0.00000000000E+00 -0.58024189217E+01  0.59397782234E+01  0.12700000000E+01 0.  1.
         25    2    1    2    0    0  0.00000000000E+00  0.00000000000E+00  0.65947347276E+03  0.67121688210E+03  0.12500736599E+03 0.  0.
    9000005    1    3    3    0    0 -0.48935060595E+02  0.27560226761E+02  0.18254177172E+03  0.19098875536E+03  0.10000000000E+01 0.  0.
    9000005    1    3    3    0    0  0.48935060595E+02 -0.27560226761E+02  0.47693170104E+03  0.48022812674E+03  0.10000000000E+01 0.  0.
<mgrwt>
<rscale>  0 0.12500737E+03</rscale>
<asrwt>0</asrwt>
<pdfrwt beam="2">  1        4 0.90333937E-03 0.12500737E+03</pdfrwt>
<pdfrwt beam="1">  1       -4 0.10236077E+00 0.12500737E+03</pdfrwt>
<totfact> 0.44643087E+03</totfact>
</mgrwt>
</event>
<event>
 5    1  0.3309219E-002  0.1250017E+03  0.7818608E-02  0.1235067E+00
          4   -1    0    0  501    0  0.00000000000E+00  0.00000000000E+00  0.10270311070E+03  0.10271096265E+03  0.12700000000E+01 0.  1.
         -4   -1    0    0    0  501 -0.00000000000E+00 -0.00000000000E+00 -0.38015506671E+02  0.38036714468E+02  0.12700000000E+01 0.  1.
         25    2    1    2    0    0  0.00000000000E+00  0.00000000000E+00  0.64687604031E+02  0.14074767712E+03  0.12500168998E+03 0.  0.
    9000005    1    3    3    0    0  0.12373467287E+02  0.29904613817E+02  0.92537906351E+02  0.98039036777E+02  0.10000000000E+01 0.  0.
    9000005    1    3    3    0    0 -0.12373467287E+02 -0.29904613817E+02 -0.27850302320E+02  0.42708640338E+02  0.10000000000E+01 0.  0.
<mgrwt>
<rscale>  0 0.12500169E+03</rscale>
<asrwt>0</asrwt>
<pdfrwt beam="1">  1        4 0.15802714E-01 0.12500169E+03</pdfrwt>
<pdfrwt beam="2">  1       -4 0.58507748E-02 0.12500169E+03</pdfrwt>
<totfact> 0.10117728E+04</totfact>
</mgrwt>
</event>
<event>
 5    1  0.3309219E-002  0.1249992E+03  0.7818608E-02  0.1235071E+00
         -4   -1    0    0    0  501 -0.00000000000E+00  0.00000000000E+00  0.19544520587E+02  0.19585739327E+02  0.12700000000E+01 0. -1.
          4   -1    0    0  501    0  0.00000000000E+00 -0.00000000000E+00 -0.19960777959E+03  0.19961181972E+03  0.12700000000E+01 0. -1.
         25    2    1    2    0    0  0.00000000000E+00  0.00000000000E+00 -0.18006325900E+03  0.21919755905E+03  0.12499917060E+03 0.  0.
    9000005    1    3    3    0    0  0.58515605058E+02 -0.57472218274E+01 -0.12715197146E+03  0.14009186429E+03  0.10000000000E+01 0.  0.
    9000005    1    3    3    0    0 -0.58515605058E+02  0.57472218274E+01 -0.52911287544E+02  0.79105694760E+02  0.10000000000E+01 0.  0.
<mgrwt>
<rscale>  0 0.12499917E+03</rscale>
<asrwt>0</asrwt>
<pdfrwt beam="2">  1        4 0.30712369E-01 0.12499917E+03</pdfrwt>
<pdfrwt beam="1">  1       -4 0.30103309E-02 0.12499917E+03</pdfrwt>
<totfact> 0.86997097E+03</totfact>
</mgrwt>
</event>
<event>
 5    1  0.3309219E-002  0.1250030E+03  0.7818608E-02  0.1235065E+00
         -4   -1    0    0    0  501 -0.00000000000E+00  0.00000000000E+00  0.28645434750E+02  0.28673573757E+02  0.12700000000E+01 0. -1.
          4   -1    0    0  501    0  0.00000000000E+00 -0.00000000000E+00 -0.13627413500E+03  0.13628005272E+03  0.12700000000E+01 0. -1.
         25    2    1    2    0    0  0.00000000000E+00  0.00000000000E+00 -0.10762870025E+03  0.16495362648E+03  0.12500304705E+03 0.  0.
    9000005    1    3    3    0    0 -0.23468528225E+02  0.44225617684E+02 -0.44613687416E+01  0.50275052338E+02  0.10000000000E+01 0.  0.
    9000005    1    3    3    0    0  0.23468528225E+02 -0.44225617684E+02 -0.10316733151E+03  0.11467857414E+03  0.10000000000E+01 0.  0.
<mgrwt>
<rscale>  0 0.12500305E+03</rscale>
<asrwt>0</asrwt>
<pdfrwt beam="2">  1        4 0.20967871E-01 0.12500305E+03</pdfrwt>
<pdfrwt beam="1">  1       -4 0.44096098E-02 0.12500305E+03</pdfrwt>
<totfact> 0.96389577E+03</totfact>
</mgrwt>
</event>
<event>
 5    1  0.3309219E-002  0.1249988E+03  0.7818608E-02  0.1235071E+00
         -4   -1    0    0    0  501 -0.00000000000E+00  0.00000000000E+00  0.11285308052E+04  0.11285315198E+04  0.12700000000E+01 0.  1.
          4   -1    0    0  501    0  0.00000000000E+00 -0.00000000000E+00 -0.33440595334E+01  0.35770985677E+01  0.12700000000E+01 0.  1.
         25    2    1    2    0    0  0.00000000000E+00  0.00000000000E+00  0.11251867456E+04  0.11321086183E+04  0.12499884464E+03 0.  0.
    9000005    1    3    3    0    0  0.25398778332E+02  0.36762385896E+02  0.16691680232E+03  0.17279696135E+03  0.10000000000E+01 0.  0.
    9000005    1    3    3    0    0 -0.25398778332E+02 -0.36762385896E+02  0.95826994332E+03  0.95931165699E+03  0.10000000000E+01 0.  0.
<mgrwt>
<rscale>  0 0.12499884E+03</rscale>
<asrwt>0</asrwt>
<pdfrwt beam="2">  1        4 0.53245181E-03 0.12499884E+03</pdfrwt>
<pdfrwt beam="1">  1       -4 0.17363808E+00 0.12499884E+03</pdfrwt>
<totfact> 0.26562584E+03</totfact>
</mgrwt>
</event>
<event>
 5    1  0.3309219E-002  0.1249946E+03  0.7818608E-02  0.1235078E+00
          4   -1    0    0  501    0  0.00000000000E+00  0.00000000000E+00  0.38635933633E+03  0.38636142363E+03  0.12700000000E+01 0.  1.
         -4   -1    0    0    0  501 -0.00000000000E+00 -0.00000000000E+00 -0.10067523034E+02  0.10147310976E+02  0.12700000000E+01 0.  1.
         25    2    1    2    0    0  0.00000000000E+00  0.00000000000E+00  0.37629181329E+03  0.39650873460E+03  0.12499459134E+03 0.  0.
    9000005    1    3    3    0    0  0.19888398114E+02  0.48254282127E+01  0.84920066355E+00  0.20507420090E+02  0.10000000000E+01 0.  0.
    9000005    1    3    3    0    0 -0.19888398114E+02 -0.48254282127E+01  0.37544261263E+03  0.37600131451E+03  0.10000000000E+01 0.  0.
<mgrwt>
<rscale>  0 0.12499459E+03</rscale>
<asrwt>0</asrwt>
<pdfrwt beam="1">  1        4 0.59446197E-01 0.12499459E+03</pdfrwt>
<pdfrwt beam="2">  1       -4 0.15551478E-02 0.12499459E+03</pdfrwt>
<totfact> 0.64901516E+03</totfact>
</mgrwt>
</event>
<event>
 5    1  0.3309219E-002  0.1249830E+03  0.7818608E-02  0.1235096E+00
          4   -1    0    0  501    0  0.00000000000E+00  0.00000000000E+00  0.24933783418E+02  0.24966106135E+02  0.12700000000E+01 0.  1.
         -4   -1    0    0    0  501 -0.00000000000E+00 -0.00000000000E+00 -0.15648597527E+03  0.15649112868E+03  0.12700000000E+01 0.  1.
         25    2    1    2    0    0  0.00000000000E+00  0.00000000000E+00 -0.13155219185E+03  0.18145723482E+03  0.12498299439E+03 0.  0.
    9000005    1    3    3    0    0 -0.29017300793E+02  0.55213251542E+02 -0.60406128418E+02  0.86835518319E+02  0.10000000000E+01 0.  0.
    9000005    1    3    3    0    0  0.29017300793E+02 -0.55213251542E+02 -0.71146063435E+02  0.94621716500E+02  0.10000000000E+01 0.  0.
<mgrwt>
<rscale>  0 0.12498299E+03</rscale>
<asrwt>0</asrwt>
<pdfrwt beam="1">  1        4 0.38388495E-02 0.12498299E+03</pdfrwt>
<pdfrwt beam="2">  1       -4 0.24077648E-01 0.12498299E+03</pdfrwt>
<totfact> 0.93390952E+03</totfact>
</mgrwt>
</event>
<event>
 5    1  0.3309219E-002  0.1250038E+03  0.7818608E-02  0.1235063E+00
         -4   -1    0    0    0  501 -0.00000000000E+00  0.00000000000E+00  0.12623450085E+02  0.12687174313E+02  0.12700000000E+01 0.  1.
          4   -1    0    0  501    0  0.00000000000E+00 -0.00000000000E+00 -0.30861849886E+03  0.30862111194E+03  0.12700000000E+01 0.  1.
         25    2    1    2    0    0  0.00000000000E+00  0.00000000000E+00 -0.29599504877E+03  0.32130828626E+03  0.12500378362E+03 0.  0.
    9000005    1    3    3    0    0  0.57935813652E+02 -0.80151883525E+01 -0.20458605759E+03  0.21278453118E+03  0.10000000000E+01 0.  0.
    9000005    1    3    3    0    0 -0.57935813652E+02  0.80151883525E+01 -0.91408991184E+02  0.10852375508E+03  0.10000000000E+01 0.  0.
<mgrwt>
<rscale>  0 0.12500378E+03</rscale>
<asrwt>0</asrwt>
<pdfrwt beam="2">  1        4 0.47484866E-01 0.12500378E+03</pdfrwt>
<pdfrwt beam="1">  1       -4 0.19471724E-02 0.12500378E+03</pdfrwt>
<totfact> 0.72994672E+03</totfact>
</mgrwt>
</event>
<event>
 5    1  0.3309219E-002  0.1249962E+03  0.7818608E-02  0.1235075E+00
         -4   -1    0    0    0  501 -0.00000000000E+00  0.00000000000E+00  0.46201883743E+02  0.46219335363E+02  0.12700000000E+01 0.  1.
          4   -1    0    0  501    0  0.00000000000E+00 -0.00000000000E+00 -0.84504139404E+02  0.84513682185E+02  0.12700000000E+01 0.  1.
         25    2    1    2    0    0  0.00000000000E+00  0.00000000000E+00 -0.38302255661E+02  0.13073301755E+03  0.12499623630E+03 0.  0.
    9000005    1    3    3    0    0  0.14780456190E+02 -0.31385099838E+02  0.35210583184E+02  0.49439574687E+02  0.10000000000E+01 0.  0.
    9000005    1    3    3    0    0 -0.14780456190E+02  0.31385099838E+02 -0.73512838845E+02  0.81293442861E+02  0.10000000000E+01 0.  0.
<mgrwt>
<rscale>  0 0.12499624E+03</rscale>
<asrwt>0</asrwt>
<pdfrwt beam="2">  1        4 0.13002713E-01 0.12499624E+03</pdfrwt>
<pdfrwt beam="1">  1       -4 0.71100586E-02 0.12499624E+03</pdfrwt>
<totfact> 0.10329693E+04</totfact>
</mgrwt>
</event>
<event>
 4    1  0.3309219E-002  0.1251120E+03  0.7818608E-02  0.1234894E+00
         -4   -1    0    0    0  501 -0.00000000000E+00  0.00000000000E+00  0.65090762470E+02  0.65103150914E+02  0.12700000000E+01 0.  1.
          4   -1    0    0  501    0  0.00000000000E+00 -0.00000000000E+00 -0.60095169086E+02  0.60108587136E+02  0.12700000000E+01 0.  1.
    9000005    1    1    2    0    0  0.62944536840E+00 -0.52657911971E+02 -0.31278228711E+02  0.61258301364E+02  0.10000000000E+01 0.  0.
    9000005    1    1    2    0    0 -0.62944536840E+00  0.52657911971E+02  0.36273822095E+02  0.63953436687E+02  0.10000000000E+01 0.  0.
<mgrwt>
<rscale>  0 0.12511204E+03</rscale>
<asrwt>0</asrwt>
<pdfrwt beam="2">  1        4 0.92473958E-02 0.12511204E+03</pdfrwt>
<pdfrwt beam="1">  1       -4 0.10015949E-01 0.12511204E+03</pdfrwt>
<totfact> 0.10421853E+04</totfact>
</mgrwt>
</event>
<event>
 5    1  0.3309219E-002  0.1249989E+03  0.7818608E-02  0.1235071E+00
         -4   -1    0    0    0  501 -0.00000000000E+00  0.00000000000E+00  0.24600834447E+02  0.24633594043E+02  0.12700000000E+01 0. -1.
          4   -1    0    0  501    0  0.00000000000E+00 -0.00000000000E+00 -0.15864154672E+03  0.15864663012E+03  0.12700000000E+01 0. -1.
         25    2    1    2    0    0  0.00000000000E+00  0.00000000000E+00 -0.13404071228E+03  0.18328022416E+03  0.12499891208E+03 0.  0.
    9000005    1    3    3    0    0  0.38536855173E+02 -0.25113168040E+02 -0.49955078615E+01  0.46278672349E+02  0.10000000000E+01 0.  0.
    9000005    1    3    3    0    0 -0.38536855173E+02  0.25113168040E+02 -0.12904520442E+03  0.13700155181E+03  0.10000000000E+01 0.  0.
<mgrwt>
<rscale>  0 0.12499891E+03</rscale>
<asrwt>0</asrwt>
<pdfrwt beam="2">  1        4 0.24409302E-01 0.12499891E+03</pdfrwt>
<pdfrwt beam="1">  1       -4 0.37876549E-02 0.12499891E+03</pdfrwt>
<totfact> 0.93032131E+03</totfact>
</mgrwt>
</event>
<event>
 5    1  0.3309219E-002  0.1250003E+03  0.7818608E-02  0.1235069E+00
         -4   -1    0    0    0  501 -0.00000000000E+00  0.00000000000E+00  0.12761984733E+02  0.12825020637E+02  0.12700000000E+01 0.  1.
          4   -1    0    0  501    0  0.00000000000E+00 -0.00000000000E+00 -0.30526804104E+03  0.30527068280E+03  0.12700000000E+01 0.  1.
         25    2    1    2    0    0  0.00000000000E+00  0.00000000000E+00 -0.29250605630E+03  0.31809570344E+03  0.12500033429E+03 0.  0.
    9000005    1    3    3    0    0  0.43560163189E+02  0.21970708212E+02 -0.24563135214E+03  0.25043154951E+03  0.10000000000E+01 0.  0.
    9000005    1    3    3    0    0 -0.43560163189E+02 -0.21970708212E+02 -0.46874704164E+02  0.67664153929E+02  0.10000000000E+01 0.  0.
<mgrwt>
<rscale>  0 0.12500033E+03</rscale>
<asrwt>0</asrwt>
<pdfrwt beam="2">  1        4 0.46969361E-01 0.12500033E+03</pdfrwt>
<pdfrwt beam="1">  1       -4 0.19684346E-02 0.12500033E+03</pdfrwt>
<totfact> 0.73382648E+03</totfact>
</mgrwt>
</event>
<event>
 5    1  0.3309219E-002  0.1249967E+03  0.7818608E-02  0.1235074E+00
         -4   -1    0    0    0  501 -0.00000000000E+00  0.00000000000E+00  0.30203608986E+03  0.30203875989E+03  0.12700000000E+01 0.  1.
          4   -1    0    0  501    0  0.00000000000E+00 -0.00000000000E+00 -0.12898459839E+02  0.12960832004E+02  0.12700000000E+01 0.  1.
         25    2    1    2    0    0  0.00000000000E+00  0.00000000000E+00  0.28913763002E+03  0.31499959189E+03  0.12499669516E+03 0.  0.
    9000005    1    3    3    0    0  0.51738887352E+02  0.67806965150E+01  0.57922852462E+02  0.77967603189E+02  0.10000000000E+01 0.  0.
    9000005    1    3    3    0    0 -0.51738887352E+02 -0.67806965150E+01  0.23121477755E+03  0.23703198870E+03  0.10000000000E+01 0.  0.
<mgrwt>
<rscale>  0 0.12499670E+03</rscale>
<asrwt>0</asrwt>
<pdfrwt beam="2">  1        4 0.19893817E-02 0.12499670E+03</pdfrwt>
<pdfrwt beam="1">  1       -4 0.46472094E-01 0.12499670E+03</pdfrwt>
<totfact> 0.73760234E+03</totfact>
</mgrwt>
</event>
<event>
 5    1  0.3309219E-002  0.1249973E+03  0.7818608E-02  0.1235073E+00
         -4   -1    0    0    0  501 -0.00000000000E+00  0.00000000000E+00  0.99702153859E+02  0.99710242122E+02  0.12700000000E+01 0.  1.
          4   -1    0    0  501    0  0.00000000000E+00 -0.00000000000E+00 -0.39157532912E+02  0.39178122514E+02  0.12700000000E+01 0.  1.
         25    2    1    2    0    0  0.00000000000E+00  0.00000000000E+00  0.60544620947E+02  0.13888836464E+03  0.12499730679E+03 0.  0.
    9000005    1    3    3    0    0  0.31918691250E+02  0.44509566097E+02  0.63701977272E+02  0.84016940159E+02  0.10000000000E+01 0.  0.
    9000005    1    3    3    0    0 -0.31918691250E+02 -0.44509566097E+02 -0.31573563255E+01  0.54871424478E+02  0.10000000000E+01 0.  0.
<mgrwt>
<rscale>  0 0.12499731E+03</rscale>
<asrwt>0</asrwt>
<pdfrwt beam="2">  1        4 0.60264418E-02 0.12499731E+03</pdfrwt>
<pdfrwt beam="1">  1       -4 0.15340999E-01 0.12499731E+03</pdfrwt>
<totfact> 0.10157293E+04</totfact>
</mgrwt>
</event>
<event>
 5    1  0.3309219E-002  0.1250010E+03  0.7818608E-02  0.1235068E+00
         -4   -1    0    0    0  501 -0.00000000000E+00  0.00000000000E+00  0.88844360885E+03  0.88844451656E+03  0.12700000000E+01 0. -1.
          4   -1    0    0  501    0  0.00000000000E+00 -0.00000000000E+00 -0.43041688886E+01  0.44876240731E+01  0.12700000000E+01 0. -1.
         25    2    1    2    0    0  0.00000000000E+00  0.00000000000E+00  0.88413943996E+03  0.89293214063E+03  0.12500103392E+03 0.  0.
    9000005    1    3    3    0    0 -0.54345943063E+02 -0.28483708533E+02  0.35739364979E+03  0.36262380519E+03  0.10000000000E+01 0.  0.
    9000005    1    3    3    0    0  0.54345943063E+02  0.28483708533E+02  0.52674579017E+03  0.53030833544E+03  0.10000000000E+01 0.  0.
<mgrwt>
<rscale>  0 0.12500103E+03</rscale>
<asrwt>0</asrwt>
<pdfrwt beam="2">  1        4 0.67636242E-03 0.12500103E+03</pdfrwt>
<pdfrwt beam="1">  1       -4 0.13669765E+00 0.12500103E+03</pdfrwt>
<totfact> 0.34431131E+03</totfact>
</mgrwt>
</event>
<event>
 5    1  0.3309219E-002  0.1249935E+03  0.7818608E-02  0.1235079E+00
         -4   -1    0    0    0  501 -0.00000000000E+00  0.00000000000E+00  0.40869756615E+02  0.40889484049E+02  0.12700000000E+01 0.  1.
          4   -1    0    0  501    0  0.00000000000E+00 -0.00000000000E+00 -0.95521132571E+02  0.95529574832E+02  0.12700000000E+01 0.  1.
         25    2    1    2    0    0  0.00000000000E+00  0.00000000000E+00 -0.54651375956E+02  0.13641905888E+03  0.12499354676E+03 0.  0.
    9000005    1    3    3    0    0 -0.13284082186E+02 -0.61001332555E+02 -0.30257755289E+02  0.69384156463E+02  0.10000000000E+01 0.  0.
    9000005    1    3    3    0    0  0.13284082186E+02  0.61001332555E+02 -0.24393620666E+02  0.67034902418E+02  0.10000000000E+01 0.  0.
<mgrwt>
<rscale>  0 0.12499355E+03</rscale>
<asrwt>0</asrwt>
<pdfrwt beam="2">  1        4 0.14697726E-01 0.12499355E+03</pdfrwt>
<pdfrwt beam="1">  1       -4 0.62898218E-02 0.12499355E+03</pdfrwt>
<totfact> 0.10209732E+04</totfact>
</mgrwt>
</event>
<event>
 5    1  0.3309219E-002  0.1250082E+03  0.7818608E-02  0.1235056E+00
          4   -1    0    0  501    0  0.00000000000E+00  0.00000000000E+00  0.69983990219E+03  0.69984105452E+03  0.12700000000E+01 0.  1.
         -4   -1    0    0    0  501 -0.00000000000E+00 -0.00000000000E+00 -0.55089647582E+01  0.56534584731E+01  0.12700000000E+01 0.  1.
         25    2    1    2    0    0  0.00000000000E+00  0.00000000000E+00  0.69433093743E+03  0.70549451299E+03  0.12500822851E+03 0.  0.
    9000005    1    3    3    0    0 -0.64304993139E-01  0.62145436059E+02  0.38447504403E+03  0.38946645406E+03  0.10000000000E+01 0.  0.
    9000005    1    3    3    0    0  0.64304993139E-01 -0.62145436059E+02  0.30985589340E+03  0.31602805893E+03  0.10000000000E+01 0.  0.
<mgrwt>
<rscale>  0 0.12500823E+03</rscale>
<asrwt>0</asrwt>
<pdfrwt beam="1">  1        4 0.10767878E+00 0.12500823E+03</pdfrwt>
<pdfrwt beam="2">  1       -4 0.85873741E-03 0.12500823E+03</pdfrwt>
<totfact> 0.42790561E+03</totfact>
</mgrwt>
</event>
<event>
 5    1  0.3309219E-002  0.1249968E+03  0.7818608E-02  0.1235074E+00
          4   -1    0    0  501    0  0.00000000000E+00  0.00000000000E+00  0.77518882435E+03  0.77518986467E+03  0.12700000000E+01 0.  1.
         -4   -1    0    0    0  501 -0.00000000000E+00 -0.00000000000E+00 -0.49577556438E+01  0.51178355799E+01  0.12700000000E+01 0.  1.
         25    2    1    2    0    0  0.00000000000E+00  0.00000000000E+00  0.77023106870E+03  0.78030770025E+03  0.12499683148E+03 0.  0.
    9000005    1    3    3    0    0  0.27261913554E+02 -0.49407133695E+02  0.21751831852E+03  0.22472092845E+03  0.10000000000E+01 0.  0.
    9000005    1    3    3    0    0 -0.27261913554E+02  0.49407133695E+02  0.55271275018E+03  0.55558677180E+03  0.10000000000E+01 0.  0.
<mgrwt>
<rscale>  0 0.12499683E+03</rscale>
<asrwt>0</asrwt>
<pdfrwt beam="1">  1        4 0.11927218E+00 0.12499683E+03</pdfrwt>
<pdfrwt beam="2">  1       -4 0.77512569E-03 0.12499683E+03</pdfrwt>
<totfact> 0.39161819E+03</totfact>
</mgrwt>
</event>
<event>
 5    1  0.3309219E-002  0.1250008E+03  0.7818608E-02  0.1235068E+00
          4   -1    0    0  501    0  0.00000000000E+00  0.00000000000E+00  0.40297261993E+01  0.42251145833E+01  0.12700000000E+01 0. -1.
         -4   -1    0    0    0  501 -0.00000000000E+00 -0.00000000000E+00 -0.94623024899E+03  0.94623110126E+03  0.12700000000E+01 0. -1.
         25    2    1    2    0    0  0.00000000000E+00  0.00000000000E+00 -0.94220052279E+03  0.95045621585E+03  0.12500077240E+03 0.  0.
    9000005    1    3    3    0    0  0.70300643283E+01  0.97523666501E+01 -0.93739195532E+03  0.93746957730E+03  0.10000000000E+01 0.  0.
    9000005    1    3    3    0    0 -0.70300643283E+01 -0.97523666501E+01 -0.48085674693E+01  0.12986638551E+02  0.10000000000E+01 0.  0.
<mgrwt>
<rscale>  0 0.12500077E+03</rscale>
<asrwt>0</asrwt>
<pdfrwt beam="1">  1        4 0.63505407E-03 0.12500077E+03</pdfrwt>
<pdfrwt beam="2">  1       -4 0.14558881E+00 0.12500077E+03</pdfrwt>
<totfact> 0.32299272E+03</totfact>
</mgrwt>
</event>
<event>
 4    1  0.3309219E-002  0.1250762E+03  0.7818608E-02  0.1234950E+00
         -4   -1    0    0    0  501 -0.00000000000E+00  0.00000000000E+00  0.18637000127E+02  0.18680221458E+02  0.12700000000E+01 0.  1.
          4   -1    0    0  501    0  0.00000000000E+00 -0.00000000000E+00 -0.20956384416E+03  0.20956769235E+03  0.12700000000E+01 0.  1.
    9000005    1    1    2    0    0 -0.57664441448E+01  0.31472688002E+02  0.25753198455E+01  0.32115638565E+02  0.10000000000E+01 0.  0.
    9000005    1    1    2    0    0  0.57664441448E+01 -0.31472688002E+02 -0.19350216388E+03  0.19613227525E+03  0.10000000000E+01 0.  0.
<mgrwt>
<rscale>  0 0.12507618E+03</rscale>
<asrwt>0</asrwt>
<pdfrwt beam="2">  1        4 0.32244210E-01 0.12507618E+03</pdfrwt>
<pdfrwt beam="1">  1       -4 0.28708517E-02 0.12507618E+03</pdfrwt>
<totfact> 0.85434045E+03</totfact>
</mgrwt>
</event>
<event>
 5    1  0.3309219E-002  0.1249993E+03  0.7818608E-02  0.1235070E+00
         -4   -1    0    0    0  501 -0.00000000000E+00  0.00000000000E+00  0.16604623584E+02  0.16653120559E+02  0.12700000000E+01 0. -1.
          4   -1    0    0  501    0  0.00000000000E+00 -0.00000000000E+00 -0.23485471436E+03  0.23485814816E+03  0.12700000000E+01 0. -1.
         25    2    1    2    0    0  0.00000000000E+00  0.00000000000E+00 -0.21825009077E+03  0.25151126872E+03  0.12499926467E+03 0.  0.
    9000005    1    3    3    0    0 -0.58996513953E+01  0.58439923159E+02 -0.66197259207E+02  0.88504845246E+02  0.10000000000E+01 0.  0.
    9000005    1    3    3    0    0  0.58996513953E+01 -0.58439923159E+02 -0.15205283157E+03  0.16300642347E+03  0.10000000000E+01 0.  0.
<mgrwt>
<rscale>  0 0.12499926E+03</rscale>
<asrwt>0</asrwt>
<pdfrwt beam="2">  1        4 0.36135487E-01 0.12499926E+03</pdfrwt>
<pdfrwt beam="1">  1       -4 0.25585523E-02 0.12499926E+03</pdfrwt>
<totfact> 0.82113638E+03</totfact>
</mgrwt>
</event>
<event>
 5    1  0.3309219E-002  0.1249955E+03  0.7818608E-02  0.1235076E+00
         -4   -1    0    0    0  501 -0.00000000000E+00  0.00000000000E+00  0.12372656523E+03  0.12373308306E+03  0.12700000000E+01 0. -1.
          4   -1    0    0  501    0  0.00000000000E+00 -0.00000000000E+00 -0.31549260395E+02  0.31574811661E+02  0.12700000000E+01 0. -1.
         25    2    1    2    0    0  0.00000000000E+00  0.00000000000E+00  0.92177304834E+02  0.15530789472E+03  0.12499554646E+03 0.  0.
    9000005    1    3    3    0    0  0.13730522494E+02  0.51593615709E+02  0.57398000344E+01  0.53706365864E+02  0.10000000000E+01 0.  0.
    9000005    1    3    3    0    0 -0.13730522494E+02 -0.51593615709E+02  0.86437504799E+02  0.10160152886E+03  0.10000000000E+01 0.  0.
<mgrwt>
<rscale>  0 0.12499555E+03</rscale>
<asrwt>0</asrwt>
<pdfrwt beam="2">  1        4 0.48561993E-02 0.12499555E+03</pdfrwt>
<pdfrwt beam="1">  1       -4 0.19037323E-01 0.12499555E+03</pdfrwt>
<totfact> 0.98264931E+03</totfact>
</mgrwt>
</event>
<event>
 5    1  0.3309219E-002  0.1249989E+03  0.7818608E-02  0.1235071E+00
         -4   -1    0    0    0  501 -0.00000000000E+00  0.00000000000E+00  0.25777300923E+02  0.25808567238E+02  0.12700000000E+01 0.  1.
          4   -1    0    0  501    0  0.00000000000E+00 -0.00000000000E+00 -0.15141001518E+03  0.15141534136E+03  0.12700000000E+01 0.  1.
         25    2    1    2    0    0  0.00000000000E+00  0.00000000000E+00 -0.12563271426E+03  0.17722390859E+03  0.12499893954E+03 0.  0.
    9000005    1    3    3    0    0 -0.24117544967E+02  0.56215454815E+02 -0.80937102774E+02  0.10145761647E+03  0.10000000000E+01 0.  0.
    9000005    1    3    3    0    0  0.24117544967E+02 -0.56215454815E+02 -0.44695611487E+02  0.75766292119E+02  0.10000000000E+01 0.  0.
<mgrwt>
<rscale>  0 0.12499894E+03</rscale>
<asrwt>0</asrwt>
<pdfrwt beam="2">  1        4 0.23296663E-01 0.12499894E+03</pdfrwt>
<pdfrwt beam="1">  1       -4 0.39685535E-02 0.12499894E+03</pdfrwt>
<totfact> 0.94121348E+03</totfact>
</mgrwt>
</event>
<event>
 5    1  0.3309219E-002  0.1249960E+03  0.7818608E-02  0.1235075E+00
         -4   -1    0    0    0  501 -0.00000000000E+00  0.00000000000E+00  0.10583986297E+03  0.10584748223E+03  0.12700000000E+01 0.  1.
          4   -1    0    0  501    0  0.00000000000E+00 -0.00000000000E+00 -0.36884951093E+02  0.36906808547E+02  0.12700000000E+01 0.  1.
         25    2    1    2    0    0  0.00000000000E+00  0.00000000000E+00  0.68954911877E+02  0.14275429077E+03  0.12499603059E+03 0.  0.
    9000005    1    3    3    0    0 -0.36788246092E+02  0.28875974989E+02 -0.12857270543E+02  0.48512950724E+02  0.10000000000E+01 0.  0.
    9000005    1    3    3    0    0  0.36788246092E+02 -0.28875974989E+02  0.81812182420E+02  0.94241340050E+02  0.10000000000E+01 0.  0.
<mgrwt>
<rscale>  0 0.12499603E+03</rscale>
<asrwt>0</asrwt>
<pdfrwt beam="2">  1        4 0.56768752E-02 0.12499603E+03</pdfrwt>
<pdfrwt beam="1">  1       -4 0.16285323E-01 0.12499603E+03</pdfrwt>
<totfact> 0.10077718E+04</totfact>
</mgrwt>
</event>
<event>
 5    1  0.3309219E-002  0.1250086E+03  0.7818608E-02  0.1235056E+00
         -4   -1    0    0    0  501 -0.00000000000E+00  0.00000000000E+00  0.11838968867E+02  0.11906892283E+02  0.12700000000E+01 0. -1.
          4   -1    0    0  501    0  0.00000000000E+00 -0.00000000000E+00 -0.32898066280E+03  0.32898311415E+03  0.12700000000E+01 0. -1.
         25    2    1    2    0    0  0.00000000000E+00  0.00000000000E+00 -0.31714169393E+03  0.34089000643E+03  0.12500856953E+03 0.  0.
    9000005    1    3    3    0    0 -0.40347500669E+02  0.43850647868E+02 -0.10719254086E+03  0.12264599849E+03  0.10000000000E+01 0.  0.
    9000005    1    3    3    0    0  0.40347500669E+02 -0.43850647868E+02 -0.20994915308E+03  0.21824400795E+03  0.10000000000E+01 0.  0.
<mgrwt>
<rscale>  0 0.12500857E+03</rscale>
<asrwt>0</asrwt>
<pdfrwt beam="2">  1        4 0.50617816E-01 0.12500857E+03</pdfrwt>
<pdfrwt beam="1">  1       -4 0.18267935E-02 0.12500857E+03</pdfrwt>
<totfact> 0.70725115E+03</totfact>
</mgrwt>
</event>
<event>
 5    1  0.3309219E-002  0.1250043E+03  0.7818608E-02  0.1235063E+00
         -4   -1    0    0    0  501 -0.00000000000E+00  0.00000000000E+00  0.30407194455E+03  0.30407459671E+03  0.12700000000E+01 0.  1.
          4   -1    0    0  501    0  0.00000000000E+00 -0.00000000000E+00 -0.12813251607E+02  0.12876036530E+02  0.12700000000E+01 0.  1.
         25    2    1    2    0    0  0.00000000000E+00  0.00000000000E+00  0.29125869295E+03  0.31695063324E+03  0.12500431070E+03 0.  0.
    9000005    1    3    3    0    0  0.19852022739E+02 -0.54304168830E+02  0.85495662905E+02  0.10321605464E+03  0.10000000000E+01 0.  0.
    9000005    1    3    3    0    0 -0.19852022739E+02  0.54304168830E+02  0.20576303004E+03  0.21373457860E+03  0.10000000000E+01 0.  0.
<mgrwt>
<rscale>  0 0.12500431E+03</rscale>
<asrwt>0</asrwt>
<pdfrwt beam="2">  1        4 0.19763032E-02 0.12500431E+03</pdfrwt>
<pdfrwt beam="1">  1       -4 0.46785330E-01 0.12500431E+03</pdfrwt>
<totfact> 0.73513254E+03</totfact>
</mgrwt>
</event>
<event>
 5    1  0.3309219E-002  0.1250046E+03  0.7818608E-02  0.1235062E+00
         -4   -1    0    0    0  501 -0.00000000000E+00  0.00000000000E+00  0.10298860990E+04  0.10298868820E+04  0.12700000000E+01 0.  1.
          4   -1    0    0  501    0  0.00000000000E+00 -0.00000000000E+00 -0.36860627398E+01  0.38987124184E+01  0.12700000000E+01 0.  1.
         25    2    1    2    0    0  0.00000000000E+00  0.00000000000E+00  0.10262000362E+04  0.10337855944E+04  0.12500456353E+03 0.  0.
    9000005    1    3    3    0    0 -0.22312900574E+02  0.52484356580E+02  0.30175996228E+03  0.30710348102E+03  0.10000000000E+01 0.  0.
    9000005    1    3    3    0    0  0.22312900574E+02 -0.52484356580E+02  0.72444007395E+03  0.72668211342E+03  0.10000000000E+01 0.  0.
<mgrwt>
<rscale>  0 0.12500456E+03</rscale>
<asrwt>0</asrwt>
<pdfrwt beam="2">  1        4 0.58350376E-03 0.12500456E+03</pdfrwt>
<pdfrwt beam="1">  1       -4 0.15846063E+00 0.12500456E+03</pdfrwt>
<totfact> 0.29503516E+03</totfact>
</mgrwt>
</event>
<event>
 5    1  0.3309219E-002  0.1249997E+03  0.7818608E-02  0.1235070E+00
          4   -1    0    0  501    0  0.00000000000E+00  0.00000000000E+00  0.12864055214E+03  0.12864682100E+03  0.12700000000E+01 0. -1.
         -4   -1    0    0    0  501 -0.00000000000E+00 -0.00000000000E+00 -0.30345160774E+02  0.30371725048E+02  0.12700000000E+01 0. -1.
         25    2    1    2    0    0  0.00000000000E+00  0.00000000000E+00  0.98295391363E+02  0.15901854605E+03  0.12499965610E+03 0.  0.
    9000005    1    3    3    0    0 -0.56991039674E+02  0.22972016722E+02  0.34668821669E+02  0.70559332135E+02  0.10000000000E+01 0.  0.
    9000005    1    3    3    0    0  0.56991039674E+02 -0.22972016722E+02  0.63626569695E+02  0.88459213915E+02  0.10000000000E+01 0.  0.
<mgrwt>
<rscale>  0 0.12499966E+03</rscale>
<asrwt>0</asrwt>
<pdfrwt beam="1">  1        4 0.19793379E-01 0.12499966E+03</pdfrwt>
<pdfrwt beam="2">  1       -4 0.46710120E-02 0.12499966E+03</pdfrwt>
<totfact> 0.97533090E+03</totfact>
</mgrwt>
</event>
<event>
 5    1  0.3309219E-002  0.1250023E+03  0.7818608E-02  0.1235066E+00
         -4   -1    0    0    0  501 -0.00000000000E+00  0.00000000000E+00  0.15022279505E+02  0.15075867521E+02  0.12700000000E+01 0. -1.
          4   -1    0    0  501    0  0.00000000000E+00 -0.00000000000E+00 -0.25952200001E+03  0.25952510744E+03  0.12700000000E+01 0. -1.
         25    2    1    2    0    0  0.00000000000E+00  0.00000000000E+00 -0.24449972051E+03  0.27460097496E+03  0.12500232846E+03 0.  0.
    9000005    1    3    3    0    0  0.56012334019E+02  0.19569624222E+02 -0.16535598939E+03  0.17568140192E+03  0.10000000000E+01 0.  0.
    9000005    1    3    3    0    0 -0.56012334019E+02 -0.19569624222E+02 -0.79143731119E+02  0.98919573037E+02  0.10000000000E+01 0.  0.
<mgrwt>
<rscale>  0 0.12500233E+03</rscale>
<asrwt>0</asrwt>
<pdfrwt beam="2">  1        4 0.39930819E-01 0.12500233E+03</pdfrwt>
<pdfrwt beam="1">  1       -4 0.23154813E-02 0.12500233E+03</pdfrwt>
<totfact> 0.78895382E+03</totfact>
</mgrwt>
</event>
<event>
 5    1  0.3309219E-002  0.1250015E+03  0.7818608E-02  0.1235067E+00
          4   -1    0    0  501    0  0.00000000000E+00  0.00000000000E+00  0.13636983075E+03  0.13637574432E+03  0.12700000000E+01 0. -1.
         -4   -1    0    0    0  501 -0.00000000000E+00 -0.00000000000E+00 -0.28624605499E+02  0.28652764962E+02  0.12700000000E+01 0. -1.
         25    2    1    2    0    0  0.00000000000E+00  0.00000000000E+00  0.10774522526E+03  0.16502850929E+03  0.12500150124E+03 0.  0.
    9000005    1    3    3    0    0  0.24466646102E+01  0.59631601140E+02  0.29406625670E+02  0.66540691727E+02  0.10000000000E+01 0.  0.
    9000005    1    3    3    0    0 -0.24466646102E+01 -0.59631601140E+02  0.78338599586E+02  0.98487817558E+02  0.10000000000E+01 0.  0.
<mgrwt>
<rscale>  0 0.12500150E+03</rscale>
<asrwt>0</asrwt>
<pdfrwt beam="1">  1        4 0.20982596E-01 0.12500150E+03</pdfrwt>
<pdfrwt beam="2">  1       -4 0.44064063E-02 0.12500150E+03</pdfrwt>
<totfact> 0.96378742E+03</totfact>
</mgrwt>
</event>
<event>
 5    1  0.3309219E-002  0.1249981E+03  0.7818608E-02  0.1235072E+00
          4   -1    0    0  501    0  0.00000000000E+00  0.00000000000E+00  0.34710243877E+03  0.34710476214E+03  0.12700000000E+01 0. -1.
         -4   -1    0    0    0  501 -0.00000000000E+00 -0.00000000000E+00 -0.11215334073E+02  0.11287011046E+02  0.12700000000E+01 0. -1.
         25    2    1    2    0    0  0.00000000000E+00  0.00000000000E+00  0.33588710469E+03  0.35839177318E+03  0.12499806393E+03 0.  0.
    9000005    1    3    3    0    0  0.64135279449E+01  0.61790725408E+02  0.14851814564E+03  0.16099026887E+03  0.10000000000E+01 0.  0.
    9000005    1    3    3    0    0 -0.64135279449E+01 -0.61790725408E+02  0.18736895905E+03  0.19740150431E+03  0.10000000000E+01 0.  0.
<mgrwt>
<rscale>  0 0.12499806E+03</rscale>
<asrwt>0</asrwt>
<pdfrwt beam="1">  1        4 0.53406059E-01 0.12499806E+03</pdfrwt>
<pdfrwt beam="2">  1       -4 0.17311286E-02 0.12499806E+03</pdfrwt>
<totfact> 0.68814069E+03</totfact>
</mgrwt>
</event>
<event>
 5    1  0.3309219E-002  0.1250127E+03  0.7818608E-02  0.1235050E+00
          4   -1    0    0  501    0  0.00000000000E+00  0.00000000000E+00  0.25676579293E+02  0.25707968107E+02  0.12700000000E+01 0. -1.
         -4   -1    0    0    0  501 -0.00000000000E+00 -0.00000000000E+00 -0.15203661827E+03  0.15204192249E+03  0.12700000000E+01 0. -1.
         25    2    1    2    0    0  0.00000000000E+00  0.00000000000E+00 -0.12636003898E+03  0.17774989060E+03  0.12501265599E+03 0.  0.
    9000005    1    3    3    0    0  0.99803857283E+01 -0.39251587680E+02  0.45000743470E+01  0.40762064519E+02  0.10000000000E+01 0.  0.
    9000005    1    3    3    0    0 -0.99803857283E+01  0.39251587680E+02 -0.13086011333E+03  0.13698782608E+03  0.10000000000E+01 0.  0.
<mgrwt>
<rscale>  0 0.12501266E+03</rscale>
<asrwt>0</asrwt>
<pdfrwt beam="1">  1        4 0.39530656E-02 0.12501266E+03</pdfrwt>
<pdfrwt beam="2">  1       -4 0.23393071E-01 0.12501266E+03</pdfrwt>
<totfact> 0.93996923E+03</totfact>
</mgrwt>
</event>
<event>
 5    1  0.3309219E-002  0.1249971E+03  0.7818608E-02  0.1235074E+00
          4   -1    0    0  501    0  0.00000000000E+00  0.00000000000E+00  0.74445969269E+02  0.74456801170E+02  0.12700000000E+01 0.  1.
         -4   -1    0    0    0  501 -0.00000000000E+00 -0.00000000000E+00 -0.52446204983E+02  0.52461579438E+02  0.12700000000E+01 0.  1.
         25    2    1    2    0    0  0.00000000000E+00  0.00000000000E+00  0.21999764286E+02  0.12691838061E+03  0.12499714280E+03 0.  0.
    9000005    1    3    3    0    0  0.35063457927E+02 -0.48772009455E+02  0.28495994449E+02  0.66491929493E+02  0.10000000000E+01 0.  0.
    9000005    1    3    3    0    0 -0.35063457927E+02  0.48772009455E+02 -0.64962301630E+01  0.60426451115E+02  0.10000000000E+01 0.  0.
<mgrwt>
<rscale>  0 0.12499714E+03</rscale>
<asrwt>0</asrwt>
<pdfrwt beam="1">  1        4 0.11455242E-01 0.12499714E+03</pdfrwt>
<pdfrwt beam="2">  1       -4 0.80706628E-02 0.12499714E+03</pdfrwt>
<totfact> 0.10411591E+04</totfact>
</mgrwt>
</event>
<event>
 4    1  0.3309219E-002  0.1251567E+03  0.7818608E-02  0.1234825E+00
         -4   -1    0    0    0  501 -0.00000000000E+00  0.00000000000E+00  0.52760332830E+02  0.52775615774E+02  0.12700000000E+01 0.  1.
          4   -1    0    0  501    0  0.00000000000E+00 -0.00000000000E+00 -0.74191865541E+02  0.74202734535E+02  0.12700000000E+01 0.  1.
    9000005    1    1    2    0    0  0.53392008615E+02 -0.32466662937E+02 -0.74665073587E+01  0.62940761978E+02  0.10000000000E+01 0.  0.
    9000005    1    1    2    0    0 -0.53392008615E+02  0.32466662937E+02 -0.13965025352E+02  0.64037588331E+02  0.10000000000E+01 0.  0.
<mgrwt>
<rscale>  0 0.12515667E+03</rscale>
<asrwt>0</asrwt>
<pdfrwt beam="2">  1        4 0.11416145E-01 0.12515667E+03</pdfrwt>
<pdfrwt beam="1">  1       -4 0.81189860E-02 0.12515667E+03</pdfrwt>
<totfact> 0.10372889E+04</totfact>
</mgrwt>
</event>
<event>
 5    1  0.3309219E-002  0.1249988E+03  0.7818608E-02  0.1235071E+00
         -4   -1    0    0    0  501 -0.00000000000E+00  0.00000000000E+00  0.78413607859E+03  0.78413710705E+03  0.12700000000E+01 0.  1.
          4   -1    0    0  501    0  0.00000000000E+00 -0.00000000000E+00 -0.48995121035E+01  0.50614344659E+01  0.12700000000E+01 0.  1.
         25    2    1    2    0    0  0.00000000000E+00  0.00000000000E+00  0.77923656649E+03  0.78919854152E+03  0.12499884549E+03 0.  0.
    9000005    1    3    3    0    0  0.15965764838E+01 -0.61709856978E+02  0.45100119732E+03  0.45520735438E+03  0.10000000000E+01 0.  0.
    9000005    1    3    3    0    0 -0.15965764838E+01  0.61709856978E+02  0.32823536918E+03  0.33399118713E+03  0.10000000000E+01 0.  0.
<mgrwt>
<rscale>  0 0.12499885E+03</rscale>
<asrwt>0</asrwt>
<pdfrwt beam="2">  1        4 0.76630519E-03 0.12499885E+03</pdfrwt>
<pdfrwt beam="1">  1       -4 0.12064895E+00 0.12499885E+03</pdfrwt>
<totfact> 0.38752455E+03</totfact>
</mgrwt>
</event>
<event>
 5    1  0.3309219E-002  0.1250007E+03  0.7818608E-02  0.1235068E+00
         -4   -1    0    0    0  501 -0.00000000000E+00  0.00000000000E+00  0.20202088944E+03  0.20202488131E+03  0.12700000000E+01 0. -1.
          4   -1    0    0  501    0  0.00000000000E+00 -0.00000000000E+00 -0.19311040810E+02  0.19352756836E+02  0.12700000000E+01 0. -1.
         25    2    1    2    0    0  0.00000000000E+00  0.00000000000E+00  0.18270984863E+03  0.22137763815E+03  0.12500067954E+03 0.  0.
    9000005    1    3    3    0    0  0.61219982613E+01  0.62065544166E+02  0.84341666032E+02  0.10490055893E+03  0.10000000000E+01 0.  0.
    9000005    1    3    3    0    0 -0.61219982613E+01 -0.62065544166E+02  0.98368182594E+02  0.11647707921E+03  0.10000000000E+01 0.  0.
<mgrwt>
<rscale>  0 0.12500068E+03</rscale>
<asrwt>0</asrwt>
<pdfrwt beam="2">  1        4 0.29744454E-02 0.12500068E+03</pdfrwt>
<pdfrwt beam="1">  1       -4 0.31083652E-01 0.12500068E+03</pdfrwt>
<totfact> 0.86649510E+03</totfact>
</mgrwt>
</event>
<event>
 5    1  0.3309219E-002  0.1249928E+03  0.7818608E-02  0.1235080E+00
          4   -1    0    0  501    0  0.00000000000E+00  0.00000000000E+00  0.37657992195E+02  0.37679401218E+02  0.12700000000E+01 0. -1.
         -4   -1    0    0    0  501 -0.00000000000E+00 -0.00000000000E+00 -0.10366297046E+03  0.10367074970E+03  0.12700000000E+01 0. -1.
         25    2    1    2    0    0  0.00000000000E+00  0.00000000000E+00 -0.66004978261E+02  0.14135015092E+03  0.12499283183E+03 0.  0.
    9000005    1    3    3    0    0  0.18542032724E+02  0.59639426067E+02 -0.30703217530E+02  0.69601405775E+02  0.10000000000E+01 0.  0.
    9000005    1    3    3    0    0 -0.18542032724E+02 -0.59639426067E+02 -0.35301760731E+02  0.71748745145E+02  0.10000000000E+01 0.  0.
<mgrwt>
<rscale>  0 0.12499283E+03</rscale>
<asrwt>0</asrwt>
<pdfrwt beam="1">  1        4 0.57957826E-02 0.12499283E+03</pdfrwt>
<pdfrwt beam="2">  1       -4 0.15950394E-01 0.12499283E+03</pdfrwt>
<totfact> 0.10107312E+04</totfact>
</mgrwt>
</event>
<event>
 5    1  0.3309219E-002  0.1250020E+03  0.7818608E-02  0.1235066E+00
          4   -1    0    0  501    0  0.00000000000E+00  0.00000000000E+00  0.24771463849E+03  0.24771789403E+03  0.12700000000E+01 0. -1.
         -4   -1    0    0    0  501 -0.00000000000E+00 -0.00000000000E+00 -0.15740731146E+02  0.15791881364E+02  0.12700000000E+01 0. -1.
         25    2    1    2    0    0  0.00000000000E+00  0.00000000000E+00  0.23197390734E+03  0.26350977539E+03  0.12500203214E+03 0.  0.
    9000005    1    3    3    0    0  0.25240588524E+02  0.56305021113E+02  0.95114731950E+02  0.11338057570E+03  0.10000000000E+01 0.  0.
    9000005    1    3    3    0    0 -0.25240588524E+02 -0.56305021113E+02  0.13685917539E+03  0.15012919969E+03  0.10000000000E+01 0.  0.
<mgrwt>
<rscale>  0 0.12500203E+03</rscale>
<asrwt>0</asrwt>
<pdfrwt beam="1">  1        4 0.38114129E-01 0.12500203E+03</pdfrwt>
<pdfrwt beam="2">  1       -4 0.24258360E-02 0.12500203E+03</pdfrwt>
<totfact> 0.80412386E+03</totfact>
</mgrwt>
</event>
<event>
 5    1  0.3309219E-002  0.1250104E+03  0.7818608E-02  0.1235053E+00
          4   -1    0    0  501    0  0.00000000000E+00  0.00000000000E+00  0.28795779979E+02  0.28823772214E+02  0.12700000000E+01 0. -1.
         -4   -1    0    0    0  501 -0.00000000000E+00 -0.00000000000E+00 -0.13557916054E+03  0.13558510859E+03  0.12700000000E+01 0. -1.
         25    2    1    2    0    0  0.00000000000E+00  0.00000000000E+00 -0.10678338056E+03  0.16440888081E+03  0.12501035847E+03 0.  0.
    9000005    1    3    3    0    0  0.48412545466E+02  0.21745056484E+01 -0.14903495879E+01  0.48494578823E+02  0.10000000000E+01 0.  0.
    9000005    1    3    3    0    0 -0.48412545466E+02 -0.21745056484E+01 -0.10529303097E+03  0.11591430198E+03  0.10000000000E+01 0.  0.
<mgrwt>
<rscale>  0 0.12501036E+03</rscale>
<asrwt>0</asrwt>
<pdfrwt beam="1">  1        4 0.44327308E-02 0.12501036E+03</pdfrwt>
<pdfrwt beam="2">  1       -4 0.20860943E-01 0.12501036E+03</pdfrwt>
<totfact> 0.96477004E+03</totfact>
</mgrwt>
</event>
<event>
 5    1  0.3309219E-002  0.1249983E+03  0.7818608E-02  0.1235072E+00
          4   -1    0    0  501    0  0.00000000000E+00  0.00000000000E+00  0.31538993795E+02  0.31564553372E+02  0.12700000000E+01 0.  1.
         -4   -1    0    0    0  501 -0.00000000000E+00 -0.00000000000E+00 -0.12377220176E+03  0.12377871718E+03  0.12700000000E+01 0.  1.
         25    2    1    2    0    0  0.00000000000E+00  0.00000000000E+00 -0.92233207962E+02  0.15534327056E+03  0.12499826821E+03 0.  0.
    9000005    1    3    3    0    0 -0.84337693711E+00 -0.46801194087E+02  0.53355817716E+01  0.47122515695E+02  0.10000000000E+01 0.  0.
    9000005    1    3    3    0    0  0.84337693711E+00  0.46801194087E+02 -0.97568789734E+02  0.10822075486E+03  0.10000000000E+01 0.  0.
<mgrwt>
<rscale>  0 0.12499827E+03</rscale>
<asrwt>0</asrwt>
<pdfrwt beam="1">  1        4 0.48546203E-02 0.12499827E+03</pdfrwt>
<pdfrwt beam="2">  1       -4 0.19044344E-01 0.12499827E+03</pdfrwt>
<totfact> 0.98251979E+03</totfact>
</mgrwt>
</event>
<event>
 5    1  0.3309219E-002  0.1249997E+03  0.7818608E-02  0.1235070E+00
         -4   -1    0    0    0  501 -0.00000000000E+00  0.00000000000E+00  0.28966402994E+02  0.28994230502E+02  0.12700000000E+01 0.  1.
          4   -1    0    0  501    0  0.00000000000E+00 -0.00000000000E+00 -0.13475828869E+03  0.13476427298E+03  0.12700000000E+01 0.  1.
         25    2    1    2    0    0  0.00000000000E+00  0.00000000000E+00 -0.10579188570E+03  0.16375850348E+03  0.12499969753E+03 0.  0.
    9000005    1    3    3    0    0 -0.39529004820E+01  0.62167410242E+02 -0.46369371520E+02  0.77662931528E+02  0.10000000000E+01 0.  0.
    9000005    1    3    3    0    0  0.39529004820E+01 -0.62167410242E+02 -0.59422514177E+02  0.86095571951E+02  0.10000000000E+01 0.  0.
<mgrwt>
<rscale>  0 0.12499970E+03</rscale>
<asrwt>0</asrwt>
<pdfrwt beam="2">  1        4 0.20734645E-01 0.12499970E+03</pdfrwt>
<pdfrwt beam="1">  1       -4 0.44589707E-02 0.12499970E+03</pdfrwt>
<totfact> 0.96623687E+03</totfact>
</mgrwt>
</event>
<event>
 5    1  0.3309219E-002  0.1250007E+03  0.7818608E-02  0.1235068E+00
         -4   -1    0    0    0  501 -0.00000000000E+00  0.00000000000E+00  0.95131322111E+02  0.95139798962E+02  0.12700000000E+01 0.  1.
          4   -1    0    0  501    0  0.00000000000E+00 -0.00000000000E+00 -0.41041971991E+02  0.41061616687E+02  0.12700000000E+01 0.  1.
         25    2    1    2    0    0  0.00000000000E+00  0.00000000000E+00  0.54089350119E+02  0.13620141565E+03  0.12500067131E+03 0.  0.
    9000005    1    3    3    0    0 -0.59141605433E+02  0.18871300640E+02  0.34859241352E+02  0.71204088286E+02  0.10000000000E+01 0.  0.
    9000005    1    3    3    0    0  0.59141605433E+02 -0.18871300640E+02  0.19230108767E+02  0.64997327362E+02  0.10000000000E+01 0.  0.
<mgrwt>
<rscale>  0 0.12500067E+03</rscale>
<asrwt>0</asrwt>
<pdfrwt beam="2">  1        4 0.63163128E-02 0.12500067E+03</pdfrwt>
<pdfrwt beam="1">  1       -4 0.14637751E-01 0.12500067E+03</pdfrwt>
<totfact> 0.10212655E+04</totfact>
</mgrwt>
</event>
<event>
 5    1  0.3309219E-002  0.1249879E+03  0.7818608E-02  0.1235088E+00
          4   -1    0    0  501    0  0.00000000000E+00  0.00000000000E+00  0.44971936348E+03  0.44972115671E+03  0.12700000000E+01 0.  1.
         -4   -1    0    0    0  501 -0.00000000000E+00 -0.00000000000E+00 -0.86360378323E+01  0.87289202907E+01  0.12700000000E+01 0.  1.
         25    2    1    2    0    0  0.00000000000E+00  0.00000000000E+00  0.44108332565E+03  0.45845007700E+03  0.12498789115E+03 0.  0.
    9000005    1    3    3    0    0 -0.57316820683E+02  0.24823508182E+02  0.21411620194E+03  0.22304298336E+03  0.10000000000E+01 0.  0.
    9000005    1    3    3    0    0  0.57316820683E+02 -0.24823508182E+02  0.22696712370E+03  0.23540709364E+03  0.10000000000E+01 0.  0.
<mgrwt>
<rscale>  0 0.12498789E+03</rscale>
<asrwt>0</asrwt>
<pdfrwt beam="1">  1        4 0.69194881E-01 0.12498789E+03</pdfrwt>
<pdfrwt beam="2">  1       -4 0.13359039E-02 0.12498789E+03</pdfrwt>
<totfact> 0.59254486E+03</totfact>
</mgrwt>
</event>
<event>
 5    1  0.3309219E-002  0.1250053E+03  0.7818608E-02  0.1235061E+00
          4   -1    0    0  501    0  0.00000000000E+00  0.00000000000E+00  0.92572041905E+01  0.93439140314E+01  0.12700000000E+01 0. -1.
         -4   -1    0    0    0  501 -0.00000000000E+00 -0.00000000000E+00 -0.41994951876E+03  0.41995143911E+03  0.12700000000E+01 0. -1.
         25    2    1    2    0    0  0.00000000000E+00  0.00000000000E+00 -0.41069231457E+03  0.42929535314E+03  0.12500529180E+03 0.  0.
    9000005    1    3    3    0    0  0.37810564271E+02 -0.46262603665E+02 -0.26826955666E+03  0.27484436014E+03  0.10000000000E+01 0.  0.
    9000005    1    3    3    0    0 -0.37810564271E+02  0.46262603665E+02 -0.14242275791E+03  0.15445099300E+03  0.10000000000E+01 0.  0.
<mgrwt>
<rscale>  0 0.12500529E+03</rscale>
<asrwt>0</asrwt>
<pdfrwt beam="1">  1        4 0.14310033E-02 0.12500529E+03</pdfrwt>
<pdfrwt beam="2">  1       -4 0.64614421E-01 0.12500529E+03</pdfrwt>
<totfact> 0.61792712E+03</totfact>
</mgrwt>
</event>
<event>
 5    1  0.3309219E-002  0.1250071E+03  0.7818608E-02  0.1235058E+00
         -4   -1    0    0    0  501 -0.00000000000E+00  0.00000000000E+00  0.25437067939E+03  0.25437384974E+03  0.12700000000E+01 0. -1.
          4   -1    0    0  501    0  0.00000000000E+00 -0.00000000000E+00 -0.15328748641E+02  0.15381268963E+02  0.12700000000E+01 0. -1.
         25    2    1    2    0    0  0.00000000000E+00  0.00000000000E+00  0.23904193075E+03  0.26975511870E+03  0.12500711745E+03 0.  0.
    9000005    1    3    3    0    0  0.54288440039E+02 -0.17557893845E+02  0.17454493539E+03  0.18363673061E+03  0.10000000000E+01 0.  0.
    9000005    1    3    3    0    0 -0.54288440039E+02  0.17557893845E+02  0.64496995355E+02  0.86118388094E+02  0.10000000000E+01 0.  0.
<mgrwt>
<rscale>  0 0.12500712E+03</rscale>
<asrwt>0</asrwt>
<pdfrwt beam="2">  1        4 0.23625527E-02 0.12500712E+03</pdfrwt>
<pdfrwt beam="1">  1       -4 0.39138237E-01 0.12500712E+03</pdfrwt>
<totfact> 0.79543667E+03</totfact>
</mgrwt>
</event>
<event>
 5    1  0.3309219E-002  0.1249984E+03  0.7818608E-02  0.1235072E+00
          4   -1    0    0  501    0  0.00000000000E+00  0.00000000000E+00  0.91128150507E+01  0.92008857263E+01  0.12700000000E+01 0.  1.
         -4   -1    0    0    0  501 -0.00000000000E+00 -0.00000000000E+00 -0.42649319283E+03  0.42649508371E+03  0.12700000000E+01 0.  1.
         25    2    1    2    0    0  0.00000000000E+00  0.00000000000E+00 -0.41738037778E+03  0.43569596944E+03  0.12499839211E+03 0.  0.
    9000005    1    3    3    0    0 -0.38578299545E+02  0.49116650326E+02 -0.21601741776E+03  0.22486719483E+03  0.10000000000E+01 0.  0.
    9000005    1    3    3    0    0  0.38578299545E+02 -0.49116650326E+02 -0.20136296002E+03  0.21082877461E+03  0.10000000000E+01 0.  0.
<mgrwt>
<rscale>  0 0.12499839E+03</rscale>
<asrwt>0</asrwt>
<pdfrwt beam="1">  1        4 0.14088920E-02 0.12499839E+03</pdfrwt>
<pdfrwt beam="2">  1       -4 0.65621242E-01 0.12499839E+03</pdfrwt>
<totfact> 0.61225236E+03</totfact>
</mgrwt>
</event>
<event>
 5    1  0.3309219E-002  0.1250202E+03  0.7818608E-02  0.1235038E+00
         -4   -1    0    0    0  501 -0.00000000000E+00  0.00000000000E+00  0.16029365420E+02  0.16079597500E+02  0.12700000000E+01 0.  1.
          4   -1    0    0  501    0  0.00000000000E+00 -0.00000000000E+00 -0.24333901728E+03  0.24334233136E+03  0.12700000000E+01 0.  1.
         25    2    1    2    0    0  0.00000000000E+00  0.00000000000E+00 -0.22730965186E+03  0.25942192886E+03  0.12502023574E+03 0.  0.
    9000005    1    3    3    0    0 -0.57952374195E+02  0.65128855824E+01 -0.16031413147E+03  0.17059459576E+03  0.10000000000E+01 0.  0.
    9000005    1    3    3    0    0  0.57952374195E+02 -0.65128855824E+01 -0.66995520397E+02  0.88827333106E+02  0.10000000000E+01 0.  0.
<mgrwt>
<rscale>  0 0.12502024E+03</rscale>
<asrwt>0</asrwt>
<pdfrwt beam="2">  1        4 0.37440888E-01 0.12502024E+03</pdfrwt>
<pdfrwt beam="1">  1       -4 0.24701753E-02 0.12502024E+03</pdfrwt>
<totfact> 0.80950783E+03</totfact>
</mgrwt>
</event>
<event>
 5    1  0.3309219E-002  0.1250010E+03  0.7818608E-02  0.1235068E+00
         -4   -1    0    0    0  501 -0.00000000000E+00  0.00000000000E+00  0.48092314514E+02  0.48109080383E+02  0.12700000000E+01 0.  1.
          4   -1    0    0  501    0  0.00000000000E+00 -0.00000000000E+00 -0.81189468025E+02  0.81199400356E+02  0.12700000000E+01 0.  1.
         25    2    1    2    0    0  0.00000000000E+00  0.00000000000E+00 -0.33097153511E+02  0.12930848074E+03  0.12500104648E+03 0.  0.
    9000005    1    3    3    0    0 -0.28408469589E+02  0.55549358896E+02 -0.20212225646E+02  0.65591969659E+02  0.10000000000E+01 0.  0.
    9000005    1    3    3    0    0  0.28408469589E+02 -0.55549358896E+02 -0.12884927865E+02  0.63716511080E+02  0.10000000000E+01 0.  0.
<mgrwt>
<rscale>  0 0.12500105E+03</rscale>
<asrwt>0</asrwt>
<pdfrwt beam="2">  1        4 0.12492741E-01 0.12500105E+03</pdfrwt>
<pdfrwt beam="1">  1       -4 0.74008713E-02 0.12500105E+03</pdfrwt>
<totfact> 0.10359078E+04</totfact>
</mgrwt>
</event>
<event>
 5    1  0.3309219E-002  0.1250095E+03  0.7818608E-02  0.1235054E+00
         -4   -1    0    0    0  501 -0.00000000000E+00  0.00000000000E+00  0.13052722419E+02  0.13114360928E+02  0.12700000000E+01 0. -1.
          4   -1    0    0  501    0  0.00000000000E+00 -0.00000000000E+00 -0.29854442383E+03  0.29854712509E+03  0.12700000000E+01 0. -1.
         25    2    1    2    0    0  0.00000000000E+00  0.00000000000E+00 -0.28549170141E+03  0.31166148602E+03  0.12500948081E+03 0.  0.
    9000005    1    3    3    0    0  0.69353875737E+01 -0.30002219672E+02 -0.27833053149E+03  0.28003056538E+03  0.10000000000E+01 0.  0.
    9000005    1    3    3    0    0 -0.69353875737E+01  0.30002219672E+02 -0.71611699233E+01  0.31630920643E+02  0.10000000000E+01 0.  0.
<mgrwt>
<rscale>  0 0.12500948E+03</rscale>
<asrwt>0</asrwt>
<pdfrwt beam="2">  1        4 0.45934855E-01 0.12500948E+03</pdfrwt>
<pdfrwt beam="1">  1       -4 0.20130606E-02 0.12500948E+03</pdfrwt>
<totfact> 0.74143354E+03</totfact>
</mgrwt>
</event>
<event>
 5    1  0.3309219E-002  0.1250004E+03  0.7818608E-02  0.1235069E+00
          4   -1    0    0  501    0  0.00000000000E+00  0.00000000000E+00  0.56687256600E+02  0.56701481116E+02  0.12700000000E+01 0. -1.
         -4   -1    0    0    0  501 -0.00000000000E+00 -0.00000000000E+00 -0.68880461699E+02  0.68892168669E+02  0.12700000000E+01 0. -1.
         25    2    1    2    0    0  0.00000000000E+00  0.00000000000E+00 -0.12193205100E+02  0.12559364979E+03  0.12500036246E+03 0.  0.
    9000005    1    3    3    0    0  0.17322083963E+02  0.46542213765E+02  0.32018132236E+02  0.59096472372E+02  0.10000000000E+01 0.  0.
    9000005    1    3    3    0    0 -0.17322083963E+02 -0.46542213765E+02 -0.44211337335E+02  0.66497177413E+02  0.10000000000E+01 0.  0.
<mgrwt>
<rscale>  0 0.12500036E+03</rscale>
<asrwt>0</asrwt>
<pdfrwt beam="1">  1        4 0.87231111E-02 0.12500036E+03</pdfrwt>
<pdfrwt beam="2">  1       -4 0.10598989E-01 0.12500036E+03</pdfrwt>
<totfact> 0.10439802E+04</totfact>
</mgrwt>
</event>
<event>
 5    1  0.3309219E-002  0.1249964E+03  0.7818608E-02  0.1235075E+00
          4   -1    0    0  501    0  0.00000000000E+00  0.00000000000E+00  0.75283065482E+02  0.75293776956E+02  0.12700000000E+01 0.  1.
         -4   -1    0    0    0  501 -0.00000000000E+00 -0.00000000000E+00 -0.51862347757E+02  0.51877895243E+02  0.12700000000E+01 0.  1.
         25    2    1    2    0    0  0.00000000000E+00  0.00000000000E+00  0.23420717725E+02  0.12717167220E+03  0.12499641671E+03 0.  0.
    9000005    1    3    3    0    0 -0.59023002545E+02  0.16092569222E+02 -0.12526605188E+01  0.61198486680E+02  0.10000000000E+01 0.  0.
    9000005    1    3    3    0    0  0.59023002545E+02 -0.16092569222E+02  0.24673378244E+02  0.65973185519E+02  0.10000000000E+01 0.  0.
<mgrwt>
<rscale>  0 0.12499642E+03</rscale>
<asrwt>0</asrwt>
<pdfrwt beam="1">  1        4 0.11584030E-01 0.12499642E+03</pdfrwt>
<pdfrwt beam="2">  1       -4 0.79808427E-02 0.12499642E+03</pdfrwt>
<totfact> 0.10406260E+04</totfact>
</mgrwt>
</event>
<event>
 5    1  0.3309219E-002  0.1250014E+03  0.7818608E-02  0.1235067E+00
         -4   -1    0    0    0  501 -0.00000000000E+00  0.00000000000E+00  0.93301703101E+02  0.93310346166E+02  0.12700000000E+01 0.  1.
          4   -1    0    0  501    0  0.00000000000E+00 -0.00000000000E+00 -0.41847573579E+02  0.41866840273E+02  0.12700000000E+01 0.  1.
         25    2    1    2    0    0  0.00000000000E+00  0.00000000000E+00  0.51454129522E+02  0.13517718644E+03  0.12500137715E+03 0.  0.
    9000005    1    3    3    0    0  0.34770586171E+02  0.26432478492E+02  0.74060770918E+02  0.85986437134E+02  0.10000000000E+01 0.  0.
    9000005    1    3    3    0    0 -0.34770586171E+02 -0.26432478492E+02 -0.22606641397E+02  0.49190749305E+02  0.10000000000E+01 0.  0.
<mgrwt>
<rscale>  0 0.12500138E+03</rscale>
<asrwt>0</asrwt>
<pdfrwt beam="2">  1        4 0.64402353E-02 0.12500138E+03</pdfrwt>
<pdfrwt beam="1">  1       -4 0.14356255E-01 0.12500138E+03</pdfrwt>
<totfact> 0.10234020E+04</totfact>
</mgrwt>
</event>
