<event>
 5    1  0.3246948E-002  0.1250000E+03  0.7818608E-02  0.1235069E+00
          4   -1    0    0  501    0  0.00000000000E+00  0.00000000000E+00  0.83743320965E+02  0.83752950433E+02  0.12700000000E+01 0.  1.
         -4   -1    0    0    0  501 -0.00000000000E+00 -0.00000000000E+00 -0.46624571388E+02  0.46641864855E+02  0.12700000000E+01 0.  1.
         25    2    1    2    0    0  0.00000000000E+00  0.00000000000E+00  0.37118749577E+02  0.13039481529E+03  0.12500002514E+03 0.  0.
    9000005    1    3    3    0    0  0.62234340274E+02 -0.54720086696E+01  0.17013675062E+02  0.64757402104E+02  0.10000000000E+01 0.  0.
    9000005    1    3    3    0    0 -0.62234340274E+02  0.54720086696E+01  0.20105074514E+02  0.65637413183E+02  0.10000000000E+01 0.  0.
<mgrwt>
<rscale>  0 0.12500003E+03</rscale>
<asrwt>0</asrwt>
<pdfrwt beam="1">  1        4 0.12885659E-01 0.12500003E+03</pdfrwt>
<pdfrwt beam="2">  1       -4 0.71750820E-02 0.12500003E+03</pdfrwt>
<totfact> 0.10336063E+04</totfact>
</mgrwt>
</event>
<event>
 5    1  0.3246948E-002  0.1249997E+03  0.7818608E-02  0.1235070E+00
          4   -1    0    0  501    0  0.00000000000E+00  0.00000000000E+00  0.10905865080E+03  0.10906604519E+03  0.12700000000E+01 0.  1.
         -4   -1    0    0    0  501 -0.00000000000E+00 -0.00000000000E+00 -0.35797865667E+02  0.35820386463E+02  0.12700000000E+01 0.  1.
         25    2    1    2    0    0  0.00000000000E+00  0.00000000000E+00  0.73260785133E+02  0.14488643166E+03  0.12499974176E+03 0.  0.
    9000005    1    3    3    0    0  0.61375720204E+02 -0.18603214824E+01  0.50087568653E+02  0.79247740410E+02  0.10000000000E+01 0.  0.
    9000005    1    3    3    0    0 -0.61375720204E+02  0.18603214824E+01  0.23173216480E+02  0.65638691247E+02  0.10000000000E+01 0.  0.
<mgrwt>
<rscale>  0 0.12499974E+03</rscale>
<asrwt>0</asrwt>
<pdfrwt beam="1">  1        4 0.16780555E-01 0.12499974E+03</pdfrwt>
<pdfrwt beam="2">  1       -4 0.55096652E-02 0.12499974E+03</pdfrwt>
<totfact> 0.10033355E+04</totfact>
</mgrwt>
</event>
<event>
 5    1  0.3246948E-002  0.1250144E+03  0.7818608E-02  0.1235047E+00
          4   -1    0    0  501    0  0.00000000000E+00  0.00000000000E+00  0.41621366532E+02  0.41640737890E+02  0.12700000000E+01 0. -1.
         -4   -1    0    0    0  501 -0.00000000000E+00 -0.00000000000E+00 -0.93828170342E+02  0.93836764915E+02  0.12700000000E+01 0. -1.
         25    2    1    2    0    0  0.00000000000E+00  0.00000000000E+00 -0.52206803810E+02  0.13547750281E+03  0.12501441278E+03 0.  0.
    9000005    1    3    3    0    0 -0.38745616383E+02  0.11378869841E+02 -0.77797467219E+02  0.87659268611E+02  0.10000000000E+01 0.  0.
    9000005    1    3    3    0    0  0.38745616383E+02 -0.11378869841E+02  0.25590663408E+02  0.47818234194E+02  0.10000000000E+01 0.  0.
<mgrwt>
<rscale>  0 0.12501441E+03</rscale>
<asrwt>0</asrwt>
<pdfrwt beam="1">  1        4 0.64054384E-02 0.12501441E+03</pdfrwt>
<pdfrwt beam="2">  1       -4 0.14437254E-01 0.12501441E+03</pdfrwt>
<totfact> 0.10224693E+04</totfact>
</mgrwt>
</event>
<event>
 5    1  0.3246948E-002  0.1249968E+03  0.7818608E-02  0.1235074E+00
          4   -1    0    0  501    0  0.00000000000E+00  0.00000000000E+00  0.23771612408E+02  0.23805513153E+02  0.12700000000E+01 0.  1.
         -4   -1    0    0    0  501 -0.00000000000E+00 -0.00000000000E+00 -0.16416238788E+03  0.16416730032E+03  0.12700000000E+01 0.  1.
         25    2    1    2    0    0  0.00000000000E+00  0.00000000000E+00 -0.14039077547E+03  0.18797281347E+03  0.12499683503E+03 0.  0.
    9000005    1    3    3    0    0  0.56294411494E+02 -0.26903941467E+02 -0.75441407127E+02  0.97904487851E+02  0.10000000000E+01 0.  0.
    9000005    1    3    3    0    0 -0.56294411494E+02  0.26903941467E+02 -0.64949368344E+02  0.90068325621E+02  0.10000000000E+01 0.  0.
<mgrwt>
<rscale>  0 0.12499684E+03</rscale>
<asrwt>0</asrwt>
<pdfrwt beam="1">  1        4 0.36601569E-02 0.12499684E+03</pdfrwt>
<pdfrwt beam="2">  1       -4 0.25258737E-01 0.12499684E+03</pdfrwt>
<totfact> 0.92207778E+03</totfact>
</mgrwt>
</event>
<event>
 5    1  0.3246948E-002  0.1249943E+03  0.7818608E-02  0.1235078E+00
          4   -1    0    0  501    0  0.00000000000E+00  0.00000000000E+00  0.15559750078E+04  0.15559755261E+04  0.12700000000E+01 0.  1.
         -4   -1    0    0    0  501 -0.00000000000E+00 -0.00000000000E+00 -0.23490726086E+01  0.26704011160E+01  0.12700000000E+01 0.  1.
         25    2    1    2    0    0  0.00000000000E+00  0.00000000000E+00  0.15536259352E+04  0.15586459272E+04  0.12499431949E+03 0.  0.
    9000005    1    3    3    0    0 -0.44850673886E+02 -0.19514178171E+02  0.12617732355E+04  0.12627213009E+04  0.10000000000E+01 0.  0.
    9000005    1    3    3    0    0  0.44850673886E+02  0.19514178171E+02  0.29185269971E+03  0.29592462626E+03  0.10000000000E+01 0.  0.
<mgrwt>
<rscale>  0 0.12499432E+03</rscale>
<asrwt>0</asrwt>
<pdfrwt beam="1">  1        4 0.23940507E+00 0.12499432E+03</pdfrwt>
<pdfrwt beam="2">  1       -4 0.38615397E-03 0.12499432E+03</pdfrwt>
<totfact> 0.16808133E+03</totfact>
</mgrwt>
</event>
<event>
 5    1  0.3246948E-002  0.1249996E+03  0.7818608E-02  0.1235070E+00
          4   -1    0    0  501    0  0.00000000000E+00  0.00000000000E+00  0.11452076347E+03  0.11452780521E+03  0.12700000000E+01 0. -1.
         -4   -1    0    0    0  501 -0.00000000000E+00 -0.00000000000E+00 -0.34089428079E+02  0.34113076770E+02  0.12700000000E+01 0. -1.
         25    2    1    2    0    0  0.00000000000E+00  0.00000000000E+00  0.80431335392E+02  0.14864088198E+03  0.12499964833E+03 0.  0.
    9000005    1    3    3    0    0 -0.23446376086E+02 -0.53814318514E+02  0.14725121819E+02  0.60527205795E+02  0.10000000000E+01 0.  0.
    9000005    1    3    3    0    0  0.23446376086E+02  0.53814318514E+02  0.65706213573E+02  0.88113676185E+02  0.10000000000E+01 0.  0.
<mgrwt>
<rscale>  0 0.12499965E+03</rscale>
<asrwt>0</asrwt>
<pdfrwt beam="1">  1        4 0.17620940E-01 0.12499965E+03</pdfrwt>
<pdfrwt beam="2">  1       -4 0.52468881E-02 0.12499965E+03</pdfrwt>
<totfact> 0.99576098E+03</totfact>
</mgrwt>
</event>
<event>
 5    1  0.3246948E-002  0.1249996E+03  0.7818608E-02  0.1235070E+00
         -4   -1    0    0    0  501 -0.00000000000E+00  0.00000000000E+00  0.12692994213E+03  0.12693629548E+03  0.12700000000E+01 0.  1.
          4   -1    0    0  501    0  0.00000000000E+00 -0.00000000000E+00 -0.30754435223E+02  0.30780646288E+02  0.12700000000E+01 0.  1.
         25    2    1    2    0    0  0.00000000000E+00  0.00000000000E+00  0.96175506910E+02  0.15771694177E+03  0.12499962236E+03 0.  0.
    9000005    1    3    3    0    0 -0.28033089688E+02 -0.38320607076E+02 -0.31783690697E+01  0.47596481740E+02  0.10000000000E+01 0.  0.
    9000005    1    3    3    0    0  0.28033089688E+02  0.38320607076E+02  0.99353875980E+02  0.11012046003E+03  0.10000000000E+01 0.  0.
<mgrwt>
<rscale>  0 0.12499962E+03</rscale>
<asrwt>0</asrwt>
<pdfrwt beam="2">  1        4 0.47339564E-02 0.12499962E+03</pdfrwt>
<pdfrwt beam="1">  1       -4 0.19530189E-01 0.12499962E+03</pdfrwt>
<totfact> 0.97785584E+03</totfact>
</mgrwt>
</event>
<event>
 5    1  0.3246948E-002  0.1250035E+03  0.7818608E-02  0.1235064E+00
         -4   -1    0    0    0  501 -0.00000000000E+00  0.00000000000E+00  0.35747571447E+02  0.35770123907E+02  0.12700000000E+01 0.  1.
          4   -1    0    0  501    0  0.00000000000E+00 -0.00000000000E+00 -0.10921860679E+03  0.10922599035E+03  0.12700000000E+01 0.  1.
         25    2    1    2    0    0  0.00000000000E+00  0.00000000000E+00 -0.73471035341E+02  0.14499611426E+03  0.12500352042E+03 0.  0.
    9000005    1    3    3    0    0 -0.25048551620E+02  0.46172139659E+02 -0.76005374888E+02  0.92396501183E+02  0.10000000000E+01 0.  0.
    9000005    1    3    3    0    0  0.25048551620E+02 -0.46172139659E+02  0.25343395470E+01  0.52599613078E+02  0.10000000000E+01 0.  0.
<mgrwt>
<rscale>  0 0.12500352E+03</rscale>
<asrwt>0</asrwt>
<pdfrwt beam="2">  1        4 0.16805165E-01 0.12500352E+03</pdfrwt>
<pdfrwt beam="1">  1       -4 0.55019292E-02 0.12500352E+03</pdfrwt>
<totfact> 0.10030272E+04</totfact>
</mgrwt>
</event>
<event>
 5    1  0.3246948E-002  0.1250580E+03  0.7818608E-02  0.1234979E+00
         -4   -1    0    0    0  501 -0.00000000000E+00  0.00000000000E+00  0.63143765293E+02  0.63156535650E+02  0.12700000000E+01 0.  1.
          4   -1    0    0  501    0  0.00000000000E+00 -0.00000000000E+00 -0.61894687496E+02  0.61907715514E+02  0.12700000000E+01 0.  1.
         25    2    1    2    0    0  0.00000000000E+00  0.00000000000E+00  0.12490777968E+01  0.12506425116E+03  0.12505801343E+03 0.  0.
    9000005    1    3    3    0    0 -0.23710942634E+02 -0.57729679783E+02  0.43599564636E+01  0.62569433023E+02  0.10000000000E+01 0.  0.
    9000005    1    3    3    0    0  0.23710942634E+02  0.57729679783E+02 -0.31108786668E+01  0.62494818141E+02  0.10000000000E+01 0.  0.
<mgrwt>
<rscale>  0 0.12505801E+03</rscale>
<asrwt>0</asrwt>
<pdfrwt beam="2">  1        4 0.95242441E-02 0.12505801E+03</pdfrwt>
<pdfrwt beam="1">  1       -4 0.97164100E-02 0.12505801E+03</pdfrwt>
<totfact> 0.10437776E+04</totfact>
</mgrwt>
</event>
<event>
 5    1  0.3246948E-002  0.1250013E+03  0.7818608E-02  0.1235067E+00
         -4   -1    0    0    0  501 -0.00000000000E+00  0.00000000000E+00  0.73975559766E+03  0.73975668781E+03  0.12700000000E+01 0. -1.
          4   -1    0    0  501    0  0.00000000000E+00 -0.00000000000E+00 -0.52030962073E+01  0.53558482188E+01  0.12700000000E+01 0. -1.
         25    2    1    2    0    0  0.00000000000E+00  0.00000000000E+00  0.73455250145E+03  0.74511253603E+03  0.12500125586E+03 0.  0.
    9000005    1    3    3    0    0 -0.19310793332E+02  0.13015136241E+02  0.21597459809E+02  0.31776575975E+02  0.10000000000E+01 0.  0.
    9000005    1    3    3    0    0  0.19310793332E+02 -0.13015136241E+02  0.71295504164E+03  0.71333596006E+03  0.10000000000E+01 0.  0.
<mgrwt>
<rscale>  0 0.12500126E+03</rscale>
<asrwt>0</asrwt>
<pdfrwt beam="2">  1        4 0.81230968E-03 0.12500126E+03</pdfrwt>
<pdfrwt beam="1">  1       -4 0.11382048E+00 0.12500126E+03</pdfrwt>
<totfact> 0.40807850E+03</totfact>
</mgrwt>
</event>
<event>
 5    1  0.3246948E-002  0.1250313E+03  0.7818608E-02  0.1235020E+00
          4   -1    0    0  501    0  0.00000000000E+00  0.00000000000E+00  0.25460762511E+03  0.25461079251E+03  0.12700000000E+01 0. -1.
         -4   -1    0    0    0  501 -0.00000000000E+00 -0.00000000000E+00 -0.15320378644E+02  0.15372927561E+02  0.12700000000E+01 0. -1.
         25    2    1    2    0    0  0.00000000000E+00  0.00000000000E+00  0.23928724647E+03  0.26998372008E+03  0.12503128722E+03 0.  0.
    9000005    1    3    3    0    0  0.42015468332E+01 -0.56627934156E+02  0.17606908209E+03  0.18500188537E+03  0.10000000000E+01 0.  0.
    9000005    1    3    3    0    0 -0.42015468332E+01  0.56627934156E+02  0.63218164378E+02  0.84981834705E+02  0.10000000000E+01 0.  0.
<mgrwt>
<rscale>  0 0.12503129E+03</rscale>
<asrwt>0</asrwt>
<pdfrwt beam="1">  1        4 0.39174686E-01 0.12503129E+03</pdfrwt>
<pdfrwt beam="2">  1       -4 0.23612674E-02 0.12503129E+03</pdfrwt>
<totfact> 0.79469768E+03</totfact>
</mgrwt>
</event>
<event>
 5    1  0.3246948E-002  0.1250000E+03  0.7818608E-02  0.1235069E+00
          4   -1    0    0  501    0  0.00000000000E+00  0.00000000000E+00  0.17647216495E+02  0.17692855904E+02  0.12700000000E+01 0. -1.
         -4   -1    0    0    0  501 -0.00000000000E+00 -0.00000000000E+00 -0.22101895579E+03  0.22102260454E+03  0.12700000000E+01 0. -1.
         25    2    1    2    0    0  0.00000000000E+00  0.00000000000E+00 -0.20337173930E+03  0.23871546045E+03  0.12500002685E+03 0.  0.
    9000005    1    3    3    0    0  0.61067469981E+02 -0.52778612566E+01 -0.78440530887E+02  0.99554048613E+02  0.10000000000E+01 0.  0.
    9000005    1    3    3    0    0 -0.61067469981E+02  0.52778612566E+01 -0.12493120841E+03  0.13916141183E+03  0.10000000000E+01 0.  0.
<mgrwt>
<rscale>  0 0.12500003E+03</rscale>
<asrwt>0</asrwt>
<pdfrwt beam="1">  1        4 0.27187479E-02 0.12500003E+03</pdfrwt>
<pdfrwt beam="2">  1       -4 0.34006706E-01 0.12500003E+03</pdfrwt>
<totfact> 0.83989000E+03</totfact>
</mgrwt>
</event>
<event>
 4    1  0.3246948E-002  0.1247855E+03  0.7818608E-02  0.1235405E+00
          4   -1    0    0  501    0  0.00000000000E+00  0.00000000000E+00  0.47896839745E+02  0.47913674014E+02  0.12700000000E+01 0.  1.
         -4   -1    0    0    0  501 -0.00000000000E+00 -0.00000000000E+00 -0.81239784010E+02  0.81249710190E+02  0.12700000000E+01 0.  1.
    9000005    1    1    2    0    0 -0.26234671928E+02 -0.20105203704E+02 -0.71436851942E+02  0.78719127552E+02  0.10000000000E+01 0.  0.
    9000005    1    1    2    0    0  0.26234671928E+02  0.20105203704E+02  0.38093907677E+02  0.50444256653E+02  0.10000000000E+01 0.  0.
<mgrwt>
<rscale>  0 0.12478553E+03</rscale>
<asrwt>0</asrwt>
<pdfrwt beam="1">  1        4 0.73708031E-02 0.12478553E+03</pdfrwt>
<pdfrwt beam="2">  1       -4 0.12500487E-01 0.12478553E+03</pdfrwt>
<totfact> 0.10412767E+04</totfact>
</mgrwt>
</event>
<event>
 5    1  0.3246948E-002  0.1250020E+03  0.7818608E-02  0.1235066E+00
         -4   -1    0    0    0  501 -0.00000000000E+00  0.00000000000E+00  0.49918496256E+02  0.49934648977E+02  0.12700000000E+01 0. -1.
          4   -1    0    0  501    0  0.00000000000E+00 -0.00000000000E+00 -0.78221053469E+02  0.78231362674E+02  0.12700000000E+01 0. -1.
         25    2    1    2    0    0  0.00000000000E+00  0.00000000000E+00 -0.28302557213E+02  0.12816601165E+03  0.12500196718E+03 0.  0.
    9000005    1    3    3    0    0  0.80103243990E+01  0.10604167871E+02  0.48457927320E+02  0.50257182505E+02  0.10000000000E+01 0.  0.
    9000005    1    3    3    0    0 -0.80103243990E+01 -0.10604167871E+02 -0.76760484533E+02  0.77908829146E+02  0.10000000000E+01 0.  0.
<mgrwt>
<rscale>  0 0.12500197E+03</rscale>
<asrwt>0</asrwt>
<pdfrwt beam="2">  1        4 0.12036044E-01 0.12500197E+03</pdfrwt>
<pdfrwt beam="1">  1       -4 0.76818042E-02 0.12500197E+03</pdfrwt>
<totfact> 0.10383443E+04</totfact>
</mgrwt>
</event>
<event>
 5    1  0.3246948E-002  0.1249964E+03  0.7818608E-02  0.1235075E+00
          4   -1    0    0  501    0  0.00000000000E+00  0.00000000000E+00  0.30159317073E+01  0.32724217428E+01  0.12700000000E+01 0.  1.
         -4   -1    0    0    0  501 -0.00000000000E+00 -0.00000000000E+00 -0.12420486951E+04  0.12420493444E+04  0.12700000000E+01 0.  1.
         25    2    1    2    0    0  0.00000000000E+00  0.00000000000E+00 -0.12390327634E+04  0.12453217661E+04  0.12499644972E+03 0.  0.
    9000005    1    3    3    0    0  0.53496886211E+02 -0.79994402853E+01 -0.30776964700E+03  0.31248850138E+03  0.10000000000E+01 0.  0.
    9000005    1    3    3    0    0 -0.53496886211E+02  0.79994402853E+01 -0.93126311638E+03  0.93283326474E+03  0.10000000000E+01 0.  0.
<mgrwt>
<rscale>  0 0.12499645E+03</rscale>
<asrwt>0</asrwt>
<pdfrwt beam="1">  1        4 0.48377043E-03 0.12499645E+03</pdfrwt>
<pdfrwt beam="2">  1       -4 0.19110380E+00 0.12499645E+03</pdfrwt>
<totfact> 0.23558187E+03</totfact>
</mgrwt>
</event>
<event>
 5    1  0.3246948E-002  0.1250020E+03  0.7818608E-02  0.1235066E+00
          4   -1    0    0  501    0  0.00000000000E+00  0.00000000000E+00  0.79860712490E+02  0.79870810059E+02  0.12700000000E+01 0.  1.
         -4   -1    0    0    0  501 -0.00000000000E+00 -0.00000000000E+00 -0.48893425462E+02  0.48909916719E+02  0.12700000000E+01 0.  1.
         25    2    1    2    0    0  0.00000000000E+00  0.00000000000E+00  0.30967287028E+02  0.12878072678E+03  0.12500201088E+03 0.  0.
    9000005    1    3    3    0    0 -0.16470319185E+02 -0.46815723218E+02  0.54610555541E+02  0.73799025272E+02  0.10000000000E+01 0.  0.
    9000005    1    3    3    0    0  0.16470319185E+02  0.46815723218E+02 -0.23643268513E+02  0.54981701506E+02  0.10000000000E+01 0.  0.
<mgrwt>
<rscale>  0 0.12500201E+03</rscale>
<asrwt>0</asrwt>
<pdfrwt beam="1">  1        4 0.12288309E-01 0.12500201E+03</pdfrwt>
<pdfrwt beam="2">  1       -4 0.75241108E-02 0.12500201E+03</pdfrwt>
<totfact> 0.10370190E+04</totfact>
</mgrwt>
</event>
<event>
 5    1  0.3246948E-002  0.1250006E+03  0.7818608E-02  0.1235068E+00
         -4   -1    0    0    0  501 -0.00000000000E+00  0.00000000000E+00  0.51975332006E+02  0.51990845705E+02  0.12700000000E+01 0.  1.
          4   -1    0    0  501    0  0.00000000000E+00 -0.00000000000E+00 -0.75124510836E+02  0.75135244914E+02  0.12700000000E+01 0.  1.
         25    2    1    2    0    0  0.00000000000E+00  0.00000000000E+00 -0.23149178829E+02  0.12712609062E+03  0.12500063374E+03 0.  0.
    9000005    1    3    3    0    0  0.30477151079E+02 -0.41501178024E+01 -0.66898175750E+02  0.73637260503E+02  0.10000000000E+01 0.  0.
    9000005    1    3    3    0    0 -0.30477151079E+02  0.41501178024E+01  0.43748996921E+02  0.53488830116E+02  0.10000000000E+01 0.  0.
<mgrwt>
<rscale>  0 0.12500063E+03</rscale>
<asrwt>0</asrwt>
<pdfrwt beam="2">  1        4 0.11559636E-01 0.12500063E+03</pdfrwt>
<pdfrwt beam="1">  1       -4 0.79982239E-02 0.12500063E+03</pdfrwt>
<totfact> 0.10406259E+04</totfact>
</mgrwt>
</event>
<event>
 5    1  0.3246948E-002  0.1249985E+03  0.7818608E-02  0.1235072E+00
         -4   -1    0    0    0  501 -0.00000000000E+00  0.00000000000E+00  0.19459458165E+04  0.19459462310E+04  0.12700000000E+01 0.  1.
          4   -1    0    0  501    0  0.00000000000E+00 -0.00000000000E+00 -0.18059989741E+01  0.22078342996E+01  0.12700000000E+01 0.  1.
         25    2    1    2    0    0  0.00000000000E+00  0.00000000000E+00  0.19441398176E+04  0.19481540653E+04  0.12499852705E+03 0.  0.
    9000005    1    3    3    0    0 -0.21164623589E+02  0.83845488823E+01  0.65042071955E+02  0.68918162162E+02  0.10000000000E+01 0.  0.
    9000005    1    3    3    0    0  0.21164623589E+02 -0.83845488823E+01  0.18790977456E+04  0.18792359031E+04  0.10000000000E+01 0.  0.
<mgrwt>
<rscale>  0 0.12499853E+03</rscale>
<asrwt>0</asrwt>
<pdfrwt beam="2">  1        4 0.30878487E-03 0.12499853E+03</pdfrwt>
<pdfrwt beam="1">  1       -4 0.29941053E+00 0.12499853E+03</pdfrwt>
<totfact> 0.10553240E+03</totfact>
</mgrwt>
</event>
<event>
 5    1  0.3246948E-002  0.1249987E+03  0.7818608E-02  0.1235071E+00
         -4   -1    0    0    0  501 -0.00000000000E+00  0.00000000000E+00  0.18084352734E+03  0.18084798666E+03  0.12700000000E+01 0.  1.
          4   -1    0    0  501    0  0.00000000000E+00 -0.00000000000E+00 -0.21576306549E+02  0.21613650878E+02  0.12700000000E+01 0.  1.
         25    2    1    2    0    0  0.00000000000E+00  0.00000000000E+00  0.15926722079E+03  0.20246163754E+03  0.12499866822E+03 0.  0.
    9000005    1    3    3    0    0  0.40599538662E+02 -0.35372106327E+02  0.13099805358E+03  0.14163685427E+03  0.10000000000E+01 0.  0.
    9000005    1    3    3    0    0 -0.40599538662E+02  0.35372106327E+02  0.28269167212E+02  0.60824783275E+02  0.10000000000E+01 0.  0.
<mgrwt>
<rscale>  0 0.12499867E+03</rscale>
<asrwt>0</asrwt>
<pdfrwt beam="2">  1        4 0.33226476E-02 0.12499867E+03</pdfrwt>
<pdfrwt beam="1">  1       -4 0.27825296E-01 0.12499867E+03</pdfrwt>
<totfact> 0.89724660E+03</totfact>
</mgrwt>
</event>
<event>
 5    1  0.3246948E-002  0.1249965E+03  0.7818608E-02  0.1235075E+00
         -4   -1    0    0    0  501 -0.00000000000E+00  0.00000000000E+00  0.33156099908E+03  0.33156343135E+03  0.12700000000E+01 0. -1.
          4   -1    0    0  501    0  0.00000000000E+00 -0.00000000000E+00 -0.11744027899E+02  0.11812497251E+02  0.12700000000E+01 0. -1.
         25    2    1    2    0    0  0.00000000000E+00  0.00000000000E+00  0.31981697118E+03  0.34337592861E+03  0.12499653311E+03 0.  0.
    9000005    1    3    3    0    0  0.25683851474E+02 -0.48770245724E+02  0.79028622751E+02  0.96357253533E+02  0.10000000000E+01 0.  0.
    9000005    1    3    3    0    0 -0.25683851474E+02  0.48770245724E+02  0.24078834843E+03  0.24701867507E+03  0.10000000000E+01 0.  0.
<mgrwt>
<rscale>  0 0.12499653E+03</rscale>
<asrwt>0</asrwt>
<pdfrwt beam="2">  1        4 0.18122279E-02 0.12499653E+03</pdfrwt>
<pdfrwt beam="1">  1       -4 0.51014828E-01 0.12499653E+03</pdfrwt>
<totfact> 0.70464899E+03</totfact>
</mgrwt>
</event>
<event>
 5    1  0.3246948E-002  0.1250002E+03  0.7818608E-02  0.1235069E+00
         -4   -1    0    0    0  501 -0.00000000000E+00  0.00000000000E+00  0.38992046894E+02  0.39012723835E+02  0.12700000000E+01 0.  1.
          4   -1    0    0  501    0  0.00000000000E+00 -0.00000000000E+00 -0.10012967516E+03  0.10013772889E+03  0.12700000000E+01 0.  1.
         25    2    1    2    0    0  0.00000000000E+00  0.00000000000E+00 -0.61137628262E+02  0.13915045272E+03  0.12500015561E+03 0.  0.
    9000005    1    3    3    0    0 -0.29062924829E+01  0.53820032272E+02  0.46375563217E+01  0.54106832640E+02  0.10000000000E+01 0.  0.
    9000005    1    3    3    0    0  0.29062924829E+01 -0.53820032272E+02 -0.65775184584E+02  0.85043620083E+02  0.10000000000E+01 0.  0.
<mgrwt>
<rscale>  0 0.12500016E+03</rscale>
<asrwt>0</asrwt>
<pdfrwt beam="2">  1        4 0.15406775E-01 0.12500016E+03</pdfrwt>
<pdfrwt beam="1">  1       -4 0.60009865E-02 0.12500016E+03</pdfrwt>
<totfact> 0.10151188E+04</totfact>
</mgrwt>
</event>
<event>
 5    1  0.3246948E-002  0.1249962E+03  0.7818608E-02  0.1235075E+00
         -4   -1    0    0    0  501 -0.00000000000E+00  0.00000000000E+00  0.19179769354E+03  0.19180189818E+03  0.12700000000E+01 0.  1.
          4   -1    0    0  501    0  0.00000000000E+00 -0.00000000000E+00 -0.20341037006E+02  0.20380644898E+02  0.12700000000E+01 0.  1.
         25    2    1    2    0    0  0.00000000000E+00  0.00000000000E+00  0.17145665653E+03  0.21218254308E+03  0.12499618602E+03 0.  0.
    9000005    1    3    3    0    0  0.18124096969E+02 -0.15421685460E+02  0.18381310556E+03  0.18534985581E+03  0.10000000000E+01 0.  0.
    9000005    1    3    3    0    0 -0.18124096969E+02  0.15421685460E+02 -0.12356449031E+02  0.26832687267E+02  0.10000000000E+01 0.  0.
<mgrwt>
<rscale>  0 0.12499619E+03</rscale>
<asrwt>0</asrwt>
<pdfrwt beam="2">  1        4 0.31327606E-02 0.12499619E+03</pdfrwt>
<pdfrwt beam="1">  1       -4 0.29510706E-01 0.12499619E+03</pdfrwt>
<totfact> 0.88128192E+03</totfact>
</mgrwt>
</event>
<event>
 5    1  0.3246948E-002  0.1250081E+03  0.7818608E-02  0.1235057E+00
          4   -1    0    0  501    0  0.00000000000E+00  0.00000000000E+00  0.26551898074E+03  0.26552201798E+03  0.12700000000E+01 0.  1.
         -4   -1    0    0    0  501 -0.00000000000E+00 -0.00000000000E+00 -0.14683135046E+02  0.14737956262E+02  0.12700000000E+01 0.  1.
         25    2    1    2    0    0  0.00000000000E+00  0.00000000000E+00  0.25083584569E+03  0.28025997424E+03  0.12500812645E+03 0.  0.
    9000005    1    3    3    0    0  0.56792798775E+02  0.16723584496E+01  0.67061316643E+02  0.87900164763E+02  0.10000000000E+01 0.  0.
    9000005    1    3    3    0    0 -0.56792798775E+02 -0.16723584496E+01  0.18377452905E+03  0.19235980948E+03  0.10000000000E+01 0.  0.
<mgrwt>
<rscale>  0 0.12500813E+03</rscale>
<asrwt>0</asrwt>
<pdfrwt beam="1">  1        4 0.40853525E-01 0.12500813E+03</pdfrwt>
<pdfrwt beam="2">  1       -4 0.22633945E-02 0.12500813E+03</pdfrwt>
<totfact> 0.78129532E+03</totfact>
</mgrwt>
</event>
<event>
 5    1  0.3246948E-002  0.1250020E+03  0.7818608E-02  0.1235066E+00
         -4   -1    0    0    0  501 -0.00000000000E+00  0.00000000000E+00  0.14203406235E+03  0.14203974010E+03  0.12700000000E+01 0. -1.
          4   -1    0    0  501    0  0.00000000000E+00 -0.00000000000E+00 -0.27482211557E+02  0.27511540343E+02  0.12700000000E+01 0. -1.
         25    2    1    2    0    0  0.00000000000E+00  0.00000000000E+00  0.11455185079E+03  0.16955128044E+03  0.12500204070E+03 0.  0.
    9000005    1    3    3    0    0 -0.29945011945E+01 -0.44080559034E+02 -0.26714389603E+01  0.44274138143E+02  0.10000000000E+01 0.  0.
    9000005    1    3    3    0    0  0.29945011945E+01  0.44080559034E+02  0.11722328975E+03  0.12527714230E+03  0.10000000000E+01 0.  0.
<mgrwt>
<rscale>  0 0.12500204E+03</rscale>
<asrwt>0</asrwt>
<pdfrwt beam="2">  1        4 0.42307254E-02 0.12500204E+03</pdfrwt>
<pdfrwt beam="1">  1       -4 0.21854087E-01 0.12500204E+03</pdfrwt>
<totfact> 0.95527950E+03</totfact>
</mgrwt>
</event>
<event>
 5    1  0.3246948E-002  0.1249989E+03  0.7818608E-02  0.1235071E+00
          4   -1    0    0  501    0  0.00000000000E+00  0.00000000000E+00  0.49075213166E+02  0.49091643355E+02  0.12700000000E+01 0. -1.
         -4   -1    0    0    0  501 -0.00000000000E+00 -0.00000000000E+00 -0.79560981171E+02  0.79571116776E+02  0.12700000000E+01 0. -1.
         25    2    1    2    0    0  0.00000000000E+00  0.00000000000E+00 -0.30485768005E+02  0.12866276013E+03  0.12499889517E+03 0.  0.
    9000005    1    3    3    0    0  0.50687771806E+02 -0.24922511042E+01  0.22291275527E+02  0.55437915643E+02  0.10000000000E+01 0.  0.
    9000005    1    3    3    0    0 -0.50687771806E+02  0.24922511042E+01 -0.52777043533E+02  0.73224844488E+02  0.10000000000E+01 0.  0.
<mgrwt>
<rscale>  0 0.12499890E+03</rscale>
<asrwt>0</asrwt>
<pdfrwt beam="1">  1        4 0.75520763E-02 0.12499890E+03</pdfrwt>
<pdfrwt beam="2">  1       -4 0.12242194E-01 0.12499890E+03</pdfrwt>
<totfact> 0.10373458E+04</totfact>
</mgrwt>
</event>
<event>
 5    1  0.3246948E-002  0.1250025E+03  0.7818608E-02  0.1235065E+00
         -4   -1    0    0    0  501 -0.00000000000E+00  0.00000000000E+00  0.93436451989E+03  0.93436538299E+03  0.12700000000E+01 0.  1.
          4   -1    0    0  501    0  0.00000000000E+00 -0.00000000000E+00 -0.40834852067E+01  0.42764180611E+01  0.12700000000E+01 0.  1.
         25    2    1    2    0    0  0.00000000000E+00  0.00000000000E+00  0.93028103468E+03  0.93864180105E+03  0.12500250873E+03 0.  0.
    9000005    1    3    3    0    0  0.60275214895E+02  0.38860306104E+01  0.58556645833E+03  0.58867417124E+03  0.10000000000E+01 0.  0.
    9000005    1    3    3    0    0 -0.60275214895E+02 -0.38860306104E+01  0.34471457636E+03  0.34996762982E+03  0.10000000000E+01 0.  0.
<mgrwt>
<rscale>  0 0.12500251E+03</rscale>
<asrwt>0</asrwt>
<pdfrwt beam="2">  1        4 0.64313498E-03 0.12500251E+03</pdfrwt>
<pdfrwt beam="1">  1       -4 0.14376349E+00 0.12500251E+03</pdfrwt>
<totfact> 0.32720859E+03</totfact>
</mgrwt>
</event>
<event>
 5    1  0.3246948E-002  0.1249988E+03  0.7818608E-02  0.1235071E+00
         -4   -1    0    0    0  501 -0.00000000000E+00  0.00000000000E+00  0.68958568177E+03  0.68958685124E+03  0.12700000000E+01 0.  1.
          4   -1    0    0  501    0  0.00000000000E+00 -0.00000000000E+00 -0.55921517706E+01  0.57345498014E+01  0.12700000000E+01 0.  1.
         25    2    1    2    0    0  0.00000000000E+00  0.00000000000E+00  0.68399353000E+03  0.69532140104E+03  0.12499880665E+03 0.  0.
    9000005    1    3    3    0    0 -0.57223042811E+02  0.21939587220E+02  0.27401582876E+03  0.28078727986E+03  0.10000000000E+01 0.  0.
    9000005    1    3    3    0    0  0.57223042811E+02 -0.21939587220E+02  0.40997770124E+03  0.41453412119E+03  0.10000000000E+01 0.  0.
<mgrwt>
<rscale>  0 0.12499881E+03</rscale>
<asrwt>0</asrwt>
<pdfrwt beam="2">  1        4 0.87137508E-03 0.12499881E+03</pdfrwt>
<pdfrwt beam="1">  1       -4 0.10610110E+00 0.12499881E+03</pdfrwt>
<totfact> 0.43335965E+03</totfact>
</mgrwt>
</event>
<event>
 5    1  0.3246948E-002  0.1249993E+03  0.7818608E-02  0.1235070E+00
         -4   -1    0    0    0  501 -0.00000000000E+00  0.00000000000E+00  0.43728894264E+01  0.45535768287E+01  0.12700000000E+01 0. -1.
          4   -1    0    0  501    0  0.00000000000E+00 -0.00000000000E+00 -0.87501598983E+03  0.87501691147E+03  0.12700000000E+01 0. -1.
         25    2    1    2    0    0  0.00000000000E+00  0.00000000000E+00 -0.87064310041E+03  0.87957048830E+03  0.12499934242E+03 0.  0.
    9000005    1    3    3    0    0 -0.24247630761E+02 -0.54860329650E+02 -0.55873428990E+03  0.56194537998E+03  0.10000000000E+01 0.  0.
    9000005    1    3    3    0    0  0.24247630761E+02  0.54860329650E+02 -0.31190881050E+03  0.31762510832E+03  0.10000000000E+01 0.  0.
<mgrwt>
<rscale>  0 0.12499934E+03</rscale>
<asrwt>0</asrwt>
<pdfrwt beam="2">  1        4 0.13463168E+00 0.12499934E+03</pdfrwt>
<pdfrwt beam="1">  1       -4 0.68672284E-03 0.12499934E+03</pdfrwt>
<totfact> 0.34947402E+03</totfact>
</mgrwt>
</event>
<event>
 5    1  0.3246948E-002  0.1249981E+03  0.7818608E-02  0.1235072E+00
          4   -1    0    0  501    0  0.00000000000E+00  0.00000000000E+00  0.58930581835E+02  0.58944264992E+02  0.12700000000E+01 0.  1.
         -4   -1    0    0    0  501 -0.00000000000E+00 -0.00000000000E+00 -0.66256089240E+02  0.66268259834E+02  0.12700000000E+01 0.  1.
         25    2    1    2    0    0  0.00000000000E+00  0.00000000000E+00 -0.73255074048E+01  0.12521252483E+03  0.12499805324E+03 0.  0.
    9000005    1    3    3    0    0  0.33818561492E+02  0.42673732552E+02  0.27055572626E+02  0.60809099331E+02  0.10000000000E+01 0.  0.
    9000005    1    3    3    0    0 -0.33818561492E+02 -0.42673732552E+02 -0.34381080030E+02  0.64403425494E+02  0.10000000000E+01 0.  0.
<mgrwt>
<rscale>  0 0.12499805E+03</rscale>
<asrwt>0</asrwt>
<pdfrwt beam="1">  1        4 0.90682321E-02 0.12499805E+03</pdfrwt>
<pdfrwt beam="2">  1       -4 0.10195233E-01 0.12499805E+03</pdfrwt>
<totfact> 0.10448708E+04</totfact>
</mgrwt>
</event>
<event>
 5    1  0.3246948E-002  0.1249974E+03  0.7818608E-02  0.1235073E+00
         -4   -1    0    0    0  501 -0.00000000000E+00  0.00000000000E+00  0.12830584460E+02  0.12893284980E+02  0.12700000000E+01 0.  1.
          4   -1    0    0  501    0  0.00000000000E+00 -0.00000000000E+00 -0.30362935886E+03  0.30363201489E+03  0.12700000000E+01 0.  1.
         25    2    1    2    0    0  0.00000000000E+00  0.00000000000E+00 -0.29079877440E+03  0.31652529987E+03  0.12499735302E+03 0.  0.
    9000005    1    3    3    0    0 -0.25277208583E+02 -0.14717979348E+01 -0.72840487402E+00  0.25350227545E+02  0.10000000000E+01 0.  0.
    9000005    1    3    3    0    0  0.25277208583E+02  0.14717979348E+01 -0.29007036953E+03  0.29117507232E+03  0.10000000000E+01 0.  0.
<mgrwt>
<rscale>  0 0.12499735E+03</rscale>
<asrwt>0</asrwt>
<pdfrwt beam="2">  1        4 0.46717231E-01 0.12499735E+03</pdfrwt>
<pdfrwt beam="1">  1       -4 0.19789637E-02 0.12499735E+03</pdfrwt>
<totfact> 0.73575629E+03</totfact>
</mgrwt>
</event>
<event>
 5    1  0.3246948E-002  0.1250058E+03  0.7818608E-02  0.1235060E+00
          4   -1    0    0  501    0  0.00000000000E+00  0.00000000000E+00  0.70459678883E+02  0.70471123507E+02  0.12700000000E+01 0.  1.
         -4   -1    0    0    0  501 -0.00000000000E+00 -0.00000000000E+00 -0.55421419997E+02  0.55435969320E+02  0.12700000000E+01 0.  1.
         25    2    1    2    0    0  0.00000000000E+00  0.00000000000E+00  0.15038258887E+02  0.12590709283E+03  0.12500578704E+03 0.  0.
    9000005    1    3    3    0    0  0.61131961944E+02 -0.11878635590E+02  0.22475660775E+01  0.62323914414E+02  0.10000000000E+01 0.  0.
    9000005    1    3    3    0    0 -0.61131961944E+02  0.11878635590E+02  0.12790692809E+02  0.63583178413E+02  0.10000000000E+01 0.  0.
<mgrwt>
<rscale>  0 0.12500579E+03</rscale>
<asrwt>0</asrwt>
<pdfrwt beam="1">  1        4 0.10841950E-01 0.12500579E+03</pdfrwt>
<pdfrwt beam="2">  1       -4 0.85283719E-02 0.12500579E+03</pdfrwt>
<totfact> 0.10431632E+04</totfact>
</mgrwt>
</event>
<event>
 5    1  0.3246948E-002  0.1250013E+03  0.7818608E-02  0.1235067E+00
          4   -1    0    0  501    0  0.00000000000E+00  0.00000000000E+00  0.19596257147E+02  0.19637367292E+02  0.12700000000E+01 0. -1.
         -4   -1    0    0    0  501 -0.00000000000E+00 -0.00000000000E+00 -0.19908854458E+03  0.19909259525E+03  0.12700000000E+01 0. -1.
         25    2    1    2    0    0  0.00000000000E+00  0.00000000000E+00 -0.17949228743E+03  0.21872996254E+03  0.12500126105E+03 0.  0.
    9000005    1    3    3    0    0 -0.50430103982E+02 -0.14035107251E+02 -0.14947506256E+03  0.15837920933E+03  0.10000000000E+01 0.  0.
    9000005    1    3    3    0    0  0.50430103982E+02  0.14035107251E+02 -0.30017224877E+02  0.60350753206E+02  0.10000000000E+01 0.  0.
<mgrwt>
<rscale>  0 0.12500126E+03</rscale>
<asrwt>0</asrwt>
<pdfrwt beam="1">  1        4 0.30182828E-02 0.12500126E+03</pdfrwt>
<pdfrwt beam="2">  1       -4 0.30632479E-01 0.12500126E+03</pdfrwt>
<totfact> 0.87067264E+03</totfact>
</mgrwt>
</event>
<event>
 5    1  0.3246948E-002  0.1249801E+03  0.7818608E-02  0.1235100E+00
         -4   -1    0    0    0  501 -0.00000000000E+00  0.00000000000E+00  0.21293562505E+03  0.21293941231E+03  0.12700000000E+01 0. -1.
          4   -1    0    0  501    0  0.00000000000E+00 -0.00000000000E+00 -0.18312972031E+02  0.18356956300E+02  0.12700000000E+01 0. -1.
         25    2    1    2    0    0  0.00000000000E+00  0.00000000000E+00  0.19462265302E+03  0.23129636861E+03  0.12498013068E+03 0.  0.
    9000005    1    3    3    0    0  0.34207315663E+02  0.44246367093E+02  0.45753549288E+02  0.72265266334E+02  0.10000000000E+01 0.  0.
    9000005    1    3    3    0    0 -0.34207315663E+02 -0.44246367093E+02  0.14886910373E+03  0.15903110228E+03  0.10000000000E+01 0.  0.
<mgrwt>
<rscale>  0 0.12498013E+03</rscale>
<asrwt>0</asrwt>
<pdfrwt beam="2">  1        4 0.28210550E-02 0.12498013E+03</pdfrwt>
<pdfrwt beam="1">  1       -4 0.32763002E-01 0.12498013E+03</pdfrwt>
<totfact> 0.85148672E+03</totfact>
</mgrwt>
</event>
<event>
 5    1  0.3246948E-002  0.1249993E+03  0.7818608E-02  0.1235070E+00
         -4   -1    0    0    0  501 -0.00000000000E+00  0.00000000000E+00  0.73533159817E+02  0.73544126160E+02  0.12700000000E+01 0.  1.
          4   -1    0    0  501    0  0.00000000000E+00 -0.00000000000E+00 -0.53099135206E+02  0.53114320665E+02  0.12700000000E+01 0.  1.
         25    2    1    2    0    0  0.00000000000E+00  0.00000000000E+00  0.20434024611E+02  0.12665844682E+03  0.12499925116E+03 0.  0.
    9000005    1    3    3    0    0 -0.47908017645E+02  0.39728796015E+02  0.45167009376E+01  0.62409582396E+02  0.10000000000E+01 0.  0.
    9000005    1    3    3    0    0  0.47908017645E+02 -0.39728796015E+02  0.15917323673E+02  0.64248864429E+02  0.10000000000E+01 0.  0.
<mgrwt>
<rscale>  0 0.12499925E+03</rscale>
<asrwt>0</asrwt>
<pdfrwt beam="2">  1        4 0.81711094E-02 0.12499925E+03</pdfrwt>
<pdfrwt beam="1">  1       -4 0.11314806E-01 0.12499925E+03</pdfrwt>
<totfact> 0.10416751E+04</totfact>
</mgrwt>
</event>
<event>
 5    1  0.3246948E-002  0.1249985E+03  0.7818608E-02  0.1235072E+00
          4   -1    0    0  501    0  0.00000000000E+00  0.00000000000E+00  0.91243075577E+03  0.91243163961E+03  0.12700000000E+01 0.  1.
         -4   -1    0    0    0  501 -0.00000000000E+00 -0.00000000000E+00 -0.41859469839E+01  0.43743630567E+01  0.12700000000E+01 0.  1.
         25    2    1    2    0    0  0.00000000000E+00  0.00000000000E+00  0.90824480878E+03  0.91680600267E+03  0.12499845540E+03 0.  0.
    9000005    1    3    3    0    0  0.27506520982E+02 -0.30448659626E+01  0.86507088836E+03  0.86551402172E+03  0.10000000000E+01 0.  0.
    9000005    1    3    3    0    0 -0.27506520982E+02  0.30448659626E+01  0.43173920427E+02  0.51291980955E+02  0.10000000000E+01 0.  0.
<mgrwt>
<rscale>  0 0.12499846E+03</rscale>
<asrwt>0</asrwt>
<pdfrwt beam="1">  1        4 0.14038831E+00 0.12499846E+03</pdfrwt>
<pdfrwt beam="2">  1       -4 0.65855439E-03 0.12499846E+03</pdfrwt>
<totfact> 0.33525706E+03</totfact>
</mgrwt>
</event>
<event>
 4    1  0.3246948E-002  0.1247775E+03  0.7818608E-02  0.1235417E+00
         -4   -1    0    0    0  501 -0.00000000000E+00  0.00000000000E+00  0.26850529144E+01  0.29702540553E+01  0.12700000000E+01 0. -1.
          4   -1    0    0  501    0  0.00000000000E+00 -0.00000000000E+00 -0.13762463119E+04  0.13762468979E+04  0.12700000000E+01 0. -1.
    9000005    1    1    2    0    0 -0.22712906597E+02  0.17633295620E+02 -0.12986792690E+04  0.12989979418E+04  0.10000000000E+01 0.  0.
    9000005    1    1    2    0    0  0.22712906597E+02 -0.17633295620E+02 -0.74881990063E+02  0.80219210145E+02  0.10000000000E+01 0.  0.
<mgrwt>
<rscale>  0 0.12477748E+03</rscale>
<asrwt>0</asrwt>
<pdfrwt beam="2">  1        4 0.21175165E+00 0.12477748E+03</pdfrwt>
<pdfrwt beam="1">  1       -4 0.43506979E-03 0.12477748E+03</pdfrwt>
<totfact> 0.20531009E+03</totfact>
</mgrwt>
</event>
<event>
 5    1  0.3246948E-002  0.1249996E+03  0.7818608E-02  0.1235070E+00
          4   -1    0    0  501    0  0.00000000000E+00  0.00000000000E+00  0.27262414731E+03  0.27262710539E+03  0.12700000000E+01 0. -1.
         -4   -1    0    0    0  501 -0.00000000000E+00 -0.00000000000E+00 -0.14297050333E+02  0.14353346238E+02  0.12700000000E+01 0. -1.
         25    2    1    2    0    0  0.00000000000E+00  0.00000000000E+00  0.25832709697E+03  0.28698045163E+03  0.12499956235E+03 0.  0.
    9000005    1    3    3    0    0  0.50803637480E+02 -0.36003393804E+02  0.14130526152E+03  0.15441965834E+03  0.10000000000E+01 0.  0.
    9000005    1    3    3    0    0 -0.50803637480E+02  0.36003393804E+02  0.11702183545E+03  0.13256079329E+03  0.10000000000E+01 0.  0.
<mgrwt>
<rscale>  0 0.12499956E+03</rscale>
<asrwt>0</asrwt>
<pdfrwt beam="1">  1        4 0.41946734E-01 0.12499956E+03</pdfrwt>
<pdfrwt beam="2">  1       -4 0.22041042E-02 0.12499956E+03</pdfrwt>
<totfact> 0.77262309E+03</totfact>
</mgrwt>
</event>
<event>
 5    1  0.3246948E-002  0.1249922E+03  0.7818608E-02  0.1235081E+00
          4   -1    0    0  501    0  0.00000000000E+00  0.00000000000E+00  0.22833450663E+03  0.22833803848E+03  0.12700000000E+01 0.  1.
         -4   -1    0    0    0  501 -0.00000000000E+00 -0.00000000000E+00 -0.17078208076E+02  0.17125363969E+02  0.12700000000E+01 0.  1.
         25    2    1    2    0    0  0.00000000000E+00  0.00000000000E+00  0.21125629855E+03  0.24546340245E+03  0.12499223281E+03 0.  0.
    9000005    1    3    3    0    0 -0.47747614149E+02  0.22351427469E+02  0.39749255776E+02  0.66033508929E+02  0.10000000000E+01 0.  0.
    9000005    1    3    3    0    0  0.47747614149E+02 -0.22351427469E+02  0.17150704277E+03  0.17942989352E+03  0.10000000000E+01 0.  0.
<mgrwt>
<rscale>  0 0.12499223E+03</rscale>
<asrwt>0</asrwt>
<pdfrwt beam="1">  1        4 0.35132284E-01 0.12499223E+03</pdfrwt>
<pdfrwt beam="2">  1       -4 0.26313158E-02 0.12499223E+03</pdfrwt>
<totfact> 0.83004726E+03</totfact>
</mgrwt>
</event>
<event>
 5    1  0.3246948E-002  0.1249996E+03  0.7818608E-02  0.1235070E+00
          4   -1    0    0  501    0  0.00000000000E+00  0.00000000000E+00  0.13575185382E+02  0.13634462152E+02  0.12700000000E+01 0. -1.
         -4   -1    0    0    0  501 -0.00000000000E+00 -0.00000000000E+00 -0.28705967807E+03  0.28706248740E+03  0.12700000000E+01 0. -1.
         25    2    1    2    0    0  0.00000000000E+00  0.00000000000E+00 -0.27348449269E+03  0.30069694955E+03  0.12499955092E+03 0.  0.
    9000005    1    3    3    0    0 -0.62349344475E+02 -0.10221796776E+01 -0.12690098831E+03  0.14139783040E+03  0.10000000000E+01 0.  0.
    9000005    1    3    3    0    0  0.62349344475E+02  0.10221796776E+01 -0.14658350437E+03  0.15929911915E+03  0.10000000000E+01 0.  0.
<mgrwt>
<rscale>  0 0.12499955E+03</rscale>
<asrwt>0</asrwt>
<pdfrwt beam="1">  1        4 0.20932661E-02 0.12499955E+03</pdfrwt>
<pdfrwt beam="2">  1       -4 0.44167799E-01 0.12499955E+03</pdfrwt>
<totfact> 0.75512252E+03</totfact>
</mgrwt>
</event>
<event>
 5    1  0.3246948E-002  0.1249979E+03  0.7818608E-02  0.1235073E+00
          4   -1    0    0  501    0  0.00000000000E+00  0.00000000000E+00  0.62671525179E+01  0.63945367840E+01  0.12700000000E+01 0. -1.
         -4   -1    0    0    0  501 -0.00000000000E+00 -0.00000000000E+00 -0.61687032116E+03  0.61687162848E+03  0.12700000000E+01 0. -1.
         25    2    1    2    0    0  0.00000000000E+00  0.00000000000E+00 -0.61060316864E+03  0.62326616527E+03  0.12499793283E+03 0.  0.
    9000005    1    3    3    0    0  0.27849999102E+02 -0.35831658780E+01 -0.58366706816E+03  0.58434297120E+03  0.10000000000E+01 0.  0.
    9000005    1    3    3    0    0 -0.27849999102E+02  0.35831658780E+01 -0.26936100478E+02  0.38923194071E+02  0.10000000000E+01 0.  0.
<mgrwt>
<rscale>  0 0.12499793E+03</rscale>
<asrwt>0</asrwt>
<pdfrwt beam="1">  1        4 0.97407715E-03 0.12499793E+03</pdfrwt>
<pdfrwt beam="2">  1       -4 0.94912978E-01 0.12499793E+03</pdfrwt>
<totfact> 0.47433330E+03</totfact>
</mgrwt>
</event>
<event>
 5    1  0.3246948E-002  0.1250359E+03  0.7818608E-02  0.1235013E+00
          4   -1    0    0  501    0  0.00000000000E+00  0.00000000000E+00  0.29836495158E+02  0.29863511906E+02  0.12700000000E+01 0.  1.
         -4   -1    0    0    0  501 -0.00000000000E+00 -0.00000000000E+00 -0.13090762950E+03  0.13091378981E+03  0.12700000000E+01 0.  1.
         25    2    1    2    0    0  0.00000000000E+00  0.00000000000E+00 -0.10107113434E+03  0.16077730171E+03  0.12503586105E+03 0.  0.
    9000005    1    3    3    0    0  0.11019243679E+02 -0.70896996477E+01 -0.12912826405E+03  0.12979520850E+03  0.10000000000E+01 0.  0.
    9000005    1    3    3    0    0 -0.11019243679E+02  0.70896996477E+01  0.28057129709E+02  0.30982093213E+02  0.10000000000E+01 0.  0.
<mgrwt>
<rscale>  0 0.12503586E+03</rscale>
<asrwt>0</asrwt>
<pdfrwt beam="1">  1        4 0.45927822E-02 0.12503586E+03</pdfrwt>
<pdfrwt beam="2">  1       -4 0.20142187E-01 0.12503586E+03</pdfrwt>
<totfact> 0.97114841E+03</totfact>
</mgrwt>
</event>
<event>
 5    1  0.3246948E-002  0.1249998E+03  0.7818608E-02  0.1235070E+00
         -4   -1    0    0    0  501 -0.00000000000E+00  0.00000000000E+00  0.88793056625E+03  0.88793147449E+03  0.12700000000E+01 0.  1.
          4   -1    0    0  501    0  0.00000000000E+00 -0.00000000000E+00 -0.43066715493E+01  0.44900244803E+01  0.12700000000E+01 0.  1.
         25    2    1    2    0    0  0.00000000000E+00  0.00000000000E+00  0.88362389470E+03  0.89242149897E+03  0.12499977812E+03 0.  0.
    9000005    1    3    3    0    0  0.62065915019E+02 -0.30660343697E+01  0.48898473037E+03  0.49291849723E+03  0.10000000000E+01 0.  0.
    9000005    1    3    3    0    0 -0.62065915019E+02  0.30660343697E+01  0.39463916433E+03  0.39950300173E+03  0.10000000000E+01 0.  0.
<mgrwt>
<rscale>  0 0.12499978E+03</rscale>
<asrwt>0</asrwt>
<pdfrwt beam="2">  1        4 0.67673929E-03 0.12499978E+03</pdfrwt>
<pdfrwt beam="1">  1       -4 0.13661878E+00 0.12499978E+03</pdfrwt>
<totfact> 0.34451542E+03</totfact>
</mgrwt>
</event>
<event>
 5    1  0.3246948E-002  0.1250003E+03  0.7818608E-02  0.1235069E+00
          4   -1    0    0  501    0  0.00000000000E+00  0.00000000000E+00  0.17467599098E+02  0.17513706582E+02  0.12700000000E+01 0. -1.
         -4   -1    0    0    0  501 -0.00000000000E+00 -0.00000000000E+00 -0.22328674487E+03  0.22329035656E+03  0.12700000000E+01 0. -1.
         25    2    1    2    0    0  0.00000000000E+00  0.00000000000E+00 -0.20581914577E+03  0.24080406315E+03  0.12500030425E+03 0.  0.
    9000005    1    3    3    0    0 -0.51188495148E+02 -0.30631143953E+02 -0.13878150037E+03  0.15106235090E+03  0.10000000000E+01 0.  0.
    9000005    1    3    3    0    0  0.51188495148E+02  0.30631143953E+02 -0.67037645400E+02  0.89741712242E+02  0.10000000000E+01 0.  0.
<mgrwt>
<rscale>  0 0.12500030E+03</rscale>
<asrwt>0</asrwt>
<pdfrwt beam="1">  1        4 0.26911476E-02 0.12500030E+03</pdfrwt>
<pdfrwt beam="2">  1       -4 0.34355629E-01 0.12500030E+03</pdfrwt>
<totfact> 0.83677195E+03</totfact>
</mgrwt>
</event>
<event>
 5    1  0.3246948E-002  0.1250001E+03  0.7818608E-02  0.1235069E+00
         -4   -1    0    0    0  501 -0.00000000000E+00  0.00000000000E+00  0.56592996313E+02  0.56607244516E+02  0.12700000000E+01 0.  1.
          4   -1    0    0  501    0  0.00000000000E+00 -0.00000000000E+00 -0.68994862773E+02  0.69006550334E+02  0.12700000000E+01 0.  1.
         25    2    1    2    0    0  0.00000000000E+00  0.00000000000E+00 -0.12401866460E+02  0.12561379485E+03  0.12500007666E+03 0.  0.
    9000005    1    3    3    0    0 -0.19009473499E+02 -0.77041514820E+01 -0.65520754126E+02  0.68663551131E+02  0.10000000000E+01 0.  0.
    9000005    1    3    3    0    0  0.19009473499E+02  0.77041514820E+01  0.53118887666E+02  0.56950243718E+02  0.10000000000E+01 0.  0.
<mgrwt>
<rscale>  0 0.12500008E+03</rscale>
<asrwt>0</asrwt>
<pdfrwt beam="2">  1        4 0.10616589E-01 0.12500008E+03</pdfrwt>
<pdfrwt beam="1">  1       -4 0.87086099E-02 0.12500008E+03</pdfrwt>
<totfact> 0.10439425E+04</totfact>
</mgrwt>
</event>
<event>
 5    1  0.3246948E-002  0.1249976E+03  0.7818608E-02  0.1235073E+00
         -4   -1    0    0    0  501 -0.00000000000E+00  0.00000000000E+00  0.16909213330E+02  0.16956839194E+02  0.12700000000E+01 0.  1.
          4   -1    0    0  501    0  0.00000000000E+00 -0.00000000000E+00 -0.23063016830E+03  0.23063366500E+03  0.12700000000E+01 0.  1.
         25    2    1    2    0    0  0.00000000000E+00  0.00000000000E+00 -0.21372095497E+03  0.24759050419E+03  0.12499764467E+03 0.  0.
    9000005    1    3    3    0    0  0.40062430074E+02  0.26194748154E+02 -0.18643532248E+03  0.19248452562E+03  0.10000000000E+01 0.  0.
    9000005    1    3    3    0    0 -0.40062430074E+02 -0.26194748154E+02 -0.27285632495E+02  0.55105978577E+02  0.10000000000E+01 0.  0.
<mgrwt>
<rscale>  0 0.12499764E+03</rscale>
<asrwt>0</asrwt>
<pdfrwt beam="2">  1        4 0.35485495E-01 0.12499764E+03</pdfrwt>
<pdfrwt beam="1">  1       -4 0.26053501E-02 0.12499764E+03</pdfrwt>
<totfact> 0.82684067E+03</totfact>
</mgrwt>
</event>
<event>
 5    1  0.3246948E-002  0.1249994E+03  0.7818608E-02  0.1235070E+00
          4   -1    0    0  501    0  0.00000000000E+00  0.00000000000E+00  0.99570539586E+02  0.99578638539E+02  0.12700000000E+01 0. -1.
         -4   -1    0    0    0  501 -0.00000000000E+00 -0.00000000000E+00 -0.39210630392E+02  0.39231192127E+02  0.12700000000E+01 0. -1.
         25    2    1    2    0    0  0.00000000000E+00  0.00000000000E+00  0.60359909194E+02  0.13880983067E+03  0.12499940181E+03 0.  0.
    9000005    1    3    3    0    0 -0.31961622742E+02  0.23487630004E+02  0.83806080703E+02  0.92723639134E+02  0.10000000000E+01 0.  0.
    9000005    1    3    3    0    0  0.31961622742E+02 -0.23487630004E+02 -0.23446171509E+02  0.46086191532E+02  0.10000000000E+01 0.  0.
<mgrwt>
<rscale>  0 0.12499940E+03</rscale>
<asrwt>0</asrwt>
<pdfrwt beam="1">  1        4 0.15320749E-01 0.12499940E+03</pdfrwt>
<pdfrwt beam="2">  1       -4 0.60346093E-02 0.12499940E+03</pdfrwt>
<totfact> 0.10158449E+04</totfact>
</mgrwt>
</event>
<event>
 5    1  0.3246948E-002  0.1250007E+03  0.7818608E-02  0.1235068E+00
         -4   -1    0    0    0  501 -0.00000000000E+00  0.00000000000E+00  0.21306565525E+03  0.21306944020E+03  0.12700000000E+01 0. -1.
          4   -1    0    0  501    0  0.00000000000E+00 -0.00000000000E+00 -0.18307795399E+02  0.18351792075E+02  0.12700000000E+01 0. -1.
         25    2    1    2    0    0  0.00000000000E+00  0.00000000000E+00  0.19475785985E+03  0.23142123228E+03  0.12500065109E+03 0.  0.
    9000005    1    3    3    0    0  0.48175325100E+02 -0.15631141717E+02  0.29605587124E+02  0.58674400967E+02  0.10000000000E+01 0.  0.
    9000005    1    3    3    0    0 -0.48175325100E+02  0.15631141717E+02  0.16515227273E+03  0.17274683131E+03  0.10000000000E+01 0.  0.
<mgrwt>
<rscale>  0 0.12500065E+03</rscale>
<asrwt>0</asrwt>
<pdfrwt beam="2">  1        4 0.28202593E-02 0.12500065E+03</pdfrwt>
<pdfrwt beam="1">  1       -4 0.32783008E-01 0.12500065E+03</pdfrwt>
<totfact> 0.85090605E+03</totfact>
</mgrwt>
</event>
<event>
 5    1  0.3246948E-002  0.1249998E+03  0.7818608E-02  0.1235070E+00
          4   -1    0    0  501    0  0.00000000000E+00  0.00000000000E+00  0.33868288778E+02  0.33892091773E+02  0.12700000000E+01 0. -1.
         -4   -1    0    0    0  501 -0.00000000000E+00 -0.00000000000E+00 -0.11526829789E+03  0.11527529397E+03  0.12700000000E+01 0. -1.
         25    2    1    2    0    0  0.00000000000E+00  0.00000000000E+00 -0.81400009113E+02  0.14916738574E+03  0.12499978994E+03 0.  0.
    9000005    1    3    3    0    0  0.52991836777E+02 -0.32670834235E+02 -0.34194522639E+02  0.71033679006E+02  0.10000000000E+01 0.  0.
    9000005    1    3    3    0    0 -0.52991836777E+02  0.32670834235E+02 -0.47205486474E+02  0.78133706733E+02  0.10000000000E+01 0.  0.
<mgrwt>
<rscale>  0 0.12499979E+03</rscale>
<asrwt>0</asrwt>
<pdfrwt beam="1">  1        4 0.52128752E-02 0.12499979E+03</pdfrwt>
<pdfrwt beam="2">  1       -4 0.17735953E-01 0.12499979E+03</pdfrwt>
<totfact> 0.99470397E+03</totfact>
</mgrwt>
</event>
<event>
 5    1  0.3246948E-002  0.1250009E+03  0.7818608E-02  0.1235068E+00
         -4   -1    0    0    0  501 -0.00000000000E+00  0.00000000000E+00  0.41455928263E+02  0.41475376890E+02  0.12700000000E+01 0. -1.
          4   -1    0    0  501    0  0.00000000000E+00 -0.00000000000E+00 -0.94182066469E+02  0.94190628750E+02  0.12700000000E+01 0. -1.
         25    2    1    2    0    0  0.00000000000E+00  0.00000000000E+00 -0.52726138206E+02  0.13566600564E+03  0.12500087774E+03 0.  0.
    9000005    1    3    3    0    0  0.59398795859E+01  0.29255514509E+02  0.33222283038E+02  0.44675355499E+02  0.10000000000E+01 0.  0.
    9000005    1    3    3    0    0 -0.59398795859E+01 -0.29255514509E+02 -0.85948421244E+02  0.90990650141E+02  0.10000000000E+01 0.  0.
<mgrwt>
<rscale>  0 0.12500088E+03</rscale>
<asrwt>0</asrwt>
<pdfrwt beam="2">  1        4 0.14491703E-01 0.12500088E+03</pdfrwt>
<pdfrwt beam="1">  1       -4 0.63799899E-02 0.12500088E+03</pdfrwt>
<totfact> 0.10223850E+04</totfact>
</mgrwt>
</event>
<event>
 5    1  0.3246948E-002  0.1250061E+03  0.7818608E-02  0.1235060E+00
          4   -1    0    0  501    0  0.00000000000E+00  0.00000000000E+00  0.70664034604E+02  0.70675446136E+02  0.12700000000E+01 0. -1.
         -4   -1    0    0    0  501 -0.00000000000E+00 -0.00000000000E+00 -0.55261425342E+02  0.55276016778E+02  0.12700000000E+01 0. -1.
         25    2    1    2    0    0  0.00000000000E+00  0.00000000000E+00  0.15402609262E+02  0.12595146291E+03  0.12500612240E+03 0.  0.
    9000005    1    3    3    0    0 -0.51647227015E+02 -0.30961940976E+02  0.24547639082E+02  0.65035870347E+02  0.10000000000E+01 0.  0.
    9000005    1    3    3    0    0  0.51647227015E+02  0.30961940976E+02 -0.91450298203E+01  0.60915592567E+02  0.10000000000E+01 0.  0.
<mgrwt>
<rscale>  0 0.12500612E+03</rscale>
<asrwt>0</asrwt>
<pdfrwt beam="1">  1        4 0.10873390E-01 0.12500612E+03</pdfrwt>
<pdfrwt beam="2">  1       -4 0.85037581E-02 0.12500612E+03</pdfrwt>
<totfact> 0.10430580E+04</totfact>
</mgrwt>
</event>
<event>
 5    1  0.3246948E-002  0.1250156E+03  0.7818608E-02  0.1235045E+00
         -4   -1    0    0    0  501 -0.00000000000E+00  0.00000000000E+00  0.52279615790E+01  0.53800076460E+01  0.12700000000E+01 0.  1.
          4   -1    0    0  501    0  0.00000000000E+00 -0.00000000000E+00 -0.73650628103E+03  0.73650737600E+03  0.12700000000E+01 0.  1.
         25    2    1    2    0    0  0.00000000000E+00  0.00000000000E+00 -0.73127831945E+03  0.74188738364E+03  0.12501563705E+03 0.  0.
    9000005    1    3    3    0    0 -0.89414959873E+01  0.26515782666E+02 -0.69728371418E+03  0.69784569579E+03  0.10000000000E+01 0.  0.
    9000005    1    3    3    0    0  0.89414959873E+01 -0.26515782666E+02 -0.33994605276E+02  0.44041687851E+02  0.10000000000E+01 0.  0.
<mgrwt>
<rscale>  0 0.12501564E+03</rscale>
<asrwt>0</asrwt>
<pdfrwt beam="2">  1        4 0.11332036E+00 0.12501564E+03</pdfrwt>
<pdfrwt beam="1">  1       -4 0.81608244E-03 0.12501564E+03</pdfrwt>
<totfact> 0.40951222E+03</totfact>
</mgrwt>
</event>
<event>
 5    1  0.3246948E-002  0.1249977E+03  0.7818608E-02  0.1235073E+00
         -4   -1    0    0    0  501 -0.00000000000E+00  0.00000000000E+00  0.16891129859E+04  0.16891134633E+04  0.12700000000E+01 0.  1.
          4   -1    0    0  501    0  0.00000000000E+00 -0.00000000000E+00 -0.21376398621E+01  0.24864440834E+01  0.12700000000E+01 0.  1.
         25    2    1    2    0    0  0.00000000000E+00  0.00000000000E+00  0.16869753460E+04  0.16915999074E+04  0.12499771460E+03 0.  0.
    9000005    1    3    3    0    0  0.56587891539E+02 -0.11168457502E+02  0.11688957540E+04  0.11703184215E+04  0.10000000000E+01 0.  0.
    9000005    1    3    3    0    0 -0.56587891539E+02  0.11168457502E+02  0.51807959200E+03  0.52128148592E+03  0.10000000000E+01 0.  0.
<mgrwt>
<rscale>  0 0.12499771E+03</rscale>
<asrwt>0</asrwt>
<pdfrwt beam="2">  1        4 0.35573517E-03 0.12499771E+03</pdfrwt>
<pdfrwt beam="1">  1       -4 0.25989064E+00 0.12499771E+03</pdfrwt>
<totfact> 0.14449243E+03</totfact>
</mgrwt>
</event>
<event>
 4    1  0.3246948E-002  0.1251413E+03  0.7818608E-02  0.1234849E+00
         -4   -1    0    0    0  501 -0.00000000000E+00  0.00000000000E+00  0.60269155774E+03  0.60269289582E+03  0.12700000000E+01 0.  1.
          4   -1    0    0  501    0  0.00000000000E+00 -0.00000000000E+00 -0.64325753812E+01  0.65567466044E+01  0.12700000000E+01 0.  1.
    9000005    1    1    2    0    0 -0.13405271819E+02 -0.29118760417E+02  0.55969419582E+03  0.56061234053E+03  0.10000000000E+01 0.  0.
    9000005    1    1    2    0    0  0.13405271819E+02  0.29118760417E+02  0.36564786537E+02  0.48637301892E+02  0.10000000000E+01 0.  0.
<mgrwt>
<rscale>  0 0.12514133E+03</rscale>
<asrwt>0</asrwt>
<pdfrwt beam="2">  1        4 0.99928098E-03 0.12514133E+03</pdfrwt>
<pdfrwt beam="1">  1       -4 0.92731485E-01 0.12514133E+03</pdfrwt>
<totfact> 0.48139574E+03</totfact>
</mgrwt>
</event>
<event>
 5    1  0.3246948E-002  0.1250016E+03  0.7818608E-02  0.1235067E+00
         -4   -1    0    0    0  501 -0.00000000000E+00  0.00000000000E+00  0.38905888788E+02  0.38926611494E+02  0.12700000000E+01 0. -1.
          4   -1    0    0  501    0  0.00000000000E+00 -0.00000000000E+00 -0.10035361262E+03  0.10036164838E+03  0.12700000000E+01 0. -1.
         25    2    1    2    0    0  0.00000000000E+00  0.00000000000E+00 -0.61447723831E+02  0.13928825987E+03  0.12500158629E+03 0.  0.
    9000005    1    3    3    0    0 -0.51280375968E+02 -0.35656993775E+02 -0.33021298226E+02  0.70657655643E+02  0.10000000000E+01 0.  0.
    9000005    1    3    3    0    0  0.51280375968E+02  0.35656993775E+02 -0.28426425605E+02  0.68630604232E+02  0.10000000000E+01 0.  0.
<mgrwt>
<rscale>  0 0.12500159E+03</rscale>
<asrwt>0</asrwt>
<pdfrwt beam="2">  1        4 0.15441229E-01 0.12500159E+03</pdfrwt>
<pdfrwt beam="1">  1       -4 0.59877336E-02 0.12500159E+03</pdfrwt>
<totfact> 0.10147996E+04</totfact>
</mgrwt>
</event>
<event>
 5    1  0.3246948E-002  0.1249956E+03  0.7818608E-02  0.1235076E+00
          4   -1    0    0  501    0  0.00000000000E+00  0.00000000000E+00  0.46268002697E+03  0.46268176996E+03  0.12700000000E+01 0.  1.
         -4   -1    0    0    0  501 -0.00000000000E+00 -0.00000000000E+00 -0.83925272526E+01  0.84880747926E+01  0.12700000000E+01 0.  1.
         25    2    1    2    0    0  0.00000000000E+00  0.00000000000E+00  0.45428749972E+03  0.47116984476E+03  0.12499556075E+03 0.  0.
    9000005    1    3    3    0    0  0.55822076233E+02  0.14235569870E+02  0.13587710856E+03  0.14758842866E+03  0.10000000000E+01 0.  0.
    9000005    1    3    3    0    0 -0.55822076233E+02 -0.14235569870E+02  0.31841039115E+03  0.32358141609E+03  0.10000000000E+01 0.  0.
<mgrwt>
<rscale>  0 0.12499556E+03</rscale>
<asrwt>0</asrwt>
<pdfrwt beam="1">  1        4 0.71189021E-01 0.12499556E+03</pdfrwt>
<pdfrwt beam="2">  1       -4 0.12986420E-02 0.12499556E+03</pdfrwt>
<totfact> 0.58178423E+03</totfact>
</mgrwt>
</event>
<event>
 5    1  0.3246948E-002  0.1250078E+03  0.7818608E-02  0.1235057E+00
         -4   -1    0    0    0  501 -0.00000000000E+00  0.00000000000E+00  0.92065984210E+01  0.92937804194E+01  0.12700000000E+01 0.  1.
          4   -1    0    0  501    0  0.00000000000E+00 -0.00000000000E+00 -0.42225354678E+03  0.42225545664E+03  0.12700000000E+01 0.  1.
         25    2    1    2    0    0  0.00000000000E+00  0.00000000000E+00 -0.41304694835E+03  0.43154923706E+03  0.12500784961E+03 0.  0.
    9000005    1    3    3    0    0 -0.52384894105E+02  0.18137935384E+02 -0.30613411614E+03  0.31111454305E+03  0.10000000000E+01 0.  0.
    9000005    1    3    3    0    0  0.52384894105E+02 -0.18137935384E+02 -0.10691283221E+03  0.12043469402E+03  0.10000000000E+01 0.  0.
<mgrwt>
<rscale>  0 0.12500785E+03</rscale>
<asrwt>0</asrwt>
<pdfrwt beam="2">  1        4 0.64968922E-01 0.12500785E+03</pdfrwt>
<pdfrwt beam="1">  1       -4 0.14232533E-02 0.12500785E+03</pdfrwt>
<totfact> 0.61585161E+03</totfact>
</mgrwt>
</event>
<event>
 5    1  0.3246948E-002  0.1250021E+03  0.7818608E-02  0.1235066E+00
         -4   -1    0    0    0  501 -0.00000000000E+00  0.00000000000E+00  0.29930300263E+03  0.29930569705E+03  0.12700000000E+01 0. -1.
          4   -1    0    0  501    0  0.00000000000E+00 -0.00000000000E+00 -0.13017937091E+02  0.13079739527E+02  0.12700000000E+01 0. -1.
         25    2    1    2    0    0  0.00000000000E+00  0.00000000000E+00  0.28628506554E+03  0.31238543658E+03  0.12500208891E+03 0.  0.
    9000005    1    3    3    0    0  0.10686289542E+02 -0.29872061624E+02  0.27769321642E+03  0.27950144775E+03  0.10000000000E+01 0.  0.
    9000005    1    3    3    0    0 -0.10686289542E+02  0.29872061624E+02  0.85918491290E+01  0.32883988829E+02  0.10000000000E+01 0.  0.
<mgrwt>
<rscale>  0 0.12500209E+03</rscale>
<asrwt>0</asrwt>
<pdfrwt beam="2">  1        4 0.20077209E-02 0.12500209E+03</pdfrwt>
<pdfrwt beam="1">  1       -4 0.46051575E-01 0.12500209E+03</pdfrwt>
<totfact> 0.74067592E+03</totfact>
</mgrwt>
</event>
<event>
 5    1  0.3246948E-002  0.1250079E+03  0.7818608E-02  0.1235057E+00
         -4   -1    0    0    0  501 -0.00000000000E+00  0.00000000000E+00  0.17219570354E+03  0.17220038681E+03  0.12700000000E+01 0.  1.
          4   -1    0    0  501    0  0.00000000000E+00 -0.00000000000E+00 -0.22665039536E+02  0.22700592881E+02  0.12700000000E+01 0.  1.
         25    2    1    2    0    0  0.00000000000E+00  0.00000000000E+00  0.14953066401E+03  0.19490097970E+03  0.12500788938E+03 0.  0.
    9000005    1    3    3    0    0  0.39087016775E+02 -0.37783531627E+02  0.26701425609E+02  0.60575211697E+02  0.10000000000E+01 0.  0.
    9000005    1    3    3    0    0 -0.39087016775E+02  0.37783531627E+02  0.12282923840E+03  0.13432576800E+03  0.10000000000E+01 0.  0.
<mgrwt>
<rscale>  0 0.12500789E+03</rscale>
<asrwt>0</asrwt>
<pdfrwt beam="2">  1        4 0.34900243E-02 0.12500789E+03</pdfrwt>
<pdfrwt beam="1">  1       -4 0.26494742E-01 0.12500789E+03</pdfrwt>
<totfact> 0.90985411E+03</totfact>
</mgrwt>
</event>
<event>
 5    1  0.3246948E-002  0.1250042E+03  0.7818608E-02  0.1235063E+00
         -4   -1    0    0    0  501 -0.00000000000E+00  0.00000000000E+00  0.64644239393E+02  0.64656713393E+02  0.12700000000E+01 0. -1.
          4   -1    0    0  501    0  0.00000000000E+00 -0.00000000000E+00 -0.60406000362E+02  0.60419349382E+02  0.12700000000E+01 0. -1.
         25    2    1    2    0    0  0.00000000000E+00  0.00000000000E+00  0.42382390314E+01  0.12507606277E+03  0.12500423516E+03 0.  0.
    9000005    1    3    3    0    0  0.20285133616E+02  0.46081993971E+02 -0.34922118282E+02  0.61282878192E+02  0.10000000000E+01 0.  0.
    9000005    1    3    3    0    0 -0.20285133616E+02 -0.46081993971E+02  0.39160357313E+02  0.63793184582E+02  0.10000000000E+01 0.  0.
<mgrwt>
<rscale>  0 0.12500424E+03</rscale>
<asrwt>0</asrwt>
<pdfrwt beam="2">  1        4 0.92952172E-02 0.12500424E+03</pdfrwt>
<pdfrwt beam="1">  1       -4 0.99472540E-02 0.12500424E+03</pdfrwt>
<totfact> 0.10450210E+04</totfact>
</mgrwt>
</event>
<event>
 5    1  0.3246948E-002  0.1249902E+03  0.7818608E-02  0.1235085E+00
         -4   -1    0    0    0  501 -0.00000000000E+00  0.00000000000E+00  0.99984673056E+02  0.99992738467E+02  0.12700000000E+01 0. -1.
          4   -1    0    0  501    0  0.00000000000E+00 -0.00000000000E+00 -0.39042425827E+02  0.39063076101E+02  0.12700000000E+01 0. -1.
         25    2    1    2    0    0  0.00000000000E+00  0.00000000000E+00  0.60942247229E+02  0.13905581457E+03  0.12499024789E+03 0.  0.
    9000005    1    3    3    0    0  0.38300692250E+02  0.46699589103E+02  0.48301040370E+02  0.77342001203E+02  0.10000000000E+01 0.  0.
    9000005    1    3    3    0    0 -0.38300692250E+02 -0.46699589103E+02  0.12641206860E+02  0.61713813365E+02  0.10000000000E+01 0.  0.
<mgrwt>
<rscale>  0 0.12499025E+03</rscale>
<asrwt>0</asrwt>
<pdfrwt beam="2">  1        4 0.60087361E-02 0.12499025E+03</pdfrwt>
<pdfrwt beam="1">  1       -4 0.15384466E-01 0.12499025E+03</pdfrwt>
<totfact> 0.10155423E+04</totfact>
</mgrwt>
</event>
<event>
 5    1  0.3246948E-002  0.1249993E+03  0.7818608E-02  0.1235070E+00
          4   -1    0    0  501    0  0.00000000000E+00  0.00000000000E+00  0.11434728749E+03  0.11435433992E+03  0.12700000000E+01 0.  1.
         -4   -1    0    0    0  501 -0.00000000000E+00 -0.00000000000E+00 -0.34140992205E+02  0.34164605204E+02  0.12700000000E+01 0.  1.
         25    2    1    2    0    0  0.00000000000E+00  0.00000000000E+00  0.80206295290E+02  0.14851894512E+03  0.12499930902E+03 0.  0.
    9000005    1    3    3    0    0  0.37493387358E+02 -0.12867133255E+02  0.97503478808E+02  0.10525799539E+03  0.10000000000E+01 0.  0.
    9000005    1    3    3    0    0 -0.37493387358E+02  0.12867133255E+02 -0.17297183519E+02  0.43260949729E+02  0.10000000000E+01 0.  0.
<mgrwt>
<rscale>  0 0.12499931E+03</rscale>
<asrwt>0</asrwt>
<pdfrwt beam="1">  1        4 0.17594249E-01 0.12499931E+03</pdfrwt>
<pdfrwt beam="2">  1       -4 0.52548192E-02 0.12499931E+03</pdfrwt>
<totfact> 0.99601296E+03</totfact>
</mgrwt>
</event>
<event>
 5    1  0.3246948E-002  0.1249986E+03  0.7818608E-02  0.1235071E+00
          4   -1    0    0  501    0  0.00000000000E+00  0.00000000000E+00  0.28885745545E+03  0.28886024730E+03  0.12700000000E+01 0.  1.
         -4   -1    0    0    0  501 -0.00000000000E+00 -0.00000000000E+00 -0.13490129512E+02  0.13549778384E+02  0.12700000000E+01 0.  1.
         25    2    1    2    0    0  0.00000000000E+00  0.00000000000E+00  0.27536732594E+03  0.30241002568E+03  0.12499863775E+03 0.  0.
    9000005    1    3    3    0    0  0.36393142739E+02  0.48078804858E+02  0.97994310467E+02  0.11506483911E+03  0.10000000000E+01 0.  0.
    9000005    1    3    3    0    0 -0.36393142739E+02 -0.48078804858E+02  0.17737301547E+03  0.18734518657E+03  0.10000000000E+01 0.  0.
<mgrwt>
<rscale>  0 0.12499864E+03</rscale>
<asrwt>0</asrwt>
<pdfrwt beam="1">  1        4 0.44444409E-01 0.12499864E+03</pdfrwt>
<pdfrwt beam="2">  1       -4 0.20802078E-02 0.12499864E+03</pdfrwt>
<totfact> 0.75299798E+03</totfact>
</mgrwt>
</event>
<event>
 5    1  0.3246948E-002  0.1249982E+03  0.7818608E-02  0.1235072E+00
          4   -1    0    0  501    0  0.00000000000E+00  0.00000000000E+00  0.17272587199E+03  0.17273054089E+03  0.12700000000E+01 0. -1.
         -4   -1    0    0    0  501 -0.00000000000E+00 -0.00000000000E+00 -0.22591868648E+02  0.22627536962E+02  0.12700000000E+01 0. -1.
         25    2    1    2    0    0  0.00000000000E+00  0.00000000000E+00  0.15013400334E+03  0.19535807785E+03  0.12499823847E+03 0.  0.
    9000005    1    3    3    0    0 -0.45115612347E+02  0.43056849992E+02  0.68848932538E+02  0.92900410765E+02  0.10000000000E+01 0.  0.
    9000005    1    3    3    0    0  0.45115612347E+02 -0.43056849992E+02  0.81285070807E+02  0.10245766709E+03  0.10000000000E+01 0.  0.
<mgrwt>
<rscale>  0 0.12499824E+03</rscale>
<asrwt>0</asrwt>
<pdfrwt beam="1">  1        4 0.26576314E-01 0.12499824E+03</pdfrwt>
<pdfrwt beam="2">  1       -4 0.34787749E-02 0.12499824E+03</pdfrwt>
<totfact> 0.90926880E+03</totfact>
</mgrwt>
</event>
<event>
 5    1  0.3246948E-002  0.1249997E+03  0.7818608E-02  0.1235070E+00
         -4   -1    0    0    0  501 -0.00000000000E+00  0.00000000000E+00  0.20060603018E+02  0.20100763504E+02  0.12700000000E+01 0.  1.
          4   -1    0    0  501    0  0.00000000000E+00 -0.00000000000E+00 -0.19448458640E+03  0.19448873296E+03  0.12700000000E+01 0.  1.
         25    2    1    2    0    0  0.00000000000E+00  0.00000000000E+00 -0.17442398339E+03  0.21458949646E+03  0.12499970405E+03 0.  0.
    9000005    1    3    3    0    0  0.38624573780E+02  0.45984380659E+01 -0.17117747190E+03  0.17554409764E+03  0.10000000000E+01 0.  0.
    9000005    1    3    3    0    0 -0.38624573780E+02 -0.45984380659E+01 -0.32465114903E+01  0.39045398822E+02  0.10000000000E+01 0.  0.
<mgrwt>
<rscale>  0 0.12499970E+03</rscale>
<asrwt>0</asrwt>
<pdfrwt beam="2">  1        4 0.29924112E-01 0.12499970E+03</pdfrwt>
<pdfrwt beam="1">  1       -4 0.30896550E-02 0.12499970E+03</pdfrwt>
<totfact> 0.87732379E+03</totfact>
</mgrwt>
</event>
<event>
 5    1  0.3246948E-002  0.1250025E+03  0.7818608E-02  0.1235065E+00
          4   -1    0    0  501    0  0.00000000000E+00  0.00000000000E+00  0.38788437749E+02  0.38809223169E+02  0.12700000000E+01 0. -1.
         -4   -1    0    0    0  501 -0.00000000000E+00 -0.00000000000E+00 -0.10065888594E+03  0.10066689734E+03  0.12700000000E+01 0. -1.
         25    2    1    2    0    0  0.00000000000E+00  0.00000000000E+00 -0.61870448194E+02  0.13947612051E+03  0.12500254330E+03 0.  0.
    9000005    1    3    3    0    0  0.11210712913E+02  0.61698176321E+01  0.37316448608E+02  0.39462185322E+02  0.10000000000E+01 0.  0.
    9000005    1    3    3    0    0 -0.11210712913E+02 -0.61698176321E+01 -0.99186896802E+02  0.10001393518E+03  0.10000000000E+01 0.  0.
<mgrwt>
<rscale>  0 0.12500254E+03</rscale>
<asrwt>0</asrwt>
<pdfrwt beam="1">  1        4 0.59696671E-02 0.12500254E+03</pdfrwt>
<pdfrwt beam="2">  1       -4 0.15488198E-01 0.12500254E+03</pdfrwt>
<totfact> 0.10143874E+04</totfact>
</mgrwt>
</event>
<event>
 5    1  0.3246948E-002  0.1249979E+03  0.7818608E-02  0.1235073E+00
         -4   -1    0    0    0  501 -0.00000000000E+00  0.00000000000E+00  0.27928437641E+03  0.27928726395E+03  0.12700000000E+01 0.  1.
          4   -1    0    0  501    0  0.00000000000E+00 -0.00000000000E+00 -0.13954374805E+02  0.14012047538E+02  0.12700000000E+01 0.  1.
         25    2    1    2    0    0  0.00000000000E+00  0.00000000000E+00  0.26533000160E+03  0.29329931149E+03  0.12499790546E+03 0.  0.
    9000005    1    3    3    0    0 -0.40430096467E+02  0.13102997078E+01  0.20899614289E+02  0.45542326062E+02  0.10000000000E+01 0.  0.
    9000005    1    3    3    0    0  0.40430096467E+02 -0.13102997078E+01  0.24443038732E+03  0.24775698543E+03  0.10000000000E+01 0.  0.
<mgrwt>
<rscale>  0 0.12499791E+03</rscale>
<asrwt>0</asrwt>
<pdfrwt beam="2">  1        4 0.21514855E-02 0.12499791E+03</pdfrwt>
<pdfrwt beam="1">  1       -4 0.42971483E-01 0.12499791E+03</pdfrwt>
<totfact> 0.76450679E+03</totfact>
</mgrwt>
</event>
<event>
 5    1  0.3246948E-002  0.1250013E+03  0.7818608E-02  0.1235067E+00
         -4   -1    0    0    0  501 -0.00000000000E+00  0.00000000000E+00  0.96930480151E+02  0.96938799675E+02  0.12700000000E+01 0. -1.
          4   -1    0    0  501    0  0.00000000000E+00 -0.00000000000E+00 -0.40280279718E+02  0.40300295708E+02  0.12700000000E+01 0. -1.
         25    2    1    2    0    0  0.00000000000E+00  0.00000000000E+00  0.56650200434E+02  0.13723909538E+03  0.12500129636E+03 0.  0.
    9000005    1    3    3    0    0 -0.22111869510E+01 -0.53977988276E+02 -0.61640077296E+01  0.54382971208E+02  0.10000000000E+01 0.  0.
    9000005    1    3    3    0    0  0.22111869510E+01  0.53977988276E+02  0.62814208163E+02  0.82856124175E+02  0.10000000000E+01 0.  0.
<mgrwt>
<rscale>  0 0.12500130E+03</rscale>
<asrwt>0</asrwt>
<pdfrwt beam="2">  1        4 0.61991458E-02 0.12500130E+03</pdfrwt>
<pdfrwt beam="1">  1       -4 0.14914561E-01 0.12500130E+03</pdfrwt>
<totfact> 0.10190791E+04</totfact>
</mgrwt>
</event>
<event>
 5    1  0.3246948E-002  0.1250135E+03  0.7818608E-02  0.1235048E+00
          4   -1    0    0  501    0  0.00000000000E+00  0.00000000000E+00  0.19615038653E+03  0.19615449788E+03  0.12700000000E+01 0.  1.
         -4   -1    0    0    0  501 -0.00000000000E+00 -0.00000000000E+00 -0.19894299906E+02  0.19934795427E+02  0.12700000000E+01 0.  1.
         25    2    1    2    0    0  0.00000000000E+00  0.00000000000E+00  0.17625608663E+03  0.21608929330E+03  0.12501349770E+03 0.  0.
    9000005    1    3    3    0    0 -0.10718503964E+02  0.46862905030E+02  0.19093420041E+02  0.51735644230E+02  0.10000000000E+01 0.  0.
    9000005    1    3    3    0    0  0.10718503964E+02 -0.46862905030E+02  0.15716266659E+03  0.16435364907E+03  0.10000000000E+01 0.  0.
<mgrwt>
<rscale>  0 0.12501350E+03</rscale>
<asrwt>0</asrwt>
<pdfrwt beam="1">  1        4 0.30180414E-01 0.12501350E+03</pdfrwt>
<pdfrwt beam="2">  1       -4 0.30640928E-02 0.12501350E+03</pdfrwt>
<totfact> 0.87464593E+03</totfact>
</mgrwt>
</event>
<event>
 5    1  0.3246948E-002  0.1250359E+03  0.7818608E-02  0.1235013E+00
          4   -1    0    0  501    0  0.00000000000E+00  0.00000000000E+00  0.46865623584E+02  0.46882828134E+02  0.12700000000E+01 0.  1.
         -4   -1    0    0    0  501 -0.00000000000E+00 -0.00000000000E+00 -0.83360513273E+02  0.83370186956E+02  0.12700000000E+01 0.  1.
         25    2    1    2    0    0  0.00000000000E+00  0.00000000000E+00 -0.36494889690E+02  0.13025301509E+03  0.12503587872E+03 0.  0.
    9000005    1    3    3    0    0 -0.24417676320E+02  0.52914800893E+02  0.53078390646E+01  0.58526679608E+02  0.10000000000E+01 0.  0.
    9000005    1    3    3    0    0  0.24417676320E+02 -0.52914800893E+02 -0.41802728754E+02  0.71726335482E+02  0.10000000000E+01 0.  0.
<mgrwt>
<rscale>  0 0.12503588E+03</rscale>
<asrwt>0</asrwt>
<pdfrwt beam="1">  1        4 0.72121635E-02 0.12503588E+03</pdfrwt>
<pdfrwt beam="2">  1       -4 0.12826762E-01 0.12503588E+03</pdfrwt>
<totfact> 0.10330729E+04</totfact>
</mgrwt>
</event>
<event>
 4    1  0.3246948E-002  0.1194088E+03  0.7818608E-02  0.1244076E+00
          4   -1    0    0  501    0  0.00000000000E+00  0.00000000000E+00  0.13434264413E+04  0.13434270416E+04  0.12700000000E+01 0.  1.
         -4   -1    0    0    0  501 -0.00000000000E+00 -0.00000000000E+00 -0.25007742465E+01  0.28047766100E+01  0.12700000000E+01 0.  1.
    9000005    1    1    2    0    0 -0.48140081612E+02  0.11863133549E+02  0.29562271130E+03  0.29975321322E+03  0.10000000000E+01 0.  0.
    9000005    1    1    2    0    0  0.48140081612E+02 -0.11863133549E+02  0.10453029557E+04  0.10464786050E+04  0.10000000000E+01 0.  0.
<mgrwt>
<rscale>  0 0.11940881E+03</rscale>
<asrwt>0</asrwt>
<pdfrwt beam="1">  1        4 0.20670470E+00 0.11940881E+03</pdfrwt>
<pdfrwt beam="2">  1       -4 0.40816492E-03 0.11940881E+03</pdfrwt>
<totfact> 0.23970120E+03</totfact>
</mgrwt>
</event>
<event>
 5    1  0.3246948E-002  0.1249966E+03  0.7818608E-02  0.1235075E+00
         -4   -1    0    0    0  501 -0.00000000000E+00  0.00000000000E+00  0.12531677787E+04  0.12531684222E+04  0.12700000000E+01 0. -1.
          4   -1    0    0  501    0  0.00000000000E+00 -0.00000000000E+00 -0.29868935179E+01  0.32456791103E+01  0.12700000000E+01 0. -1.
         25    2    1    2    0    0  0.00000000000E+00  0.00000000000E+00  0.12501808851E+04  0.12564141013E+04  0.12499659343E+03 0.  0.
    9000005    1    3    3    0    0  0.44430181507E+02 -0.32251151045E+02  0.32507805397E+03  0.32968305832E+03  0.10000000000E+01 0.  0.
    9000005    1    3    3    0    0 -0.44430181507E+02  0.32251151045E+02  0.92510283117E+03  0.92673104298E+03  0.10000000000E+01 0.  0.
<mgrwt>
<rscale>  0 0.12499659E+03</rscale>
<asrwt>0</asrwt>
<pdfrwt beam="2">  1        4 0.47947731E-03 0.12499659E+03</pdfrwt>
<pdfrwt beam="1">  1       -4 0.19281534E+00 0.12499659E+03</pdfrwt>
<totfact> 0.23282828E+03</totfact>
</mgrwt>
</event>
<event>
 5    1  0.3246948E-002  0.1249985E+03  0.7818608E-02  0.1235072E+00
         -4   -1    0    0    0  501 -0.00000000000E+00  0.00000000000E+00  0.54454565390E+02  0.54469372971E+02  0.12700000000E+01 0.  1.
          4   -1    0    0  501    0  0.00000000000E+00 -0.00000000000E+00 -0.71702223742E+02  0.71713470070E+02  0.12700000000E+01 0.  1.
         25    2    1    2    0    0  0.00000000000E+00  0.00000000000E+00 -0.17247658352E+02  0.12618284304E+03  0.12499851263E+03 0.  0.
    9000005    1    3    3    0    0 -0.13329625096E+02  0.48858950152E+02  0.28332890327E+02  0.58039887917E+02  0.10000000000E+01 0.  0.
    9000005    1    3    3    0    0  0.13329625096E+02 -0.48858950152E+02 -0.45580548679E+02  0.68142955124E+02  0.10000000000E+01 0.  0.
<mgrwt>
<rscale>  0 0.12499851E+03</rscale>
<asrwt>0</asrwt>
<pdfrwt beam="2">  1        4 0.11033116E-01 0.12499851E+03</pdfrwt>
<pdfrwt beam="1">  1       -4 0.83796295E-02 0.12499851E+03</pdfrwt>
<totfact> 0.10427304E+04</totfact>
</mgrwt>
</event>
<event>
 5    1  0.3246948E-002  0.1250093E+03  0.7818608E-02  0.1235055E+00
         -4   -1    0    0    0  501 -0.00000000000E+00  0.00000000000E+00  0.11537093720E+03  0.11537792705E+03  0.12700000000E+01 0. -1.
          4   -1    0    0  501    0  0.00000000000E+00 -0.00000000000E+00 -0.33843273156E+02  0.33867093732E+02  0.12700000000E+01 0. -1.
         25    2    1    2    0    0  0.00000000000E+00  0.00000000000E+00  0.81527664041E+02  0.14924502078E+03  0.12500926455E+03 0.  0.
    9000005    1    3    3    0    0  0.41617493656E+01 -0.48157953760E+02  0.88058639189E+02  0.10045811368E+03  0.10000000000E+01 0.  0.
    9000005    1    3    3    0    0 -0.41617493656E+01  0.48157953760E+02 -0.65309751471E+01  0.48786907101E+02  0.10000000000E+01 0.  0.
<mgrwt>
<rscale>  0 0.12500926E+03</rscale>
<asrwt>0</asrwt>
<pdfrwt beam="2">  1        4 0.52090274E-02 0.12500926E+03</pdfrwt>
<pdfrwt beam="1">  1       -4 0.17751745E-01 0.12500926E+03</pdfrwt>
<totfact> 0.99433669E+03</totfact>
</mgrwt>
</event>
<event>
 5    1  0.3246948E-002  0.1250010E+03  0.7818608E-02  0.1235068E+00
         -4   -1    0    0    0  501 -0.00000000000E+00  0.00000000000E+00  0.24900244239E+03  0.24900568109E+03  0.12700000000E+01 0.  1.
          4   -1    0    0  501    0  0.00000000000E+00 -0.00000000000E+00 -0.15658792288E+02  0.15710209289E+02  0.12700000000E+01 0.  1.
         25    2    1    2    0    0  0.00000000000E+00  0.00000000000E+00  0.23334365010E+03  0.26471589038E+03  0.12500097430E+03 0.  0.
    9000005    1    3    3    0    0  0.58304121960E+02  0.18095803387E+02  0.88379801153E+02  0.10741889028E+03  0.10000000000E+01 0.  0.
    9000005    1    3    3    0    0 -0.58304121960E+02 -0.18095803387E+02  0.14496384895E+03  0.15729700010E+03  0.10000000000E+01 0.  0.
<mgrwt>
<rscale>  0 0.12500097E+03</rscale>
<asrwt>0</asrwt>
<pdfrwt beam="2">  1        4 0.24132494E-02 0.12500097E+03</pdfrwt>
<pdfrwt beam="1">  1       -4 0.38312269E-01 0.12500097E+03</pdfrwt>
<totfact> 0.80247036E+03</totfact>
</mgrwt>
</event>
<event>
 5    1  0.3246948E-002  0.1250057E+03  0.7818608E-02  0.1235060E+00
          4   -1    0    0  501    0  0.00000000000E+00  0.00000000000E+00  0.10861211604E+03  0.10861954083E+03  0.12700000000E+01 0. -1.
         -4   -1    0    0    0  501 -0.00000000000E+00 -0.00000000000E+00 -0.35948544697E+02  0.35970971155E+02  0.12700000000E+01 0. -1.
         25    2    1    2    0    0  0.00000000000E+00  0.00000000000E+00  0.72663571338E+02  0.14459051198E+03  0.12500568609E+03 0.  0.
    9000005    1    3    3    0    0  0.18588866206E+02  0.13837268866E+02  0.10346447856E+03  0.10603260952E+03  0.10000000000E+01 0.  0.
    9000005    1    3    3    0    0 -0.18588866206E+02 -0.13837268866E+02 -0.30800907227E+02  0.38557902465E+02  0.10000000000E+01 0.  0.
<mgrwt>
<rscale>  0 0.12500569E+03</rscale>
<asrwt>0</asrwt>
<pdfrwt beam="1">  1        4 0.16711852E-01 0.12500569E+03</pdfrwt>
<pdfrwt beam="2">  1       -4 0.55328416E-02 0.12500569E+03</pdfrwt>
<totfact> 0.10038030E+04</totfact>
</mgrwt>
</event>
<event>
 5    1  0.3246948E-002  0.1249983E+03  0.7818608E-02  0.1235072E+00
         -4   -1    0    0    0  501 -0.00000000000E+00  0.00000000000E+00  0.32569377774E+02  0.32594129358E+02  0.12700000000E+01 0. -1.
          4   -1    0    0  501    0  0.00000000000E+00 -0.00000000000E+00 -0.11985937732E+03  0.11986610544E+03  0.12700000000E+01 0. -1.
         25    2    1    2    0    0  0.00000000000E+00  0.00000000000E+00 -0.87289999549E+02  0.15246023479E+03  0.12499831668E+03 0.  0.
    9000005    1    3    3    0    0  0.52901972050E+02 -0.55238271900E+01 -0.83654329495E+02  0.99137168393E+02  0.10000000000E+01 0.  0.
    9000005    1    3    3    0    0 -0.52901972050E+02  0.55238271900E+01 -0.36356700536E+01  0.53323066400E+02  0.10000000000E+01 0.  0.
<mgrwt>
<rscale>  0 0.12499832E+03</rscale>
<asrwt>0</asrwt>
<pdfrwt beam="2">  1        4 0.18442326E-01 0.12499832E+03</pdfrwt>
<pdfrwt beam="1">  1       -4 0.50130951E-02 0.12499832E+03</pdfrwt>
<totfact> 0.98819272E+03</totfact>
</mgrwt>
</event>
<event>
 5    1  0.3246948E-002  0.1249996E+03  0.7818608E-02  0.1235070E+00
         -4   -1    0    0    0  501 -0.00000000000E+00  0.00000000000E+00  0.10895865808E+02  0.10969630427E+02  0.12700000000E+01 0.  1.
          4   -1    0    0  501    0  0.00000000000E+00 -0.00000000000E+00 -0.35722077118E+03  0.35722302874E+03  0.12700000000E+01 0.  1.
         25    2    1    2    0    0  0.00000000000E+00  0.00000000000E+00 -0.34632490537E+03  0.36819265917E+03  0.12499957674E+03 0.  0.
    9000005    1    3    3    0    0  0.10834234813E+02  0.35626150407E+01  0.78188576065E+01  0.13863888495E+02  0.10000000000E+01 0.  0.
    9000005    1    3    3    0    0 -0.10834234813E+02 -0.35626150407E+01 -0.35414376298E+03  0.35432877067E+03  0.10000000000E+01 0.  0.
<mgrwt>
<rscale>  0 0.12499958E+03</rscale>
<asrwt>0</asrwt>
<pdfrwt beam="2">  1        4 0.54962881E-01 0.12499958E+03</pdfrwt>
<pdfrwt beam="1">  1       -4 0.16821352E-02 0.12499958E+03</pdfrwt>
<totfact> 0.67769082E+03</totfact>
</mgrwt>
</event>
<event>
 5    1  0.3246948E-002  0.1249996E+03  0.7818608E-02  0.1235070E+00
          4   -1    0    0  501    0  0.00000000000E+00  0.00000000000E+00  0.32889747505E+02  0.32914258171E+02  0.12700000000E+01 0.  1.
         -4   -1    0    0    0  501 -0.00000000000E+00 -0.00000000000E+00 -0.11869519482E+03  0.11870198892E+03  0.12700000000E+01 0.  1.
         25    2    1    2    0    0  0.00000000000E+00  0.00000000000E+00 -0.85805447314E+02  0.15161624709E+03  0.12499964637E+03 0.  0.
    9000005    1    3    3    0    0  0.27035450062E+02 -0.32628986860E+02 -0.98614031320E+02  0.10733728857E+03  0.10000000000E+01 0.  0.
    9000005    1    3    3    0    0 -0.27035450062E+02  0.32628986860E+02  0.12808584006E+02  0.44278958522E+02  0.10000000000E+01 0.  0.
<mgrwt>
<rscale>  0 0.12499965E+03</rscale>
<asrwt>0</asrwt>
<pdfrwt beam="1">  1        4 0.50623693E-02 0.12499965E+03</pdfrwt>
<pdfrwt beam="2">  1       -4 0.18263207E-01 0.12499965E+03</pdfrwt>
<totfact> 0.98983282E+03</totfact>
</mgrwt>
</event>
<event>
 5    1  0.3246948E-002  0.1250028E+03  0.7818608E-02  0.1235065E+00
          4   -1    0    0  501    0  0.00000000000E+00  0.00000000000E+00  0.26036752997E+02  0.26067708120E+02  0.12700000000E+01 0.  1.
         -4   -1    0    0    0  501 -0.00000000000E+00 -0.00000000000E+00 -0.14991220906E+03  0.14991758844E+03  0.12700000000E+01 0.  1.
         25    2    1    2    0    0  0.00000000000E+00  0.00000000000E+00 -0.12387545606E+03  0.17598529656E+03  0.12500278394E+03 0.  0.
    9000005    1    3    3    0    0  0.20055966603E+02  0.57792509476E+02 -0.79923433910E+02  0.10065272592E+03  0.10000000000E+01 0.  0.
    9000005    1    3    3    0    0 -0.20055966603E+02 -0.57792509476E+02 -0.43952022150E+02  0.75332570638E+02  0.10000000000E+01 0.  0.
<mgrwt>
<rscale>  0 0.12500278E+03</rscale>
<asrwt>0</asrwt>
<pdfrwt beam="1">  1        4 0.40084494E-02 0.12500278E+03</pdfrwt>
<pdfrwt beam="2">  1       -4 0.23066211E-01 0.12500278E+03</pdfrwt>
<totfact> 0.94338804E+03</totfact>
</mgrwt>
</event>
<event>
 5    1  0.3246948E-002  0.1249983E+03  0.7818608E-02  0.1235072E+00
         -4   -1    0    0    0  501 -0.00000000000E+00  0.00000000000E+00  0.22832738617E+02  0.22868031239E+02  0.12700000000E+01 0. -1.
          4   -1    0    0  501    0  0.00000000000E+00 -0.00000000000E+00 -0.17090670372E+03  0.17091142231E+03  0.12700000000E+01 0. -1.
         25    2    1    2    0    0  0.00000000000E+00  0.00000000000E+00 -0.14807396511E+03  0.19377945355E+03  0.12499830990E+03 0.  0.
    9000005    1    3    3    0    0  0.25416665878E+02  0.53156025689E+02 -0.41756843208E+02  0.72223292130E+02  0.10000000000E+01 0.  0.
    9000005    1    3    3    0    0 -0.25416665878E+02 -0.53156025689E+02 -0.10631712190E+03  0.12155616142E+03  0.10000000000E+01 0.  0.
<mgrwt>
<rscale>  0 0.12499831E+03</rscale>
<asrwt>0</asrwt>
<pdfrwt beam="2">  1        4 0.26296416E-01 0.12499831E+03</pdfrwt>
<pdfrwt beam="1">  1       -4 0.35158069E-02 0.12499831E+03</pdfrwt>
<totfact> 0.91197281E+03</totfact>
</mgrwt>
</event>
<event>
 5    1  0.3246948E-002  0.1249984E+03  0.7818608E-02  0.1235072E+00
          4   -1    0    0  501    0  0.00000000000E+00  0.00000000000E+00  0.16593309288E+03  0.16593795290E+03  0.12700000000E+01 0.  1.
         -4   -1    0    0    0  501 -0.00000000000E+00 -0.00000000000E+00 -0.23518164759E+02  0.23552430313E+02  0.12700000000E+01 0.  1.
         25    2    1    2    0    0  0.00000000000E+00  0.00000000000E+00  0.14241492812E+03  0.18949038322E+03  0.12499837431E+03 0.  0.
    9000005    1    3    3    0    0 -0.39749477547E+02 -0.25625917027E+02  0.92864470473E+01  0.48207330226E+02  0.10000000000E+01 0.  0.
    9000005    1    3    3    0    0  0.39749477547E+02  0.25625917027E+02  0.13312848108E+03  0.14128305299E+03  0.10000000000E+01 0.  0.
<mgrwt>
<rscale>  0 0.12499837E+03</rscale>
<asrwt>0</asrwt>
<pdfrwt beam="1">  1        4 0.25531178E-01 0.12499837E+03</pdfrwt>
<pdfrwt beam="2">  1       -4 0.36211889E-02 0.12499837E+03</pdfrwt>
<totfact> 0.91939410E+03</totfact>
</mgrwt>
</event>
<event>
 5    1  0.3246948E-002  0.1250011E+03  0.7818608E-02  0.1235068E+00
          4   -1    0    0  501    0  0.00000000000E+00  0.00000000000E+00  0.69934182831E+03  0.69934298147E+03  0.12700000000E+01 0.  1.
         -4   -1    0    0    0  501 -0.00000000000E+00 -0.00000000000E+00 -0.55123442655E+01  0.56567516563E+01  0.12700000000E+01 0.  1.
         25    2    1    2    0    0  0.00000000000E+00  0.00000000000E+00  0.69382948405E+03  0.70499973313E+03  0.12500108308E+03 0.  0.
    9000005    1    3    3    0    0  0.41014024525E+02  0.21292452767E+02  0.10964784972E+03  0.11899230942E+03  0.10000000000E+01 0.  0.
    9000005    1    3    3    0    0 -0.41014024525E+02 -0.21292452767E+02  0.58418163433E+03  0.58600742370E+03  0.10000000000E+01 0.  0.
<mgrwt>
<rscale>  0 0.12500108E+03</rscale>
<asrwt>0</asrwt>
<pdfrwt beam="1">  1        4 0.10760219E+00 0.12500108E+03</pdfrwt>
<pdfrwt beam="2">  1       -4 0.85925038E-03 0.12500108E+03</pdfrwt>
<totfact> 0.42823080E+03</totfact>
</mgrwt>
</event>
<event>
 5    1  0.3246948E-002  0.1249973E+03  0.7818608E-02  0.1235074E+00
          4   -1    0    0  501    0  0.00000000000E+00  0.00000000000E+00  0.81811933354E+01  0.82791801763E+01  0.12700000000E+01 0.  1.
         -4   -1    0    0    0  501 -0.00000000000E+00 -0.00000000000E+00 -0.47450519741E+03  0.47450689697E+03  0.12700000000E+01 0.  1.
         25    2    1    2    0    0  0.00000000000E+00  0.00000000000E+00 -0.46632400407E+03  0.48278607714E+03  0.12499727800E+03 0.  0.
    9000005    1    3    3    0    0 -0.56266790814E+02  0.96389617257E+01 -0.33134671844E+03  0.33622984572E+03  0.10000000000E+01 0.  0.
    9000005    1    3    3    0    0  0.56266790814E+02 -0.96389617257E+01 -0.13497728563E+03  0.14655623142E+03  0.10000000000E+01 0.  0.
<mgrwt>
<rscale>  0 0.12499728E+03</rscale>
<asrwt>0</asrwt>
<pdfrwt beam="1">  1        4 0.12663137E-02 0.12499728E+03</pdfrwt>
<pdfrwt beam="2">  1       -4 0.73008446E-01 0.12499728E+03</pdfrwt>
<totfact> 0.57228572E+03</totfact>
</mgrwt>
</event>
<event>
 5    1  0.3246948E-002  0.1249932E+03  0.7818608E-02  0.1235080E+00
         -4   -1    0    0    0  501 -0.00000000000E+00  0.00000000000E+00  0.13880898850E+03  0.13881479816E+03  0.12700000000E+01 0. -1.
          4   -1    0    0  501    0  0.00000000000E+00 -0.00000000000E+00 -0.28117396383E+02  0.28146063301E+02  0.12700000000E+01 0. -1.
         25    2    1    2    0    0  0.00000000000E+00  0.00000000000E+00  0.11069159212E+03  0.16696086146E+03  0.12499320259E+03 0.  0.
    9000005    1    3    3    0    0 -0.51811365870E+02  0.34927816818E+02  0.54444625824E+02  0.82882973536E+02  0.10000000000E+01 0.  0.
    9000005    1    3    3    0    0  0.51811365870E+02 -0.34927816818E+02  0.56246966295E+02  0.84077887927E+02  0.10000000000E+01 0.  0.
<mgrwt>
<rscale>  0 0.12499320E+03</rscale>
<asrwt>0</asrwt>
<pdfrwt beam="2">  1        4 0.43284054E-02 0.12499320E+03</pdfrwt>
<pdfrwt beam="1">  1       -4 0.21357880E-01 0.12499320E+03</pdfrwt>
<totfact> 0.96031981E+03</totfact>
</mgrwt>
</event>
<event>
 5    1  0.3246948E-002  0.1250028E+03  0.7818608E-02  0.1235065E+00
         -4   -1    0    0    0  501 -0.00000000000E+00  0.00000000000E+00  0.14525799000E+03  0.14526354174E+03  0.12700000000E+01 0. -1.
          4   -1    0    0  501    0  0.00000000000E+00 -0.00000000000E+00 -0.26871941059E+02  0.26901935177E+02  0.12700000000E+01 0. -1.
         25    2    1    2    0    0  0.00000000000E+00  0.00000000000E+00  0.11838604894E+03  0.17216547692E+03  0.12500277940E+03 0.  0.
    9000005    1    3    3    0    0 -0.37944365905E+02 -0.48924270843E+02  0.70884980913E+02  0.94122471815E+02  0.10000000000E+01 0.  0.
    9000005    1    3    3    0    0  0.37944365905E+02  0.48924270843E+02  0.47501068026E+02  0.78043005100E+02  0.10000000000E+01 0.  0.
<mgrwt>
<rscale>  0 0.12500278E+03</rscale>
<asrwt>0</asrwt>
<pdfrwt beam="2">  1        4 0.41368790E-02 0.12500278E+03</pdfrwt>
<pdfrwt beam="1">  1       -4 0.22350118E-01 0.12500278E+03</pdfrwt>
<totfact> 0.95040627E+03</totfact>
</mgrwt>
</event>
<event>
 5    1  0.3246948E-002  0.1250041E+03  0.7818608E-02  0.1235063E+00
         -4   -1    0    0    0  501 -0.00000000000E+00  0.00000000000E+00  0.19012942125E+02  0.19055310763E+02  0.12700000000E+01 0. -1.
          4   -1    0    0  501    0  0.00000000000E+00 -0.00000000000E+00 -0.20519266691E+03  0.20519659708E+03  0.12700000000E+01 0. -1.
         25    2    1    2    0    0  0.00000000000E+00  0.00000000000E+00 -0.18617972479E+03  0.22425190785E+03  0.12500411294E+03 0.  0.
    9000005    1    3    3    0    0 -0.33577812312E+02 -0.48287178071E+02 -0.13099229943E+03  0.14359353591E+03  0.10000000000E+01 0.  0.
    9000005    1    3    3    0    0  0.33577812312E+02  0.48287178071E+02 -0.55187425362E+02  0.80658371939E+02  0.10000000000E+01 0.  0.
<mgrwt>
<rscale>  0 0.12500411E+03</rscale>
<asrwt>0</asrwt>
<pdfrwt beam="2">  1        4 0.31571662E-01 0.12500411E+03</pdfrwt>
<pdfrwt beam="1">  1       -4 0.29286296E-02 0.12500411E+03</pdfrwt>
<totfact> 0.86192065E+03</totfact>
</mgrwt>
</event>
<event>
 5    1  0.3246948E-002  0.1249992E+03  0.7818608E-02  0.1235071E+00
          4   -1    0    0  501    0  0.00000000000E+00  0.00000000000E+00  0.18911953481E+02  0.18954547857E+02  0.12700000000E+01 0. -1.
         -4   -1    0    0    0  501 -0.00000000000E+00 -0.00000000000E+00 -0.20626967822E+03  0.20627358787E+03  0.12700000000E+01 0. -1.
         25    2    1    2    0    0  0.00000000000E+00  0.00000000000E+00 -0.18735772474E+03  0.22522813573E+03  0.12499918441E+03 0.  0.
    9000005    1    3    3    0    0 -0.14191125520E+02  0.11731624655E+02 -0.20128005640E+03  0.20212293330E+03  0.10000000000E+01 0.  0.
    9000005    1    3    3    0    0  0.14191125520E+02 -0.11731624655E+02  0.13922331659E+02  0.23105202431E+02  0.10000000000E+01 0.  0.
<mgrwt>
<rscale>  0 0.12499918E+03</rscale>
<asrwt>0</asrwt>
<pdfrwt beam="1">  1        4 0.29131087E-02 0.12499918E+03</pdfrwt>
<pdfrwt beam="2">  1       -4 0.31737372E-01 0.12499918E+03</pdfrwt>
<totfact> 0.86049315E+03</totfact>
</mgrwt>
</event>
<event>
 5    1  0.3246948E-002  0.1249999E+03  0.7818608E-02  0.1235069E+00
          4   -1    0    0  501    0  0.00000000000E+00  0.00000000000E+00  0.13258119208E+03  0.13258727463E+03  0.12700000000E+01 0.  1.
         -4   -1    0    0    0  501 -0.00000000000E+00 -0.00000000000E+00 -0.29442582563E+02  0.29469960434E+02  0.12700000000E+01 0.  1.
         25    2    1    2    0    0  0.00000000000E+00  0.00000000000E+00  0.10313860952E+03  0.16205723506E+03  0.12499989865E+03 0.  0.
    9000005    1    3    3    0    0  0.35768211803E+02 -0.28573449352E+01 -0.14762205303E+02  0.38813040348E+02  0.10000000000E+01 0.  0.
    9000005    1    3    3    0    0 -0.35768211803E+02  0.28573449352E+01  0.11790081482E+03  0.12324419471E+03  0.10000000000E+01 0.  0.
<mgrwt>
<rscale>  0 0.12499990E+03</rscale>
<asrwt>0</asrwt>
<pdfrwt beam="1">  1        4 0.20399680E-01 0.12499990E+03</pdfrwt>
<pdfrwt beam="2">  1       -4 0.45322020E-02 0.12499990E+03</pdfrwt>
<totfact> 0.96947847E+03</totfact>
</mgrwt>
</event>
<event>
 5    1  0.3246948E-002  0.1249976E+03  0.7818608E-02  0.1235073E+00
         -4   -1    0    0    0  501 -0.00000000000E+00  0.00000000000E+00  0.35486094600E+02  0.35508813131E+02  0.12700000000E+01 0.  1.
          4   -1    0    0  501    0  0.00000000000E+00 -0.00000000000E+00 -0.11001245866E+03  0.11001978895E+03  0.12700000000E+01 0.  1.
         25    2    1    2    0    0  0.00000000000E+00  0.00000000000E+00 -0.74526364061E+02  0.14552860208E+03  0.12499758031E+03 0.  0.
    9000005    1    3    3    0    0  0.29515990895E+02 -0.51690082315E+02 -0.15110551966E+02  0.61419761551E+02  0.10000000000E+01 0.  0.
    9000005    1    3    3    0    0 -0.29515990895E+02  0.51690082315E+02 -0.59415812095E+02  0.84108840530E+02  0.10000000000E+01 0.  0.
<mgrwt>
<rscale>  0 0.12499758E+03</rscale>
<asrwt>0</asrwt>
<pdfrwt beam="2">  1        4 0.16927305E-01 0.12499758E+03</pdfrwt>
<pdfrwt beam="1">  1       -4 0.54617107E-02 0.12499758E+03</pdfrwt>
<totfact> 0.10020805E+04</totfact>
</mgrwt>
</event>
<event>
 5    1  0.3246948E-002  0.1250031E+03  0.7818608E-02  0.1235064E+00
         -4   -1    0    0    0  501 -0.00000000000E+00  0.00000000000E+00  0.18410455758E+03  0.18410893792E+03  0.12700000000E+01 0. -1.
          4   -1    0    0  501    0  0.00000000000E+00 -0.00000000000E+00 -0.21194963915E+02  0.21232978956E+02  0.12700000000E+01 0. -1.
         25    2    1    2    0    0  0.00000000000E+00  0.00000000000E+00  0.16290959366E+03  0.20534191687E+03  0.12500306843E+03 0.  0.
    9000005    1    3    3    0    0 -0.60821290700E+02  0.11182033866E+02  0.66654625692E+02  0.90929128501E+02  0.10000000000E+01 0.  0.
    9000005    1    3    3    0    0  0.60821290700E+02 -0.11182033866E+02  0.96254967969E+02  0.11441278837E+03  0.10000000000E+01 0.  0.
<mgrwt>
<rscale>  0 0.12500307E+03</rscale>
<asrwt>0</asrwt>
<pdfrwt beam="2">  1        4 0.32640250E-02 0.12500307E+03</pdfrwt>
<pdfrwt beam="1">  1       -4 0.28327038E-01 0.12500307E+03</pdfrwt>
<totfact> 0.89236179E+03</totfact>
</mgrwt>
</event>
<event>
 5    1  0.3246948E-002  0.1250017E+03  0.7818608E-02  0.1235067E+00
          4   -1    0    0  501    0  0.00000000000E+00  0.00000000000E+00  0.11647088714E+02  0.11716124595E+02  0.12700000000E+01 0.  1.
         -4   -1    0    0    0  501 -0.00000000000E+00 -0.00000000000E+00 -0.33433196233E+03  0.33433437444E+03  0.12700000000E+01 0.  1.
         25    2    1    2    0    0  0.00000000000E+00  0.00000000000E+00 -0.32268487361E+03  0.34605049904E+03  0.12500168089E+03 0.  0.
    9000005    1    3    3    0    0 -0.22621431371E+02  0.14246612644E+02 -0.31771619931E+03  0.31884052194E+03  0.10000000000E+01 0.  0.
    9000005    1    3    3    0    0  0.22621431371E+02 -0.14246612644E+02 -0.49686743025E+01  0.27209977093E+02  0.10000000000E+01 0.  0.
<mgrwt>
<rscale>  0 0.12500168E+03</rscale>
<asrwt>0</asrwt>
<pdfrwt beam="1">  1        4 0.17973561E-02 0.12500168E+03</pdfrwt>
<pdfrwt beam="2">  1       -4 0.51441175E-01 0.12500168E+03</pdfrwt>
<totfact> 0.70158638E+03</totfact>
</mgrwt>
</event>
<event>
 5    1  0.3246948E-002  0.1250007E+03  0.7818608E-02  0.1235068E+00
          4   -1    0    0  501    0  0.00000000000E+00  0.00000000000E+00  0.45934707588E+03  0.45934883152E+03  0.12700000000E+01 0. -1.
         -4   -1    0    0    0  501 -0.00000000000E+00 -0.00000000000E+00 -0.84548141759E+01  0.85496656513E+01  0.12700000000E+01 0. -1.
         25    2    1    2    0    0  0.00000000000E+00  0.00000000000E+00  0.45089226170E+03  0.46789849717E+03  0.12500068796E+03 0.  0.
    9000005    1    3    3    0    0  0.57071502869E+02  0.17469256263E+02  0.29476668455E+03  0.30075027793E+03  0.10000000000E+01 0.  0.
    9000005    1    3    3    0    0 -0.57071502869E+02 -0.17469256263E+02  0.15612557715E+03  0.16714821924E+03  0.10000000000E+01 0.  0.
<mgrwt>
<rscale>  0 0.12500069E+03</rscale>
<asrwt>0</asrwt>
<pdfrwt beam="1">  1        4 0.70676192E-01 0.12500069E+03</pdfrwt>
<pdfrwt beam="2">  1       -4 0.13081723E-02 0.12500069E+03</pdfrwt>
<totfact> 0.58443136E+03</totfact>
</mgrwt>
</event>
<event>
 5    1  0.3246948E-002  0.1249976E+03  0.7818608E-02  0.1235073E+00
         -4   -1    0    0    0  501 -0.00000000000E+00  0.00000000000E+00  0.65439311937E+03  0.65439435173E+03  0.12700000000E+01 0.  1.
          4   -1    0    0  501    0  0.00000000000E+00 -0.00000000000E+00 -0.59002414016E+01  0.60353747686E+01  0.12700000000E+01 0.  1.
         25    2    1    2    0    0  0.00000000000E+00  0.00000000000E+00  0.64849287797E+03  0.66042972650E+03  0.12499764346E+03 0.  0.
    9000005    1    3    3    0    0 -0.15020430744E+02  0.21635936062E+01  0.39573616962E+01  0.15714807941E+02  0.10000000000E+01 0.  0.
    9000005    1    3    3    0    0  0.15020430744E+02 -0.21635936062E+01  0.64453551627E+03  0.64471491856E+03  0.10000000000E+01 0.  0.
<mgrwt>
<rscale>  0 0.12499764E+03</rscale>
<asrwt>0</asrwt>
<pdfrwt beam="2">  1        4 0.91821973E-03 0.12499764E+03</pdfrwt>
<pdfrwt beam="1">  1       -4 0.10068629E+00 0.12499764E+03</pdfrwt>
<totfact> 0.45261688E+03</totfact>
</mgrwt>
</event>
<event>
 5    1  0.3246948E-002  0.1250083E+03  0.7818608E-02  0.1235056E+00
          4   -1    0    0  501    0  0.00000000000E+00  0.00000000000E+00  0.67903227440E+02  0.67915102862E+02  0.12700000000E+01 0. -1.
         -4   -1    0    0    0  501 -0.00000000000E+00 -0.00000000000E+00 -0.57510459043E+02  0.57524480001E+02  0.12700000000E+01 0. -1.
         25    2    1    2    0    0  0.00000000000E+00  0.00000000000E+00  0.10392768397E+02  0.12543958286E+03  0.12500831698E+03 0.  0.
    9000005    1    3    3    0    0 -0.54828004958E+00 -0.32158818570E+01  0.67822650737E+02  0.67908427018E+02  0.10000000000E+01 0.  0.
    9000005    1    3    3    0    0  0.54828004958E+00  0.32158818570E+01 -0.57429882340E+02  0.57531155844E+02  0.10000000000E+01 0.  0.
<mgrwt>
<rscale>  0 0.12500832E+03</rscale>
<asrwt>0</asrwt>
<pdfrwt beam="1">  1        4 0.10448642E-01 0.12500832E+03</pdfrwt>
<pdfrwt beam="2">  1       -4 0.88497550E-02 0.12500832E+03</pdfrwt>
<totfact> 0.10441332E+04</totfact>
</mgrwt>
</event>
<event>
 5    1  0.3246948E-002  0.1249999E+03  0.7818608E-02  0.1235069E+00
          4   -1    0    0  501    0  0.00000000000E+00  0.00000000000E+00  0.76420919711E+02  0.76431471721E+02  0.12700000000E+01 0. -1.
         -4   -1    0    0    0  501 -0.00000000000E+00 -0.00000000000E+00 -0.51092913435E+02  0.51108694988E+02  0.12700000000E+01 0. -1.
         25    2    1    2    0    0  0.00000000000E+00  0.00000000000E+00  0.25328006276E+02  0.12754016671E+03  0.12499994489E+03 0.  0.
    9000005    1    3    3    0    0 -0.35898821609E+02 -0.49828756128E+02  0.86985011424E+00  0.61427900578E+02  0.10000000000E+01 0.  0.
    9000005    1    3    3    0    0  0.35898821609E+02  0.49828756128E+02  0.24458156161E+02  0.66112266131E+02  0.10000000000E+01 0.  0.
<mgrwt>
<rscale>  0 0.12499994E+03</rscale>
<asrwt>0</asrwt>
<pdfrwt beam="1">  1        4 0.11759090E-01 0.12499994E+03</pdfrwt>
<pdfrwt beam="2">  1       -4 0.78624739E-02 0.12499994E+03</pdfrwt>
<totfact> 0.10397444E+04</totfact>
</mgrwt>
</event>
<event>
 5    1  0.3246948E-002  0.1250075E+03  0.7818608E-02  0.1235058E+00
          4   -1    0    0  501    0  0.00000000000E+00  0.00000000000E+00  0.45380526106E+03  0.45380703814E+03  0.12700000000E+01 0.  1.
         -4   -1    0    0    0  501 -0.00000000000E+00 -0.00000000000E+00 -0.85601581214E+01  0.86538550405E+01  0.12700000000E+01 0.  1.
         25    2    1    2    0    0  0.00000000000E+00  0.00000000000E+00  0.44524510294E+03  0.46246089318E+03  0.12500750390E+03 0.  0.
    9000005    1    3    3    0    0 -0.52953531683E+02  0.28202279724E+02  0.15787938584E+03  0.16889744098E+03  0.10000000000E+01 0.  0.
    9000005    1    3    3    0    0  0.52953531683E+02 -0.28202279724E+02  0.28736571711E+03  0.29356345220E+03  0.10000000000E+01 0.  0.
<mgrwt>
<rscale>  0 0.12500750E+03</rscale>
<asrwt>0</asrwt>
<pdfrwt beam="1">  1        4 0.69823536E-01 0.12500750E+03</pdfrwt>
<pdfrwt beam="2">  1       -4 0.13242916E-02 0.12500750E+03</pdfrwt>
<totfact> 0.58889577E+03</totfact>
</mgrwt>
</event>
<event>
 5    1  0.3246948E-002  0.1250006E+03  0.7818608E-02  0.1235068E+00
          4   -1    0    0  501    0  0.00000000000E+00  0.00000000000E+00  0.35977958169E+02  0.36000366304E+02  0.12700000000E+01 0.  1.
         -4   -1    0    0    0  501 -0.00000000000E+00 -0.00000000000E+00 -0.10851459714E+03  0.10852202861E+03  0.12700000000E+01 0.  1.
         25    2    1    2    0    0  0.00000000000E+00  0.00000000000E+00 -0.72536638972E+02  0.14452239491E+03  0.12500063455E+03 0.  0.
    9000005    1    3    3    0    0 -0.41201280760E+02  0.25937713956E+01 -0.90510180126E+02  0.99485505943E+02  0.10000000000E+01 0.  0.
    9000005    1    3    3    0    0  0.41201280760E+02 -0.25937713956E+01  0.17973541154E+02  0.45036888968E+02  0.10000000000E+01 0.  0.
<mgrwt>
<rscale>  0 0.12500063E+03</rscale>
<asrwt>0</asrwt>
<pdfrwt beam="1">  1        4 0.55373659E-02 0.12500063E+03</pdfrwt>
<pdfrwt beam="2">  1       -4 0.16696849E-01 0.12500063E+03</pdfrwt>
<totfact> 0.10040558E+04</totfact>
</mgrwt>
</event>
<event>
 5    1  0.3246948E-002  0.1249975E+03  0.7818608E-02  0.1235073E+00
          4   -1    0    0  501    0  0.00000000000E+00  0.00000000000E+00  0.48245522059E+02  0.48262234705E+02  0.12700000000E+01 0.  1.
         -4   -1    0    0    0  501 -0.00000000000E+00 -0.00000000000E+00 -0.80927050518E+02  0.80937015052E+02  0.12700000000E+01 0.  1.
         25    2    1    2    0    0  0.00000000000E+00  0.00000000000E+00 -0.32681528459E+02  0.12919924976E+03  0.12499745532E+03 0.  0.
    9000005    1    3    3    0    0 -0.36760971164E+02  0.32197577874E+00 -0.68572782810E+02  0.77811947744E+02  0.10000000000E+01 0.  0.
    9000005    1    3    3    0    0  0.36760971164E+02 -0.32197577874E+00  0.35891254351E+02  0.51387302013E+02  0.10000000000E+01 0.  0.
<mgrwt>
<rscale>  0 0.12499746E+03</rscale>
<asrwt>0</asrwt>
<pdfrwt beam="1">  1        4 0.74244401E-02 0.12499746E+03</pdfrwt>
<pdfrwt beam="2">  1       -4 0.12452367E-01 0.12499746E+03</pdfrwt>
<totfact> 0.10362262E+04</totfact>
</mgrwt>
</event>
<event>
 5    1  0.3246948E-002  0.1249985E+03  0.7818608E-02  0.1235072E+00
          4   -1    0    0  501    0  0.00000000000E+00  0.00000000000E+00  0.94322571457E+03  0.94322656956E+03  0.12700000000E+01 0.  1.
         -4   -1    0    0    0  501 -0.00000000000E+00 -0.00000000000E+00 -0.40430302777E+01  0.42378053078E+01  0.12700000000E+01 0.  1.
         25    2    1    2    0    0  0.00000000000E+00  0.00000000000E+00  0.93918268429E+03  0.94746437487E+03  0.12499850868E+03 0.  0.
    9000005    1    3    3    0    0  0.23449109188E+02  0.45800814896E+02  0.20079329149E+03  0.20728367344E+03  0.10000000000E+01 0.  0.
    9000005    1    3    3    0    0 -0.23449109188E+02 -0.45800814896E+02  0.73838939280E+03  0.74018070143E+03  0.10000000000E+01 0.  0.
<mgrwt>
<rscale>  0 0.12499851E+03</rscale>
<asrwt>0</asrwt>
<pdfrwt beam="1">  1        4 0.14512699E+00 0.12499851E+03</pdfrwt>
<pdfrwt beam="2">  1       -4 0.63705182E-03 0.12499851E+03</pdfrwt>
<totfact> 0.32407151E+03</totfact>
</mgrwt>
</event>
<event>
 5    1  0.3246948E-002  0.1250070E+03  0.7818608E-02  0.1235058E+00
         -4   -1    0    0    0  501 -0.00000000000E+00  0.00000000000E+00  0.13384648190E+02  0.13444765047E+02  0.12700000000E+01 0. -1.
          4   -1    0    0  501    0  0.00000000000E+00 -0.00000000000E+00 -0.29116292357E+03  0.29116569331E+03  0.12700000000E+01 0. -1.
         25    2    1    2    0    0  0.00000000000E+00  0.00000000000E+00 -0.27777827538E+03  0.30461045836E+03  0.12500704407E+03 0.  0.
    9000005    1    3    3    0    0 -0.18344301909E+02 -0.21902883024E+01  0.65905272998E+01  0.19640413068E+02  0.10000000000E+01 0.  0.
    9000005    1    3    3    0    0  0.18344301909E+02  0.21902883024E+01 -0.28436880268E+03  0.28497004529E+03  0.10000000000E+01 0.  0.
<mgrwt>
<rscale>  0 0.12500704E+03</rscale>
<asrwt>0</asrwt>
<pdfrwt beam="2">  1        4 0.44799129E-01 0.12500704E+03</pdfrwt>
<pdfrwt beam="1">  1       -4 0.20640143E-02 0.12500704E+03</pdfrwt>
<totfact> 0.75012402E+03</totfact>
</mgrwt>
</event>
<event>
 5    1  0.3246948E-002  0.1250013E+03  0.7818608E-02  0.1235067E+00
         -4   -1    0    0    0  501 -0.00000000000E+00  0.00000000000E+00  0.94740123652E+01  0.95587556876E+01  0.12700000000E+01 0.  1.
          4   -1    0    0  501    0  0.00000000000E+00 -0.00000000000E+00 -0.41039880704E+03  0.41040077208E+03  0.12700000000E+01 0.  1.
         25    2    1    2    0    0  0.00000000000E+00  0.00000000000E+00 -0.40092479468E+03  0.41995952777E+03  0.12500125589E+03 0.  0.
    9000005    1    3    3    0    0  0.28584119432E+01  0.27638956375E+02 -0.38851974811E+03  0.38951338501E+03  0.10000000000E+01 0.  0.
    9000005    1    3    3    0    0 -0.28584119432E+01 -0.27638956375E+02 -0.12405046563E+02  0.30446142754E+02  0.10000000000E+01 0.  0.
<mgrwt>
<rscale>  0 0.12500126E+03</rscale>
<asrwt>0</asrwt>
<pdfrwt beam="2">  1        4 0.63144934E-01 0.12500126E+03</pdfrwt>
<pdfrwt beam="1">  1       -4 0.14642106E-02 0.12500126E+03</pdfrwt>
<totfact> 0.62655035E+03</totfact>
</mgrwt>
</event>
<event>
 5    1  0.3246948E-002  0.1250002E+03  0.7818608E-02  0.1235069E+00
         -4   -1    0    0    0  501 -0.00000000000E+00  0.00000000000E+00  0.42634511774E+03  0.42634700928E+03  0.12700000000E+01 0. -1.
          4   -1    0    0  501    0  0.00000000000E+00 -0.00000000000E+00 -0.91162837835E+01  0.92043212689E+01  0.12700000000E+01 0. -1.
         25    2    1    2    0    0  0.00000000000E+00  0.00000000000E+00  0.41722883396E+03  0.43555133055E+03  0.12500024663E+03 0.  0.
    9000005    1    3    3    0    0  0.49044955148E+02 -0.31950979806E+02  0.13235509979E+03  0.14472437658E+03  0.10000000000E+01 0.  0.
    9000005    1    3    3    0    0 -0.49044955148E+02  0.31950979806E+02  0.28487373417E+03  0.29082695397E+03  0.10000000000E+01 0.  0.
<mgrwt>
<rscale>  0 0.12500025E+03</rscale>
<asrwt>0</asrwt>
<pdfrwt beam="2">  1        4 0.14094231E-02 0.12500025E+03</pdfrwt>
<pdfrwt beam="1">  1       -4 0.65598459E-01 0.12500025E+03</pdfrwt>
<totfact> 0.61235675E+03</totfact>
</mgrwt>
</event>
<event>
 5    1  0.3246948E-002  0.1249987E+03  0.7818608E-02  0.1235071E+00
         -4   -1    0    0    0  501 -0.00000000000E+00  0.00000000000E+00  0.37216945073E+03  0.37217161761E+03  0.12700000000E+01 0.  1.
          4   -1    0    0  501    0  0.00000000000E+00 -0.00000000000E+00 -0.10455043124E+02  0.10531895685E+02  0.12700000000E+01 0.  1.
         25    2    1    2    0    0  0.00000000000E+00  0.00000000000E+00  0.36171440760E+03  0.38270351329E+03  0.12499866568E+03 0.  0.
    9000005    1    3    3    0    0 -0.22446909508E+02 -0.57614781717E+02  0.20855462375E+03  0.21753013103E+03  0.10000000000E+01 0.  0.
    9000005    1    3    3    0    0  0.22446909508E+02  0.57614781717E+02  0.15315978385E+03  0.16517338227E+03  0.10000000000E+01 0.  0.
<mgrwt>
<rscale>  0 0.12499867E+03</rscale>
<asrwt>0</asrwt>
<pdfrwt beam="2">  1        4 0.16145465E-02 0.12499867E+03</pdfrwt>
<pdfrwt beam="1">  1       -4 0.57262920E-01 0.12499867E+03</pdfrwt>
<totfact> 0.66272473E+03</totfact>
</mgrwt>
</event>
<event>
 5    1  0.3246948E-002  0.1249997E+03  0.7818608E-02  0.1235070E+00
         -4   -1    0    0    0  501 -0.00000000000E+00  0.00000000000E+00  0.60838904333E+01  0.62150320035E+01  0.12700000000E+01 0.  1.
          4   -1    0    0  501    0  0.00000000000E+00 -0.00000000000E+00 -0.63508357668E+03  0.63508484651E+03  0.12700000000E+01 0.  1.
         25    2    1    2    0    0  0.00000000000E+00  0.00000000000E+00 -0.62899968625E+03  0.64129987852E+03  0.12499971554E+03 0.  0.
    9000005    1    3    3    0    0  0.45231415280E+02  0.37437521142E+02 -0.42426944966E+03  0.42831415437E+03  0.10000000000E+01 0.  0.
    9000005    1    3    3    0    0 -0.45231415280E+02 -0.37437521142E+02 -0.20473023659E+03  0.21298572415E+03  0.10000000000E+01 0.  0.
<mgrwt>
<rscale>  0 0.12499972E+03</rscale>
<asrwt>0</asrwt>
<pdfrwt beam="2">  1        4 0.97715299E-01 0.12499972E+03</pdfrwt>
<pdfrwt beam="1">  1       -4 0.94616914E-03 0.12499972E+03</pdfrwt>
<totfact> 0.46360512E+03</totfact>
</mgrwt>
</event>
<event>
 5    1  0.3246948E-002  0.1250031E+03  0.7818608E-02  0.1235064E+00
          4   -1    0    0  501    0  0.00000000000E+00  0.00000000000E+00  0.79419307079E+03  0.79419408622E+03  0.12700000000E+01 0. -1.
         -4   -1    0    0    0  501 -0.00000000000E+00 -0.00000000000E+00 -0.48357474981E+01  0.49997353795E+01  0.12700000000E+01 0. -1.
         25    2    1    2    0    0  0.00000000000E+00  0.00000000000E+00  0.78935732329E+03  0.79919382160E+03  0.12500312257E+03 0.  0.
    9000005    1    3    3    0    0 -0.42941455787E+01  0.49723328526E+02  0.63514122958E+03  0.63709985921E+03  0.10000000000E+01 0.  0.
    9000005    1    3    3    0    0  0.42941455787E+01 -0.49723328526E+02  0.15421609371E+03  0.16209396240E+03  0.10000000000E+01 0.  0.
<mgrwt>
<rscale>  0 0.12500312E+03</rscale>
<asrwt>0</asrwt>
<pdfrwt beam="1">  1        4 0.12219628E+00 0.12500312E+03</pdfrwt>
<pdfrwt beam="2">  1       -4 0.75665345E-03 0.12500312E+03</pdfrwt>
<totfact> 0.38298114E+03</totfact>
</mgrwt>
</event>
<event>
 5    1  0.3246948E-002  0.1249995E+03  0.7818608E-02  0.1235070E+00
          4   -1    0    0  501    0  0.00000000000E+00  0.00000000000E+00  0.90252573898E+02  0.90261508935E+02  0.12700000000E+01 0.  1.
         -4   -1    0    0    0  501 -0.00000000000E+00 -0.00000000000E+00 -0.43260545819E+02  0.43279183501E+02  0.12700000000E+01 0.  1.
         25    2    1    2    0    0  0.00000000000E+00  0.00000000000E+00  0.46992028079E+02  0.13354069244E+03  0.12499946333E+03 0.  0.
    9000005    1    3    3    0    0 -0.90200423980E+01 -0.59232070669E+02  0.45224861042E+01  0.60093695519E+02  0.10000000000E+01 0.  0.
    9000005    1    3    3    0    0  0.90200423980E+01  0.59232070669E+02  0.42469541975E+02  0.73446996917E+02  0.10000000000E+01 0.  0.
<mgrwt>
<rscale>  0 0.12499946E+03</rscale>
<asrwt>0</asrwt>
<pdfrwt beam="1">  1        4 0.13887132E-01 0.12499946E+03</pdfrwt>
<pdfrwt beam="2">  1       -4 0.66575895E-02 0.12499946E+03</pdfrwt>
<totfact> 0.10269046E+04</totfact>
</mgrwt>
</event>
<event>
 5    1  0.3246948E-002  0.1250079E+03  0.7818608E-02  0.1235057E+00
          4   -1    0    0  501    0  0.00000000000E+00  0.00000000000E+00  0.19153759689E+02  0.19195817519E+02  0.12700000000E+01 0.  1.
         -4   -1    0    0    0  501 -0.00000000000E+00 -0.00000000000E+00 -0.20369977824E+03  0.20370373721E+03  0.12700000000E+01 0.  1.
         25    2    1    2    0    0  0.00000000000E+00  0.00000000000E+00 -0.18454601855E+03  0.22289955473E+03  0.12500791390E+03 0.  0.
    9000005    1    3    3    0    0 -0.41272399579E+02 -0.28198292882E+02 -0.25385033241E+02  0.56070978243E+02  0.10000000000E+01 0.  0.
    9000005    1    3    3    0    0  0.41272399579E+02  0.28198292882E+02 -0.15916098531E+03  0.16682857649E+03  0.10000000000E+01 0.  0.
<mgrwt>
<rscale>  0 0.12500791E+03</rscale>
<asrwt>0</asrwt>
<pdfrwt beam="1">  1        4 0.29502722E-02 0.12500791E+03</pdfrwt>
<pdfrwt beam="2">  1       -4 0.31341966E-01 0.12500791E+03</pdfrwt>
<totfact> 0.86396334E+03</totfact>
</mgrwt>
</event>
<event>
 5    1  0.3246948E-002  0.1250032E+03  0.7818608E-02  0.1235064E+00
         -4   -1    0    0    0  501 -0.00000000000E+00  0.00000000000E+00  0.33398929926E+01  0.35732037728E+01  0.12700000000E+01 0.  1.
          4   -1    0    0  501    0  0.00000000000E+00 -0.00000000000E+00 -0.11299263153E+04  0.11299270290E+04  0.12700000000E+01 0.  1.
         25    2    1    2    0    0  0.00000000000E+00  0.00000000000E+00 -0.11265864223E+04  0.11335002328E+04  0.12500324320E+03 0.  0.
    9000005    1    3    3    0    0  0.25154711515E+02  0.56173311044E+02 -0.46510461497E+03  0.46916042379E+03  0.10000000000E+01 0.  0.
    9000005    1    3    3    0    0 -0.25154711515E+02 -0.56173311044E+02 -0.66148180733E+03  0.66433980900E+03  0.10000000000E+01 0.  0.
<mgrwt>
<rscale>  0 0.12500324E+03</rscale>
<asrwt>0</asrwt>
<pdfrwt beam="2">  1        4 0.17385253E+00 0.12500324E+03</pdfrwt>
<pdfrwt beam="1">  1       -4 0.53183248E-03 0.12500324E+03</pdfrwt>
<totfact> 0.26520688E+03</totfact>
</mgrwt>
</event>
<event>
 5    1  0.3246948E-002  0.1249972E+03  0.7818608E-02  0.1235074E+00
         -4   -1    0    0    0  501 -0.00000000000E+00  0.00000000000E+00  0.39649887863E+03  0.39650091255E+03  0.12700000000E+01 0.  1.
          4   -1    0    0  501    0  0.00000000000E+00 -0.00000000000E+00 -0.98084097606E+01  0.98902882683E+01  0.12700000000E+01 0.  1.
         25    2    1    2    0    0  0.00000000000E+00  0.00000000000E+00  0.38669046887E+03  0.40639120082E+03  0.12499715753E+03 0.  0.
    9000005    1    3    3    0    0 -0.23626574679E+02 -0.45648988423E+01  0.58429675015E+01  0.24782929644E+02  0.10000000000E+01 0.  0.
    9000005    1    3    3    0    0  0.23626574679E+02  0.45648988423E+01  0.38084750137E+03  0.38160827118E+03  0.10000000000E+01 0.  0.
<mgrwt>
<rscale>  0 0.12499716E+03</rscale>
<asrwt>0</asrwt>
<pdfrwt beam="2">  1        4 0.15154405E-02 0.12499716E+03</pdfrwt>
<pdfrwt beam="1">  1       -4 0.61006298E-01 0.12499716E+03</pdfrwt>
<totfact> 0.63939900E+03</totfact>
</mgrwt>
</event>
<event>
 5    1  0.3246948E-002  0.1249999E+03  0.7818608E-02  0.1235069E+00
          4   -1    0    0  501    0  0.00000000000E+00  0.00000000000E+00  0.36382038777E+03  0.36382260438E+03  0.12700000000E+01 0.  1.
         -4   -1    0    0    0  501 -0.00000000000E+00 -0.00000000000E+00 -0.10696924418E+02  0.10772051430E+02  0.12700000000E+01 0.  1.
         25    2    1    2    0    0  0.00000000000E+00  0.00000000000E+00  0.35312346335E+03  0.37459465581E+03  0.12499990317E+03 0.  0.
    9000005    1    3    3    0    0  0.36805933325E+02 -0.11523610120E+02  0.29208481732E+02  0.48390140764E+02  0.10000000000E+01 0.  0.
    9000005    1    3    3    0    0 -0.36805933325E+02  0.11523610120E+02  0.32391498162E+03  0.32620451505E+03  0.10000000000E+01 0.  0.
<mgrwt>
<rscale>  0 0.12499990E+03</rscale>
<asrwt>0</asrwt>
<pdfrwt beam="1">  1        4 0.55978310E-01 0.12499990E+03</pdfrwt>
<pdfrwt beam="2">  1       -4 0.16516304E-02 0.12499990E+03</pdfrwt>
<totfact> 0.67101120E+03</totfact>
</mgrwt>
</event>
<event>
 5    1  0.3246948E-002  0.1250072E+03  0.7818608E-02  0.1235058E+00
         -4   -1    0    0    0  501 -0.00000000000E+00  0.00000000000E+00  0.50418038040E+01  0.51992966446E+01  0.12700000000E+01 0. -1.
          4   -1    0    0  501    0  0.00000000000E+00 -0.00000000000E+00 -0.76278773440E+03  0.76278879164E+03  0.12700000000E+01 0. -1.
         25    2    1    2    0    0  0.00000000000E+00  0.00000000000E+00 -0.75774593060E+03  0.76798808828E+03  0.12500723344E+03 0.  0.
    9000005    1    3    3    0    0 -0.24939779375E+02 -0.39067023399E+02 -0.63642452771E+03  0.63811080886E+03  0.10000000000E+01 0.  0.
    9000005    1    3    3    0    0  0.24939779375E+02  0.39067023399E+02 -0.12132140288E+03  0.12987727942E+03  0.10000000000E+01 0.  0.
<mgrwt>
<rscale>  0 0.12500723E+03</rscale>
<asrwt>0</asrwt>
<pdfrwt beam="2">  1        4 0.11736407E+00 0.12500723E+03</pdfrwt>
<pdfrwt beam="1">  1       -4 0.78785889E-03 0.12500723E+03</pdfrwt>
<totfact> 0.39721931E+03</totfact>
</mgrwt>
</event>
<event>
 5    1  0.3246948E-002  0.1249898E+03  0.7818608E-02  0.1235085E+00
          4   -1    0    0  501    0  0.00000000000E+00  0.00000000000E+00  0.18244524167E+03  0.18244966185E+03  0.12700000000E+01 0. -1.
         -4   -1    0    0    0  501 -0.00000000000E+00 -0.00000000000E+00 -0.21383521462E+02  0.21421201883E+02  0.12700000000E+01 0. -1.
         25    2    1    2    0    0  0.00000000000E+00  0.00000000000E+00  0.16106172021E+03  0.20387086373E+03  0.12498980503E+03 0.  0.
    9000005    1    3    3    0    0  0.26810145584E+02 -0.39570731195E+02  0.14618108608E+03  0.15380031405E+03  0.10000000000E+01 0.  0.
    9000005    1    3    3    0    0 -0.26810145584E+02  0.39570731195E+02  0.14880634128E+02  0.50070549683E+02  0.10000000000E+01 0.  0.
<mgrwt>
<rscale>  0 0.12498981E+03</rscale>
<asrwt>0</asrwt>
<pdfrwt beam="1">  1        4 0.28071737E-01 0.12498981E+03</pdfrwt>
<pdfrwt beam="2">  1       -4 0.32930111E-02 0.12498981E+03</pdfrwt>
<totfact> 0.89507146E+03</totfact>
</mgrwt>
</event>
<event>
 5    1  0.3246948E-002  0.1250015E+03  0.7818608E-02  0.1235067E+00
          4   -1    0    0  501    0  0.00000000000E+00  0.00000000000E+00  0.90125618255E+01  0.91016026423E+01  0.12700000000E+01 0.  1.
         -4   -1    0    0    0  501 -0.00000000000E+00 -0.00000000000E+00 -0.43121245391E+03  0.43121432410E+03  0.12700000000E+01 0.  1.
         25    2    1    2    0    0  0.00000000000E+00  0.00000000000E+00 -0.42219989208E+03  0.44031592674E+03  0.12500146585E+03 0.  0.
    9000005    1    3    3    0    0 -0.36154231209E+02  0.30786230793E+02 -0.67997623502E+02  0.82943337543E+02  0.10000000000E+01 0.  0.
    9000005    1    3    3    0    0  0.36154231209E+02 -0.30786230793E+02 -0.35420226858E+03  0.35737258920E+03  0.10000000000E+01 0.  0.
<mgrwt>
<rscale>  0 0.12500147E+03</rscale>
<asrwt>0</asrwt>
<pdfrwt beam="1">  1        4 0.13935415E-02 0.12500147E+03</pdfrwt>
<pdfrwt beam="2">  1       -4 0.66347355E-01 0.12500147E+03</pdfrwt>
<totfact> 0.60809961E+03</totfact>
</mgrwt>
</event>
<event>
 5    1  0.3246948E-002  0.1250009E+03  0.7818608E-02  0.1235068E+00
          4   -1    0    0  501    0  0.00000000000E+00  0.00000000000E+00  0.12175916371E+01  0.17593832427E+01  0.12700000000E+01 0.  1.
         -4   -1    0    0    0  501 -0.00000000000E+00 -0.00000000000E+00 -0.26238037538E+04  0.26238040612E+04  0.12700000000E+01 0.  1.
         25    2    1    2    0    0  0.00000000000E+00  0.00000000000E+00 -0.26225861622E+04  0.26255634444E+04  0.12500089044E+03 0.  0.
    9000005    1    3    3    0    0  0.38545272605E+02  0.22874732901E+02 -0.39662281831E+03  0.39914865833E+03  0.10000000000E+01 0.  0.
    9000005    1    3    3    0    0 -0.38545272605E+02 -0.22874732901E+02 -0.22259633439E+04  0.22264147861E+04  0.10000000000E+01 0.  0.
<mgrwt>
<rscale>  0 0.12500089E+03</rscale>
<asrwt>0</asrwt>
<pdfrwt beam="1">  1        4 0.22902381E-03 0.12500089E+03</pdfrwt>
<pdfrwt beam="2">  1       -4 0.40370011E+00 0.12500089E+03</pdfrwt>
<totfact> 0.37563706E+02</totfact>
</mgrwt>
</event>
<event>
 4    1  0.3246948E-002  0.1249148E+03  0.7818608E-02  0.1235203E+00
          4   -1    0    0  501    0  0.00000000000E+00  0.00000000000E+00  0.90207876964E+02  0.90216816427E+02  0.12700000000E+01 0.  1.
         -4   -1    0    0    0  501 -0.00000000000E+00 -0.00000000000E+00 -0.43223306143E+02  0.43241959876E+02  0.12700000000E+01 0.  1.
    9000005    1    1    2    0    0  0.11729126048E+01  0.54930273888E+02 -0.82233832825E+01  0.55563789882E+02  0.10000000000E+01 0.  0.
    9000005    1    1    2    0    0 -0.11729126048E+01 -0.54930273888E+02  0.55207954103E+02  0.77894986422E+02  0.10000000000E+01 0.  0.
<mgrwt>
<rscale>  0 0.12491475E+03</rscale>
<asrwt>0</asrwt>
<pdfrwt beam="1">  1        4 0.13880257E-01 0.12491475E+03</pdfrwt>
<pdfrwt beam="2">  1       -4 0.66518621E-02 0.12491475E+03</pdfrwt>
<totfact> 0.10290433E+04</totfact>
</mgrwt>
</event>
<event>
 5    1  0.3246948E-002  0.1250007E+03  0.7818608E-02  0.1235068E+00
          4   -1    0    0  501    0  0.00000000000E+00  0.00000000000E+00  0.67908520904E+02  0.67920395401E+02  0.12700000000E+01 0.  1.
         -4   -1    0    0    0  501 -0.00000000000E+00 -0.00000000000E+00 -0.57498974542E+02  0.57512998300E+02  0.12700000000E+01 0.  1.
         25    2    1    2    0    0  0.00000000000E+00  0.00000000000E+00  0.10409546362E+02  0.12543339370E+03  0.12500071040E+03 0.  0.
    9000005    1    3    3    0    0 -0.15603162708E+02 -0.54730467987E+02 -0.20699532802E+02  0.60566933808E+02  0.10000000000E+01 0.  0.
    9000005    1    3    3    0    0  0.15603162708E+02  0.54730467987E+02  0.31109079164E+02  0.64866459893E+02  0.10000000000E+01 0.  0.
<mgrwt>
<rscale>  0 0.12500071E+03</rscale>
<asrwt>0</asrwt>
<pdfrwt beam="1">  1        4 0.10449457E-01 0.12500071E+03</pdfrwt>
<pdfrwt beam="2">  1       -4 0.88479883E-02 0.12500071E+03</pdfrwt>
<totfact> 0.10443260E+04</totfact>
</mgrwt>
</event>
<event>
 5    1  0.3246948E-002  0.1249975E+03  0.7818608E-02  0.1235073E+00
          4   -1    0    0  501    0  0.00000000000E+00  0.00000000000E+00  0.45952728628E+03  0.45952904123E+03  0.12700000000E+01 0.  1.
         -4   -1    0    0    0  501 -0.00000000000E+00 -0.00000000000E+00 -0.84510249207E+01  0.85459184533E+01  0.12700000000E+01 0.  1.
         25    2    1    2    0    0  0.00000000000E+00  0.00000000000E+00  0.45107626136E+03  0.46807495969E+03  0.12499749727E+03 0.  0.
    9000005    1    3    3    0    0  0.57596301210E+02  0.14436701119E+02  0.15260427533E+03  0.16375230411E+03  0.10000000000E+01 0.  0.
    9000005    1    3    3    0    0 -0.57596301210E+02 -0.14436701119E+02  0.29847198603E+03  0.30432265558E+03  0.10000000000E+01 0.  0.
<mgrwt>
<rscale>  0 0.12499750E+03</rscale>
<asrwt>0</asrwt>
<pdfrwt beam="1">  1        4 0.70703949E-01 0.12499750E+03</pdfrwt>
<pdfrwt beam="2">  1       -4 0.13075920E-02 0.12499750E+03</pdfrwt>
<totfact> 0.58432542E+03</totfact>
</mgrwt>
</event>
<event>
 5    1  0.3246948E-002  0.1250002E+03  0.7818608E-02  0.1235069E+00
         -4   -1    0    0    0  501 -0.00000000000E+00  0.00000000000E+00  0.11070764140E+02  0.11143371062E+02  0.12700000000E+01 0. -1.
          4   -1    0    0  501    0  0.00000000000E+00 -0.00000000000E+00 -0.35161757799E+03  0.35161987152E+03  0.12700000000E+01 0. -1.
         25    2    1    2    0    0  0.00000000000E+00  0.00000000000E+00 -0.34054681385E+03  0.36276324258E+03  0.12500015100E+03 0.  0.
    9000005    1    3    3    0    0  0.34401665810E+02  0.91603179582E+01 -0.21220753405E+02  0.41457284169E+02  0.10000000000E+01 0.  0.
    9000005    1    3    3    0    0 -0.34401665810E+02 -0.91603179582E+01 -0.31932606044E+03  0.32130595841E+03  0.10000000000E+01 0.  0.
<mgrwt>
<rscale>  0 0.12500015E+03</rscale>
<asrwt>0</asrwt>
<pdfrwt beam="2">  1        4 0.54100765E-01 0.12500015E+03</pdfrwt>
<pdfrwt beam="1">  1       -4 0.17089563E-02 0.12500015E+03</pdfrwt>
<totfact> 0.68342670E+03</totfact>
</mgrwt>
</event>
<event>
 5    1  0.3246948E-002  0.1250001E+03  0.7818608E-02  0.1235069E+00
          4   -1    0    0  501    0  0.00000000000E+00  0.00000000000E+00  0.64345824609E+03  0.64345949940E+03  0.12700000000E+01 0.  1.
         -4   -1    0    0    0  501 -0.00000000000E+00 -0.00000000000E+00 -0.60030280935E+01  0.61358981650E+01  0.12700000000E+01 0.  1.
         25    2    1    2    0    0  0.00000000000E+00  0.00000000000E+00  0.63745521800E+03  0.64959539756E+03  0.12500010232E+03 0.  0.
    9000005    1    3    3    0    0  0.46339493073E+00 -0.51940466035E+02  0.13816512651E+03  0.14760971828E+03  0.10000000000E+01 0.  0.
    9000005    1    3    3    0    0 -0.46339493073E+00  0.51940466035E+02  0.49929009149E+03  0.50198567928E+03  0.10000000000E+01 0.  0.
<mgrwt>
<rscale>  0 0.12500010E+03</rscale>
<asrwt>0</asrwt>
<pdfrwt beam="1">  1        4 0.99003845E-01 0.12500010E+03</pdfrwt>
<pdfrwt beam="2">  1       -4 0.93386042E-03 0.12500010E+03</pdfrwt>
<totfact> 0.45879280E+03</totfact>
</mgrwt>
</event>
<event>
 5    1  0.3246948E-002  0.1250014E+03  0.7818608E-02  0.1235067E+00
          4   -1    0    0  501    0  0.00000000000E+00  0.00000000000E+00  0.27277661666E+03  0.27277957310E+03  0.12700000000E+01 0.  1.
         -4   -1    0    0    0  501 -0.00000000000E+00 -0.00000000000E+00 -0.14289457191E+02  0.14345782893E+02  0.12700000000E+01 0.  1.
         25    2    1    2    0    0  0.00000000000E+00  0.00000000000E+00  0.25848715947E+03  0.28712535599E+03  0.12500143375E+03 0.  0.
    9000005    1    3    3    0    0  0.20573202602E+02  0.17235154609E+02 -0.38879559737E+00  0.26859977321E+02  0.10000000000E+01 0.  0.
    9000005    1    3    3    0    0 -0.20573202602E+02 -0.17235154609E+02  0.25887595507E+03  0.26026537867E+03  0.10000000000E+01 0.  0.
<mgrwt>
<rscale>  0 0.12500143E+03</rscale>
<asrwt>0</asrwt>
<pdfrwt beam="1">  1        4 0.41970189E-01 0.12500143E+03</pdfrwt>
<pdfrwt beam="2">  1       -4 0.22029384E-02 0.12500143E+03</pdfrwt>
<totfact> 0.77240264E+03</totfact>
</mgrwt>
</event>
<event>
 5    1  0.3246948E-002  0.1249974E+03  0.7818608E-02  0.1235073E+00
          4   -1    0    0  501    0  0.00000000000E+00  0.00000000000E+00  0.59463361543E+03  0.59463497164E+03  0.12700000000E+01 0.  1.
         -4   -1    0    0    0  501 -0.00000000000E+00 -0.00000000000E+00 -0.65061394825E+01  0.66289328678E+01  0.12700000000E+01 0.  1.
         25    2    1    2    0    0  0.00000000000E+00  0.00000000000E+00  0.58812747595E+03  0.60126390451E+03  0.12499741958E+03 0.  0.
    9000005    1    3    3    0    0  0.22891703833E+02 -0.43554652481E+01  0.15150801208E+02  0.27812712186E+02  0.10000000000E+01 0.  0.
    9000005    1    3    3    0    0 -0.22891703833E+02  0.43554652481E+01  0.57297667474E+03  0.57345119232E+03  0.10000000000E+01 0.  0.
<mgrwt>
<rscale>  0 0.12499742E+03</rscale>
<asrwt>0</asrwt>
<pdfrwt beam="1">  1        4 0.91491669E-01 0.12499742E+03</pdfrwt>
<pdfrwt beam="2">  1       -4 0.10104942E-02 0.12499742E+03</pdfrwt>
<totfact> 0.48790677E+03</totfact>
</mgrwt>
</event>
<event>
 5    1  0.3246948E-002  0.1250091E+03  0.7818608E-02  0.1235055E+00
          4   -1    0    0  501    0  0.00000000000E+00  0.00000000000E+00  0.14703455358E+03  0.14704003825E+03  0.12700000000E+01 0.  1.
         -4   -1    0    0    0  501 -0.00000000000E+00 -0.00000000000E+00 -0.26549580046E+02  0.26579937935E+02  0.12700000000E+01 0.  1.
         25    2    1    2    0    0  0.00000000000E+00  0.00000000000E+00  0.12048497354E+03  0.17361997618E+03  0.12500906879E+03 0.  0.
    9000005    1    3    3    0    0  0.80128061058E+01 -0.13463047240E+02 -0.23784726572E+02  0.28498630156E+02  0.10000000000E+01 0.  0.
    9000005    1    3    3    0    0 -0.80128061058E+01  0.13463047240E+02  0.14426970011E+03  0.14512134603E+03  0.10000000000E+01 0.  0.
<mgrwt>
<rscale>  0 0.12500907E+03</rscale>
<asrwt>0</asrwt>
<pdfrwt beam="1">  1        4 0.22623458E-01 0.12500907E+03</pdfrwt>
<pdfrwt beam="2">  1       -4 0.40873079E-02 0.12500907E+03</pdfrwt>
<totfact> 0.94758916E+03</totfact>
</mgrwt>
</event>
<event>
 5    1  0.3246948E-002  0.1250047E+03  0.7818608E-02  0.1235062E+00
         -4   -1    0    0    0  501 -0.00000000000E+00  0.00000000000E+00  0.61933482454E+01  0.63222197438E+01  0.12700000000E+01 0.  1.
          4   -1    0    0  501    0  0.00000000000E+00 -0.00000000000E+00 -0.62414011780E+03  0.62414140990E+03  0.12700000000E+01 0.  1.
         25    2    1    2    0    0  0.00000000000E+00  0.00000000000E+00 -0.61794676956E+03  0.63046362964E+03  0.12500471310E+03 0.  0.
    9000005    1    3    3    0    0 -0.23006136032E+02 -0.23535350212E+02 -0.57691430955E+03  0.57785319552E+03  0.10000000000E+01 0.  0.
    9000005    1    3    3    0    0  0.23006136032E+02  0.23535350212E+02 -0.41032460005E+02  0.52610434124E+02  0.10000000000E+01 0.  0.
<mgrwt>
<rscale>  0 0.12500471E+03</rscale>
<asrwt>0</asrwt>
<pdfrwt beam="2">  1        4 0.96031520E-01 0.12500471E+03</pdfrwt>
<pdfrwt beam="1">  1       -4 0.96283588E-03 0.12500471E+03</pdfrwt>
<totfact> 0.46994606E+03</totfact>
</mgrwt>
</event>
<event>
 5    1  0.3246948E-002  0.1249894E+03  0.7818608E-02  0.1235086E+00
          4   -1    0    0  501    0  0.00000000000E+00  0.00000000000E+00  0.13417623818E+03  0.13418224842E+03  0.12700000000E+01 0. -1.
         -4   -1    0    0    0  501 -0.00000000000E+00 -0.00000000000E+00 -0.29087379778E+02  0.29115091660E+02  0.12700000000E+01 0. -1.
         25    2    1    2    0    0  0.00000000000E+00  0.00000000000E+00  0.10508885840E+03  0.16329734008E+03  0.12498941202E+03 0.  0.
    9000005    1    3    3    0    0 -0.42610927673E+02  0.39164929924E+02  0.83323427713E+02  0.10145627876E+03  0.10000000000E+01 0.  0.
    9000005    1    3    3    0    0  0.42610927673E+02 -0.39164929924E+02  0.21765430687E+02  0.61841061327E+02  0.10000000000E+01 0.  0.
<mgrwt>
<rscale>  0 0.12498941E+03</rscale>
<asrwt>0</asrwt>
<pdfrwt beam="1">  1        4 0.20645092E-01 0.12498941E+03</pdfrwt>
<pdfrwt beam="2">  1       -4 0.44775755E-02 0.12498941E+03</pdfrwt>
<totfact> 0.96733835E+03</totfact>
</mgrwt>
</event>
<event>
 5    1  0.3246948E-002  0.1250002E+03  0.7818608E-02  0.1235069E+00
          4   -1    0    0  501    0  0.00000000000E+00  0.00000000000E+00  0.31610275244E+02  0.31635777230E+02  0.12700000000E+01 0. -1.
         -4   -1    0    0    0  501 -0.00000000000E+00 -0.00000000000E+00 -0.12349718368E+03  0.12350371362E+03  0.12700000000E+01 0. -1.
         25    2    1    2    0    0  0.00000000000E+00  0.00000000000E+00 -0.91886908439E+02  0.15513949085E+03  0.12500023071E+03 0.  0.
    9000005    1    3    3    0    0 -0.15948653491E+02 -0.51703426470E+02 -0.84750054350E+02  0.10055434137E+03  0.10000000000E+01 0.  0.
    9000005    1    3    3    0    0  0.15948653491E+02  0.51703426470E+02 -0.71368540892E+01  0.54585149475E+02  0.10000000000E+01 0.  0.
<mgrwt>
<rscale>  0 0.12500023E+03</rscale>
<asrwt>0</asrwt>
<pdfrwt beam="1">  1        4 0.48655833E-02 0.12500023E+03</pdfrwt>
<pdfrwt beam="2">  1       -4 0.19002031E-01 0.12500023E+03</pdfrwt>
<totfact> 0.98287612E+03</totfact>
</mgrwt>
</event>
<event>
 5    1  0.3246948E-002  0.1249998E+03  0.7818608E-02  0.1235070E+00
         -4   -1    0    0    0  501 -0.00000000000E+00  0.00000000000E+00  0.13152716529E+02  0.13213888606E+02  0.12700000000E+01 0. -1.
          4   -1    0    0  501    0  0.00000000000E+00 -0.00000000000E+00 -0.29623948308E+03  0.29624220535E+03  0.12700000000E+01 0. -1.
         25    2    1    2    0    0  0.00000000000E+00  0.00000000000E+00 -0.28308676655E+03  0.30945609396E+03  0.12499982678E+03 0.  0.
    9000005    1    3    3    0    0  0.42670929442E+02  0.42937814679E+02 -0.10312886898E+03  0.11958690466E+03  0.10000000000E+01 0.  0.
    9000005    1    3    3    0    0 -0.42670929442E+02 -0.42937814679E+02 -0.17995789757E+03  0.18986918930E+03  0.10000000000E+01 0.  0.
<mgrwt>
<rscale>  0 0.12499983E+03</rscale>
<asrwt>0</asrwt>
<pdfrwt beam="2">  1        4 0.45580215E-01 0.12499983E+03</pdfrwt>
<pdfrwt beam="1">  1       -4 0.20284100E-02 0.12499983E+03</pdfrwt>
<totfact> 0.74428077E+03</totfact>
</mgrwt>
</event>
<event>
 4    1  0.3246948E-002  0.1252697E+03  0.7818608E-02  0.1234648E+00
         -4   -1    0    0    0  501 -0.00000000000E+00  0.00000000000E+00  0.49703078939E+03  0.49703241192E+03  0.12700000000E+01 0.  1.
          4   -1    0    0  501    0  0.00000000000E+00 -0.00000000000E+00 -0.78403950738E+01  0.79425874193E+01  0.12700000000E+01 0.  1.
    9000005    1    1    2    0    0  0.51973420885E+02 -0.34695817295E+02  0.26126018132E+03  0.26863156658E+03  0.10000000000E+01 0.  0.
    9000005    1    1    2    0    0 -0.51973420885E+02  0.34695817295E+02  0.22793021299E+03  0.23634343276E+03  0.10000000000E+01 0.  0.
<mgrwt>
<rscale>  0 0.12526974E+03</rscale>
<asrwt>0</asrwt>
<pdfrwt beam="2">  1        4 0.12142002E-02 0.12526974E+03</pdfrwt>
<pdfrwt beam="1">  1       -4 0.76474272E-01 0.12526974E+03</pdfrwt>
<totfact> 0.55152693E+03</totfact>
</mgrwt>
</event>
<event>
 5    1  0.3246948E-002  0.1250000E+03  0.7818608E-02  0.1235069E+00
         -4   -1    0    0    0  501 -0.00000000000E+00  0.00000000000E+00  0.11261104160E+03  0.11261820275E+03  0.12700000000E+01 0.  1.
          4   -1    0    0  501    0  0.00000000000E+00 -0.00000000000E+00 -0.34668083565E+02  0.34691337795E+02  0.12700000000E+01 0.  1.
         25    2    1    2    0    0  0.00000000000E+00  0.00000000000E+00  0.77942958038E+02  0.14730954055E+03  0.12499998411E+03 0.  0.
    9000005    1    3    3    0    0  0.56852427395E+02 -0.11517390219E+02  0.66366944205E+02  0.88149986167E+02  0.10000000000E+01 0.  0.
    9000005    1    3    3    0    0 -0.56852427395E+02  0.11517390219E+02  0.11576013833E+02  0.59159554380E+02  0.10000000000E+01 0.  0.
<mgrwt>
<rscale>  0 0.12499998E+03</rscale>
<asrwt>0</asrwt>
<pdfrwt beam="2">  1        4 0.53358910E-02 0.12499998E+03</pdfrwt>
<pdfrwt beam="1">  1       -4 0.17327115E-01 0.12499998E+03</pdfrwt>
<totfact> 0.99842765E+03</totfact>
</mgrwt>
</event>
<event>
 5    1  0.3246948E-002  0.1250022E+03  0.7818608E-02  0.1235066E+00
         -4   -1    0    0    0  501 -0.00000000000E+00  0.00000000000E+00  0.68527746357E+03  0.68527864039E+03  0.12700000000E+01 0.  1.
          4   -1    0    0  501    0  0.00000000000E+00 -0.00000000000E+00 -0.56285188204E+01  0.57700194203E+01  0.12700000000E+01 0.  1.
         25    2    1    2    0    0  0.00000000000E+00  0.00000000000E+00  0.67964894475E+03  0.69104865981E+03  0.12500224849E+03 0.  0.
    9000005    1    3    3    0    0  0.40116477436E+02  0.32576134308E+02  0.53409130230E+03  0.53658648463E+03  0.10000000000E+01 0.  0.
    9000005    1    3    3    0    0 -0.40116477436E+02 -0.32576134308E+02  0.14555764245E+03  0.15446217518E+03  0.10000000000E+01 0.  0.
<mgrwt>
<rscale>  0 0.12500225E+03</rscale>
<asrwt>0</asrwt>
<pdfrwt beam="2">  1        4 0.87690096E-03 0.12500225E+03</pdfrwt>
<pdfrwt beam="1">  1       -4 0.10543830E+00 0.12500225E+03</pdfrwt>
<totfact> 0.43561297E+03</totfact>
</mgrwt>
</event>
<event>
 5    1  0.3246948E-002  0.1249994E+03  0.7818608E-02  0.1235070E+00
         -4   -1    0    0    0  501 -0.00000000000E+00  0.00000000000E+00  0.18241527858E+04  0.18241532279E+04  0.12700000000E+01 0. -1.
          4   -1    0    0  501    0  0.00000000000E+00 -0.00000000000E+00 -0.19526007884E+01  0.23292809703E+01  0.12700000000E+01 0. -1.
         25    2    1    2    0    0  0.00000000000E+00  0.00000000000E+00  0.18222001850E+04  0.18264825089E+04  0.12499936375E+03 0.  0.
    9000005    1    3    3    0    0 -0.26862948012E+02 -0.37043285409E+02  0.15329898015E+04  0.15336728968E+04  0.10000000000E+01 0.  0.
    9000005    1    3    3    0    0  0.26862948012E+02  0.37043285409E+02  0.28921038358E+03  0.29280961210E+03  0.10000000000E+01 0.  0.
<mgrwt>
<rscale>  0 0.12499936E+03</rscale>
<asrwt>0</asrwt>
<pdfrwt beam="2">  1        4 0.32940760E-03 0.12499936E+03</pdfrwt>
<pdfrwt beam="1">  1       -4 0.28066954E+00 0.12499936E+03</pdfrwt>
<totfact> 0.12299909E+03</totfact>
</mgrwt>
</event>
<event>
 5    1  0.3246948E-002  0.1250013E+03  0.7818608E-02  0.1235067E+00
          4   -1    0    0  501    0  0.00000000000E+00  0.00000000000E+00  0.17217384258E+03  0.17217852645E+03  0.12700000000E+01 0.  1.
         -4   -1    0    0    0  501 -0.00000000000E+00 -0.00000000000E+00 -0.22665517639E+02  0.22701070236E+02  0.12700000000E+01 0.  1.
         25    2    1    2    0    0  0.00000000000E+00  0.00000000000E+00  0.14950832494E+03  0.19487959668E+03  0.12500127190E+03 0.  0.
    9000005    1    3    3    0    0 -0.68965642300E+01  0.23500679915E+02  0.16438749251E+03  0.16620497058E+03  0.10000000000E+01 0.  0.
    9000005    1    3    3    0    0  0.68965642300E+01 -0.23500679915E+02 -0.14879167562E+02  0.28674626100E+02  0.10000000000E+01 0.  0.
<mgrwt>
<rscale>  0 0.12500127E+03</rscale>
<asrwt>0</asrwt>
<pdfrwt beam="1">  1        4 0.26491379E-01 0.12500127E+03</pdfrwt>
<pdfrwt beam="2">  1       -4 0.34900977E-02 0.12500127E+03</pdfrwt>
<totfact> 0.91002552E+03</totfact>
</mgrwt>
</event>
<event>
 5    1  0.3246948E-002  0.1250019E+03  0.7818608E-02  0.1235066E+00
         -4   -1    0    0    0  501 -0.00000000000E+00  0.00000000000E+00  0.95815222665E+02  0.95823639016E+02  0.12700000000E+01 0. -1.
          4   -1    0    0  501    0  0.00000000000E+00 -0.00000000000E+00 -0.40749705207E+02  0.40769490731E+02  0.12700000000E+01 0. -1.
         25    2    1    2    0    0  0.00000000000E+00  0.00000000000E+00  0.55065517458E+02  0.13659312975E+03  0.12500188751E+03 0.  0.
    9000005    1    3    3    0    0  0.58422399702E+02 -0.49927088250E+01  0.51153496918E+02  0.77818919135E+02  0.10000000000E+01 0.  0.
    9000005    1    3    3    0    0 -0.58422399702E+02  0.49927088250E+01  0.39120205403E+01  0.58774210612E+02  0.10000000000E+01 0.  0.
<mgrwt>
<rscale>  0 0.12500189E+03</rscale>
<asrwt>0</asrwt>
<pdfrwt beam="2">  1        4 0.62713548E-02 0.12500189E+03</pdfrwt>
<pdfrwt beam="1">  1       -4 0.14742973E-01 0.12500189E+03</pdfrwt>
<totfact> 0.10204166E+04</totfact>
</mgrwt>
</event>
<event>
 5    1  0.3246948E-002  0.1250000E+03  0.7818608E-02  0.1235069E+00
         -4   -1    0    0    0  501 -0.00000000000E+00  0.00000000000E+00  0.28154820730E+03  0.28155107162E+03  0.12700000000E+01 0. -1.
          4   -1    0    0  501    0  0.00000000000E+00 -0.00000000000E+00 -0.13842179128E+02  0.13900317371E+02  0.12700000000E+01 0. -1.
         25    2    1    2    0    0  0.00000000000E+00  0.00000000000E+00  0.26770602817E+03  0.29545138899E+03  0.12500002296E+03 0.  0.
    9000005    1    3    3    0    0 -0.47396889337E+02 -0.40335325302E+02  0.14719179061E+03  0.15981184815E+03  0.10000000000E+01 0.  0.
    9000005    1    3    3    0    0  0.47396889337E+02  0.40335325302E+02  0.12051423756E+03  0.13563954084E+03  0.10000000000E+01 0.  0.
<mgrwt>
<rscale>  0 0.12500002E+03</rscale>
<asrwt>0</asrwt>
<pdfrwt beam="2">  1        4 0.21342585E-02 0.12500002E+03</pdfrwt>
<pdfrwt beam="1">  1       -4 0.43319802E-01 0.12500002E+03</pdfrwt>
<totfact> 0.76172933E+03</totfact>
</mgrwt>
</event>
<event>
 5    1  0.3246948E-002  0.1249990E+03  0.7818608E-02  0.1235071E+00
         -4   -1    0    0    0  501 -0.00000000000E+00  0.00000000000E+00  0.74709626521E+02  0.74720420200E+02  0.12700000000E+01 0.  1.
          4   -1    0    0  501    0  0.00000000000E+00 -0.00000000000E+00 -0.52262611640E+02  0.52278040088E+02  0.12700000000E+01 0.  1.
         25    2    1    2    0    0  0.00000000000E+00  0.00000000000E+00  0.22447014881E+02  0.12699846029E+03  0.12499896175E+03 0.  0.
    9000005    1    3    3    0    0  0.61309867847E+02  0.76704698015E+01  0.17224982086E+01  0.61819923993E+02  0.10000000000E+01 0.  0.
    9000005    1    3    3    0    0 -0.61309867847E+02 -0.76704698015E+01  0.20724516672E+02  0.65178536296E+02  0.10000000000E+01 0.  0.
<mgrwt>
<rscale>  0 0.12499896E+03</rscale>
<asrwt>0</asrwt>
<pdfrwt beam="2">  1        4 0.80424190E-02 0.12499896E+03</pdfrwt>
<pdfrwt beam="1">  1       -4 0.11495806E-01 0.12499896E+03</pdfrwt>
<totfact> 0.10409423E+04</totfact>
</mgrwt>
</event>
<event>
 5    1  0.3246948E-002  0.1249809E+03  0.7818608E-02  0.1235099E+00
         -4   -1    0    0    0  501 -0.00000000000E+00  0.00000000000E+00  0.15352286181E+02  0.15404726254E+02  0.12700000000E+01 0. -1.
          4   -1    0    0  501    0  0.00000000000E+00 -0.00000000000E+00 -0.25387549746E+03  0.25387867400E+03  0.12700000000E+01 0. -1.
         25    2    1    2    0    0  0.00000000000E+00  0.00000000000E+00 -0.23852321128E+03  0.26928340025E+03  0.12498090787E+03 0.  0.
    9000005    1    3    3    0    0  0.20280566984E+02  0.22394345714E+02 -0.14217586233E+01  0.30262675274E+02  0.10000000000E+01 0.  0.
    9000005    1    3    3    0    0 -0.20280566984E+02 -0.22394345714E+02 -0.23710145266E+03  0.23902072498E+03  0.10000000000E+01 0.  0.
<mgrwt>
<rscale>  0 0.12498091E+03</rscale>
<asrwt>0</asrwt>
<pdfrwt beam="2">  1        4 0.39062044E-01 0.12498091E+03</pdfrwt>
<pdfrwt beam="1">  1       -4 0.23661686E-02 0.12498091E+03</pdfrwt>
<totfact> 0.79654491E+03</totfact>
</mgrwt>
</event>
<event>
 5    1  0.3246948E-002  0.1249954E+03  0.7818608E-02  0.1235076E+00
          4   -1    0    0  501    0  0.00000000000E+00  0.00000000000E+00  0.13846153142E+04  0.13846158967E+04  0.12700000000E+01 0.  1.
         -4   -1    0    0    0  501 -0.00000000000E+00 -0.00000000000E+00 -0.26774233900E+01  0.29633589066E+01  0.12700000000E+01 0.  1.
         25    2    1    2    0    0  0.00000000000E+00  0.00000000000E+00  0.13819378908E+04  0.13875792556E+04  0.12499542534E+03 0.  0.
    9000005    1    3    3    0    0 -0.22954188583E+02 -0.53226088440E+02  0.95013790014E+03  0.95190490100E+03  0.10000000000E+01 0.  0.
    9000005    1    3    3    0    0  0.22954188583E+02  0.53226088440E+02  0.43179999069E+03  0.43567435456E+03  0.10000000000E+01 0.  0.
<mgrwt>
<rscale>  0 0.12499543E+03</rscale>
<asrwt>0</asrwt>
<pdfrwt beam="1">  1        4 0.21304014E+00 0.12499543E+03</pdfrwt>
<pdfrwt beam="2">  1       -4 0.43395041E-03 0.12499543E+03</pdfrwt>
<totfact> 0.20251017E+03</totfact>
</mgrwt>
</event>
<event>
 4    1  0.3246948E-002  0.1247774E+03  0.7818608E-02  0.1235418E+00
          4   -1    0    0  501    0  0.00000000000E+00  0.00000000000E+00  0.86743069022E+02  0.86752365520E+02  0.12700000000E+01 0. -1.
         -4   -1    0    0    0  501 -0.00000000000E+00 -0.00000000000E+00 -0.44851459657E+02  0.44869436517E+02  0.12700000000E+01 0. -1.
    9000005    1    1    2    0    0 -0.12887708977E+02  0.60156264951E+02  0.10060931204E+02  0.62346544349E+02  0.10000000000E+01 0.  0.
    9000005    1    1    2    0    0  0.12887708977E+02 -0.60156264951E+02  0.31830678162E+02  0.69275257688E+02  0.10000000000E+01 0.  0.
<mgrwt>
<rscale>  0 0.12477737E+03</rscale>
<asrwt>0</asrwt>
<pdfrwt beam="1">  1        4 0.13347185E-01 0.12477737E+03</pdfrwt>
<pdfrwt beam="2">  1       -4 0.69023226E-02 0.12477737E+03</pdfrwt>
<totfact> 0.10361729E+04</totfact>
</mgrwt>
</event>
<event>
 5    1  0.3246948E-002  0.1249981E+03  0.7818608E-02  0.1235072E+00
         -4   -1    0    0    0  501 -0.00000000000E+00  0.00000000000E+00  0.15927694839E+03  0.15928201151E+03  0.12700000000E+01 0. -1.
          4   -1    0    0  501    0  0.00000000000E+00 -0.00000000000E+00 -0.24502260061E+02  0.24535151275E+02  0.12700000000E+01 0. -1.
         25    2    1    2    0    0  0.00000000000E+00  0.00000000000E+00  0.13477468833E+03  0.18381716278E+03  0.12499813086E+03 0.  0.
    9000005    1    3    3    0    0 -0.15245305951E+02  0.39106871571E+02 -0.69441217726E+00  0.41991058166E+02  0.10000000000E+01 0.  0.
    9000005    1    3    3    0    0  0.15245305951E+02 -0.39106871571E+02  0.13546910051E+03  0.14182610461E+03  0.10000000000E+01 0.  0.
<mgrwt>
<rscale>  0 0.12499813E+03</rscale>
<asrwt>0</asrwt>
<pdfrwt beam="2">  1        4 0.37724980E-02 0.12499813E+03</pdfrwt>
<pdfrwt beam="1">  1       -4 0.24507066E-01 0.12499813E+03</pdfrwt>
<totfact> 0.92938272E+03</totfact>
</mgrwt>
</event>
<event>
 5    1  0.3246948E-002  0.1250023E+03  0.7818608E-02  0.1235066E+00
          4   -1    0    0  501    0  0.00000000000E+00  0.00000000000E+00  0.84954078183E+02  0.84963570428E+02  0.12700000000E+01 0.  1.
         -4   -1    0    0    0  501 -0.00000000000E+00 -0.00000000000E+00 -0.45961581001E+02  0.45979123830E+02  0.12700000000E+01 0.  1.
         25    2    1    2    0    0  0.00000000000E+00  0.00000000000E+00  0.38992497181E+02  0.13094269426E+03  0.12500229735E+03 0.  0.
    9000005    1    3    3    0    0  0.40123862904E+02  0.15428346487E+02 -0.28018274566E+02  0.51322333923E+02  0.10000000000E+01 0.  0.
    9000005    1    3    3    0    0 -0.40123862904E+02 -0.15428346487E+02  0.67010771747E+02  0.79620360334E+02  0.10000000000E+01 0.  0.
<mgrwt>
<rscale>  0 0.12500230E+03</rscale>
<asrwt>0</asrwt>
<pdfrwt beam="1">  1        4 0.13071938E-01 0.12500230E+03</pdfrwt>
<pdfrwt beam="2">  1       -4 0.70730921E-02 0.12500230E+03</pdfrwt>
<totfact> 0.10323783E+04</totfact>
</mgrwt>
</event>
<event>
 5    1  0.3246948E-002  0.1249906E+03  0.7818608E-02  0.1235084E+00
          4   -1    0    0  501    0  0.00000000000E+00  0.00000000000E+00  0.58509995664E+02  0.58523777155E+02  0.12700000000E+01 0.  1.
         -4   -1    0    0    0  501 -0.00000000000E+00 -0.00000000000E+00 -0.66724375737E+02  0.66736460930E+02  0.12700000000E+01 0.  1.
         25    2    1    2    0    0  0.00000000000E+00  0.00000000000E+00 -0.82143800736E+01  0.12526023809E+03  0.12499060447E+03 0.  0.
    9000005    1    3    3    0    0  0.39662545729E+02  0.24171620193E+02  0.37783438284E+02  0.59882993955E+02  0.10000000000E+01 0.  0.
    9000005    1    3    3    0    0 -0.39662545729E+02 -0.24171620193E+02 -0.45997818358E+02  0.65377244131E+02  0.10000000000E+01 0.  0.
<mgrwt>
<rscale>  0 0.12499060E+03</rscale>
<asrwt>0</asrwt>
<pdfrwt beam="1">  1        4 0.90035275E-02 0.12499060E+03</pdfrwt>
<pdfrwt beam="2">  1       -4 0.10267278E-01 0.12499060E+03</pdfrwt>
<totfact> 0.10449431E+04</totfact>
</mgrwt>
</event>
<event>
 5    1  0.3246948E-002  0.1250008E+03  0.7818608E-02  0.1235068E+00
          4   -1    0    0  501    0  0.00000000000E+00  0.00000000000E+00  0.75606950011E+02  0.75617615606E+02  0.12700000000E+01 0. -1.
         -4   -1    0    0    0  501 -0.00000000000E+00 -0.00000000000E+00 -0.51643768630E+02  0.51659381900E+02  0.12700000000E+01 0. -1.
         25    2    1    2    0    0  0.00000000000E+00  0.00000000000E+00  0.23963181381E+02  0.12727699751E+03  0.12500080013E+03 0.  0.
    9000005    1    3    3    0    0  0.28727360209E+02 -0.14789403769E+02 -0.42483691877E+02  0.53384002885E+02  0.10000000000E+01 0.  0.
    9000005    1    3    3    0    0 -0.28727360209E+02  0.14789403769E+02  0.66446873258E+02  0.73892994622E+02  0.10000000000E+01 0.  0.
<mgrwt>
<rscale>  0 0.12500080E+03</rscale>
<asrwt>0</asrwt>
<pdfrwt beam="1">  1        4 0.11633860E-01 0.12500080E+03</pdfrwt>
<pdfrwt beam="2">  1       -4 0.79472167E-02 0.12500080E+03</pdfrwt>
<totfact> 0.10402945E+04</totfact>
</mgrwt>
</event>
<event>
 5    1  0.3246948E-002  0.1250173E+03  0.7818608E-02  0.1235042E+00
         -4   -1    0    0    0  501 -0.00000000000E+00  0.00000000000E+00  0.12264266851E+02  0.12329847582E+02  0.12700000000E+01 0. -1.
          4   -1    0    0  501    0  0.00000000000E+00 -0.00000000000E+00 -0.31767817993E+03  0.31768071850E+03  0.12700000000E+01 0. -1.
         25    2    1    2    0    0  0.00000000000E+00  0.00000000000E+00 -0.30541391308E+03  0.33001056608E+03  0.12501726049E+03 0.  0.
    9000005    1    3    3    0    0  0.12807375309E+02 -0.45221979548E+02 -0.43955855671E+02  0.64359719890E+02  0.10000000000E+01 0.  0.
    9000005    1    3    3    0    0 -0.12807375309E+02  0.45221979548E+02 -0.26145805741E+03  0.26565084619E+03  0.10000000000E+01 0.  0.
<mgrwt>
<rscale>  0 0.12501726E+03</rscale>
<asrwt>0</asrwt>
<pdfrwt beam="2">  1        4 0.48878800E-01 0.12501726E+03</pdfrwt>
<pdfrwt beam="1">  1       -4 0.18920505E-02 0.12501726E+03</pdfrwt>
<totfact> 0.71953594E+03</totfact>
</mgrwt>
</event>
<event>
 4    1  0.3246948E-002  0.1250615E+03  0.7818608E-02  0.1234973E+00
          4   -1    0    0  501    0  0.00000000000E+00  0.00000000000E+00  0.34306256307E+02  0.34329755633E+02  0.12700000000E+01 0.  1.
         -4   -1    0    0    0  501 -0.00000000000E+00 -0.00000000000E+00 -0.11391002448E+03  0.11391710397E+03  0.12700000000E+01 0.  1.
    9000005    1    1    2    0    0 -0.60737735431E+02 -0.12745795421E+02 -0.48795647544E+02  0.78952789853E+02  0.10000000000E+01 0.  0.
    9000005    1    1    2    0    0  0.60737735431E+02  0.12745795421E+02 -0.30808120632E+02  0.69294069754E+02  0.10000000000E+01 0.  0.
<mgrwt>
<rscale>  0 0.12506147E+03</rscale>
<asrwt>0</asrwt>
<pdfrwt beam="1">  1        4 0.52802379E-02 0.12506147E+03</pdfrwt>
<pdfrwt beam="2">  1       -4 0.17526971E-01 0.12506147E+03</pdfrwt>
<totfact> 0.99516548E+03</totfact>
</mgrwt>
</event>
<event>
 5    1  0.3246948E-002  0.1250010E+03  0.7818608E-02  0.1235068E+00
         -4   -1    0    0    0  501 -0.00000000000E+00  0.00000000000E+00  0.40504288089E+03  0.40504487191E+03  0.12700000000E+01 0.  1.
          4   -1    0    0  501    0  0.00000000000E+00 -0.00000000000E+00 -0.96003614828E+01  0.96839992049E+01  0.12700000000E+01 0.  1.
         25    2    1    2    0    0  0.00000000000E+00  0.00000000000E+00  0.39544251941E+03  0.41472887111E+03  0.12500100152E+03 0.  0.
    9000005    1    3    3    0    0  0.54137049284E+02  0.28565533985E+02  0.23949171304E+03  0.24719241585E+03  0.10000000000E+01 0.  0.
    9000005    1    3    3    0    0 -0.54137049284E+02 -0.28565533985E+02  0.15595080636E+03  0.16753645526E+03  0.10000000000E+01 0.  0.
<mgrwt>
<rscale>  0 0.12500100E+03</rscale>
<asrwt>0</asrwt>
<pdfrwt beam="2">  1        4 0.14835654E-02 0.12500100E+03</pdfrwt>
<pdfrwt beam="1">  1       -4 0.62320881E-01 0.12500100E+03</pdfrwt>
<totfact> 0.63143650E+03</totfact>
</mgrwt>
</event>
<event>
 5    1  0.3246948E-002  0.1250443E+03  0.7818608E-02  0.1235000E+00
         -4   -1    0    0    0  501 -0.00000000000E+00  0.00000000000E+00  0.39691924614E+02  0.39712237151E+02  0.12700000000E+01 0. -1.
          4   -1    0    0  501    0  0.00000000000E+00 -0.00000000000E+00 -0.98434400012E+02  0.98442592437E+02  0.12700000000E+01 0. -1.
         25    2    1    2    0    0  0.00000000000E+00  0.00000000000E+00 -0.58742475398E+02  0.13815482959E+03  0.12504430624E+03 0.  0.
    9000005    1    3    3    0    0  0.11288470372E+01  0.49607851705E+02 -0.71381676636E+02  0.86939962076E+02  0.10000000000E+01 0.  0.
    9000005    1    3    3    0    0 -0.11288470372E+01 -0.49607851705E+02  0.12639201237E+02  0.51214867513E+02  0.10000000000E+01 0.  0.
<mgrwt>
<rscale>  0 0.12504431E+03</rscale>
<asrwt>0</asrwt>
<pdfrwt beam="2">  1        4 0.15145947E-01 0.12504431E+03</pdfrwt>
<pdfrwt beam="1">  1       -4 0.61086426E-02 0.12504431E+03</pdfrwt>
<totfact> 0.10161823E+04</totfact>
</mgrwt>
</event>
<event>
 5    1  0.3246948E-002  0.1250044E+03  0.7818608E-02  0.1235062E+00
         -4   -1    0    0    0  501 -0.00000000000E+00  0.00000000000E+00  0.28096072366E+02  0.28124761019E+02  0.12700000000E+01 0. -1.
          4   -1    0    0  501    0  0.00000000000E+00 -0.00000000000E+00 -0.13893921183E+03  0.13894501605E+03  0.12700000000E+01 0. -1.
         25    2    1    2    0    0  0.00000000000E+00  0.00000000000E+00 -0.11084313946E+03  0.16706977707E+03  0.12500443529E+03 0.  0.
    9000005    1    3    3    0    0  0.20125910115E+02  0.22700870198E+02  0.17600681627E+02  0.35087971720E+02  0.10000000000E+01 0.  0.
    9000005    1    3    3    0    0 -0.20125910115E+02 -0.22700870198E+02 -0.12844382109E+03  0.13198180535E+03  0.10000000000E+01 0.  0.
<mgrwt>
<rscale>  0 0.12500444E+03</rscale>
<asrwt>0</asrwt>
<pdfrwt beam="2">  1        4 0.21377916E-01 0.12500444E+03</pdfrwt>
<pdfrwt beam="1">  1       -4 0.43251261E-02 0.12500444E+03</pdfrwt>
<totfact> 0.95987277E+03</totfact>
</mgrwt>
</event>
<event>
 5    1  0.3246948E-002  0.1250013E+03  0.7818608E-02  0.1235067E+00
         -4   -1    0    0    0  501 -0.00000000000E+00  0.00000000000E+00  0.72445724302E+01  0.73550479058E+01  0.12700000000E+01 0.  1.
          4   -1    0    0  501    0  0.00000000000E+00 -0.00000000000E+00 -0.53501678076E+03  0.53501828809E+03  0.12700000000E+01 0.  1.
         25    2    1    2    0    0  0.00000000000E+00  0.00000000000E+00 -0.52777220833E+03  0.54237333600E+03  0.12500132687E+03 0.  0.
    9000005    1    3    3    0    0  0.49292469662E+02  0.16167071650E+02 -0.41507880236E+03  0.41830913681E+03  0.10000000000E+01 0.  0.
    9000005    1    3    3    0    0 -0.49292469662E+02 -0.16167071650E+02 -0.11269340597E+03  0.12406419919E+03  0.10000000000E+01 0.  0.
<mgrwt>
<rscale>  0 0.12500133E+03</rscale>
<asrwt>0</asrwt>
<pdfrwt beam="2">  1        4 0.82318857E-01 0.12500133E+03</pdfrwt>
<pdfrwt beam="1">  1       -4 0.11231641E-02 0.12500133E+03</pdfrwt>
<totfact> 0.52718825E+03</totfact>
</mgrwt>
</event>
<event>
 5    1  0.3246948E-002  0.1249999E+03  0.7818608E-02  0.1235070E+00
         -4   -1    0    0    0  501 -0.00000000000E+00  0.00000000000E+00  0.10850874040E+02  0.10924942445E+02  0.12700000000E+01 0. -1.
          4   -1    0    0  501    0  0.00000000000E+00 -0.00000000000E+00 -0.35869354996E+03  0.35869579825E+03  0.12700000000E+01 0. -1.
         25    2    1    2    0    0  0.00000000000E+00  0.00000000000E+00 -0.34784267592E+03  0.36962074069E+03  0.12499985905E+03 0.  0.
    9000005    1    3    3    0    0  0.50228997710E+02 -0.28951369494E+02 -0.24289591399E+03  0.24972096235E+03  0.10000000000E+01 0.  0.
    9000005    1    3    3    0    0 -0.50228997710E+02  0.28951369494E+02 -0.10494676193E+03  0.11989977834E+03  0.10000000000E+01 0.  0.
<mgrwt>
<rscale>  0 0.12499986E+03</rscale>
<asrwt>0</asrwt>
<pdfrwt beam="2">  1        4 0.55189484E-01 0.12499986E+03</pdfrwt>
<pdfrwt beam="1">  1       -4 0.16752360E-02 0.12499986E+03</pdfrwt>
<totfact> 0.67618848E+03</totfact>
</mgrwt>
</event>
<event>
 5    1  0.3246948E-002  0.1250016E+03  0.7818608E-02  0.1235067E+00
          4   -1    0    0  501    0  0.00000000000E+00  0.00000000000E+00  0.11938727974E+03  0.11939403446E+03  0.12700000000E+01 0. -1.
         -4   -1    0    0    0  501 -0.00000000000E+00 -0.00000000000E+00 -0.32699976013E+02  0.32724628818E+02  0.12700000000E+01 0. -1.
         25    2    1    2    0    0  0.00000000000E+00  0.00000000000E+00  0.86687303727E+02  0.15211866327E+03  0.12500159635E+03 0.  0.
    9000005    1    3    3    0    0  0.36659531622E+02 -0.49023199307E+02  0.28039557320E+02  0.67338043510E+02  0.10000000000E+01 0.  0.
    9000005    1    3    3    0    0 -0.36659531622E+02  0.49023199307E+02  0.58647746407E+02  0.84780619765E+02  0.10000000000E+01 0.  0.
<mgrwt>
<rscale>  0 0.12500160E+03</rscale>
<asrwt>0</asrwt>
<pdfrwt beam="1">  1        4 0.18369690E-01 0.12500160E+03</pdfrwt>
<pdfrwt beam="2">  1       -4 0.50331815E-02 0.12500160E+03</pdfrwt>
<totfact> 0.98879487E+03</totfact>
</mgrwt>
</event>
<event>
 5    1  0.3246948E-002  0.1249931E+03  0.7818608E-02  0.1235080E+00
          4   -1    0    0  501    0  0.00000000000E+00  0.00000000000E+00  0.15565645064E+03  0.15566163152E+03  0.12700000000E+01 0.  1.
         -4   -1    0    0    0  501 -0.00000000000E+00 -0.00000000000E+00 -0.25070870687E+02  0.25103016891E+02  0.12700000000E+01 0.  1.
         25    2    1    2    0    0  0.00000000000E+00  0.00000000000E+00  0.13058557996E+03  0.18076464841E+03  0.12499305750E+03 0.  0.
    9000005    1    3    3    0    0  0.37474223327E+02 -0.48099223702E+02  0.85067306499E+02  0.10466756599E+03  0.10000000000E+01 0.  0.
    9000005    1    3    3    0    0 -0.37474223327E+02  0.48099223702E+02  0.45518273457E+02  0.76097082422E+02  0.10000000000E+01 0.  0.
<mgrwt>
<rscale>  0 0.12499306E+03</rscale>
<asrwt>0</asrwt>
<pdfrwt beam="1">  1        4 0.23950017E-01 0.12499306E+03</pdfrwt>
<pdfrwt beam="2">  1       -4 0.38599284E-02 0.12499306E+03</pdfrwt>
<totfact> 0.93494097E+03</totfact>
</mgrwt>
</event>
<event>
 5    1  0.3246948E-002  0.1250015E+03  0.7818608E-02  0.1235067E+00
         -4   -1    0    0    0  501 -0.00000000000E+00  0.00000000000E+00  0.24669812696E+03  0.24670139592E+03  0.12700000000E+01 0. -1.
          4   -1    0    0  501    0  0.00000000000E+00 -0.00000000000E+00 -0.15805663680E+02  0.15856604440E+02  0.12700000000E+01 0. -1.
         25    2    1    2    0    0  0.00000000000E+00  0.00000000000E+00  0.23089246328E+03  0.26255800036E+03  0.12500149579E+03 0.  0.
    9000005    1    3    3    0    0  0.43907002258E+02  0.34543445617E+02  0.17426860889E+03  0.18300716523E+03  0.10000000000E+01 0.  0.
    9000005    1    3    3    0    0 -0.43907002258E+02 -0.34543445617E+02  0.56623854392E+02  0.79550835122E+02  0.10000000000E+01 0.  0.
<mgrwt>
<rscale>  0 0.12500150E+03</rscale>
<asrwt>0</asrwt>
<pdfrwt beam="2">  1        4 0.24358109E-02 0.12500150E+03</pdfrwt>
<pdfrwt beam="1">  1       -4 0.37957722E-01 0.12500150E+03</pdfrwt>
<totfact> 0.80545739E+03</totfact>
</mgrwt>
</event>
<event>
 5    1  0.3246948E-002  0.1249990E+03  0.7818608E-02  0.1235071E+00
         -4   -1    0    0    0  501 -0.00000000000E+00  0.00000000000E+00  0.11009467110E+03  0.11010199591E+03  0.12700000000E+01 0.  1.
          4   -1    0    0  501    0  0.00000000000E+00 -0.00000000000E+00 -0.35460360111E+02  0.35483095119E+02  0.12700000000E+01 0.  1.
         25    2    1    2    0    0  0.00000000000E+00  0.00000000000E+00  0.74634310987E+02  0.14558509103E+03  0.12499895341E+03 0.  0.
    9000005    1    3    3    0    0  0.50957315515E+01 -0.39030209593E+02  0.93847983017E+02  0.10177311854E+03  0.10000000000E+01 0.  0.
    9000005    1    3    3    0    0 -0.50957315515E+01  0.39030209593E+02 -0.19213672030E+02  0.43811972494E+02  0.10000000000E+01 0.  0.
<mgrwt>
<rscale>  0 0.12499895E+03</rscale>
<asrwt>0</asrwt>
<pdfrwt beam="2">  1        4 0.54577524E-02 0.12499895E+03</pdfrwt>
<pdfrwt beam="1">  1       -4 0.16939954E-01 0.12499895E+03</pdfrwt>
<totfact> 0.10019350E+04</totfact>
</mgrwt>
</event>
<event>
 5    1  0.3246948E-002  0.1249964E+03  0.7818608E-02  0.1235075E+00
          4   -1    0    0  501    0  0.00000000000E+00  0.00000000000E+00  0.72461221142E+01  0.73565743178E+01  0.12700000000E+01 0. -1.
         -4   -1    0    0    0  501 -0.00000000000E+00 -0.00000000000E+00 -0.53486154300E+03  0.53486305077E+03  0.12700000000E+01 0. -1.
         25    2    1    2    0    0  0.00000000000E+00  0.00000000000E+00 -0.52761542089E+03  0.54221962509E+03  0.12499635785E+03 0.  0.
    9000005    1    3    3    0    0 -0.29856265180E+02  0.49183759430E+02 -0.36958302833E+03  0.37403616616E+03  0.10000000000E+01 0.  0.
    9000005    1    3    3    0    0  0.29856265180E+02 -0.49183759430E+02 -0.15803239255E+03  0.16818345893E+03  0.10000000000E+01 0.  0.
<mgrwt>
<rscale>  0 0.12499636E+03</rscale>
<asrwt>0</asrwt>
<pdfrwt beam="1">  1        4 0.11234007E-02 0.12499636E+03</pdfrwt>
<pdfrwt beam="2">  1       -4 0.82294973E-01 0.12499636E+03</pdfrwt>
<totfact> 0.52735486E+03</totfact>
</mgrwt>
</event>
<event>
 5    1  0.3246948E-002  0.1250013E+03  0.7818608E-02  0.1235067E+00
         -4   -1    0    0    0  501 -0.00000000000E+00  0.00000000000E+00  0.17910302705E+02  0.17955273404E+02  0.12700000000E+01 0.  1.
          4   -1    0    0  501    0  0.00000000000E+00 -0.00000000000E+00 -0.21778484192E+03  0.21778854486E+03  0.12700000000E+01 0.  1.
         25    2    1    2    0    0  0.00000000000E+00  0.00000000000E+00 -0.19987453922E+03  0.23574381826E+03  0.12500126568E+03 0.  0.
    9000005    1    3    3    0    0  0.17259884154E+02  0.59606502257E+02 -0.86015774688E+02  0.10606862028E+03  0.10000000000E+01 0.  0.
    9000005    1    3    3    0    0 -0.17259884154E+02 -0.59606502257E+02 -0.11385876453E+03  0.12967519799E+03  0.10000000000E+01 0.  0.
<mgrwt>
<rscale>  0 0.12500127E+03</rscale>
<asrwt>0</asrwt>
<pdfrwt beam="2">  1        4 0.33509103E-01 0.12500127E+03</pdfrwt>
<pdfrwt beam="1">  1       -4 0.27591755E-02 0.12500127E+03</pdfrwt>
<totfact> 0.84432979E+03</totfact>
</mgrwt>
</event>
<event>
 5    1  0.3246948E-002  0.1249991E+03  0.7818608E-02  0.1235071E+00
          4   -1    0    0  501    0  0.00000000000E+00  0.00000000000E+00  0.14698006445E+02  0.14752772399E+02  0.12700000000E+01 0. -1.
         -4   -1    0    0    0  501 -0.00000000000E+00 -0.00000000000E+00 -0.26521292499E+03  0.26521596573E+03  0.12700000000E+01 0. -1.
         25    2    1    2    0    0  0.00000000000E+00  0.00000000000E+00 -0.25051491854E+03  0.27996873813E+03  0.12499907968E+03 0.  0.
    9000005    1    3    3    0    0 -0.33181386642E+02 -0.27766118045E+02 -0.24263346350E+02  0.49615236640E+02  0.10000000000E+01 0.  0.
    9000005    1    3    3    0    0  0.33181386642E+02  0.27766118045E+02 -0.22625157219E+03  0.23035350149E+03  0.10000000000E+01 0.  0.
<mgrwt>
<rscale>  0 0.12499908E+03</rscale>
<asrwt>0</asrwt>
<pdfrwt beam="1">  1        4 0.22656786E-02 0.12499908E+03</pdfrwt>
<pdfrwt beam="2">  1       -4 0.40806432E-01 0.12499908E+03</pdfrwt>
<totfact> 0.78183852E+03</totfact>
</mgrwt>
</event>
<event>
 5    1  0.3246948E-002  0.1250010E+03  0.7818608E-02  0.1235068E+00
          4   -1    0    0  501    0  0.00000000000E+00  0.00000000000E+00  0.22295946194E+02  0.22332087155E+02  0.12700000000E+01 0.  1.
         -4   -1    0    0    0  501 -0.00000000000E+00 -0.00000000000E+00 -0.17502262092E+03  0.17502722855E+03  0.12700000000E+01 0.  1.
         25    2    1    2    0    0  0.00000000000E+00  0.00000000000E+00 -0.15272667473E+03  0.19735931571E+03  0.12500104929E+03 0.  0.
    9000005    1    3    3    0    0 -0.21807980342E+02 -0.34287414044E+02 -0.14031540669E+01  0.40671656098E+02  0.10000000000E+01 0.  0.
    9000005    1    3    3    0    0  0.21807980342E+02  0.34287414044E+02 -0.15132352066E+03  0.15668765961E+03  0.10000000000E+01 0.  0.
<mgrwt>
<rscale>  0 0.12500105E+03</rscale>
<asrwt>0</asrwt>
<pdfrwt beam="1">  1        4 0.34332802E-02 0.12500105E+03</pdfrwt>
<pdfrwt beam="2">  1       -4 0.26929691E-01 0.12500105E+03</pdfrwt>
<totfact> 0.90580223E+03</totfact>
</mgrwt>
</event>
<event>
 5    1  0.3246948E-002  0.1250023E+03  0.7818608E-02  0.1235066E+00
          4   -1    0    0  501    0  0.00000000000E+00  0.00000000000E+00  0.29222212090E+03  0.29222488060E+03  0.12700000000E+01 0.  1.
         -4   -1    0    0    0  501 -0.00000000000E+00 -0.00000000000E+00 -0.13334905882E+02  0.13395245980E+02  0.12700000000E+01 0.  1.
         25    2    1    2    0    0  0.00000000000E+00  0.00000000000E+00  0.27888721502E+03  0.30562012658E+03  0.12500233227E+03 0.  0.
    9000005    1    3    3    0    0  0.35040120434E+02  0.21011206145E+02  0.23829482354E+02  0.47308826374E+02  0.10000000000E+01 0.  0.
    9000005    1    3    3    0    0 -0.35040120434E+02 -0.21011206145E+02  0.25505773266E+03  0.25831130021E+03  0.10000000000E+01 0.  0.
<mgrwt>
<rscale>  0 0.12500233E+03</rscale>
<asrwt>0</asrwt>
<pdfrwt beam="1">  1        4 0.44962098E-01 0.12500233E+03</pdfrwt>
<pdfrwt beam="2">  1       -4 0.20563781E-02 0.12500233E+03</pdfrwt>
<totfact> 0.74895351E+03</totfact>
</mgrwt>
</event>
<event>
 5    1  0.3246948E-002  0.1249989E+03  0.7818608E-02  0.1235071E+00
          4   -1    0    0  501    0  0.00000000000E+00  0.00000000000E+00  0.68542398589E+02  0.68554163290E+02  0.12700000000E+01 0. -1.
         -4   -1    0    0    0  501 -0.00000000000E+00 -0.00000000000E+00 -0.56965529541E+02  0.56979684589E+02  0.12700000000E+01 0. -1.
         25    2    1    2    0    0  0.00000000000E+00  0.00000000000E+00  0.11576869048E+02  0.12553384788E+03  0.12499889226E+03 0.  0.
    9000005    1    3    3    0    0 -0.20745180480E+02 -0.41839459534E+02  0.47490570988E+02  0.66612740673E+02  0.10000000000E+01 0.  0.
    9000005    1    3    3    0    0  0.20745180480E+02  0.41839459534E+02 -0.35913701940E+02  0.58921107205E+02  0.10000000000E+01 0.  0.
<mgrwt>
<rscale>  0 0.12499889E+03</rscale>
<asrwt>0</asrwt>
<pdfrwt beam="1">  1        4 0.10546978E-01 0.12499889E+03</pdfrwt>
<pdfrwt beam="2">  1       -4 0.87659215E-02 0.12499889E+03</pdfrwt>
<totfact> 0.10441467E+04</totfact>
</mgrwt>
</event>
<event>
 5    1  0.3246948E-002  0.1249913E+03  0.7818608E-02  0.1235083E+00
          4   -1    0    0  501    0  0.00000000000E+00  0.00000000000E+00  0.14878873416E+03  0.14879415416E+03  0.12700000000E+01 0.  1.
         -4   -1    0    0    0  501 -0.00000000000E+00 -0.00000000000E+00 -0.26228744359E+02  0.26259473160E+02  0.12700000000E+01 0.  1.
         25    2    1    2    0    0  0.00000000000E+00  0.00000000000E+00  0.12255998980E+03  0.17505362732E+03  0.12499128505E+03 0.  0.
    9000005    1    3    3    0    0  0.60789601141E+02 -0.88789101079E+00  0.81504946925E+02  0.10168687393E+03  0.10000000000E+01 0.  0.
    9000005    1    3    3    0    0 -0.60789601141E+02  0.88789101079E+00  0.41055042878E+02  0.73366753390E+02  0.10000000000E+01 0.  0.
<mgrwt>
<rscale>  0 0.12499129E+03</rscale>
<asrwt>0</asrwt>
<pdfrwt beam="1">  1        4 0.22893355E-01 0.12499129E+03</pdfrwt>
<pdfrwt beam="2">  1       -4 0.40379721E-02 0.12499129E+03</pdfrwt>
<totfact> 0.94533500E+03</totfact>
</mgrwt>
</event>
<event>
 5    1  0.3246948E-002  0.1250006E+03  0.7818608E-02  0.1235068E+00
          4   -1    0    0  501    0  0.00000000000E+00  0.00000000000E+00  0.45577049370E+02  0.45594740149E+02  0.12700000000E+01 0.  1.
         -4   -1    0    0    0  501 -0.00000000000E+00 -0.00000000000E+00 -0.85668265161E+02  0.85677678281E+02  0.12700000000E+01 0.  1.
         25    2    1    2    0    0  0.00000000000E+00  0.00000000000E+00 -0.40091215791E+02  0.13127241843E+03  0.12500056903E+03 0.  0.
    9000005    1    3    3    0    0  0.39013804752E+00  0.33251450415E+02  0.35519190976E+02  0.48666457545E+02  0.10000000000E+01 0.  0.
    9000005    1    3    3    0    0 -0.39013804752E+00 -0.33251450415E+02 -0.75610406766E+02  0.82605960885E+02  0.10000000000E+01 0.  0.
<mgrwt>
<rscale>  0 0.12500057E+03</rscale>
<asrwt>0</asrwt>
<pdfrwt beam="1">  1        4 0.70139387E-02 0.12500057E+03</pdfrwt>
<pdfrwt beam="2">  1       -4 0.13181818E-01 0.12500057E+03</pdfrwt>
<totfact> 0.10317120E+04</totfact>
</mgrwt>
</event>
<event>
 5    1  0.3246948E-002  0.1249981E+03  0.7818608E-02  0.1235072E+00
         -4   -1    0    0    0  501 -0.00000000000E+00  0.00000000000E+00  0.97504775740E+03  0.97504858449E+03  0.12700000000E+01 0. -1.
          4   -1    0    0  501    0  0.00000000000E+00 -0.00000000000E+00 -0.39045875707E+01  0.41059352281E+01  0.12700000000E+01 0. -1.
         25    2    1    2    0    0  0.00000000000E+00  0.00000000000E+00  0.97114316983E+03  0.97915451972E+03  0.12499806868E+03 0.  0.
    9000005    1    3    3    0    0  0.29355005637E+02  0.71267956855E+01  0.91409429413E+03  0.91459383670E+03  0.10000000000E+01 0.  0.
    9000005    1    3    3    0    0 -0.29355005637E+02 -0.71267956855E+01  0.57048875706E+02  0.64560683020E+02  0.10000000000E+01 0.  0.
<mgrwt>
<rscale>  0 0.12499807E+03</rscale>
<asrwt>0</asrwt>
<pdfrwt beam="2">  1        4 0.61625783E-03 0.12499807E+03</pdfrwt>
<pdfrwt beam="1">  1       -4 0.15002286E+00 0.12499807E+03</pdfrwt>
<totfact> 0.31304282E+03</totfact>
</mgrwt>
</event>
<event>
 5    1  0.3246948E-002  0.1249971E+03  0.7818608E-02  0.1235074E+00
         -4   -1    0    0    0  501 -0.00000000000E+00  0.00000000000E+00  0.30348789953E+02  0.30375351053E+02  0.12700000000E+01 0. -1.
          4   -1    0    0  501    0  0.00000000000E+00 -0.00000000000E+00 -0.12861998679E+03  0.12862625666E+03  0.12700000000E+01 0. -1.
         25    2    1    2    0    0  0.00000000000E+00  0.00000000000E+00 -0.98271196838E+02  0.15900160771E+03  0.12499713248E+03 0.  0.
    9000005    1    3    3    0    0  0.48151039554E+02 -0.24340982245E+02 -0.90296488367E+01  0.54713257853E+02  0.10000000000E+01 0.  0.
    9000005    1    3    3    0    0 -0.48151039554E+02  0.24340982245E+02 -0.89241548001E+02  0.10428834986E+03  0.10000000000E+01 0.  0.
<mgrwt>
<rscale>  0 0.12499713E+03</rscale>
<asrwt>0</asrwt>
<pdfrwt beam="2">  1        4 0.19790215E-01 0.12499713E+03</pdfrwt>
<pdfrwt beam="1">  1       -4 0.46715701E-02 0.12499713E+03</pdfrwt>
<totfact> 0.97541901E+03</totfact>
</mgrwt>
</event>
<event>
 5    1  0.3246948E-002  0.1249996E+03  0.7818608E-02  0.1235070E+00
          4   -1    0    0  501    0  0.00000000000E+00  0.00000000000E+00  0.32634208836E+02  0.32658911286E+02  0.12700000000E+01 0.  1.
         -4   -1    0    0    0  501 -0.00000000000E+00 -0.00000000000E+00 -0.11962396872E+03  0.11963071007E+03  0.12700000000E+01 0.  1.
         25    2    1    2    0    0  0.00000000000E+00  0.00000000000E+00 -0.86989759882E+02  0.15228962136E+03  0.12499964179E+03 0.  0.
    9000005    1    3    3    0    0 -0.46989042342E+02 -0.25406625713E+02 -0.39836958153E+01  0.53575522048E+02  0.10000000000E+01 0.  0.
    9000005    1    3    3    0    0  0.46989042342E+02  0.25406625713E+02 -0.83006064067E+02  0.98714099308E+02  0.10000000000E+01 0.  0.
<mgrwt>
<rscale>  0 0.12499964E+03</rscale>
<asrwt>0</asrwt>
<pdfrwt beam="1">  1        4 0.50230664E-02 0.12499964E+03</pdfrwt>
<pdfrwt beam="2">  1       -4 0.18406106E-01 0.12499964E+03</pdfrwt>
<totfact> 0.98850036E+03</totfact>
</mgrwt>
</event>
<event>
 5    1  0.3246948E-002  0.1250042E+03  0.7818608E-02  0.1235063E+00
          4   -1    0    0  501    0  0.00000000000E+00  0.00000000000E+00  0.34260457016E+02  0.34283987734E+02  0.12700000000E+01 0. -1.
         -4   -1    0    0    0  501 -0.00000000000E+00 -0.00000000000E+00 -0.11395769662E+03  0.11396477315E+03  0.12700000000E+01 0. -1.
         25    2    1    2    0    0  0.00000000000E+00  0.00000000000E+00 -0.79697239603E+02  0.14824876088E+03  0.12500418034E+03 0.  0.
    9000005    1    3    3    0    0 -0.50451436899E+02 -0.28308288854E+02 -0.67883358395E+02  0.89195611159E+02  0.10000000000E+01 0.  0.
    9000005    1    3    3    0    0  0.50451436899E+02  0.28308288854E+02 -0.11813881208E+02  0.59053149723E+02  0.10000000000E+01 0.  0.
<mgrwt>
<rscale>  0 0.12500418E+03</rscale>
<asrwt>0</asrwt>
<pdfrwt beam="1">  1        4 0.52731940E-02 0.12500418E+03</pdfrwt>
<pdfrwt beam="2">  1       -4 0.17534308E-01 0.12500418E+03</pdfrwt>
<totfact> 0.99644556E+03</totfact>
</mgrwt>
</event>
<event>
 5    1  0.3246948E-002  0.1249996E+03  0.7818608E-02  0.1235070E+00
          4   -1    0    0  501    0  0.00000000000E+00  0.00000000000E+00  0.52073421509E+03  0.52073576377E+03  0.12700000000E+01 0. -1.
         -4   -1    0    0    0  501 -0.00000000000E+00 -0.00000000000E+00 -0.74460509004E+01  0.75535802114E+01  0.12700000000E+01 0. -1.
         25    2    1    2    0    0  0.00000000000E+00  0.00000000000E+00  0.51328816419E+03  0.52828934398E+03  0.12499956585E+03 0.  0.
    9000005    1    3    3    0    0  0.46642276109E+02 -0.17162186610E+02  0.96534775129E+02  0.10858179119E+03  0.10000000000E+01 0.  0.
    9000005    1    3    3    0    0 -0.46642276109E+02  0.17162186610E+02  0.41675338906E+03  0.41970755278E+03  0.10000000000E+01 0.  0.
<mgrwt>
<rscale>  0 0.12499957E+03</rscale>
<asrwt>0</asrwt>
<pdfrwt beam="1">  1        4 0.80121373E-01 0.12499957E+03</pdfrwt>
<pdfrwt beam="2">  1       -4 0.11539365E-02 0.12499957E+03</pdfrwt>
<totfact> 0.53734878E+03</totfact>
</mgrwt>
</event>
<event>
 5    1  0.3246948E-002  0.1250035E+03  0.7818608E-02  0.1235064E+00
          4   -1    0    0  501    0  0.00000000000E+00  0.00000000000E+00  0.36092468057E+03  0.36092691496E+03  0.12700000000E+01 0. -1.
         -4   -1    0    0    0  501 -0.00000000000E+00 -0.00000000000E+00 -0.10783966521E+02  0.10858491329E+02  0.12700000000E+01 0. -1.
         25    2    1    2    0    0  0.00000000000E+00  0.00000000000E+00  0.35014071405E+03  0.37178540629E+03  0.12500347474E+03 0.  0.
    9000005    1    3    3    0    0  0.11829629781E+02  0.22495689935E+02  0.52679619792E+01  0.25975904793E+02  0.10000000000E+01 0.  0.
    9000005    1    3    3    0    0 -0.11829629781E+02 -0.22495689935E+02  0.34487275207E+03  0.34580950150E+03  0.10000000000E+01 0.  0.
<mgrwt>
<rscale>  0 0.12500347E+03</rscale>
<asrwt>0</asrwt>
<pdfrwt beam="1">  1        4 0.55532767E-01 0.12500347E+03</pdfrwt>
<pdfrwt beam="2">  1       -4 0.16649767E-02 0.12500347E+03</pdfrwt>
<totfact> 0.67387392E+03</totfact>
</mgrwt>
</event>
<event>
 5    1  0.3246948E-002  0.1249991E+03  0.7818608E-02  0.1235071E+00
          4   -1    0    0  501    0  0.00000000000E+00  0.00000000000E+00  0.84063973543E+02  0.84073566285E+02  0.12700000000E+01 0.  1.
         -4   -1    0    0    0  501 -0.00000000000E+00 -0.00000000000E+00 -0.46446006102E+02  0.46463366030E+02  0.12700000000E+01 0.  1.
         25    2    1    2    0    0  0.00000000000E+00  0.00000000000E+00  0.37617967441E+02  0.13053693232E+03  0.12499911689E+03 0.  0.
    9000005    1    3    3    0    0 -0.15937281666E+00  0.11242426076E+02 -0.45386149475E+02  0.46768794168E+02  0.10000000000E+01 0.  0.
    9000005    1    3    3    0    0  0.15937281666E+00 -0.11242426076E+02  0.83004116916E+02  0.83768138148E+02  0.10000000000E+01 0.  0.
<mgrwt>
<rscale>  0 0.12499912E+03</rscale>
<asrwt>0</asrwt>
<pdfrwt beam="1">  1        4 0.12934992E-01 0.12499912E+03</pdfrwt>
<pdfrwt beam="2">  1       -4 0.71476127E-02 0.12499912E+03</pdfrwt>
<totfact> 0.10333233E+04</totfact>
</mgrwt>
</event>
<event>
 5    1  0.3246948E-002  0.1250044E+03  0.7818608E-02  0.1235062E+00
          4   -1    0    0  501    0  0.00000000000E+00  0.00000000000E+00  0.13976212025E+03  0.13976789029E+03  0.12700000000E+01 0.  1.
         -4   -1    0    0    0  501 -0.00000000000E+00 -0.00000000000E+00 -0.27930474726E+02  0.27959333297E+02  0.12700000000E+01 0.  1.
         25    2    1    2    0    0  0.00000000000E+00  0.00000000000E+00  0.11183164552E+03  0.16772722359E+03  0.12500441829E+03 0.  0.
    9000005    1    3    3    0    0  0.38842686726E+02  0.44054539192E+02  0.84567236079E+02  0.10296685949E+03  0.10000000000E+01 0.  0.
    9000005    1    3    3    0    0 -0.38842686726E+02 -0.44054539192E+02  0.27264409443E+02  0.64760364095E+02  0.10000000000E+01 0.  0.
<mgrwt>
<rscale>  0 0.12500442E+03</rscale>
<asrwt>0</asrwt>
<pdfrwt beam="1">  1        4 0.21504528E-01 0.12500442E+03</pdfrwt>
<pdfrwt beam="2">  1       -4 0.42996599E-02 0.12500442E+03</pdfrwt>
<totfact> 0.95863866E+03</totfact>
</mgrwt>
</event>
<event>
 5    1  0.3246948E-002  0.1249978E+03  0.7818608E-02  0.1235073E+00
         -4   -1    0    0    0  501 -0.00000000000E+00  0.00000000000E+00  0.65228246590E+02  0.65240608927E+02  0.12700000000E+01 0. -1.
          4   -1    0    0  501    0  0.00000000000E+00 -0.00000000000E+00 -0.59859030161E+02  0.59872501133E+02  0.12700000000E+01 0. -1.
         25    2    1    2    0    0  0.00000000000E+00  0.00000000000E+00  0.53692164283E+01  0.12511311006E+03  0.12499784728E+03 0.  0.
    9000005    1    3    3    0    0 -0.49385797714E+02 -0.37029042205E+02 -0.70716088949E+01  0.62137867962E+02  0.10000000000E+01 0.  0.
    9000005    1    3    3    0    0  0.49385797714E+02  0.37029042205E+02  0.12440825323E+02  0.62975242098E+02  0.10000000000E+01 0.  0.
<mgrwt>
<rscale>  0 0.12499785E+03</rscale>
<asrwt>0</asrwt>
<pdfrwt beam="2">  1        4 0.92110688E-02 0.12499785E+03</pdfrwt>
<pdfrwt beam="1">  1       -4 0.10037102E-01 0.12499785E+03</pdfrwt>
<totfact> 0.10450915E+04</totfact>
</mgrwt>
</event>
<event>
 5    1  0.3246948E-002  0.1249986E+03  0.7818608E-02  0.1235072E+00
         -4   -1    0    0    0  501 -0.00000000000E+00  0.00000000000E+00  0.90390291168E+01  0.91278117517E+01  0.12700000000E+01 0. -1.
          4   -1    0    0  501    0  0.00000000000E+00 -0.00000000000E+00 -0.42994207003E+03  0.42994394574E+03  0.12700000000E+01 0. -1.
         25    2    1    2    0    0  0.00000000000E+00  0.00000000000E+00 -0.42090304091E+03  0.43907175750E+03  0.12499855351E+03 0.  0.
    9000005    1    3    3    0    0 -0.13992323949E+01 -0.43654574106E+02 -0.53461616161E+02  0.69042190682E+02  0.10000000000E+01 0.  0.
    9000005    1    3    3    0    0  0.13992323949E+01  0.43654574106E+02 -0.36744142475E+03  0.37002956681E+03  0.10000000000E+01 0.  0.
<mgrwt>
<rscale>  0 0.12499855E+03</rscale>
<asrwt>0</asrwt>
<pdfrwt beam="2">  1        4 0.66151892E-01 0.12499855E+03</pdfrwt>
<pdfrwt beam="1">  1       -4 0.13975939E-02 0.12499855E+03</pdfrwt>
<totfact> 0.60924162E+03</totfact>
</mgrwt>
</event>
<event>
 5    1  0.3246948E-002  0.1250006E+03  0.7818608E-02  0.1235068E+00
         -4   -1    0    0    0  501 -0.00000000000E+00  0.00000000000E+00  0.86983895322E+01  0.87906132013E+01  0.12700000000E+01 0.  1.
          4   -1    0    0  501    0  0.00000000000E+00 -0.00000000000E+00 -0.44662017103E+03  0.44662197670E+03  0.12700000000E+01 0.  1.
         25    2    1    2    0    0  0.00000000000E+00  0.00000000000E+00 -0.43792178150E+03  0.45541258990E+03  0.12500056132E+03 0.  0.
    9000005    1    3    3    0    0  0.57062841625E+02 -0.25104868384E+02 -0.20313763592E+03  0.21249075612E+03  0.10000000000E+01 0.  0.
    9000005    1    3    3    0    0 -0.57062841625E+02  0.25104868384E+02 -0.23478414558E+03  0.24292183378E+03  0.10000000000E+01 0.  0.
<mgrwt>
<rscale>  0 0.12500056E+03</rscale>
<asrwt>0</asrwt>
<pdfrwt beam="2">  1        4 0.68718011E-01 0.12500056E+03</pdfrwt>
<pdfrwt beam="1">  1       -4 0.13454471E-02 0.12500056E+03</pdfrwt>
<totfact> 0.59497026E+03</totfact>
</mgrwt>
</event>
<event>
 5    1  0.3246948E-002  0.1249972E+03  0.7818608E-02  0.1235074E+00
         -4   -1    0    0    0  501 -0.00000000000E+00  0.00000000000E+00  0.18240024794E+03  0.18240466920E+03  0.12700000000E+01 0. -1.
          4   -1    0    0  501    0  0.00000000000E+00 -0.00000000000E+00 -0.21391349168E+02  0.21429015825E+02  0.12700000000E+01 0. -1.
         25    2    1    2    0    0  0.00000000000E+00  0.00000000000E+00  0.16100889877E+03  0.20383368503E+03  0.12499722265E+03 0.  0.
    9000005    1    3    3    0    0  0.57727478150E+02  0.65990688835E+01  0.42995843843E+02  0.72288671529E+02  0.10000000000E+01 0.  0.
    9000005    1    3    3    0    0 -0.57727478150E+02 -0.65990688835E+01  0.11801305493E+03  0.13154501350E+03  0.10000000000E+01 0.  0.
<mgrwt>
<rscale>  0 0.12499722E+03</rscale>
<asrwt>0</asrwt>
<pdfrwt beam="2">  1        4 0.32942143E-02 0.12499722E+03</pdfrwt>
<pdfrwt beam="1">  1       -4 0.28064814E-01 0.12499722E+03</pdfrwt>
<totfact> 0.89498488E+03</totfact>
</mgrwt>
</event>
<event>
 5    1  0.3246948E-002  0.1250100E+03  0.7818608E-02  0.1235054E+00
          4   -1    0    0  501    0  0.00000000000E+00  0.00000000000E+00  0.13679348348E+02  0.13738175688E+02  0.12700000000E+01 0. -1.
         -4   -1    0    0    0  501 -0.00000000000E+00 -0.00000000000E+00 -0.28493074321E+03  0.28493357353E+03  0.12700000000E+01 0. -1.
         25    2    1    2    0    0  0.00000000000E+00  0.00000000000E+00 -0.27125139486E+03  0.29867174922E+03  0.12500997787E+03 0.  0.
    9000005    1    3    3    0    0 -0.33811605489E+02 -0.15730499308E+01 -0.26114708632E+03  0.26333343852E+03  0.10000000000E+01 0.  0.
    9000005    1    3    3    0    0  0.33811605489E+02  0.15730499308E+01 -0.10104308543E+02  0.35338310697E+02  0.10000000000E+01 0.  0.
<mgrwt>
<rscale>  0 0.12500998E+03</rscale>
<asrwt>0</asrwt>
<pdfrwt beam="1">  1        4 0.21092582E-02 0.12500998E+03</pdfrwt>
<pdfrwt beam="2">  1       -4 0.43840237E-01 0.12500998E+03</pdfrwt>
<totfact> 0.75748975E+03</totfact>
</mgrwt>
</event>
<event>
 5    1  0.3246948E-002  0.1250036E+03  0.7818608E-02  0.1235064E+00
          4   -1    0    0  501    0  0.00000000000E+00  0.00000000000E+00  0.82963389570E+01  0.83929815972E+01  0.12700000000E+01 0.  1.
         -4   -1    0    0    0  501 -0.00000000000E+00 -0.00000000000E+00 -0.46804300105E+03  0.46804472407E+03  0.12700000000E+01 0.  1.
         25    2    1    2    0    0  0.00000000000E+00  0.00000000000E+00 -0.45974666209E+03  0.47643770567E+03  0.12500357626E+03 0.  0.
    9000005    1    3    3    0    0 -0.48660608062E+02  0.37375217313E+02 -0.18466181616E+03  0.19459123308E+03  0.10000000000E+01 0.  0.
    9000005    1    3    3    0    0  0.48660608062E+02 -0.37375217313E+02 -0.27508484593E+03  0.28184647258E+03  0.10000000000E+01 0.  0.
<mgrwt>
<rscale>  0 0.12500358E+03</rscale>
<asrwt>0</asrwt>
<pdfrwt beam="1">  1        4 0.12839268E-02 0.12500358E+03</pdfrwt>
<pdfrwt beam="2">  1       -4 0.72014162E-01 0.12500358E+03</pdfrwt>
<totfact> 0.57735471E+03</totfact>
</mgrwt>
</event>
<event>
 5    1  0.3246948E-002  0.1250027E+03  0.7818608E-02  0.1235065E+00
         -4   -1    0    0    0  501 -0.00000000000E+00  0.00000000000E+00  0.72012502505E+02  0.72023700384E+02  0.12700000000E+01 0. -1.
          4   -1    0    0  501    0  0.00000000000E+00 -0.00000000000E+00 -0.54223547989E+02  0.54238418640E+02  0.12700000000E+01 0. -1.
         25    2    1    2    0    0  0.00000000000E+00  0.00000000000E+00  0.17788954516E+02  0.12626211902E+03  0.12500270316E+03 0.  0.
    9000005    1    3    3    0    0  0.44617863053E+02  0.79004125392E+01  0.52365846700E+02  0.69255701009E+02  0.10000000000E+01 0.  0.
    9000005    1    3    3    0    0 -0.44617863053E+02 -0.79004125392E+01 -0.34576892184E+02  0.57006418014E+02  0.10000000000E+01 0.  0.
<mgrwt>
<rscale>  0 0.12500270E+03</rscale>
<asrwt>0</asrwt>
<pdfrwt beam="2">  1        4 0.83440896E-02 0.12500270E+03</pdfrwt>
<pdfrwt beam="1">  1       -4 0.11080852E-01 0.12500270E+03</pdfrwt>
<totfact> 0.10424585E+04</totfact>
</mgrwt>
</event>
<event>
 5    1  0.3246948E-002  0.1250043E+03  0.7818608E-02  0.1235063E+00
         -4   -1    0    0    0  501 -0.00000000000E+00  0.00000000000E+00  0.13669151076E+02  0.13728022113E+02  0.12700000000E+01 0.  1.
          4   -1    0    0  501    0  0.00000000000E+00 -0.00000000000E+00 -0.28511627299E+03  0.28511910147E+03  0.12700000000E+01 0.  1.
         25    2    1    2    0    0  0.00000000000E+00  0.00000000000E+00 -0.27144712192E+03  0.29884712359E+03  0.12500425304E+03 0.  0.
    9000005    1    3    3    0    0 -0.30899929126E+02  0.15958820012E+02 -0.25985630333E+03  0.26217510930E+03  0.10000000000E+01 0.  0.
    9000005    1    3    3    0    0  0.30899929126E+02 -0.15958820012E+02 -0.11590818584E+02  0.36672014284E+02  0.10000000000E+01 0.  0.
<mgrwt>
<rscale>  0 0.12500425E+03</rscale>
<asrwt>0</asrwt>
<pdfrwt beam="2">  1        4 0.43868784E-01 0.12500425E+03</pdfrwt>
<pdfrwt beam="1">  1       -4 0.21076926E-02 0.12500425E+03</pdfrwt>
<totfact> 0.75736532E+03</totfact>
</mgrwt>
</event>
<event>
 5    1  0.3246948E-002  0.1250007E+03  0.7818608E-02  0.1235068E+00
          4   -1    0    0  501    0  0.00000000000E+00  0.00000000000E+00  0.16487483750E+03  0.16487972871E+03  0.12700000000E+01 0. -1.
         -4   -1    0    0    0  501 -0.00000000000E+00 -0.00000000000E+00 -0.23670203815E+02  0.23704249591E+02  0.12700000000E+01 0. -1.
         25    2    1    2    0    0  0.00000000000E+00  0.00000000000E+00  0.14120463369E+03  0.18858397830E+03  0.12500067319E+03 0.  0.
    9000005    1    3    3    0    0  0.19353692759E+02 -0.58607611644E+02  0.85374477329E+02  0.10535283074E+03  0.10000000000E+01 0.  0.
    9000005    1    3    3    0    0 -0.19353692759E+02  0.58607611644E+02  0.55830156356E+02  0.83231147563E+02  0.10000000000E+01 0.  0.
<mgrwt>
<rscale>  0 0.12500067E+03</rscale>
<asrwt>0</asrwt>
<pdfrwt beam="1">  1        4 0.25368354E-01 0.12500067E+03</pdfrwt>
<pdfrwt beam="2">  1       -4 0.36445651E-02 0.12500067E+03</pdfrwt>
<totfact> 0.92092894E+03</totfact>
</mgrwt>
</event>
<event>
 5    1  0.3246948E-002  0.1249973E+03  0.7818608E-02  0.1235074E+00
          4   -1    0    0  501    0  0.00000000000E+00  0.00000000000E+00  0.14432686359E+04  0.14432691946E+04  0.12700000000E+01 0. -1.
         -4   -1    0    0    0  501 -0.00000000000E+00 -0.00000000000E+00 -0.25568339858E+01  0.28548730323E+01  0.12700000000E+01 0. -1.
         25    2    1    2    0    0  0.00000000000E+00  0.00000000000E+00  0.14407118019E+04  0.14461240677E+04  0.12499729198E+03 0.  0.
    9000005    1    3    3    0    0  0.51594331515E+02 -0.34743214634E+02  0.78978557224E+03  0.79223185755E+03  0.10000000000E+01 0.  0.
    9000005    1    3    3    0    0 -0.51594331515E+02  0.34743214634E+02  0.65092622964E+03  0.65389221011E+03  0.10000000000E+01 0.  0.
<mgrwt>
<rscale>  0 0.12499729E+03</rscale>
<asrwt>0</asrwt>
<pdfrwt beam="1">  1        4 0.22206433E+00 0.12499729E+03</pdfrwt>
<pdfrwt beam="2">  1       -4 0.41632808E-03 0.12499729E+03</pdfrwt>
<totfact> 0.19013378E+03</totfact>
</mgrwt>
</event>
<event>
 5    1  0.3246948E-002  0.1249991E+03  0.7818608E-02  0.1235071E+00
         -4   -1    0    0    0  501 -0.00000000000E+00  0.00000000000E+00  0.46285015962E+01  0.47995757131E+01  0.12700000000E+01 0.  1.
          4   -1    0    0  501    0  0.00000000000E+00 -0.00000000000E+00 -0.82845877223E+03  0.82845974567E+03  0.12700000000E+01 0.  1.
         25    2    1    2    0    0  0.00000000000E+00  0.00000000000E+00 -0.82383027064E+03  0.83325932138E+03  0.12499912739E+03 0.  0.
    9000005    1    3    3    0    0  0.20491139096E+01  0.52782320732E+02 -0.63451000659E+03  0.63670567825E+03  0.10000000000E+01 0.  0.
    9000005    1    3    3    0    0 -0.20491139096E+01 -0.52782320732E+02 -0.18932026404E+03  0.19655364313E+03  0.10000000000E+01 0.  0.
<mgrwt>
<rscale>  0 0.12499913E+03</rscale>
<asrwt>0</asrwt>
<pdfrwt beam="2">  1        4 0.12746831E+00 0.12499913E+03</pdfrwt>
<pdfrwt beam="1">  1       -4 0.72531225E-03 0.12499913E+03</pdfrwt>
<totfact> 0.36823061E+03</totfact>
</mgrwt>
</event>
<event>
 5    1  0.3246948E-002  0.1250226E+03  0.7818608E-02  0.1235034E+00
          4   -1    0    0  501    0  0.00000000000E+00  0.00000000000E+00  0.90620651937E+03  0.90620740929E+03  0.12700000000E+01 0. -1.
         -4   -1    0    0    0  501 -0.00000000000E+00 -0.00000000000E+00 -0.42176875985E+01  0.44047461537E+01  0.12700000000E+01 0. -1.
         25    2    1    2    0    0  0.00000000000E+00  0.00000000000E+00  0.90198883177E+03  0.91061215544E+03  0.12502257795E+03 0.  0.
    9000005    1    3    3    0    0  0.74490726857E+01  0.46613523754E+02  0.74938596194E+03  0.75087191267E+03  0.10000000000E+01 0.  0.
    9000005    1    3    3    0    0 -0.74490726857E+01 -0.46613523754E+02  0.15260286983E+03  0.15974024277E+03  0.10000000000E+01 0.  0.
<mgrwt>
<rscale>  0 0.12502258E+03</rscale>
<asrwt>0</asrwt>
<pdfrwt beam="1">  1        4 0.13943083E+00 0.12502258E+03</pdfrwt>
<pdfrwt beam="2">  1       -4 0.66333267E-03 0.12502258E+03</pdfrwt>
<totfact> 0.33740190E+03</totfact>
</mgrwt>
</event>
<event>
 5    1  0.3246948E-002  0.1249966E+03  0.7818608E-02  0.1235075E+00
          4   -1    0    0  501    0  0.00000000000E+00  0.00000000000E+00  0.75547303460E+02  0.75557977475E+02  0.12700000000E+01 0.  1.
         -4   -1    0    0    0  501 -0.00000000000E+00 -0.00000000000E+00 -0.51681063916E+02  0.51696665922E+02  0.12700000000E+01 0.  1.
         25    2    1    2    0    0  0.00000000000E+00  0.00000000000E+00  0.23866239544E+02  0.12725464340E+03  0.12499658746E+03 0.  0.
    9000005    1    3    3    0    0  0.19953432774E+02  0.34899453960E+02 -0.36773870764E+02  0.54492466792E+02  0.10000000000E+01 0.  0.
    9000005    1    3    3    0    0 -0.19953432774E+02 -0.34899453960E+02  0.60640110308E+02  0.72762176605E+02  0.10000000000E+01 0.  0.
<mgrwt>
<rscale>  0 0.12499659E+03</rscale>
<asrwt>0</asrwt>
<pdfrwt beam="1">  1        4 0.11624683E-01 0.12499659E+03</pdfrwt>
<pdfrwt beam="2">  1       -4 0.79529542E-02 0.12499659E+03</pdfrwt>
<totfact> 0.10404420E+04</totfact>
</mgrwt>
</event>
<event>
 5    1  0.3246948E-002  0.1250008E+03  0.7818608E-02  0.1235068E+00
         -4   -1    0    0    0  501 -0.00000000000E+00  0.00000000000E+00  0.42054843025E+03  0.42055034786E+03  0.12700000000E+01 0. -1.
          4   -1    0    0  501    0  0.00000000000E+00 -0.00000000000E+00 -0.92432310619E+01  0.93300707641E+01  0.12700000000E+01 0. -1.
         25    2    1    2    0    0  0.00000000000E+00  0.00000000000E+00  0.41130519919E+03  0.42988041862E+03  0.12500082975E+03 0.  0.
    9000005    1    3    3    0    0  0.43284336342E+01  0.86123058423E+01  0.41799352044E+03  0.41810583622E+03  0.10000000000E+01 0.  0.
    9000005    1    3    3    0    0 -0.43284336342E+01 -0.86123058423E+01 -0.66883212530E+01  0.11774582406E+02  0.10000000000E+01 0.  0.
<mgrwt>
<rscale>  0 0.12500083E+03</rscale>
<asrwt>0</asrwt>
<pdfrwt beam="2">  1        4 0.14288633E-02 0.12500083E+03</pdfrwt>
<pdfrwt beam="1">  1       -4 0.64706573E-01 0.12500083E+03</pdfrwt>
<totfact> 0.61745708E+03</totfact>
</mgrwt>
</event>
<event>
 5    1  0.3246948E-002  0.1249983E+03  0.7818608E-02  0.1235072E+00
         -4   -1    0    0    0  501 -0.00000000000E+00  0.00000000000E+00  0.64496055826E+01  0.65734551167E+01  0.12700000000E+01 0.  1.
          4   -1    0    0  501    0  0.00000000000E+00 -0.00000000000E+00 -0.59975674739E+03  0.59975809201E+03  0.12700000000E+01 0.  1.
         25    2    1    2    0    0  0.00000000000E+00  0.00000000000E+00 -0.59330714180E+03  0.60633154713E+03  0.12499832211E+03 0.  0.
    9000005    1    3    3    0    0  0.42545694500E+02  0.34123510955E+01 -0.51805919582E+03  0.51981545825E+03  0.10000000000E+01 0.  0.
    9000005    1    3    3    0    0 -0.42545694500E+02 -0.34123510955E+01 -0.75247945979E+02  0.86516088877E+02  0.10000000000E+01 0.  0.
<mgrwt>
<rscale>  0 0.12499832E+03</rscale>
<asrwt>0</asrwt>
<pdfrwt beam="2">  1        4 0.92279855E-01 0.12499832E+03</pdfrwt>
<pdfrwt beam="1">  1       -4 0.10018778E-02 0.12499832E+03</pdfrwt>
<totfact> 0.48472169E+03</totfact>
</mgrwt>
</event>
<event>
 5    1  0.3246948E-002  0.1249506E+03  0.7818608E-02  0.1235146E+00
          4   -1    0    0  501    0  0.00000000000E+00  0.00000000000E+00  0.10843818226E+01  0.16699652503E+01  0.12700000000E+01 0.  1.
         -4   -1    0    0    0  501 -0.00000000000E+00 -0.00000000000E+00 -0.28335987051E+04  0.28335989897E+04  0.12700000000E+01 0.  1.
         25    2    1    2    0    0  0.00000000000E+00  0.00000000000E+00 -0.28325143233E+04  0.28352689550E+04  0.12495061164E+03 0.  0.
    9000005    1    3    3    0    0  0.21884166385E+02 -0.21605066910E+02 -0.18246365300E+03  0.18503967228E+03  0.10000000000E+01 0.  0.
    9000005    1    3    3    0    0 -0.21884166385E+02  0.21605066910E+02 -0.26500506703E+04  0.26502292827E+04  0.10000000000E+01 0.  0.
<mgrwt>
<rscale>  0 0.12495061E+03</rscale>
<asrwt>0</asrwt>
<pdfrwt beam="1">  1        4 0.21189701E-03 0.12495061E+03</pdfrwt>
<pdfrwt beam="2">  1       -4 0.43597866E+00 0.12495061E+03</pdfrwt>
<totfact> 0.25407295E+02</totfact>
</mgrwt>
</event>
<event>
 5    1  0.3246948E-002  0.1250000E+03  0.7818608E-02  0.1235069E+00
          4   -1    0    0  501    0  0.00000000000E+00  0.00000000000E+00  0.28994876621E+02  0.29022676828E+02  0.12700000000E+01 0. -1.
         -4   -1    0    0    0  501 -0.00000000000E+00 -0.00000000000E+00 -0.13462665479E+03  0.13463264493E+03  0.12700000000E+01 0. -1.
         25    2    1    2    0    0  0.00000000000E+00  0.00000000000E+00 -0.10563177817E+03  0.16365532176E+03  0.12499996712E+03 0.  0.
    9000005    1    3    3    0    0 -0.12491265456E+02 -0.22441135228E+02 -0.12740381185E+03  0.12997064106E+03  0.10000000000E+01 0.  0.
    9000005    1    3    3    0    0  0.12491265456E+02  0.22441135228E+02  0.21772033681E+02  0.33684680697E+02  0.10000000000E+01 0.  0.
<mgrwt>
<rscale>  0 0.12499997E+03</rscale>
<asrwt>0</asrwt>
<pdfrwt beam="1">  1        4 0.44633496E-02 0.12499997E+03</pdfrwt>
<pdfrwt beam="2">  1       -4 0.20714392E-01 0.12499997E+03</pdfrwt>
<totfact> 0.96642732E+03</totfact>
</mgrwt>
</event>
<event>
 5    1  0.3246948E-002  0.1249975E+03  0.7818608E-02  0.1235073E+00
         -4   -1    0    0    0  501 -0.00000000000E+00  0.00000000000E+00  0.28868539258E+01  0.31538588410E+01  0.12700000000E+01 0.  1.
          4   -1    0    0  501    0  0.00000000000E+00 -0.00000000000E+00 -0.12929881569E+04  0.12929887806E+04  0.12700000000E+01 0.  1.
         25    2    1    2    0    0  0.00000000000E+00  0.00000000000E+00 -0.12901013030E+04  0.12961426395E+04  0.12499747945E+03 0.  0.
    9000005    1    3    3    0    0 -0.36430437764E+02 -0.21576168055E+02 -0.16846820417E+03  0.17371022895E+03  0.10000000000E+01 0.  0.
    9000005    1    3    3    0    0  0.36430437764E+02  0.21576168055E+02 -0.11216330988E+04  0.11224324105E+04  0.10000000000E+01 0.  0.
<mgrwt>
<rscale>  0 0.12499748E+03</rscale>
<asrwt>0</asrwt>
<pdfrwt beam="2">  1        4 0.19894140E+00 0.12499748E+03</pdfrwt>
<pdfrwt beam="1">  1       -4 0.46471922E-03 0.12499748E+03</pdfrwt>
<totfact> 0.22321033E+03</totfact>
</mgrwt>
</event>
<event>
 4    1  0.3246948E-002  0.1248610E+03  0.7818608E-02  0.1235287E+00
         -4   -1    0    0    0  501 -0.00000000000E+00  0.00000000000E+00  0.16476290530E+04  0.16476295424E+04  0.12700000000E+01 0.  1.
          4   -1    0    0  501    0  0.00000000000E+00 -0.00000000000E+00 -0.21945803543E+01  0.25355636319E+01  0.12700000000E+01 0.  1.
    9000005    1    1    2    0    0 -0.50985405787E+02  0.23558301868E+02  0.11827325554E+04  0.11840657933E+04  0.10000000000E+01 0.  0.
    9000005    1    1    2    0    0  0.50985405787E+02 -0.23558301868E+02  0.46270191718E+03  0.46609931276E+03  0.10000000000E+01 0.  0.
<mgrwt>
<rscale>  0 0.12486102E+03</rscale>
<asrwt>0</asrwt>
<pdfrwt beam="2">  1        4 0.36389324E-03 0.12486102E+03</pdfrwt>
<pdfrwt beam="1">  1       -4 0.25350880E+00 0.12486102E+03</pdfrwt>
<totfact> 0.15202629E+03</totfact>
</mgrwt>
</event>
<event>
 5    1  0.3246948E-002  0.1250064E+03  0.7818608E-02  0.1235059E+00
          4   -1    0    0  501    0  0.00000000000E+00  0.00000000000E+00  0.31459193253E+03  0.31459449600E+03  0.12700000000E+01 0. -1.
         -4   -1    0    0    0  501 -0.00000000000E+00 -0.00000000000E+00 -0.12383058574E+02  0.12448013482E+02  0.12700000000E+01 0. -1.
         25    2    1    2    0    0  0.00000000000E+00  0.00000000000E+00  0.30220887395E+03  0.32704250948E+03  0.12500639788E+03 0.  0.
    9000005    1    3    3    0    0 -0.45488304730E+02 -0.36579485393E+02  0.20951121827E+03  0.21749297736E+03  0.10000000000E+01 0.  0.
    9000005    1    3    3    0    0  0.45488304730E+02  0.36579485393E+02  0.92697655684E+02  0.10954953212E+03  0.10000000000E+01 0.  0.
<mgrwt>
<rscale>  0 0.12500640E+03</rscale>
<asrwt>0</asrwt>
<pdfrwt beam="1">  1        4 0.48403946E-01 0.12500640E+03</pdfrwt>
<pdfrwt beam="2">  1       -4 0.19102799E-02 0.12500640E+03</pdfrwt>
<totfact> 0.72316019E+03</totfact>
</mgrwt>
</event>
<event>
 5    1  0.3246948E-002  0.1249957E+03  0.7818608E-02  0.1235076E+00
         -4   -1    0    0    0  501 -0.00000000000E+00  0.00000000000E+00  0.14448367407E+01  0.19236562082E+01  0.12700000000E+01 0. -1.
          4   -1    0    0  501    0  0.00000000000E+00 -0.00000000000E+00 -0.23186483638E+04  0.23186487116E+04  0.12700000000E+01 0. -1.
         25    2    1    2    0    0  0.00000000000E+00  0.00000000000E+00 -0.23172035270E+04  0.23205723678E+04  0.12499571379E+03 0.  0.
    9000005    1    3    3    0    0 -0.47850784615E+02  0.14333418106E+02 -0.18556848547E+04  0.18563572997E+04  0.10000000000E+01 0.  0.
    9000005    1    3    3    0    0  0.47850784615E+02 -0.14333418106E+02 -0.46151867236E+03  0.46421506804E+03  0.10000000000E+01 0.  0.
<mgrwt>
<rscale>  0 0.12499571E+03</rscale>
<asrwt>0</asrwt>
<pdfrwt beam="2">  1        4 0.35674944E+00 0.12499571E+03</pdfrwt>
<pdfrwt beam="1">  1       -4 0.25914345E-03 0.12499571E+03</pdfrwt>
<totfact> 0.62368657E+02</totfact>
</mgrwt>
</event>
<event>
 5    1  0.3246948E-002  0.1250004E+03  0.7818608E-02  0.1235069E+00
          4   -1    0    0  501    0  0.00000000000E+00  0.00000000000E+00  0.91417823193E+02  0.91426644351E+02  0.12700000000E+01 0.  1.
         -4   -1    0    0    0  501 -0.00000000000E+00 -0.00000000000E+00 -0.42709558494E+02  0.42728436512E+02  0.12700000000E+01 0.  1.
         25    2    1    2    0    0  0.00000000000E+00  0.00000000000E+00  0.48708264699E+02  0.13415508086E+03  0.12500036269E+03 0.  0.
    9000005    1    3    3    0    0 -0.13995308718E+02 -0.60871505785E+02  0.22190610785E+02  0.66292021312E+02  0.10000000000E+01 0.  0.
    9000005    1    3    3    0    0  0.13995308718E+02  0.60871505785E+02  0.26517653913E+02  0.67863059551E+02  0.10000000000E+01 0.  0.
<mgrwt>
<rscale>  0 0.12500036E+03</rscale>
<asrwt>0</asrwt>
<pdfrwt beam="1">  1        4 0.14066411E-01 0.12500036E+03</pdfrwt>
<pdfrwt beam="2">  1       -4 0.65728321E-02 0.12500036E+03</pdfrwt>
<totfact> 0.10255827E+04</totfact>
</mgrwt>
</event>
<event>
 5    1  0.3246948E-002  0.1250001E+03  0.7818608E-02  0.1235069E+00
         -4   -1    0    0    0  501 -0.00000000000E+00  0.00000000000E+00  0.21647990424E+02  0.21685211306E+02  0.12700000000E+01 0.  1.
          4   -1    0    0  501    0  0.00000000000E+00 -0.00000000000E+00 -0.18024976401E+03  0.18025423803E+03  0.12700000000E+01 0.  1.
         25    2    1    2    0    0  0.00000000000E+00  0.00000000000E+00 -0.15860177359E+03  0.20193944933E+03  0.12500007445E+03 0.  0.
    9000005    1    3    3    0    0 -0.42841273663E+02  0.28195146498E+02 -0.13698434371E+03  0.14627389185E+03  0.10000000000E+01 0.  0.
    9000005    1    3    3    0    0  0.42841273663E+02 -0.28195146498E+02 -0.21617429874E+02  0.55665557479E+02  0.10000000000E+01 0.  0.
<mgrwt>
<rscale>  0 0.12500007E+03</rscale>
<asrwt>0</asrwt>
<pdfrwt beam="2">  1        4 0.27733939E-01 0.12500007E+03</pdfrwt>
<pdfrwt beam="1">  1       -4 0.33336675E-02 0.12500007E+03</pdfrwt>
<totfact> 0.89809281E+03</totfact>
</mgrwt>
</event>
<event>
 5    1  0.3246948E-002  0.1249987E+03  0.7818608E-02  0.1235071E+00
          4   -1    0    0  501    0  0.00000000000E+00  0.00000000000E+00  0.63816961658E+02  0.63829597330E+02  0.12700000000E+01 0. -1.
         -4   -1    0    0    0  501 -0.00000000000E+00 -0.00000000000E+00 -0.61183670908E+02  0.61196850293E+02  0.12700000000E+01 0. -1.
         25    2    1    2    0    0  0.00000000000E+00  0.00000000000E+00  0.26332907500E+01  0.12502644762E+03  0.12499871353E+03 0.  0.
    9000005    1    3    3    0    0 -0.30627659972E+01  0.60818898767E+02 -0.12716813769E+02  0.62217652923E+02  0.10000000000E+01 0.  0.
    9000005    1    3    3    0    0  0.30627659972E+01 -0.60818898767E+02  0.15350104519E+02  0.62808794699E+02  0.10000000000E+01 0.  0.
<mgrwt>
<rscale>  0 0.12499871E+03</rscale>
<asrwt>0</asrwt>
<pdfrwt beam="1">  1        4 0.98199799E-02 0.12499871E+03</pdfrwt>
<pdfrwt beam="2">  1       -4 0.94148582E-02 0.12499871E+03</pdfrwt>
<totfact> 0.10452592E+04</totfact>
</mgrwt>
</event>
<event>
 5    1  0.3246948E-002  0.1249987E+03  0.7818608E-02  0.1235071E+00
          4   -1    0    0  501    0  0.00000000000E+00  0.00000000000E+00  0.20391760832E+04  0.20391764787E+04  0.12700000000E+01 0.  1.
         -4   -1    0    0    0  501 -0.00000000000E+00 -0.00000000000E+00 -0.17046228283E+01  0.21257090551E+01  0.12700000000E+01 0.  1.
         25    2    1    2    0    0  0.00000000000E+00  0.00000000000E+00  0.20374714604E+04  0.20413021877E+04  0.12499867926E+03 0.  0.
    9000005    1    3    3    0    0  0.39461429412E+02  0.39261552320E+02  0.14825053828E+04  0.14835504318E+04  0.10000000000E+01 0.  0.
    9000005    1    3    3    0    0 -0.39461429412E+02 -0.39261552320E+02  0.55496607761E+03  0.55775175589E+03  0.10000000000E+01 0.  0.
<mgrwt>
<rscale>  0 0.12499868E+03</rscale>
<asrwt>0</asrwt>
<pdfrwt beam="1">  1        4 0.31375049E+00 0.12499868E+03</pdfrwt>
<pdfrwt beam="2">  1       -4 0.29467258E-03 0.12499868E+03</pdfrwt>
<totfact> 0.93320875E+02</totfact>
</mgrwt>
</event>
<event>
 5    1  0.3246948E-002  0.1249861E+03  0.7818608E-02  0.1235091E+00
          4   -1    0    0  501    0  0.00000000000E+00  0.00000000000E+00  0.17755654496E+02  0.17801015886E+02  0.12700000000E+01 0.  1.
         -4   -1    0    0    0  501 -0.00000000000E+00 -0.00000000000E+00 -0.21962351382E+03  0.21962718575E+03  0.12700000000E+01 0.  1.
         25    2    1    2    0    0  0.00000000000E+00  0.00000000000E+00 -0.20186785932E+03  0.23742820164E+03  0.12498607245E+03 0.  0.
    9000005    1    3    3    0    0  0.73971008714E+01  0.50012576635E+02 -0.31178052643E+02  0.59405773201E+02  0.10000000000E+01 0.  0.
    9000005    1    3    3    0    0 -0.73971008714E+01 -0.50012576635E+02 -0.17068980668E+03  0.17802242844E+03  0.10000000000E+01 0.  0.
<mgrwt>
<rscale>  0 0.12498607E+03</rscale>
<asrwt>0</asrwt>
<pdfrwt beam="1">  1        4 0.27354111E-02 0.12498607E+03</pdfrwt>
<pdfrwt beam="2">  1       -4 0.33792003E-01 0.12498607E+03</pdfrwt>
<totfact> 0.84208038E+03</totfact>
</mgrwt>
</event>
<event>
 5    1  0.3246948E-002  0.1250016E+03  0.7818608E-02  0.1235067E+00
          4   -1    0    0  501    0  0.00000000000E+00  0.00000000000E+00  0.47795681872E+02  0.47812551758E+02  0.12700000000E+01 0. -1.
         -4   -1    0    0    0  501 -0.00000000000E+00 -0.00000000000E+00 -0.81693973986E+02  0.81703844987E+02  0.12700000000E+01 0. -1.
         25    2    1    2    0    0  0.00000000000E+00  0.00000000000E+00 -0.33898292115E+02  0.12951639674E+03  0.12500161126E+03 0.  0.
    9000005    1    3    3    0    0  0.55536002367E+02 -0.24857450321E+02 -0.21790945285E+01  0.60892436709E+02  0.10000000000E+01 0.  0.
    9000005    1    3    3    0    0 -0.55536002367E+02  0.24857450321E+02 -0.31719197586E+02  0.68623960035E+02  0.10000000000E+01 0.  0.
<mgrwt>
<rscale>  0 0.12500161E+03</rscale>
<asrwt>0</asrwt>
<pdfrwt beam="1">  1        4 0.73552388E-02 0.12500161E+03</pdfrwt>
<pdfrwt beam="2">  1       -4 0.12570361E-01 0.12500161E+03</pdfrwt>
<totfact> 0.10354487E+04</totfact>
</mgrwt>
</event>
<event>
 5    1  0.3246948E-002  0.1249995E+03  0.7818608E-02  0.1235070E+00
          4   -1    0    0  501    0  0.00000000000E+00  0.00000000000E+00  0.29226894128E+02  0.29254473852E+02  0.12700000000E+01 0.  1.
         -4   -1    0    0    0  501 -0.00000000000E+00 -0.00000000000E+00 -0.13355784887E+03  0.13356388694E+03  0.12700000000E+01 0.  1.
         25    2    1    2    0    0  0.00000000000E+00  0.00000000000E+00 -0.10433095474E+03  0.16281836079E+03  0.12499948197E+03 0.  0.
    9000005    1    3    3    0    0 -0.25068996238E+01 -0.33927765168E+02 -0.12044506223E+03  0.12516145897E+03  0.10000000000E+01 0.  0.
    9000005    1    3    3    0    0  0.25068996238E+01  0.33927765168E+02  0.16114107488E+02  0.37656901826E+02  0.10000000000E+01 0.  0.
<mgrwt>
<rscale>  0 0.12499948E+03</rscale>
<asrwt>0</asrwt>
<pdfrwt beam="1">  1        4 0.44990313E-02 0.12499948E+03</pdfrwt>
<pdfrwt beam="2">  1       -4 0.20549947E-01 0.12499948E+03</pdfrwt>
<totfact> 0.96803290E+03</totfact>
</mgrwt>
</event>
<event>
 5    1  0.3246948E-002  0.1250076E+03  0.7818608E-02  0.1235057E+00
         -4   -1    0    0    0  501 -0.00000000000E+00  0.00000000000E+00  0.14168607175E+03  0.14169176345E+03  0.12700000000E+01 0.  1.
          4   -1    0    0  501    0  0.00000000000E+00 -0.00000000000E+00 -0.27552221414E+02  0.27581475755E+02  0.12700000000E+01 0.  1.
         25    2    1    2    0    0  0.00000000000E+00  0.00000000000E+00  0.11413385034E+03  0.16927323920E+03  0.12500757464E+03 0.  0.
    9000005    1    3    3    0    0  0.30013713156E+02  0.53049375300E+02  0.75764556403E+02  0.97243648656E+02  0.10000000000E+01 0.  0.
    9000005    1    3    3    0    0 -0.30013713156E+02 -0.53049375300E+02  0.38369293937E+02  0.72029590547E+02  0.10000000000E+01 0.  0.
<mgrwt>
<rscale>  0 0.12500757E+03</rscale>
<asrwt>0</asrwt>
<pdfrwt beam="2">  1        4 0.42414915E-02 0.12500757E+03</pdfrwt>
<pdfrwt beam="1">  1       -4 0.21800545E-01 0.12500757E+03</pdfrwt>
<totfact> 0.95567918E+03</totfact>
</mgrwt>
</event>
<event>
 4    1  0.3246948E-002  0.1248949E+03  0.7818608E-02  0.1235234E+00
          4   -1    0    0  501    0  0.00000000000E+00  0.00000000000E+00  0.82610577207E+03  0.82610674828E+03  0.12700000000E+01 0.  1.
         -4   -1    0    0    0  501 -0.00000000000E+00 -0.00000000000E+00 -0.46341487898E+01  0.48050218528E+01  0.12700000000E+01 0.  1.
    9000005    1    1    2    0    0 -0.26031292539E+01 -0.44783853647E+02  0.12178939826E+03  0.12979224691E+03  0.10000000000E+01 0.  0.
    9000005    1    1    2    0    0  0.26031292539E+01  0.44783853647E+02  0.69968222502E+03  0.70111952322E+03  0.10000000000E+01 0.  0.
<mgrwt>
<rscale>  0 0.12489492E+03</rscale>
<asrwt>0</asrwt>
<pdfrwt beam="1">  1        4 0.12710652E+00 0.12489492E+03</pdfrwt>
<pdfrwt beam="2">  1       -4 0.72616455E-03 0.12489492E+03</pdfrwt>
<totfact> 0.37006241E+03</totfact>
</mgrwt>
</event>
<event>
 5    1  0.3246948E-002  0.1250012E+03  0.7818608E-02  0.1235067E+00
          4   -1    0    0  501    0  0.00000000000E+00  0.00000000000E+00  0.61533925169E+03  0.61534056226E+03  0.12700000000E+01 0. -1.
         -4   -1    0    0    0  501 -0.00000000000E+00 -0.00000000000E+00 -0.62833940360E+01  0.64104555698E+01  0.12700000000E+01 0. -1.
         25    2    1    2    0    0  0.00000000000E+00  0.00000000000E+00  0.60905585765E+03  0.62175101783E+03  0.12500116175E+03 0.  0.
    9000005    1    3    3    0    0 -0.54087253589E+02 -0.30199441569E+02  0.26354618384E+03  0.27073054554E+03  0.10000000000E+01 0.  0.
    9000005    1    3    3    0    0  0.54087253589E+02  0.30199441569E+02  0.34550967381E+03  0.35102047229E+03  0.10000000000E+01 0.  0.
<mgrwt>
<rscale>  0 0.12500116E+03</rscale>
<asrwt>0</asrwt>
<pdfrwt beam="1">  1        4 0.94677454E-01 0.12500116E+03</pdfrwt>
<pdfrwt beam="2">  1       -4 0.97655076E-03 0.12500116E+03</pdfrwt>
<totfact> 0.47521579E+03</totfact>
</mgrwt>
</event>
<event>
 4    1  0.3246948E-002  0.1249235E+03  0.7818608E-02  0.1235189E+00
         -4   -1    0    0    0  501 -0.00000000000E+00  0.00000000000E+00  0.29058632541E+02  0.29086371812E+02  0.12700000000E+01 0. -1.
          4   -1    0    0  501    0  0.00000000000E+00 -0.00000000000E+00 -0.13416731089E+03  0.13417332154E+03  0.12700000000E+01 0. -1.
    9000005    1    1    2    0    0  0.26966592832E+02  0.41013632825E+02 -0.20886153838E+01  0.49139368339E+02  0.10000000000E+01 0.  0.
    9000005    1    1    2    0    0 -0.26966592832E+02 -0.41013632825E+02 -0.10302006297E+03  0.11412032501E+03  0.10000000000E+01 0.  0.
<mgrwt>
<rscale>  0 0.12492355E+03</rscale>
<asrwt>0</asrwt>
<pdfrwt beam="2">  1        4 0.20643721E-01 0.12492355E+03</pdfrwt>
<pdfrwt beam="1">  1       -4 0.44731551E-02 0.12492355E+03</pdfrwt>
<totfact> 0.96884325E+03</totfact>
</mgrwt>
</event>
<event>
 5    1  0.3246948E-002  0.1249858E+03  0.7818608E-02  0.1235091E+00
          4   -1    0    0  501    0  0.00000000000E+00  0.00000000000E+00  0.10935081646E+04  0.10935089021E+04  0.12700000000E+01 0. -1.
         -4   -1    0    0    0  501 -0.00000000000E+00 -0.00000000000E+00 -0.34577418521E+01  0.36835958948E+01  0.12700000000E+01 0. -1.
         25    2    1    2    0    0  0.00000000000E+00  0.00000000000E+00  0.10900504228E+04  0.10971924980E+04  0.12498581319E+03 0.  0.
    9000005    1    3    3    0    0  0.57512426380E+02  0.20801273068E+02  0.43260810183E+03  0.43691090845E+03  0.10000000000E+01 0.  0.
    9000005    1    3    3    0    0 -0.57512426380E+02 -0.20801273068E+02  0.65744232094E+03  0.66028158956E+03  0.10000000000E+01 0.  0.
<mgrwt>
<rscale>  0 0.12498581E+03</rscale>
<asrwt>0</asrwt>
<pdfrwt beam="1">  1        4 0.16824943E+00 0.12498581E+03</pdfrwt>
<pdfrwt beam="2">  1       -4 0.54939050E-03 0.12498581E+03</pdfrwt>
<totfact> 0.27574236E+03</totfact>
</mgrwt>
</event>
<event>
 5    1  0.3246948E-002  0.1250014E+03  0.7818608E-02  0.1235067E+00
          4   -1    0    0  501    0  0.00000000000E+00  0.00000000000E+00  0.48009933973E+01  0.49661290359E+01  0.12700000000E+01 0.  1.
         -4   -1    0    0    0  501 -0.00000000000E+00 -0.00000000000E+00 -0.79972977404E+03  0.79973078244E+03  0.12700000000E+01 0.  1.
         25    2    1    2    0    0  0.00000000000E+00  0.00000000000E+00 -0.79492878064E+03  0.80469691148E+03  0.12500141219E+03 0.  0.
    9000005    1    3    3    0    0 -0.66696004339E+01  0.28057915280E+02 -0.40568407344E+02  0.49784795412E+02  0.10000000000E+01 0.  0.
    9000005    1    3    3    0    0  0.66696004339E+01 -0.28057915280E+02 -0.75436037330E+03  0.75491211607E+03  0.10000000000E+01 0.  0.
<mgrwt>
<rscale>  0 0.12500141E+03</rscale>
<asrwt>0</asrwt>
<pdfrwt beam="1">  1        4 0.75139531E-03 0.12500141E+03</pdfrwt>
<pdfrwt beam="2">  1       -4 0.12304803E+00 0.12500141E+03</pdfrwt>
<totfact> 0.38054755E+03</totfact>
</mgrwt>
</event>
<event>
 5    1  0.3246948E-002  0.1249992E+03  0.7818608E-02  0.1235071E+00
          4   -1    0    0  501    0  0.00000000000E+00  0.00000000000E+00  0.59369103193E+02  0.59382685304E+02  0.12700000000E+01 0.  1.
         -4   -1    0    0    0  501 -0.00000000000E+00 -0.00000000000E+00 -0.65767907598E+02  0.65780168515E+02  0.12700000000E+01 0.  1.
         25    2    1    2    0    0  0.00000000000E+00  0.00000000000E+00 -0.63988044047E+01  0.12516285382E+03  0.12499918111E+03 0.  0.
    9000005    1    3    3    0    0 -0.87475297797E+01 -0.61872142361E+02 -0.24790563433E+01  0.62544600071E+02  0.10000000000E+01 0.  0.
    9000005    1    3    3    0    0  0.87475297797E+01  0.61872142361E+02 -0.39197480614E+01  0.62618253748E+02  0.10000000000E+01 0.  0.
<mgrwt>
<rscale>  0 0.12499918E+03</rscale>
<asrwt>0</asrwt>
<pdfrwt beam="1">  1        4 0.91356961E-02 0.12499918E+03</pdfrwt>
<pdfrwt beam="2">  1       -4 0.10120128E-01 0.12499918E+03</pdfrwt>
<totfact> 0.10449520E+04</totfact>
</mgrwt>
</event>
<event>
 5    1  0.3246948E-002  0.1250001E+03  0.7818608E-02  0.1235069E+00
         -4   -1    0    0    0  501 -0.00000000000E+00  0.00000000000E+00  0.34713520235E+02  0.34736744049E+02  0.12700000000E+01 0.  1.
          4   -1    0    0  501    0  0.00000000000E+00 -0.00000000000E+00 -0.11246399381E+03  0.11247116432E+03  0.12700000000E+01 0.  1.
         25    2    1    2    0    0  0.00000000000E+00  0.00000000000E+00 -0.77750473576E+02  0.14720790837E+03  0.12500012858E+03 0.  0.
    9000005    1    3    3    0    0 -0.25002528774E+02 -0.47369051385E+02 -0.76786162335E+02  0.93627283419E+02  0.10000000000E+01 0.  0.
    9000005    1    3    3    0    0  0.25002528774E+02  0.47369051385E+02 -0.96431124155E+00  0.53580624953E+02  0.10000000000E+01 0.  0.
<mgrwt>
<rscale>  0 0.12500013E+03</rscale>
<asrwt>0</asrwt>
<pdfrwt beam="2">  1        4 0.17304491E-01 0.12500013E+03</pdfrwt>
<pdfrwt beam="1">  1       -4 0.53428796E-02 0.12500013E+03</pdfrwt>
<totfact> 0.99862911E+03</totfact>
</mgrwt>
</event>
<event>
 5    1  0.3246948E-002  0.1250000E+03  0.7818608E-02  0.1235069E+00
          4   -1    0    0  501    0  0.00000000000E+00  0.00000000000E+00  0.87393513695E+02  0.87402741010E+02  0.12700000000E+01 0. -1.
         -4   -1    0    0    0  501 -0.00000000000E+00 -0.00000000000E+00 -0.44676610390E+02  0.44694657578E+02  0.12700000000E+01 0. -1.
         25    2    1    2    0    0  0.00000000000E+00  0.00000000000E+00  0.42716903305E+02  0.13209739859E+03  0.12499995554E+03 0.  0.
    9000005    1    3    3    0    0 -0.15788223200E+02 -0.59687347000E+02  0.11145354403E+02  0.62746046158E+02  0.10000000000E+01 0.  0.
    9000005    1    3    3    0    0  0.15788223200E+02  0.59687347000E+02  0.31571548901E+02  0.69351352429E+02  0.10000000000E+01 0.  0.
<mgrwt>
<rscale>  0 0.12499996E+03</rscale>
<asrwt>0</asrwt>
<pdfrwt beam="1">  1        4 0.13447254E-01 0.12499996E+03</pdfrwt>
<pdfrwt beam="2">  1       -4 0.68754227E-02 0.12499996E+03</pdfrwt>
<totfact> 0.10299630E+04</totfact>
</mgrwt>
</event>
<event>
 5    1  0.3246948E-002  0.1249986E+03  0.7818608E-02  0.1235071E+00
         -4   -1    0    0    0  501 -0.00000000000E+00  0.00000000000E+00  0.36991505732E+02  0.37013300262E+02  0.12700000000E+01 0. -1.
          4   -1    0    0  501    0  0.00000000000E+00 -0.00000000000E+00 -0.10553952241E+03  0.10554716334E+03  0.12700000000E+01 0. -1.
         25    2    1    2    0    0  0.00000000000E+00  0.00000000000E+00 -0.68548016676E+02  0.14256046361E+03  0.12499862077E+03 0.  0.
    9000005    1    3    3    0    0 -0.48715792643E+02 -0.25771174241E+02 -0.67870906092E+02  0.87434785803E+02  0.10000000000E+01 0.  0.
    9000005    1    3    3    0    0  0.48715792643E+02  0.25771174241E+02 -0.67711058388E+00  0.55125677804E+02  0.10000000000E+01 0.  0.
<mgrwt>
<rscale>  0 0.12499862E+03</rscale>
<asrwt>0</asrwt>
<pdfrwt beam="2">  1        4 0.16239114E-01 0.12499862E+03</pdfrwt>
<pdfrwt beam="1">  1       -4 0.56932652E-02 0.12499862E+03</pdfrwt>
<totfact> 0.10081105E+04</totfact>
</mgrwt>
</event>
<event>
 5    1  0.3246948E-002  0.1250072E+03  0.7818608E-02  0.1235058E+00
          4   -1    0    0  501    0  0.00000000000E+00  0.00000000000E+00  0.82158670734E+02  0.82168485910E+02  0.12700000000E+01 0.  1.
         -4   -1    0    0    0  501 -0.00000000000E+00 -0.00000000000E+00 -0.47529521739E+02  0.47546486061E+02  0.12700000000E+01 0.  1.
         25    2    1    2    0    0  0.00000000000E+00  0.00000000000E+00  0.34629148994E+02  0.12971497197E+03  0.12500718377E+03 0.  0.
    9000005    1    3    3    0    0 -0.23357816529E+02 -0.46090557583E+02 -0.19162860644E+02  0.55119346145E+02  0.10000000000E+01 0.  0.
    9000005    1    3    3    0    0  0.23357816529E+02  0.46090557583E+02  0.53792009639E+02  0.74595625826E+02  0.10000000000E+01 0.  0.
<mgrwt>
<rscale>  0 0.12500718E+03</rscale>
<asrwt>0</asrwt>
<pdfrwt beam="1">  1        4 0.12641855E-01 0.12500718E+03</pdfrwt>
<pdfrwt beam="2">  1       -4 0.73142942E-02 0.12500718E+03</pdfrwt>
<totfact> 0.10348930E+04</totfact>
</mgrwt>
</event>
<event>
 5    1  0.3246948E-002  0.1250054E+03  0.7818608E-02  0.1235061E+00
         -4   -1    0    0    0  501 -0.00000000000E+00  0.00000000000E+00  0.18471496800E+02  0.18515104483E+02  0.12700000000E+01 0. -1.
          4   -1    0    0  501    0  0.00000000000E+00 -0.00000000000E+00 -0.21119794495E+03  0.21120176337E+03  0.12700000000E+01 0. -1.
         25    2    1    2    0    0  0.00000000000E+00  0.00000000000E+00 -0.19272644815E+03  0.22971686785E+03  0.12500542212E+03 0.  0.
    9000005    1    3    3    0    0 -0.51339187082E+02 -0.44704712421E+01 -0.31395116300E+02  0.60351889538E+02  0.10000000000E+01 0.  0.
    9000005    1    3    3    0    0  0.51339187082E+02  0.44704712421E+01 -0.16133133185E+03  0.16936497831E+03  0.10000000000E+01 0.  0.
<mgrwt>
<rscale>  0 0.12500542E+03</rscale>
<asrwt>0</asrwt>
<pdfrwt beam="2">  1        4 0.32495638E-01 0.12500542E+03</pdfrwt>
<pdfrwt beam="1">  1       -4 0.28454170E-02 0.12500542E+03</pdfrwt>
<totfact> 0.85342767E+03</totfact>
</mgrwt>
</event>
<event>
 5    1  0.3246948E-002  0.1249987E+03  0.7818608E-02  0.1235071E+00
          4   -1    0    0  501    0  0.00000000000E+00  0.00000000000E+00  0.21644755837E+03  0.21645128419E+03  0.12700000000E+01 0. -1.
         -4   -1    0    0    0  501 -0.00000000000E+00 -0.00000000000E+00 -0.18020499601E+02  0.18065195982E+02  0.12700000000E+01 0. -1.
         25    2    1    2    0    0  0.00000000000E+00  0.00000000000E+00  0.19842705877E+03  0.23451648017E+03  0.12499872726E+03 0.  0.
    9000005    1    3    3    0    0  0.20536526801E+00 -0.62277731556E+02  0.10889207400E+03  0.12544736667E+03  0.10000000000E+01 0.  0.
    9000005    1    3    3    0    0 -0.20536526801E+00  0.62277731556E+02  0.89534984769E+02  0.10906911350E+03  0.10000000000E+01 0.  0.
<mgrwt>
<rscale>  0 0.12499873E+03</rscale>
<asrwt>0</asrwt>
<pdfrwt beam="1">  1        4 0.33303348E-01 0.12499873E+03</pdfrwt>
<pdfrwt beam="2">  1       -4 0.27761094E-02 0.12499873E+03</pdfrwt>
<totfact> 0.84623280E+03</totfact>
</mgrwt>
</event>
<event>
 5    1  0.3246948E-002  0.1249976E+03  0.7818608E-02  0.1235073E+00
         -4   -1    0    0    0  501 -0.00000000000E+00  0.00000000000E+00  0.69062601345E+02  0.69074277445E+02  0.12700000000E+01 0. -1.
          4   -1    0    0  501    0  0.00000000000E+00 -0.00000000000E+00 -0.56535211148E+02  0.56549473910E+02  0.12700000000E+01 0. -1.
         25    2    1    2    0    0  0.00000000000E+00  0.00000000000E+00  0.12527390197E+02  0.12562375136E+03  0.12499756557E+03 0.  0.
    9000005    1    3    3    0    0 -0.28742536943E+02 -0.42980665240E+02  0.41534045536E+02  0.66329088288E+02  0.10000000000E+01 0.  0.
    9000005    1    3    3    0    0  0.28742536943E+02  0.42980665240E+02 -0.29006655339E+02  0.59294663068E+02  0.10000000000E+01 0.  0.
<mgrwt>
<rscale>  0 0.12499757E+03</rscale>
<asrwt>0</asrwt>
<pdfrwt beam="2">  1        4 0.86997201E-02 0.12499757E+03</pdfrwt>
<pdfrwt beam="1">  1       -4 0.10627011E-01 0.12499757E+03</pdfrwt>
<totfact> 0.10439797E+04</totfact>
</mgrwt>
</event>
<event>
 5    1  0.3246948E-002  0.1250010E+03  0.7818608E-02  0.1235068E+00
         -4   -1    0    0    0  501 -0.00000000000E+00  0.00000000000E+00  0.28666155302E+03  0.28666436626E+03  0.12700000000E+01 0. -1.
          4   -1    0    0  501    0  0.00000000000E+00 -0.00000000000E+00 -0.13594437156E+02  0.13653630344E+02  0.12700000000E+01 0. -1.
         25    2    1    2    0    0  0.00000000000E+00  0.00000000000E+00  0.27306711587E+03  0.30031799660E+03  0.12500099725E+03 0.  0.
    9000005    1    3    3    0    0 -0.35371579396E+02 -0.14998871345E+02  0.18120581344E+02  0.42490825349E+02  0.10000000000E+01 0.  0.
    9000005    1    3    3    0    0  0.35371579396E+02  0.14998871345E+02  0.25494653452E+03  0.25782717125E+03  0.10000000000E+01 0.  0.
<mgrwt>
<rscale>  0 0.12500100E+03</rscale>
<asrwt>0</asrwt>
<pdfrwt beam="2">  1        4 0.20962215E-02 0.12500100E+03</pdfrwt>
<pdfrwt beam="1">  1       -4 0.44106548E-01 0.12500100E+03</pdfrwt>
<totfact> 0.75557292E+03</totfact>
</mgrwt>
</event>
<event>
 5    1  0.3246948E-002  0.1250002E+03  0.7818608E-02  0.1235069E+00
         -4   -1    0    0    0  501 -0.00000000000E+00  0.00000000000E+00  0.14480462238E+02  0.14536047834E+02  0.12700000000E+01 0.  1.
          4   -1    0    0  501    0  0.00000000000E+00 -0.00000000000E+00 -0.26918688694E+03  0.26918988280E+03  0.12700000000E+01 0.  1.
         25    2    1    2    0    0  0.00000000000E+00  0.00000000000E+00 -0.25470642471E+03  0.28372593063E+03  0.12500016371E+03 0.  0.
    9000005    1    3    3    0    0 -0.28650318685E+02 -0.32112732853E+02 -0.23020295618E+03  0.23419323091E+03  0.10000000000E+01 0.  0.
    9000005    1    3    3    0    0  0.28650318685E+02  0.32112732853E+02 -0.24503468529E+02  0.49532699724E+02  0.10000000000E+01 0.  0.
<mgrwt>
<rscale>  0 0.12500016E+03</rscale>
<asrwt>0</asrwt>
<pdfrwt beam="2">  1        4 0.41417870E-01 0.12500016E+03</pdfrwt>
<pdfrwt beam="1">  1       -4 0.22322699E-02 0.12500016E+03</pdfrwt>
<totfact> 0.77686373E+03</totfact>
</mgrwt>
</event>
<event>
 5    1  0.3246948E-002  0.1250037E+03  0.7818608E-02  0.1235064E+00
         -4   -1    0    0    0  501 -0.00000000000E+00  0.00000000000E+00  0.31610700409E+02  0.31636202053E+02  0.12700000000E+01 0. -1.
          4   -1    0    0  501    0  0.00000000000E+00 -0.00000000000E+00 -0.12350232807E+03  0.12350885774E+03  0.12700000000E+01 0. -1.
         25    2    1    2    0    0  0.00000000000E+00  0.00000000000E+00 -0.91891627665E+02  0.15514505979E+03  0.12500367332E+03 0.  0.
    9000005    1    3    3    0    0 -0.41650028558E+02 -0.46278351164E+02 -0.52637408506E+02  0.81535927293E+02  0.10000000000E+01 0.  0.
    9000005    1    3    3    0    0  0.41650028558E+02  0.46278351164E+02 -0.39254219159E+02  0.73609132498E+02  0.10000000000E+01 0.  0.
<mgrwt>
<rscale>  0 0.12500367E+03</rscale>
<asrwt>0</asrwt>
<pdfrwt beam="2">  1        4 0.19002822E-01 0.12500367E+03</pdfrwt>
<pdfrwt beam="1">  1       -4 0.48656487E-02 0.12500367E+03</pdfrwt>
<totfact> 0.98278910E+03</totfact>
</mgrwt>
</event>
<event>
 5    1  0.3246948E-002  0.1250079E+03  0.7818608E-02  0.1235057E+00
         -4   -1    0    0    0  501 -0.00000000000E+00  0.00000000000E+00  0.77982966791E+02  0.77993307466E+02  0.12700000000E+01 0.  1.
          4   -1    0    0  501    0  0.00000000000E+00 -0.00000000000E+00 -0.50075712511E+02  0.50091814535E+02  0.12700000000E+01 0.  1.
         25    2    1    2    0    0  0.00000000000E+00  0.00000000000E+00  0.27907254280E+02  0.12808512200E+03  0.12500793429E+03 0.  0.
    9000005    1    3    3    0    0  0.42646443710E+01 -0.62310265164E+02  0.11664906498E+02  0.63543893334E+02  0.10000000000E+01 0.  0.
    9000005    1    3    3    0    0 -0.42646443710E+01  0.62310265164E+02  0.16242347782E+02  0.64541228667E+02  0.10000000000E+01 0.  0.
<mgrwt>
<rscale>  0 0.12500793E+03</rscale>
<asrwt>0</asrwt>
<pdfrwt beam="2">  1        4 0.77059898E-02 0.12500793E+03</pdfrwt>
<pdfrwt beam="1">  1       -4 0.11999414E-01 0.12500793E+03</pdfrwt>
<totfact> 0.10383790E+04</totfact>
</mgrwt>
</event>
<event>
 5    1  0.3246948E-002  0.1250012E+03  0.7818608E-02  0.1235067E+00
          4   -1    0    0  501    0  0.00000000000E+00  0.00000000000E+00  0.23760888665E+03  0.23761228064E+03  0.12700000000E+01 0.  1.
         -4   -1    0    0    0  501 -0.00000000000E+00 -0.00000000000E+00 -0.16412112769E+02  0.16461176918E+02  0.12700000000E+01 0.  1.
         25    2    1    2    0    0  0.00000000000E+00  0.00000000000E+00  0.22119677388E+03  0.25407345756E+03  0.12500123625E+03 0.  0.
    9000005    1    3    3    0    0 -0.11399818879E+02  0.40080211662E+02  0.20525905441E+03  0.20944846301E+03  0.10000000000E+01 0.  0.
    9000005    1    3    3    0    0  0.11399818879E+02 -0.40080211662E+02  0.15937719464E+02  0.44624994555E+02  0.10000000000E+01 0.  0.
<mgrwt>
<rscale>  0 0.12500124E+03</rscale>
<asrwt>0</asrwt>
<pdfrwt beam="1">  1        4 0.36559249E-01 0.12500124E+03</pdfrwt>
<pdfrwt beam="2">  1       -4 0.25289757E-02 0.12500124E+03</pdfrwt>
<totfact> 0.81742777E+03</totfact>
</mgrwt>
</event>
<event>
 5    1  0.3246948E-002  0.1250160E+03  0.7818608E-02  0.1235044E+00
          4   -1    0    0  501    0  0.00000000000E+00  0.00000000000E+00  0.11144619117E+02  0.11216747981E+02  0.12700000000E+01 0.  1.
         -4   -1    0    0    0  501 -0.00000000000E+00 -0.00000000000E+00 -0.34939115363E+03  0.34939346178E+03  0.12700000000E+01 0.  1.
         25    2    1    2    0    0  0.00000000000E+00  0.00000000000E+00 -0.33824653451E+03  0.36061020976E+03  0.12501602007E+03 0.  0.
    9000005    1    3    3    0    0 -0.53451705564E+02 -0.23073635139E+02 -0.23469589913E+03  0.24181117124E+03  0.10000000000E+01 0.  0.
    9000005    1    3    3    0    0  0.53451705564E+02  0.23073635139E+02 -0.10355063538E+03  0.11879903852E+03  0.10000000000E+01 0.  0.
<mgrwt>
<rscale>  0 0.12501602E+03</rscale>
<asrwt>0</asrwt>
<pdfrwt beam="1">  1        4 0.17202830E-02 0.12501602E+03</pdfrwt>
<pdfrwt beam="2">  1       -4 0.53758203E-01 0.12501602E+03</pdfrwt>
<totfact> 0.68548573E+03</totfact>
</mgrwt>
</event>
<event>
 5    1  0.3246948E-002  0.1249984E+03  0.7818608E-02  0.1235072E+00
         -4   -1    0    0    0  501 -0.00000000000E+00  0.00000000000E+00  0.25163931031E+02  0.25195958504E+02  0.12700000000E+01 0.  1.
          4   -1    0    0  501    0  0.00000000000E+00 -0.00000000000E+00 -0.15509478031E+03  0.15509997995E+03  0.12700000000E+01 0.  1.
         25    2    1    2    0    0  0.00000000000E+00  0.00000000000E+00 -0.12993084928E+03  0.18029593845E+03  0.12499839930E+03 0.  0.
    9000005    1    3    3    0    0  0.34300107937E+02  0.45796984620E+02 -0.10120603618E+03  0.11626488277E+03  0.10000000000E+01 0.  0.
    9000005    1    3    3    0    0 -0.34300107937E+02 -0.45796984620E+02 -0.28724813097E+02  0.64031055686E+02  0.10000000000E+01 0.  0.
<mgrwt>
<rscale>  0 0.12499840E+03</rscale>
<asrwt>0</asrwt>
<pdfrwt beam="2">  1        4 0.23863598E-01 0.12499840E+03</pdfrwt>
<pdfrwt beam="1">  1       -4 0.38742377E-02 0.12499840E+03</pdfrwt>
<totfact> 0.93567119E+03</totfact>
</mgrwt>
</event>
<event>
 5    1  0.3246948E-002  0.1250003E+03  0.7818608E-02  0.1235069E+00
         -4   -1    0    0    0  501 -0.00000000000E+00  0.00000000000E+00  0.20534839385E+03  0.20535232105E+03  0.12700000000E+01 0. -1.
          4   -1    0    0  501    0  0.00000000000E+00 -0.00000000000E+00 -0.18997330618E+02  0.19039733996E+02  0.12700000000E+01 0. -1.
         25    2    1    2    0    0  0.00000000000E+00  0.00000000000E+00  0.18635106324E+03  0.22439205504E+03  0.12500030238E+03 0.  0.
    9000005    1    3    3    0    0  0.10329953063E+02 -0.18140288626E+02 -0.12562029396E+02  0.24384064145E+02  0.10000000000E+01 0.  0.
    9000005    1    3    3    0    0 -0.10329953063E+02  0.18140288626E+02  0.19891309263E+03  0.20000799090E+03  0.10000000000E+01 0.  0.
<mgrwt>
<rscale>  0 0.12500030E+03</rscale>
<asrwt>0</asrwt>
<pdfrwt beam="2">  1        4 0.29262302E-02 0.12500030E+03</pdfrwt>
<pdfrwt beam="1">  1       -4 0.31595623E-01 0.12500030E+03</pdfrwt>
<totfact> 0.86177519E+03</totfact>
</mgrwt>
</event>
<event>
 5    1  0.3246948E-002  0.1249667E+03  0.7818608E-02  0.1235121E+00
          4   -1    0    0  501    0  0.00000000000E+00  0.00000000000E+00  0.13133091985E+03  0.13133706030E+03  0.12700000000E+01 0.  1.
         -4   -1    0    0    0  501 -0.00000000000E+00 -0.00000000000E+00 -0.29707308237E+02  0.29734442364E+02  0.12700000000E+01 0.  1.
         25    2    1    2    0    0  0.00000000000E+00  0.00000000000E+00  0.10162361161E+03  0.16107150266E+03  0.12496667769E+03 0.  0.
    9000005    1    3    3    0    0  0.27783783779E+02  0.45804043705E+02  0.92242345280E+02  0.10667520482E+03  0.10000000000E+01 0.  0.
    9000005    1    3    3    0    0 -0.27783783779E+02 -0.45804043705E+02  0.93812663294E+01  0.54396297841E+02  0.10000000000E+01 0.  0.
<mgrwt>
<rscale>  0 0.12496668E+03</rscale>
<asrwt>0</asrwt>
<pdfrwt beam="1">  1        4 0.20207317E-01 0.12496668E+03</pdfrwt>
<pdfrwt beam="2">  1       -4 0.45729146E-02 0.12496668E+03</pdfrwt>
<totfact> 0.97209386E+03</totfact>
</mgrwt>
</event>
<event>
 5    1  0.3246948E-002  0.1249805E+03  0.7818608E-02  0.1235100E+00
         -4   -1    0    0    0  501 -0.00000000000E+00  0.00000000000E+00  0.12094212731E+02  0.12160710570E+02  0.12700000000E+01 0. -1.
          4   -1    0    0  501    0  0.00000000000E+00 -0.00000000000E+00 -0.32193127675E+03  0.32193378177E+03  0.12700000000E+01 0. -1.
         25    2    1    2    0    0  0.00000000000E+00  0.00000000000E+00 -0.30983706402E+03  0.33409449234E+03  0.12498049279E+03 0.  0.
    9000005    1    3    3    0    0 -0.84773770016E+00 -0.45663351914E+02 -0.40934401620E+02  0.61339103378E+02  0.10000000000E+01 0.  0.
    9000005    1    3    3    0    0  0.84773770016E+00  0.45663351914E+02 -0.26890266240E+03  0.27275538897E+03  0.10000000000E+01 0.  0.
<mgrwt>
<rscale>  0 0.12498049E+03</rscale>
<asrwt>0</asrwt>
<pdfrwt beam="2">  1        4 0.49533190E-01 0.12498049E+03</pdfrwt>
<pdfrwt beam="1">  1       -4 0.18659563E-02 0.12498049E+03</pdfrwt>
<totfact> 0.71541455E+03</totfact>
</mgrwt>
</event>
<event>
 5    1  0.3246948E-002  0.1249943E+03  0.7818608E-02  0.1235078E+00
         -4   -1    0    0    0  501 -0.00000000000E+00  0.00000000000E+00  0.62903221429E+01  0.64172465016E+01  0.12700000000E+01 0.  1.
          4   -1    0    0  501    0  0.00000000000E+00 -0.00000000000E+00 -0.61460786448E+03  0.61460917661E+03  0.12700000000E+01 0.  1.
         25    2    1    2    0    0  0.00000000000E+00  0.00000000000E+00 -0.60831754233E+03  0.62102642312E+03  0.12499434345E+03 0.  0.
    9000005    1    3    3    0    0  0.93500214865E+01 -0.38309307630E+02 -0.63311524688E+02  0.74594739165E+02  0.10000000000E+01 0.  0.
    9000005    1    3    3    0    0 -0.93500214865E+01  0.38309307630E+02 -0.54500601765E+03  0.54643168395E+03  0.10000000000E+01 0.  0.
<mgrwt>
<rscale>  0 0.12499434E+03</rscale>
<asrwt>0</asrwt>
<pdfrwt beam="2">  1        4 0.94564874E-01 0.12499434E+03</pdfrwt>
<pdfrwt beam="1">  1       -4 0.97760670E-03 0.12499434E+03</pdfrwt>
<totfact> 0.47572618E+03</totfact>
</mgrwt>
</event>
<event>
 5    1  0.3246948E-002  0.1250019E+03  0.7818608E-02  0.1235066E+00
         -4   -1    0    0    0  501 -0.00000000000E+00  0.00000000000E+00  0.44536509819E+03  0.44536690895E+03  0.12700000000E+01 0. -1.
          4   -1    0    0  501    0  0.00000000000E+00 -0.00000000000E+00 -0.87233466359E+01  0.88153092136E+01  0.12700000000E+01 0. -1.
         25    2    1    2    0    0  0.00000000000E+00  0.00000000000E+00  0.43664175156E+03  0.45418221816E+03  0.12500187236E+03 0.  0.
    9000005    1    3    3    0    0 -0.20573425495E+02  0.36048356515E+02  0.38806798750E+03  0.39028260628E+03  0.10000000000E+01 0.  0.
    9000005    1    3    3    0    0  0.20573425495E+02 -0.36048356515E+02  0.48573764056E+02  0.63899611881E+02  0.10000000000E+01 0.  0.
<mgrwt>
<rscale>  0 0.12500187E+03</rscale>
<asrwt>0</asrwt>
<pdfrwt beam="2">  1        4 0.13492669E-02 0.12500187E+03</pdfrwt>
<pdfrwt beam="1">  1       -4 0.68524910E-01 0.12500187E+03</pdfrwt>
<totfact> 0.59600741E+03</totfact>
</mgrwt>
</event>
<event>
 5    1  0.3246948E-002  0.1249941E+03  0.7818608E-02  0.1235078E+00
          4   -1    0    0  501    0  0.00000000000E+00  0.00000000000E+00  0.12561261247E+02  0.12625299367E+02  0.12700000000E+01 0.  1.
         -4   -1    0    0    0  501 -0.00000000000E+00 -0.00000000000E+00 -0.31009071706E+03  0.31009331774E+03  0.12700000000E+01 0.  1.
         25    2    1    2    0    0  0.00000000000E+00  0.00000000000E+00 -0.29752945582E+03  0.32271861711E+03  0.12499411487E+03 0.  0.
    9000005    1    3    3    0    0  0.18242789694E+02  0.18913905069E+02 -0.29514442164E+03  0.29631362575E+03  0.10000000000E+01 0.  0.
    9000005    1    3    3    0    0 -0.18242789694E+02 -0.18913905069E+02 -0.23850341791E+01  0.26404991362E+02  0.10000000000E+01 0.  0.
<mgrwt>
<rscale>  0 0.12499411E+03</rscale>
<asrwt>0</asrwt>
<pdfrwt beam="1">  1        4 0.19376280E-02 0.12499411E+03</pdfrwt>
<pdfrwt beam="2">  1       -4 0.47711384E-01 0.12499411E+03</pdfrwt>
<totfact> 0.72843448E+03</totfact>
</mgrwt>
</event>
<event>
 5    1  0.3246948E-002  0.1250022E+03  0.7818608E-02  0.1235066E+00
          4   -1    0    0  501    0  0.00000000000E+00  0.00000000000E+00  0.29765465181E+02  0.29792546341E+02  0.12700000000E+01 0. -1.
         -4   -1    0    0    0  501 -0.00000000000E+00 -0.00000000000E+00 -0.13114914978E+03  0.13115529874E+03  0.12700000000E+01 0. -1.
         25    2    1    2    0    0  0.00000000000E+00  0.00000000000E+00 -0.10138368460E+03  0.16094784508E+03  0.12500222932E+03 0.  0.
    9000005    1    3    3    0    0  0.23935628690E+02  0.56108630872E+02 -0.33212462629E+02  0.69463374904E+02  0.10000000000E+01 0.  0.
    9000005    1    3    3    0    0 -0.23935628690E+02 -0.56108630872E+02 -0.68171221972E+02  0.91484470181E+02  0.10000000000E+01 0.  0.
<mgrwt>
<rscale>  0 0.12500223E+03</rscale>
<asrwt>0</asrwt>
<pdfrwt beam="1">  1        4 0.45818586E-02 0.12500223E+03</pdfrwt>
<pdfrwt beam="2">  1       -4 0.20179348E-01 0.12500223E+03</pdfrwt>
<totfact> 0.97155491E+03</totfact>
</mgrwt>
</event>
<event>
 5    1  0.3246948E-002  0.1250012E+03  0.7818608E-02  0.1235067E+00
         -4   -1    0    0    0  501 -0.00000000000E+00  0.00000000000E+00  0.22365457817E+03  0.22365818392E+03  0.12700000000E+01 0.  1.
          4   -1    0    0  501    0  0.00000000000E+00 -0.00000000000E+00 -0.17439051161E+02  0.17485233925E+02  0.12700000000E+01 0.  1.
         25    2    1    2    0    0  0.00000000000E+00  0.00000000000E+00  0.20621552701E+03  0.24114341785E+03  0.12500121756E+03 0.  0.
    9000005    1    3    3    0    0  0.26362999687E+02 -0.36842943079E+02  0.18614808498E+03  0.19158423669E+03  0.10000000000E+01 0.  0.
    9000005    1    3    3    0    0 -0.26362999687E+02  0.36842943079E+02  0.20067442027E+02  0.49559181155E+02  0.10000000000E+01 0.  0.
<mgrwt>
<rscale>  0 0.12500122E+03</rscale>
<asrwt>0</asrwt>
<pdfrwt beam="2">  1        4 0.26867613E-02 0.12500122E+03</pdfrwt>
<pdfrwt beam="1">  1       -4 0.34412221E-01 0.12500122E+03</pdfrwt>
<totfact> 0.83625104E+03</totfact>
</mgrwt>
</event>
<event>
 5    1  0.3246948E-002  0.1250010E+03  0.7818608E-02  0.1235068E+00
         -4   -1    0    0    0  501 -0.00000000000E+00  0.00000000000E+00  0.59534594208E+02  0.59548138573E+02  0.12700000000E+01 0. -1.
          4   -1    0    0  501    0  0.00000000000E+00 -0.00000000000E+00 -0.65586982823E+02  0.65599277556E+02  0.12700000000E+01 0. -1.
         25    2    1    2    0    0  0.00000000000E+00  0.00000000000E+00 -0.60523886151E+01  0.12514741613E+03  0.12500097742E+03 0.  0.
    9000005    1    3    3    0    0  0.53836639197E+02  0.30633228463E+02 -0.11314339401E+02  0.62974539952E+02  0.10000000000E+01 0.  0.
    9000005    1    3    3    0    0 -0.53836639197E+02 -0.30633228463E+02  0.52619507855E+01  0.62172876177E+02  0.10000000000E+01 0.  0.
<mgrwt>
<rscale>  0 0.12500098E+03</rscale>
<asrwt>0</asrwt>
<pdfrwt beam="2">  1        4 0.10092293E-01 0.12500098E+03</pdfrwt>
<pdfrwt beam="1">  1       -4 0.91611559E-02 0.12500098E+03</pdfrwt>
<totfact> 0.10449431E+04</totfact>
</mgrwt>
</event>
<event>
 5    1  0.3246948E-002  0.1250003E+03  0.7818608E-02  0.1235069E+00
          4   -1    0    0  501    0  0.00000000000E+00  0.00000000000E+00  0.17770434028E+03  0.17770887838E+03  0.12700000000E+01 0. -1.
         -4   -1    0    0    0  501 -0.00000000000E+00 -0.00000000000E+00 -0.21958676984E+02  0.21995372125E+02  0.12700000000E+01 0. -1.
         25    2    1    2    0    0  0.00000000000E+00  0.00000000000E+00  0.15574566330E+03  0.19970425050E+03  0.12500030413E+03 0.  0.
    9000005    1    3    3    0    0 -0.22773419888E+02  0.49265046152E+02  0.12736316269E+03  0.13844872205E+03  0.10000000000E+01 0.  0.
    9000005    1    3    3    0    0  0.22773419888E+02 -0.49265046152E+02  0.28382500603E+02  0.61255528455E+02  0.10000000000E+01 0.  0.
<mgrwt>
<rscale>  0 0.12500030E+03</rscale>
<asrwt>0</asrwt>
<pdfrwt beam="1">  1        4 0.27342302E-01 0.12500030E+03</pdfrwt>
<pdfrwt beam="2">  1       -4 0.33814297E-02 0.12500030E+03</pdfrwt>
<totfact> 0.90184796E+03</totfact>
</mgrwt>
</event>
<event>
 5    1  0.3246948E-002  0.1250021E+03  0.7818608E-02  0.1235066E+00
          4   -1    0    0  501    0  0.00000000000E+00  0.00000000000E+00  0.44137650574E+02  0.44155918042E+02  0.12700000000E+01 0. -1.
         -4   -1    0    0    0  501 -0.00000000000E+00 -0.00000000000E+00 -0.88463355071E+02  0.88472470806E+02  0.12700000000E+01 0. -1.
         25    2    1    2    0    0  0.00000000000E+00  0.00000000000E+00 -0.44325704498E+02  0.13262838885E+03  0.12500208578E+03 0.  0.
    9000005    1    3    3    0    0 -0.23745241829E+01  0.15511667156E+02  0.42018396753E+02  0.44864193393E+02  0.10000000000E+01 0.  0.
    9000005    1    3    3    0    0  0.23745241829E+01 -0.15511667156E+02 -0.86344101251E+02  0.87764195455E+02  0.10000000000E+01 0.  0.
<mgrwt>
<rscale>  0 0.12500209E+03</rscale>
<asrwt>0</asrwt>
<pdfrwt beam="1">  1        4 0.67925142E-02 0.12500209E+03</pdfrwt>
<pdfrwt beam="2">  1       -4 0.13611853E-01 0.12500209E+03</pdfrwt>
<totfact> 0.10287820E+04</totfact>
</mgrwt>
</event>
<event>
 5    1  0.3246948E-002  0.1250028E+03  0.7818608E-02  0.1235065E+00
         -4   -1    0    0    0  501 -0.00000000000E+00  0.00000000000E+00  0.25126469640E+01  0.28153676076E+01  0.12700000000E+01 0. -1.
          4   -1    0    0  501    0  0.00000000000E+00 -0.00000000000E+00 -0.14660692278E+04  0.14660697779E+04  0.12700000000E+01 0. -1.
         25    2    1    2    0    0  0.00000000000E+00  0.00000000000E+00 -0.14635565809E+04  0.14688851455E+04  0.12500282123E+03 0.  0.
    9000005    1    3    3    0    0 -0.15751870777E+00 -0.26627150689E+02 -0.13961304300E+04  0.13963846918E+04  0.10000000000E+01 0.  0.
    9000005    1    3    3    0    0  0.15751870777E+00  0.26627150689E+02 -0.67426150882E+02  0.72500453713E+02  0.10000000000E+01 0.  0.
<mgrwt>
<rscale>  0 0.12500282E+03</rscale>
<asrwt>0</asrwt>
<pdfrwt beam="2">  1        4 0.22557180E+00 0.12500282E+03</pdfrwt>
<pdfrwt beam="1">  1       -4 0.40989076E-03 0.12500282E+03</pdfrwt>
<totfact> 0.18548165E+03</totfact>
</mgrwt>
</event>
<event>
 5    1  0.3246948E-002  0.1250014E+03  0.7818608E-02  0.1235067E+00
          4   -1    0    0  501    0  0.00000000000E+00  0.00000000000E+00  0.45065257933E+02  0.45083149541E+02  0.12700000000E+01 0.  1.
         -4   -1    0    0    0  501 -0.00000000000E+00 -0.00000000000E+00 -0.86642021071E+02  0.86651328410E+02  0.12700000000E+01 0.  1.
         25    2    1    2    0    0  0.00000000000E+00  0.00000000000E+00 -0.41576763138E+02  0.13173447795E+03  0.12500138178E+03 0.  0.
    9000005    1    3    3    0    0 -0.33962664374E+02  0.50147490117E+02 -0.37015940275E+02  0.70988824267E+02  0.10000000000E+01 0.  0.
    9000005    1    3    3    0    0  0.33962664374E+02 -0.50147490117E+02 -0.45608228628E+01  0.60745653684E+02  0.10000000000E+01 0.  0.
<mgrwt>
<rscale>  0 0.12500138E+03</rscale>
<asrwt>0</asrwt>
<pdfrwt beam="1">  1        4 0.69352088E-02 0.12500138E+03</pdfrwt>
<pdfrwt beam="2">  1       -4 0.13331634E-01 0.12500138E+03</pdfrwt>
<totfact> 0.10307048E+04</totfact>
</mgrwt>
</event>
<event>
 5    1  0.3246948E-002  0.1249915E+03  0.7818608E-02  0.1235083E+00
         -4   -1    0    0    0  501 -0.00000000000E+00  0.00000000000E+00  0.99475095081E+02  0.99483201805E+02  0.12700000000E+01 0. -1.
          4   -1    0    0  501    0  0.00000000000E+00 -0.00000000000E+00 -0.39243301202E+02  0.39263845828E+02  0.12700000000E+01 0. -1.
         25    2    1    2    0    0  0.00000000000E+00  0.00000000000E+00  0.60231793879E+02  0.13874704763E+03  0.12499149664E+03 0.  0.
    9000005    1    3    3    0    0 -0.23059779082E+02 -0.38935021838E+02 -0.17719860072E+02  0.48607435417E+02  0.10000000000E+01 0.  0.
    9000005    1    3    3    0    0  0.23059779082E+02  0.38935021838E+02  0.77951653951E+02  0.90139612216E+02  0.10000000000E+01 0.  0.
<mgrwt>
<rscale>  0 0.12499150E+03</rscale>
<asrwt>0</asrwt>
<pdfrwt beam="2">  1        4 0.60396350E-02 0.12499150E+03</pdfrwt>
<pdfrwt beam="1">  1       -4 0.15306064E-01 0.12499150E+03</pdfrwt>
<totfact> 0.10161567E+04</totfact>
</mgrwt>
</event>
<event>
 5    1  0.3246948E-002  0.1249990E+03  0.7818608E-02  0.1235071E+00
         -4   -1    0    0    0  501 -0.00000000000E+00  0.00000000000E+00  0.45731837705E+03  0.45732014048E+03  0.12700000000E+01 0.  1.
          4   -1    0    0  501    0  0.00000000000E+00 -0.00000000000E+00 -0.84925130411E+01  0.85869481047E+01  0.12700000000E+01 0.  1.
         25    2    1    2    0    0  0.00000000000E+00  0.00000000000E+00  0.44882586401E+03  0.46590708859E+03  0.12499903595E+03 0.  0.
    9000005    1    3    3    0    0 -0.48481488256E+02 -0.58197610551E+00  0.37136426778E+03  0.37451730638E+03  0.10000000000E+01 0.  0.
    9000005    1    3    3    0    0  0.48481488256E+02  0.58197610551E+00  0.77461596235E+02  0.91389782202E+02  0.10000000000E+01 0.  0.
<mgrwt>
<rscale>  0 0.12499904E+03</rscale>
<asrwt>0</asrwt>
<pdfrwt beam="2">  1        4 0.13139395E-02 0.12499904E+03</pdfrwt>
<pdfrwt beam="1">  1       -4 0.70364118E-01 0.12499904E+03</pdfrwt>
<totfact> 0.58611333E+03</totfact>
</mgrwt>
</event>
<event>
 5    1  0.3246948E-002  0.1249976E+03  0.7818608E-02  0.1235073E+00
          4   -1    0    0  501    0  0.00000000000E+00  0.00000000000E+00  0.24602717761E+03  0.24603045547E+03  0.12700000000E+01 0.  1.
         -4   -1    0    0    0  501 -0.00000000000E+00 -0.00000000000E+00 -0.15847919168E+02  0.15898724539E+02  0.12700000000E+01 0.  1.
         25    2    1    2    0    0  0.00000000000E+00  0.00000000000E+00  0.23017925844E+03  0.26192918001E+03  0.12499761729E+03 0.  0.
    9000005    1    3    3    0    0 -0.40172727336E+02  0.47373667558E+02  0.12945374120E+03  0.14358754650E+03  0.10000000000E+01 0.  0.
    9000005    1    3    3    0    0  0.40172727336E+02 -0.47373667558E+02  0.10072551724E+03  0.11834163351E+03  0.10000000000E+01 0.  0.
<mgrwt>
<rscale>  0 0.12499762E+03</rscale>
<asrwt>0</asrwt>
<pdfrwt beam="1">  1        4 0.37854492E-01 0.12499762E+03</pdfrwt>
<pdfrwt beam="2">  1       -4 0.24423019E-02 0.12499762E+03</pdfrwt>
<totfact> 0.80640366E+03</totfact>
</mgrwt>
</event>
<event>
 5    1  0.3246948E-002  0.1249834E+03  0.7818608E-02  0.1235095E+00
         -4   -1    0    0    0  501 -0.00000000000E+00  0.00000000000E+00  0.19100126790E+02  0.19142302458E+02  0.12700000000E+01 0.  1.
          4   -1    0    0  501    0  0.00000000000E+00 -0.00000000000E+00 -0.20419026594E+03  0.20419421541E+03  0.12700000000E+01 0.  1.
         25    2    1    2    0    0  0.00000000000E+00  0.00000000000E+00 -0.18509013915E+03  0.22333651787E+03  0.12498336130E+03 0.  0.
    9000005    1    3    3    0    0 -0.57640419194E+02 -0.16804240586E+02 -0.12346514114E+03  0.13729326824E+03  0.10000000000E+01 0.  0.
    9000005    1    3    3    0    0  0.57640419194E+02  0.16804240586E+02 -0.61624998013E+02  0.86043249629E+02  0.10000000000E+01 0.  0.
<mgrwt>
<rscale>  0 0.12498336E+03</rscale>
<asrwt>0</asrwt>
<pdfrwt beam="2">  1        4 0.31417434E-01 0.12498336E+03</pdfrwt>
<pdfrwt beam="1">  1       -4 0.29420293E-02 0.12498336E+03</pdfrwt>
<totfact> 0.86375216E+03</totfact>
</mgrwt>
</event>
<event>
 5    1  0.3246948E-002  0.1249961E+03  0.7818608E-02  0.1235075E+00
          4   -1    0    0  501    0  0.00000000000E+00  0.00000000000E+00  0.67780019787E+02  0.67791916792E+02  0.12700000000E+01 0.  1.
         -4   -1    0    0    0  501 -0.00000000000E+00 -0.00000000000E+00 -0.57603768280E+02  0.57617766531E+02  0.12700000000E+01 0.  1.
         25    2    1    2    0    0  0.00000000000E+00  0.00000000000E+00  0.10176251507E+02  0.12540968332E+03  0.12499613025E+03 0.  0.
    9000005    1    3    3    0    0 -0.31260334433E+02  0.49624018343E+02  0.26729293898E+02  0.64460894018E+02  0.10000000000E+01 0.  0.
    9000005    1    3    3    0    0  0.31260334433E+02 -0.49624018343E+02 -0.16553042391E+02  0.60948789305E+02  0.10000000000E+01 0.  0.
<mgrwt>
<rscale>  0 0.12499613E+03</rscale>
<asrwt>0</asrwt>
<pdfrwt beam="1">  1        4 0.10429687E-01 0.12499613E+03</pdfrwt>
<pdfrwt beam="2">  1       -4 0.88641101E-02 0.12499613E+03</pdfrwt>
<totfact> 0.10444864E+04</totfact>
</mgrwt>
</event>
<event>
 5    1  0.3246948E-002  0.1249978E+03  0.7818608E-02  0.1235073E+00
         -4   -1    0    0    0  501 -0.00000000000E+00  0.00000000000E+00  0.55166634858E+01  0.56609606973E+01  0.12700000000E+01 0.  1.
          4   -1    0    0  501    0  0.00000000000E+00 -0.00000000000E+00 -0.69877154089E+03  0.69877269499E+03  0.12700000000E+01 0.  1.
         25    2    1    2    0    0  0.00000000000E+00  0.00000000000E+00 -0.69325487740E+03  0.70443365568E+03  0.12499780084E+03 0.  0.
    9000005    1    3    3    0    0 -0.11139816476E+02 -0.28126472325E+02 -0.65478115314E+03  0.65548039823E+03  0.10000000000E+01 0.  0.
    9000005    1    3    3    0    0  0.11139816476E+02  0.28126472325E+02 -0.38473724266E+02  0.48953257455E+02  0.10000000000E+01 0.  0.
<mgrwt>
<rscale>  0 0.12499780E+03</rscale>
<asrwt>0</asrwt>
<pdfrwt beam="2">  1        4 0.10751443E+00 0.12499780E+03</pdfrwt>
<pdfrwt beam="1">  1       -4 0.85990658E-03 0.12499780E+03</pdfrwt>
<totfact> 0.42855763E+03</totfact>
</mgrwt>
</event>
<event>
 5    1  0.3246948E-002  0.1250010E+03  0.7818608E-02  0.1235068E+00
          4   -1    0    0  501    0  0.00000000000E+00  0.00000000000E+00  0.79542340506E+02  0.79552478485E+02  0.12700000000E+01 0.  1.
         -4   -1    0    0    0  501 -0.00000000000E+00 -0.00000000000E+00 -0.49088364296E+02  0.49104790084E+02  0.12700000000E+01 0.  1.
         25    2    1    2    0    0  0.00000000000E+00  0.00000000000E+00  0.30453976210E+02  0.12865726857E+03  0.12500099235E+03 0.  0.
    9000005    1    3    3    0    0 -0.48895187146E+02  0.37566680981E+02  0.47651708369E+01  0.61852257025E+02  0.10000000000E+01 0.  0.
    9000005    1    3    3    0    0  0.48895187146E+02 -0.37566680981E+02  0.25688805373E+02  0.66805011545E+02  0.10000000000E+01 0.  0.
<mgrwt>
<rscale>  0 0.12500099E+03</rscale>
<asrwt>0</asrwt>
<pdfrwt beam="1">  1        4 0.12239326E-01 0.12500099E+03</pdfrwt>
<pdfrwt beam="2">  1       -4 0.75540996E-02 0.12500099E+03</pdfrwt>
<totfact> 0.10373085E+04</totfact>
</mgrwt>
</event>
<event>
 5    1  0.3246948E-002  0.1249941E+03  0.7818608E-02  0.1235079E+00
          4   -1    0    0  501    0  0.00000000000E+00  0.00000000000E+00  0.10619888424E+02  0.10695556561E+02  0.12700000000E+01 0.  1.
         -4   -1    0    0    0  501 -0.00000000000E+00 -0.00000000000E+00 -0.36640689857E+03  0.36640909953E+03  0.12700000000E+01 0.  1.
         25    2    1    2    0    0  0.00000000000E+00  0.00000000000E+00 -0.35578701015E+03  0.37710465609E+03  0.12499410009E+03 0.  0.
    9000005    1    3    3    0    0  0.15756450527E+02  0.15967940528E+02 -0.19324402880E+01  0.22538304803E+02  0.10000000000E+01 0.  0.
    9000005    1    3    3    0    0 -0.15756450527E+02 -0.15967940528E+02 -0.35385456986E+03  0.35456635129E+03  0.10000000000E+01 0.  0.
<mgrwt>
<rscale>  0 0.12499410E+03</rscale>
<asrwt>0</asrwt>
<pdfrwt beam="1">  1        4 0.16398192E-02 0.12499410E+03</pdfrwt>
<pdfrwt beam="2">  1       -4 0.56376272E-01 0.12499410E+03</pdfrwt>
<totfact> 0.66850870E+03</totfact>
</mgrwt>
</event>
<event>
 5    1  0.3246948E-002  0.1250027E+03  0.7818608E-02  0.1235065E+00
          4   -1    0    0  501    0  0.00000000000E+00  0.00000000000E+00  0.31031862242E+03  0.31032122119E+03  0.12700000000E+01 0. -1.
         -4   -1    0    0    0  501 -0.00000000000E+00 -0.00000000000E+00 -0.12553712770E+02  0.12617789201E+02  0.12700000000E+01 0. -1.
         25    2    1    2    0    0  0.00000000000E+00  0.00000000000E+00  0.29776490965E+03  0.32293901039E+03  0.12500265203E+03 0.  0.
    9000005    1    3    3    0    0 -0.32659225954E+02  0.51673520204E+02  0.11533349693E+03  0.13053579297E+03  0.10000000000E+01 0.  0.
    9000005    1    3    3    0    0  0.32659225954E+02 -0.51673520204E+02  0.18243141272E+03  0.19240321743E+03  0.10000000000E+01 0.  0.
<mgrwt>
<rscale>  0 0.12500265E+03</rscale>
<asrwt>0</asrwt>
<pdfrwt beam="1">  1        4 0.47746452E-01 0.12500265E+03</pdfrwt>
<pdfrwt beam="2">  1       -4 0.19364694E-02 0.12500265E+03</pdfrwt>
<totfact> 0.72803648E+03</totfact>
</mgrwt>
</event>
<event>
 5    1  0.3246948E-002  0.1250029E+03  0.7818608E-02  0.1235065E+00
          4   -1    0    0  501    0  0.00000000000E+00  0.00000000000E+00  0.85169799514E+02  0.85179267720E+02  0.12700000000E+01 0.  1.
         -4   -1    0    0    0  501 -0.00000000000E+00 -0.00000000000E+00 -0.45845586948E+02  0.45863174145E+02  0.12700000000E+01 0.  1.
         25    2    1    2    0    0  0.00000000000E+00  0.00000000000E+00  0.39324212566E+02  0.13104244186E+03  0.12500291147E+03 0.  0.
    9000005    1    3    3    0    0 -0.60524118757E+02 -0.47017232864E+01  0.35216672942E+02  0.70188953592E+02  0.10000000000E+01 0.  0.
    9000005    1    3    3    0    0  0.60524118757E+02  0.47017232864E+01  0.41075396238E+01  0.60853488273E+02  0.10000000000E+01 0.  0.
<mgrwt>
<rscale>  0 0.12500291E+03</rscale>
<asrwt>0</asrwt>
<pdfrwt beam="1">  1        4 0.13105127E-01 0.12500291E+03</pdfrwt>
<pdfrwt beam="2">  1       -4 0.70552485E-02 0.12500291E+03</pdfrwt>
<totfact> 0.10321502E+04</totfact>
</mgrwt>
</event>
<event>
 5    1  0.3246948E-002  0.1249993E+03  0.7818608E-02  0.1235070E+00
          4   -1    0    0  501    0  0.00000000000E+00  0.00000000000E+00  0.53441371444E+02  0.53456459682E+02  0.12700000000E+01 0.  1.
         -4   -1    0    0    0  501 -0.00000000000E+00 -0.00000000000E+00 -0.73062333972E+02  0.73073370973E+02  0.12700000000E+01 0.  1.
         25    2    1    2    0    0  0.00000000000E+00  0.00000000000E+00 -0.19620962528E+02  0.12652983066E+03  0.12499926350E+03 0.  0.
    9000005    1    3    3    0    0 -0.37326106637E+02 -0.33380073235E+02 -0.47654575649E+02  0.69133393567E+02  0.10000000000E+01 0.  0.
    9000005    1    3    3    0    0  0.37326106637E+02  0.33380073235E+02  0.28033613121E+02  0.57396437089E+02  0.10000000000E+01 0.  0.
<mgrwt>
<rscale>  0 0.12499926E+03</rscale>
<asrwt>0</asrwt>
<pdfrwt beam="1">  1        4 0.82237591E-02 0.12499926E+03</pdfrwt>
<pdfrwt beam="2">  1       -4 0.11242369E-01 0.12499926E+03</pdfrwt>
<totfact> 0.10419551E+04</totfact>
</mgrwt>
</event>
<event>
 5    1  0.3246948E-002  0.1249999E+03  0.7818608E-02  0.1235069E+00
         -4   -1    0    0    0  501 -0.00000000000E+00  0.00000000000E+00  0.81316036370E+02  0.81325953244E+02  0.12700000000E+01 0. -1.
          4   -1    0    0  501    0  0.00000000000E+00 -0.00000000000E+00 -0.48016541393E+02  0.48033333710E+02  0.12700000000E+01 0. -1.
         25    2    1    2    0    0  0.00000000000E+00  0.00000000000E+00  0.33299494978E+02  0.12935928695E+03  0.12499987502E+03 0.  0.
    9000005    1    3    3    0    0 -0.81581122266E+01  0.44988769494E+02 -0.27435188658E+02  0.53331358059E+02  0.10000000000E+01 0.  0.
    9000005    1    3    3    0    0  0.81581122266E+01 -0.44988769494E+02  0.60734683636E+02  0.76027928895E+02  0.10000000000E+01 0.  0.
<mgrwt>
<rscale>  0 0.12499988E+03</rscale>
<asrwt>0</asrwt>
<pdfrwt beam="2">  1        4 0.73892148E-02 0.12499988E+03</pdfrwt>
<pdfrwt beam="1">  1       -4 0.12512214E-01 0.12499988E+03</pdfrwt>
<totfact> 0.10358262E+04</totfact>
</mgrwt>
</event>
<event>
 5    1  0.3246948E-002  0.1249975E+03  0.7818608E-02  0.1235073E+00
         -4   -1    0    0    0  501 -0.00000000000E+00  0.00000000000E+00  0.74206610608E+02  0.74217477442E+02  0.12700000000E+01 0. -1.
          4   -1    0    0  501    0  0.00000000000E+00 -0.00000000000E+00 -0.52615696911E+02  0.52631021854E+02  0.12700000000E+01 0. -1.
         25    2    1    2    0    0  0.00000000000E+00  0.00000000000E+00  0.21590913697E+02  0.12684849930E+03  0.12499749685E+03 0.  0.
    9000005    1    3    3    0    0  0.60801724490E+02  0.90291811198E+01  0.22219050084E+02  0.65368662212E+02  0.10000000000E+01 0.  0.
    9000005    1    3    3    0    0 -0.60801724490E+02 -0.90291811198E+01 -0.62813638762E+00  0.61479837085E+02  0.10000000000E+01 0.  0.
<mgrwt>
<rscale>  0 0.12499750E+03</rscale>
<asrwt>0</asrwt>
<pdfrwt beam="2">  1        4 0.80967374E-02 0.12499750E+03</pdfrwt>
<pdfrwt beam="1">  1       -4 0.11418416E-01 0.12499750E+03</pdfrwt>
<totfact> 0.10413027E+04</totfact>
</mgrwt>
</event>
<event>
 5    1  0.3246948E-002  0.1249996E+03  0.7818608E-02  0.1235070E+00
          4   -1    0    0  501    0  0.00000000000E+00  0.00000000000E+00  0.47850222745E+01  0.49506906758E+01  0.12700000000E+01 0. -1.
         -4   -1    0    0    0  501 -0.00000000000E+00 -0.00000000000E+00 -0.80228685274E+03  0.80228785792E+03  0.12700000000E+01 0. -1.
         25    2    1    2    0    0  0.00000000000E+00  0.00000000000E+00 -0.79750183046E+03  0.80723854860E+03  0.12499961903E+03 0.  0.
    9000005    1    3    3    0    0 -0.62446998291E+02  0.12171316653E+01 -0.41185459726E+03  0.41656490285E+03  0.10000000000E+01 0.  0.
    9000005    1    3    3    0    0  0.62446998291E+02 -0.12171316653E+01 -0.38564723320E+03  0.39067364575E+03  0.10000000000E+01 0.  0.
<mgrwt>
<rscale>  0 0.12499962E+03</rscale>
<asrwt>0</asrwt>
<pdfrwt beam="1">  1        4 0.74897895E-03 0.12499962E+03</pdfrwt>
<pdfrwt beam="2">  1       -4 0.12344146E+00 0.12499962E+03</pdfrwt>
<totfact> 0.37943958E+03</totfact>
</mgrwt>
</event>
<event>
 5    1  0.3246948E-002  0.1250099E+03  0.7818608E-02  0.1235054E+00
          4   -1    0    0  501    0  0.00000000000E+00  0.00000000000E+00  0.10268826938E+04  0.10268834792E+04  0.12700000000E+01 0. -1.
         -4   -1    0    0    0  501 -0.00000000000E+00 -0.00000000000E+00 -0.36978015730E+01  0.39098128438E+01  0.12700000000E+01 0. -1.
         25    2    1    2    0    0  0.00000000000E+00  0.00000000000E+00  0.10231848923E+04  0.10307932920E+04  0.12500994806E+03 0.  0.
    9000005    1    3    3    0    0  0.25384327102E+02 -0.44080517994E+02  0.21219148951E+03  0.21820560110E+03  0.10000000000E+01 0.  0.
    9000005    1    3    3    0    0 -0.25384327102E+02  0.44080517994E+02  0.81099340276E+03  0.81258769093E+03  0.10000000000E+01 0.  0.
<mgrwt>
<rscale>  0 0.12500995E+03</rscale>
<asrwt>0</asrwt>
<pdfrwt beam="1">  1        4 0.15799841E+00 0.12500995E+03</pdfrwt>
<pdfrwt beam="2">  1       -4 0.58526118E-03 0.12500995E+03</pdfrwt>
<totfact> 0.29595692E+03</totfact>
</mgrwt>
</event>
<event>
 5    1  0.3246948E-002  0.1250007E+03  0.7818608E-02  0.1235068E+00
          4   -1    0    0  501    0  0.00000000000E+00  0.00000000000E+00  0.12171181495E+02  0.12237261090E+02  0.12700000000E+01 0.  1.
         -4   -1    0    0    0  501 -0.00000000000E+00 -0.00000000000E+00 -0.32001011554E+03  0.32001263561E+03  0.12700000000E+01 0.  1.
         25    2    1    2    0    0  0.00000000000E+00  0.00000000000E+00 -0.30783893405E+03  0.33224989670E+03  0.12500073816E+03 0.  0.
    9000005    1    3    3    0    0  0.18184099183E+01  0.15585930365E+02 -0.31470150704E+03  0.31509405956E+03  0.10000000000E+01 0.  0.
    9000005    1    3    3    0    0 -0.18184099183E+01 -0.15585930365E+02  0.68625729870E+01  0.17155837140E+02  0.10000000000E+01 0.  0.
<mgrwt>
<rscale>  0 0.12500074E+03</rscale>
<asrwt>0</asrwt>
<pdfrwt beam="1">  1        4 0.18777666E-02 0.12500074E+03</pdfrwt>
<pdfrwt beam="2">  1       -4 0.49237596E-01 0.12500074E+03</pdfrwt>
<totfact> 0.71721296E+03</totfact>
</mgrwt>
</event>
<event>
 5    1  0.3246948E-002  0.1250047E+03  0.7818608E-02  0.1235062E+00
         -4   -1    0    0    0  501 -0.00000000000E+00  0.00000000000E+00  0.15793733513E+03  0.15794244118E+03  0.12700000000E+01 0. -1.
          4   -1    0    0  501    0  0.00000000000E+00 -0.00000000000E+00 -0.24712950911E+02  0.24745562081E+02  0.12700000000E+01 0. -1.
         25    2    1    2    0    0  0.00000000000E+00  0.00000000000E+00  0.13322438422E+03  0.18268800326E+03  0.12500467986E+03 0.  0.
    9000005    1    3    3    0    0 -0.20665758948E+02  0.54502088863E+02  0.99551301847E+02  0.11536469556E+03  0.10000000000E+01 0.  0.
    9000005    1    3    3    0    0  0.20665758948E+02 -0.54502088863E+02  0.33673082369E+02  0.67323307699E+02  0.10000000000E+01 0.  0.
<mgrwt>
<rscale>  0 0.12500468E+03</rscale>
<asrwt>0</asrwt>
<pdfrwt beam="2">  1        4 0.38048939E-02 0.12500468E+03</pdfrwt>
<pdfrwt beam="1">  1       -4 0.24300952E-01 0.12500468E+03</pdfrwt>
<totfact> 0.93125610E+03</totfact>
</mgrwt>
</event>
<event>
 5    1  0.3246948E-002  0.1250173E+03  0.7818608E-02  0.1235042E+00
          4   -1    0    0  501    0  0.00000000000E+00  0.00000000000E+00  0.77494544244E+02  0.77504950085E+02  0.12700000000E+01 0. -1.
         -4   -1    0    0    0  501 -0.00000000000E+00 -0.00000000000E+00 -0.50398908207E+02  0.50414907006E+02  0.12700000000E+01 0. -1.
         25    2    1    2    0    0  0.00000000000E+00  0.00000000000E+00  0.27095636038E+02  0.12791985709E+03  0.12501726419E+03 0.  0.
    9000005    1    3    3    0    0  0.30249908388E+02 -0.11891604113E+01  0.69496937738E+02  0.75810918838E+02  0.10000000000E+01 0.  0.
    9000005    1    3    3    0    0 -0.30249908388E+02  0.11891604113E+01 -0.42401301701E+02  0.52108938253E+02  0.10000000000E+01 0.  0.
<mgrwt>
<rscale>  0 0.12501726E+03</rscale>
<asrwt>0</asrwt>
<pdfrwt beam="1">  1        4 0.11924269E-01 0.12501726E+03</pdfrwt>
<pdfrwt beam="2">  1       -4 0.77557093E-02 0.12501726E+03</pdfrwt>
<totfact> 0.10385171E+04</totfact>
</mgrwt>
</event>
<event>
 5    1  0.3246948E-002  0.1249996E+03  0.7818608E-02  0.1235070E+00
          4   -1    0    0  501    0  0.00000000000E+00  0.00000000000E+00  0.40194025490E+02  0.40214084411E+02  0.12700000000E+01 0. -1.
         -4   -1    0    0    0  501 -0.00000000000E+00 -0.00000000000E+00 -0.97135801271E+02  0.97144103210E+02  0.12700000000E+01 0. -1.
         25    2    1    2    0    0  0.00000000000E+00  0.00000000000E+00 -0.56941775781E+02  0.13735818762E+03  0.12499962351E+03 0.  0.
    9000005    1    3    3    0    0 -0.16969026749E+02 -0.11378306415E+02 -0.93367560028E+02  0.95581980473E+02  0.10000000000E+01 0.  0.
    9000005    1    3    3    0    0  0.16969026749E+02  0.11378306415E+02  0.36425784247E+02  0.41776207148E+02  0.10000000000E+01 0.  0.
<mgrwt>
<rscale>  0 0.12499962E+03</rscale>
<asrwt>0</asrwt>
<pdfrwt beam="1">  1        4 0.61858779E-02 0.12499962E+03</pdfrwt>
<pdfrwt beam="2">  1       -4 0.14946151E-01 0.12499962E+03</pdfrwt>
<totfact> 0.10188688E+04</totfact>
</mgrwt>
</event>
<event>
 5    1  0.3246948E-002  0.1250000E+03  0.7818608E-02  0.1235069E+00
          4   -1    0    0  501    0  0.00000000000E+00  0.00000000000E+00  0.57792596509E+02  0.57806549034E+02  0.12700000000E+01 0.  1.
         -4   -1    0    0    0  501 -0.00000000000E+00 -0.00000000000E+00 -0.67562761623E+02  0.67574696878E+02  0.12700000000E+01 0.  1.
         25    2    1    2    0    0  0.00000000000E+00  0.00000000000E+00 -0.97701651138E+01  0.12538124591E+03  0.12500000280E+03 0.  0.
    9000005    1    3    3    0    0  0.22818994350E+02  0.13738012901E+02  0.51818837006E+02  0.58272046217E+02  0.10000000000E+01 0.  0.
    9000005    1    3    3    0    0 -0.22818994350E+02 -0.13738012901E+02 -0.61589002120E+02  0.67109199695E+02  0.10000000000E+01 0.  0.
<mgrwt>
<rscale>  0 0.12500000E+03</rscale>
<asrwt>0</asrwt>
<pdfrwt beam="1">  1        4 0.88931601E-02 0.12500000E+03</pdfrwt>
<pdfrwt beam="2">  1       -4 0.10396262E-01 0.12500000E+03</pdfrwt>
<totfact> 0.10444582E+04</totfact>
</mgrwt>
</event>
<event>
 5    1  0.3246948E-002  0.1249978E+03  0.7818608E-02  0.1235073E+00
         -4   -1    0    0    0  501 -0.00000000000E+00  0.00000000000E+00  0.33460179320E+02  0.33484272429E+02  0.12700000000E+01 0. -1.
          4   -1    0    0  501    0  0.00000000000E+00 -0.00000000000E+00 -0.11666948125E+03  0.11667639331E+03  0.12700000000E+01 0. -1.
         25    2    1    2    0    0  0.00000000000E+00  0.00000000000E+00 -0.83209301935E+02  0.15016066574E+03  0.12499775041E+03 0.  0.
    9000005    1    3    3    0    0 -0.31979495926E-01  0.12478342856E+02  0.31954183157E+02  0.34318797828E+02  0.10000000000E+01 0.  0.
    9000005    1    3    3    0    0  0.31979495926E-01 -0.12478342856E+02 -0.11516348509E+03  0.11584186791E+03  0.10000000000E+01 0.  0.
<mgrwt>
<rscale>  0 0.12499775E+03</rscale>
<asrwt>0</asrwt>
<pdfrwt beam="2">  1        4 0.17951536E-01 0.12499775E+03</pdfrwt>
<pdfrwt beam="1">  1       -4 0.51501049E-02 0.12499775E+03</pdfrwt>
<totfact> 0.99276707E+03</totfact>
</mgrwt>
</event>
<event>
 5    1  0.3246948E-002  0.1249936E+03  0.7818608E-02  0.1235079E+00
          4   -1    0    0  501    0  0.00000000000E+00  0.00000000000E+00  0.47381894353E+03  0.47382064555E+03  0.12700000000E+01 0.  1.
         -4   -1    0    0    0  501 -0.00000000000E+00 -0.00000000000E+00 -0.81927007035E+01  0.82905515388E+01  0.12700000000E+01 0.  1.
         25    2    1    2    0    0  0.00000000000E+00  0.00000000000E+00  0.46562624282E+03  0.48211119708E+03  0.12499363323E+03 0.  0.
    9000005    1    3    3    0    0 -0.23565590094E+02 -0.41762442719E+02  0.38735734313E+03  0.39031544927E+03  0.10000000000E+01 0.  0.
    9000005    1    3    3    0    0  0.23565590094E+02  0.41762442719E+02  0.78268899690E+02  0.91795747816E+02  0.10000000000E+01 0.  0.
<mgrwt>
<rscale>  0 0.12499363E+03</rscale>
<asrwt>0</asrwt>
<pdfrwt beam="1">  1        4 0.72902868E-01 0.12499363E+03</pdfrwt>
<pdfrwt beam="2">  1       -4 0.12680736E-02 0.12499363E+03</pdfrwt>
<totfact> 0.57287560E+03</totfact>
</mgrwt>
</event>
<event>
 5    1  0.3246948E-002  0.1250029E+03  0.7818608E-02  0.1235065E+00
         -4   -1    0    0    0  501 -0.00000000000E+00  0.00000000000E+00  0.98351418778E+03  0.98351500775E+03  0.12700000000E+01 0. -1.
          4   -1    0    0  501    0  0.00000000000E+00 -0.00000000000E+00 -0.38695469625E+01  0.40726273700E+01  0.12700000000E+01 0. -1.
         25    2    1    2    0    0  0.00000000000E+00  0.00000000000E+00  0.97964464082E+03  0.98758763512E+03  0.12500285899E+03 0.  0.
    9000005    1    3    3    0    0  0.48508149187E+02  0.10712005598E+02  0.19026431108E+03  0.19664510081E+03  0.10000000000E+01 0.  0.
    9000005    1    3    3    0    0 -0.48508149187E+02 -0.10712005598E+02  0.78938032974E+03  0.79094253431E+03  0.10000000000E+01 0.  0.
<mgrwt>
<rscale>  0 0.12500286E+03</rscale>
<asrwt>0</asrwt>
<pdfrwt beam="2">  1        4 0.61099957E-03 0.12500286E+03</pdfrwt>
<pdfrwt beam="1">  1       -4 0.15132556E+00 0.12500286E+03</pdfrwt>
<totfact> 0.31015958E+03</totfact>
</mgrwt>
</event>
<event>
 5    1  0.3246948E-002  0.1250014E+03  0.7818608E-02  0.1235067E+00
          4   -1    0    0  501    0  0.00000000000E+00  0.00000000000E+00  0.38612498688E+01  0.40647448320E+01  0.12700000000E+01 0. -1.
         -4   -1    0    0    0  501 -0.00000000000E+00 -0.00000000000E+00 -0.98549881516E+03  0.98549963348E+03  0.12700000000E+01 0. -1.
         25    2    1    2    0    0  0.00000000000E+00  0.00000000000E+00 -0.98163756529E+03  0.98956437831E+03  0.12500139689E+03 0.  0.
    9000005    1    3    3    0    0 -0.15233157643E+02  0.40132485473E+02 -0.85035633316E+03  0.85143969770E+03  0.10000000000E+01 0.  0.
    9000005    1    3    3    0    0  0.15233157643E+02 -0.40132485473E+02 -0.13128123214E+03  0.13812468061E+03  0.10000000000E+01 0.  0.
<mgrwt>
<rscale>  0 0.12500140E+03</rscale>
<asrwt>0</asrwt>
<pdfrwt beam="1">  1        4 0.60975563E-03 0.12500140E+03</pdfrwt>
<pdfrwt beam="2">  1       -4 0.15163072E+00 0.12500140E+03</pdfrwt>
<totfact> 0.30950668E+03</totfact>
</mgrwt>
</event>
<event>
 5    1  0.3246948E-002  0.1249986E+03  0.7818608E-02  0.1235071E+00
         -4   -1    0    0    0  501 -0.00000000000E+00  0.00000000000E+00  0.53439518394E+02  0.53454607156E+02  0.12700000000E+01 0. -1.
          4   -1    0    0  501    0  0.00000000000E+00 -0.00000000000E+00 -0.73064097123E+02  0.73075133859E+02  0.12700000000E+01 0. -1.
         25    2    1    2    0    0  0.00000000000E+00  0.00000000000E+00 -0.19624578729E+02  0.12652974101E+03  0.12499860508E+03 0.  0.
    9000005    1    3    3    0    0 -0.22716501187E+02  0.50611604635E+02 -0.38932517478E+02  0.67781375518E+02  0.10000000000E+01 0.  0.
    9000005    1    3    3    0    0  0.22716501187E+02 -0.50611604635E+02  0.19307938749E+02  0.58748365497E+02  0.10000000000E+01 0.  0.
<mgrwt>
<rscale>  0 0.12499861E+03</rscale>
<asrwt>0</asrwt>
<pdfrwt beam="2">  1        4 0.11242640E-01 0.12499861E+03</pdfrwt>
<pdfrwt beam="1">  1       -4 0.82234740E-02 0.12499861E+03</pdfrwt>
<totfact> 0.10419708E+04</totfact>
</mgrwt>
</event>
<event>
 5    1  0.3246948E-002  0.1250012E+03  0.7818608E-02  0.1235067E+00
         -4   -1    0    0    0  501 -0.00000000000E+00  0.00000000000E+00  0.23988561022E+02  0.24022155605E+02  0.12700000000E+01 0.  1.
          4   -1    0    0  501    0  0.00000000000E+00 -0.00000000000E+00 -0.16269116379E+03  0.16269612065E+03  0.12700000000E+01 0.  1.
         25    2    1    2    0    0  0.00000000000E+00  0.00000000000E+00 -0.13870260277E+03  0.18671827626E+03  0.12500121069E+03 0.  0.
    9000005    1    3    3    0    0  0.51238090473E+02 -0.17348020424E+02 -0.22613250527E+02  0.58640044572E+02  0.10000000000E+01 0.  0.
    9000005    1    3    3    0    0 -0.51238090473E+02  0.17348020424E+02 -0.11608935224E+03  0.12807823168E+03  0.10000000000E+01 0.  0.
<mgrwt>
<rscale>  0 0.12500121E+03</rscale>
<asrwt>0</asrwt>
<pdfrwt beam="2">  1        4 0.25032375E-01 0.12500121E+03</pdfrwt>
<pdfrwt beam="1">  1       -4 0.36935134E-02 0.12500121E+03</pdfrwt>
<totfact> 0.92418973E+03</totfact>
</mgrwt>
</event>
<event>
 5    1  0.3246948E-002  0.1250007E+03  0.7818608E-02  0.1235068E+00
          4   -1    0    0  501    0  0.00000000000E+00  0.00000000000E+00  0.11393677720E+02  0.11464239704E+02  0.12700000000E+01 0.  1.
         -4   -1    0    0    0  501 -0.00000000000E+00 -0.00000000000E+00 -0.34171734963E+03  0.34171970961E+03  0.12700000000E+01 0.  1.
         25    2    1    2    0    0  0.00000000000E+00  0.00000000000E+00 -0.33032367191E+03  0.35318394931E+03  0.12500069532E+03 0.  0.
    9000005    1    3    3    0    0  0.44893587116E+02 -0.19667936963E+02 -0.27470179598E+03  0.27904182235E+03  0.10000000000E+01 0.  0.
    9000005    1    3    3    0    0 -0.44893587116E+02  0.19667936963E+02 -0.55621875928E+02  0.74142126961E+02  0.10000000000E+01 0.  0.
<mgrwt>
<rscale>  0 0.12500070E+03</rscale>
<asrwt>0</asrwt>
<pdfrwt beam="1">  1        4 0.17584831E-02 0.12500070E+03</pdfrwt>
<pdfrwt beam="2">  1       -4 0.52577502E-01 0.12500070E+03</pdfrwt>
<totfact> 0.69374633E+03</totfact>
</mgrwt>
</event>
<event>
 5    1  0.3246948E-002  0.1249990E+03  0.7818608E-02  0.1235071E+00
         -4   -1    0    0    0  501 -0.00000000000E+00  0.00000000000E+00  0.37318344780E+02  0.37339948542E+02  0.12700000000E+01 0.  1.
          4   -1    0    0  501    0  0.00000000000E+00 -0.00000000000E+00 -0.10461637876E+03  0.10462408712E+03  0.12700000000E+01 0.  1.
         25    2    1    2    0    0  0.00000000000E+00  0.00000000000E+00 -0.67298033980E+02  0.14196403566E+03  0.12499904817E+03 0.  0.
    9000005    1    3    3    0    0  0.17569016118E+02 -0.51247921648E+02  0.17259228655E+01  0.54212531857E+02  0.10000000000E+01 0.  0.
    9000005    1    3    3    0    0 -0.17569016118E+02  0.51247921648E+02 -0.69023956846E+02  0.87751503800E+02  0.10000000000E+01 0.  0.
<mgrwt>
<rscale>  0 0.12499905E+03</rscale>
<asrwt>0</asrwt>
<pdfrwt beam="2">  1        4 0.16097082E-01 0.12499905E+03</pdfrwt>
<pdfrwt beam="1">  1       -4 0.57435386E-02 0.12499905E+03</pdfrwt>
<totfact> 0.10093258E+04</totfact>
</mgrwt>
</event>
<event>
 5    1  0.3246948E-002  0.1250022E+03  0.7818608E-02  0.1235066E+00
          4   -1    0    0  501    0  0.00000000000E+00  0.00000000000E+00  0.14874892346E+03  0.14875434492E+03  0.12700000000E+01 0. -1.
         -4   -1    0    0    0  501 -0.00000000000E+00 -0.00000000000E+00 -0.26240355854E+02  0.26271071073E+02  0.12700000000E+01 0. -1.
         25    2    1    2    0    0  0.00000000000E+00  0.00000000000E+00  0.12250856761E+03  0.17502541599E+03  0.12500218840E+03 0.  0.
    9000005    1    3    3    0    0 -0.20773246455E+02  0.43175680756E+02  0.11743129353E+03  0.12683365436E+03  0.10000000000E+01 0.  0.
    9000005    1    3    3    0    0  0.20773246455E+02 -0.43175680756E+02  0.50772740758E+01  0.48191761631E+02  0.10000000000E+01 0.  0.
<mgrwt>
<rscale>  0 0.12500219E+03</rscale>
<asrwt>0</asrwt>
<pdfrwt beam="1">  1        4 0.22887230E-01 0.12500219E+03</pdfrwt>
<pdfrwt beam="2">  1       -4 0.40397575E-02 0.12500219E+03</pdfrwt>
<totfact> 0.94515545E+03</totfact>
</mgrwt>
</event>
<event>
 5    1  0.3246948E-002  0.1249975E+03  0.7818608E-02  0.1235073E+00
         -4   -1    0    0    0  501 -0.00000000000E+00  0.00000000000E+00  0.80824214930E+02  0.80834192141E+02  0.12700000000E+01 0. -1.
          4   -1    0    0  501    0  0.00000000000E+00 -0.00000000000E+00 -0.48306981418E+02  0.48323672809E+02  0.12700000000E+01 0. -1.
         25    2    1    2    0    0  0.00000000000E+00  0.00000000000E+00  0.32517233512E+02  0.12915786495E+03  0.12499753439E+03 0.  0.
    9000005    1    3    3    0    0 -0.30557174533E+02 -0.48628904044E+02 -0.91900554853E+01  0.58171886197E+02  0.10000000000E+01 0.  0.
    9000005    1    3    3    0    0  0.30557174533E+02  0.48628904044E+02  0.41707288997E+02  0.70985978752E+02  0.10000000000E+01 0.  0.
<mgrwt>
<rscale>  0 0.12499753E+03</rscale>
<asrwt>0</asrwt>
<pdfrwt beam="2">  1        4 0.74338948E-02 0.12499753E+03</pdfrwt>
<pdfrwt beam="1">  1       -4 0.12436546E-01 0.12499753E+03</pdfrwt>
<totfact> 0.10363133E+04</totfact>
</mgrwt>
</event>
<event>
 5    1  0.3246948E-002  0.1249972E+03  0.7818608E-02  0.1235074E+00
          4   -1    0    0  501    0  0.00000000000E+00  0.00000000000E+00  0.14398560228E+03  0.14399120308E+03  0.12700000000E+01 0. -1.
         -4   -1    0    0    0  501 -0.00000000000E+00 -0.00000000000E+00 -0.27107242829E+02  0.27136976873E+02  0.12700000000E+01 0. -1.
         25    2    1    2    0    0  0.00000000000E+00  0.00000000000E+00  0.11687835945E+03  0.17112817995E+03  0.12499721223E+03 0.  0.
    9000005    1    3    3    0    0 -0.23720117866E+02  0.13342084346E+02 -0.18574575976E+02  0.32964679264E+02  0.10000000000E+01 0.  0.
    9000005    1    3    3    0    0  0.23720117866E+02 -0.13342084346E+02  0.13545293543E+03  0.13816350069E+03  0.10000000000E+01 0.  0.
<mgrwt>
<rscale>  0 0.12499721E+03</rscale>
<asrwt>0</asrwt>
<pdfrwt beam="1">  1        4 0.22154349E-01 0.12499721E+03</pdfrwt>
<pdfrwt beam="2">  1       -4 0.41730631E-02 0.12499721E+03</pdfrwt>
<totfact> 0.95244735E+03</totfact>
</mgrwt>
</event>
<event>
 5    1  0.3246948E-002  0.1249977E+03  0.7818608E-02  0.1235073E+00
         -4   -1    0    0    0  501 -0.00000000000E+00  0.00000000000E+00  0.45427878468E+01  0.47169716367E+01  0.12700000000E+01 0. -1.
          4   -1    0    0  501    0  0.00000000000E+00 -0.00000000000E+00 -0.84349878423E+03  0.84349974031E+03  0.12700000000E+01 0. -1.
         25    2    1    2    0    0  0.00000000000E+00  0.00000000000E+00 -0.83895599639E+03  0.84821671195E+03  0.12499770619E+03 0.  0.
    9000005    1    3    3    0    0  0.19777789234E+02  0.59278444880E+02 -0.41874512974E+03  0.42338348888E+03  0.10000000000E+01 0.  0.
    9000005    1    3    3    0    0 -0.19777789234E+02 -0.59278444880E+02 -0.42021086665E+03  0.42483322307E+03  0.10000000000E+01 0.  0.
<mgrwt>
<rscale>  0 0.12499771E+03</rscale>
<asrwt>0</asrwt>
<pdfrwt beam="2">  1        4 0.12978239E+00 0.12499771E+03</pdfrwt>
<pdfrwt beam="1">  1       -4 0.71236341E-03 0.12499771E+03</pdfrwt>
<totfact> 0.36202252E+03</totfact>
</mgrwt>
</event>
<event>
 5    1  0.3246948E-002  0.1250011E+03  0.7818608E-02  0.1235068E+00
          4   -1    0    0  501    0  0.00000000000E+00  0.00000000000E+00  0.65516353124E+02  0.65528661109E+02  0.12700000000E+01 0. -1.
         -4   -1    0    0    0  501 -0.00000000000E+00 -0.00000000000E+00 -0.59598860914E+02  0.59612390678E+02  0.12700000000E+01 0. -1.
         25    2    1    2    0    0  0.00000000000E+00  0.00000000000E+00  0.59174922096E+01  0.12514105179E+03  0.12500106451E+03 0.  0.
    9000005    1    3    3    0    0 -0.41319643039E+02 -0.45754259297E+02 -0.72777420765E+01  0.62086477388E+02  0.10000000000E+01 0.  0.
    9000005    1    3    3    0    0  0.41319643039E+02  0.45754259297E+02  0.13195234286E+02  0.63054574398E+02  0.10000000000E+01 0.  0.
<mgrwt>
<rscale>  0 0.12500106E+03</rscale>
<asrwt>0</asrwt>
<pdfrwt beam="1">  1        4 0.10081426E-01 0.12500106E+03</pdfrwt>
<pdfrwt beam="2">  1       -4 0.91710431E-02 0.12500106E+03</pdfrwt>
<totfact> 0.10449548E+04</totfact>
</mgrwt>
</event>
<event>
 5    1  0.3246948E-002  0.1249989E+03  0.7818608E-02  0.1235071E+00
         -4   -1    0    0    0  501 -0.00000000000E+00  0.00000000000E+00  0.22855304294E+03  0.22855657141E+03  0.12700000000E+01 0. -1.
          4   -1    0    0  501    0  0.00000000000E+00 -0.00000000000E+00 -0.17063655157E+02  0.17110851157E+02  0.12700000000E+01 0. -1.
         25    2    1    2    0    0  0.00000000000E+00  0.00000000000E+00  0.21148938778E+03  0.24566742257E+03  0.12499888547E+03 0.  0.
    9000005    1    3    3    0    0 -0.52743158745E+02 -0.32594083046E+02  0.90399132565E+02  0.10962307336E+03  0.10000000000E+01 0.  0.
    9000005    1    3    3    0    0  0.52743158745E+02  0.32594083046E+02  0.12109025521E+03  0.13604434921E+03  0.10000000000E+01 0.  0.
<mgrwt>
<rscale>  0 0.12499889E+03</rscale>
<asrwt>0</asrwt>
<pdfrwt beam="2">  1        4 0.26290798E-02 0.12499889E+03</pdfrwt>
<pdfrwt beam="1">  1       -4 0.35165906E-01 0.12499889E+03</pdfrwt>
<totfact> 0.82962542E+03</totfact>
</mgrwt>
</event>
<event>
 5    1  0.3246948E-002  0.1249987E+03  0.7818608E-02  0.1235071E+00
         -4   -1    0    0    0  501 -0.00000000000E+00  0.00000000000E+00  0.17819638125E+03  0.17820090681E+03  0.12700000000E+01 0.  1.
          4   -1    0    0  501    0  0.00000000000E+00 -0.00000000000E+00 -0.21897385904E+02  0.21934183583E+02  0.12700000000E+01 0.  1.
         25    2    1    2    0    0  0.00000000000E+00  0.00000000000E+00  0.15629899534E+03  0.20013509040E+03  0.12499871385E+03 0.  0.
    9000005    1    3    3    0    0  0.11320888057E+02  0.42623127402E+02  0.14903808503E+03  0.15542922597E+03  0.10000000000E+01 0.  0.
    9000005    1    3    3    0    0 -0.11320888057E+02 -0.42623127402E+02  0.72609103169E+01  0.44705864432E+02  0.10000000000E+01 0.  0.
<mgrwt>
<rscale>  0 0.12499871E+03</rscale>
<asrwt>0</asrwt>
<pdfrwt beam="2">  1        4 0.33720074E-02 0.12499871E+03</pdfrwt>
<pdfrwt beam="1">  1       -4 0.27418006E-01 0.12499871E+03</pdfrwt>
<totfact> 0.90115321E+03</totfact>
</mgrwt>
</event>
<event>
 5    1  0.3246948E-002  0.1250055E+03  0.7818608E-02  0.1235061E+00
         -4   -1    0    0    0  501 -0.00000000000E+00  0.00000000000E+00  0.11657004380E+03  0.11657696176E+03  0.12700000000E+01 0.  1.
          4   -1    0    0  501    0  0.00000000000E+00 -0.00000000000E+00 -0.33492872718E+02  0.33516942326E+02  0.12700000000E+01 0.  1.
         25    2    1    2    0    0  0.00000000000E+00  0.00000000000E+00  0.83077171087E+02  0.15009390408E+03  0.12500545463E+03 0.  0.
    9000005    1    3    3    0    0 -0.12481617786E+02  0.26160126964E+02  0.10801706228E+03  0.11184287536E+03  0.10000000000E+01 0.  0.
    9000005    1    3    3    0    0  0.12481617786E+02 -0.26160126964E+02 -0.24939891196E+02  0.38251028721E+02  0.10000000000E+01 0.  0.
<mgrwt>
<rscale>  0 0.12500545E+03</rscale>
<asrwt>0</asrwt>
<pdfrwt beam="2">  1        4 0.51551334E-02 0.12500545E+03</pdfrwt>
<pdfrwt beam="1">  1       -4 0.17936236E-01 0.12500545E+03</pdfrwt>
<totfact> 0.99272796E+03</totfact>
</mgrwt>
</event>
<event>
 5    1  0.3246948E-002  0.1250051E+03  0.7818608E-02  0.1235061E+00
          4   -1    0    0  501    0  0.00000000000E+00  0.00000000000E+00  0.35299497684E+01  0.37514590985E+01  0.12700000000E+01 0.  1.
         -4   -1    0    0    0  501 -0.00000000000E+00 -0.00000000000E+00 -0.10728039764E+04  0.10728047281E+04  0.12700000000E+01 0.  1.
         25    2    1    2    0    0  0.00000000000E+00  0.00000000000E+00 -0.10692740266E+04  0.10765561872E+04  0.12500512075E+03 0.  0.
    9000005    1    3    3    0    0 -0.48639931782E+02 -0.22866005813E+02 -0.80926337743E+03  0.81104679966E+03  0.10000000000E+01 0.  0.
    9000005    1    3    3    0    0  0.48639931782E+02  0.22866005813E+02 -0.26001064922E+03  0.26550938758E+03  0.10000000000E+01 0.  0.
<mgrwt>
<rscale>  0 0.12500512E+03</rscale>
<asrwt>0</asrwt>
<pdfrwt beam="1">  1        4 0.56016705E-03 0.12500512E+03</pdfrwt>
<pdfrwt beam="2">  1       -4 0.16506361E+00 0.12500512E+03</pdfrwt>
<totfact> 0.28176757E+03</totfact>
</mgrwt>
</event>
<event>
 5    1  0.3246948E-002  0.1250056E+03  0.7818608E-02  0.1235060E+00
          4   -1    0    0  501    0  0.00000000000E+00  0.00000000000E+00  0.66934268153E+02  0.66946315457E+02  0.12700000000E+01 0.  1.
         -4   -1    0    0    0  501 -0.00000000000E+00 -0.00000000000E+00 -0.58340553677E+02  0.58354375186E+02  0.12700000000E+01 0.  1.
         25    2    1    2    0    0  0.00000000000E+00  0.00000000000E+00  0.85937144760E+01  0.12530069064E+03  0.12500564446E+03 0.  0.
    9000005    1    3    3    0    0  0.21289348340E+02  0.57358751292E+02  0.17068204825E+02  0.63526264792E+02  0.10000000000E+01 0.  0.
    9000005    1    3    3    0    0 -0.21289348340E+02 -0.57358751292E+02 -0.84744903489E+01  0.61774425851E+02  0.10000000000E+01 0.  0.
<mgrwt>
<rscale>  0 0.12500564E+03</rscale>
<asrwt>0</asrwt>
<pdfrwt beam="1">  1        4 0.10299570E-01 0.12500564E+03</pdfrwt>
<pdfrwt beam="2">  1       -4 0.89774597E-02 0.12500564E+03</pdfrwt>
<totfact> 0.10445003E+04</totfact>
</mgrwt>
</event>
<event>
 5    1  0.3246948E-002  0.1250013E+03  0.7818608E-02  0.1235067E+00
          4   -1    0    0  501    0  0.00000000000E+00  0.00000000000E+00  0.12498112331E+03  0.12498757571E+03  0.12700000000E+01 0.  1.
         -4   -1    0    0    0  501 -0.00000000000E+00 -0.00000000000E+00 -0.31235220314E+02  0.31261028264E+02  0.12700000000E+01 0.  1.
         25    2    1    2    0    0  0.00000000000E+00  0.00000000000E+00  0.93745902992E+02  0.15624860398E+03  0.12500132766E+03 0.  0.
    9000005    1    3    3    0    0  0.57849156442E+02  0.22448578880E+02  0.56132004380E+02  0.83679540573E+02  0.10000000000E+01 0.  0.
    9000005    1    3    3    0    0 -0.57849156442E+02 -0.22448578880E+02  0.37613898611E+02  0.72569063405E+02  0.10000000000E+01 0.  0.
<mgrwt>
<rscale>  0 0.12500133E+03</rscale>
<asrwt>0</asrwt>
<pdfrwt beam="1">  1        4 0.19230347E-01 0.12500133E+03</pdfrwt>
<pdfrwt beam="2">  1       -4 0.48079001E-02 0.12500133E+03</pdfrwt>
<totfact> 0.98068010E+03</totfact>
</mgrwt>
</event>
<event>
 5    1  0.3246948E-002  0.1249991E+03  0.7818608E-02  0.1235071E+00
         -4   -1    0    0    0  501 -0.00000000000E+00  0.00000000000E+00  0.27122605580E+02  0.27152322801E+02  0.12700000000E+01 0. -1.
          4   -1    0    0  501    0  0.00000000000E+00 -0.00000000000E+00 -0.14390842534E+03  0.14391402914E+03  0.12700000000E+01 0. -1.
         25    2    1    2    0    0  0.00000000000E+00  0.00000000000E+00 -0.11678581976E+03  0.17106635194E+03  0.12499907628E+03 0.  0.
    9000005    1    3    3    0    0 -0.16028174490E+02  0.29929627444E+02 -0.13019251063E+03  0.13455026868E+03  0.10000000000E+01 0.  0.
    9000005    1    3    3    0    0  0.16028174490E+02 -0.29929627444E+02  0.13406690877E+02  0.36516083261E+02  0.10000000000E+01 0.  0.
<mgrwt>
<rscale>  0 0.12499908E+03</rscale>
<asrwt>0</asrwt>
<pdfrwt beam="2">  1        4 0.22142474E-01 0.12499908E+03</pdfrwt>
<pdfrwt beam="1">  1       -4 0.41754256E-02 0.12499908E+03</pdfrwt>
<totfact> 0.95252230E+03</totfact>
</mgrwt>
</event>
<event>
 5    1  0.3246948E-002  0.1250056E+03  0.7818608E-02  0.1235061E+00
         -4   -1    0    0    0  501 -0.00000000000E+00  0.00000000000E+00  0.19057446603E+04  0.19057450834E+04  0.12700000000E+01 0. -1.
          4   -1    0    0  501    0  0.00000000000E+00 -0.00000000000E+00 -0.18527389568E+01  0.22462283148E+01  0.12700000000E+01 0. -1.
         25    2    1    2    0    0  0.00000000000E+00  0.00000000000E+00  0.19038919213E+04  0.19079913117E+04  0.12500559060E+03 0.  0.
    9000005    1    3    3    0    0  0.10211081209E+02  0.20511424525E+02  0.18393978014E+04  0.18395407733E+04  0.10000000000E+01 0.  0.
    9000005    1    3    3    0    0 -0.10211081209E+02 -0.20511424525E+02  0.64494119897E+02  0.68450538470E+02  0.10000000000E+01 0.  0.
<mgrwt>
<rscale>  0 0.12500559E+03</rscale>
<asrwt>0</asrwt>
<pdfrwt beam="2">  1        4 0.31533909E-03 0.12500559E+03</pdfrwt>
<pdfrwt beam="1">  1       -4 0.29322052E+00 0.12500559E+03</pdfrwt>
<totfact> 0.11109095E+03</totfact>
</mgrwt>
</event>
<event>
 5    1  0.3246948E-002  0.1249471E+03  0.7818608E-02  0.1235152E+00
          4   -1    0    0  501    0  0.00000000000E+00  0.00000000000E+00  0.48411977947E+02  0.48428633150E+02  0.12700000000E+01 0.  1.
         -4   -1    0    0    0  501 -0.00000000000E+00 -0.00000000000E+00 -0.80583831960E+02  0.80593838929E+02  0.12700000000E+01 0.  1.
         25    2    1    2    0    0  0.00000000000E+00  0.00000000000E+00 -0.32171854013E+02  0.12902247208E+03  0.12494706924E+03 0.  0.
    9000005    1    3    3    0    0 -0.94758352645E+00  0.59086992829E+02 -0.36989011076E+02  0.69723436350E+02  0.10000000000E+01 0.  0.
    9000005    1    3    3    0    0  0.94758352645E+00 -0.59086992829E+02  0.48171570632E+01  0.59299035728E+02  0.10000000000E+01 0.  0.
<mgrwt>
<rscale>  0 0.12494707E+03</rscale>
<asrwt>0</asrwt>
<pdfrwt beam="1">  1        4 0.74500476E-02 0.12494707E+03</pdfrwt>
<pdfrwt beam="2">  1       -4 0.12399564E-01 0.12494707E+03</pdfrwt>
<totfact> 0.10377859E+04</totfact>
</mgrwt>
</event>
<event>
 5    1  0.3246948E-002  0.1250051E+03  0.7818608E-02  0.1235061E+00
          4   -1    0    0  501    0  0.00000000000E+00  0.00000000000E+00  0.28234908314E+03  0.28235193934E+03  0.12700000000E+01 0.  1.
         -4   -1    0    0    0  501 -0.00000000000E+00 -0.00000000000E+00 -0.13803872486E+02  0.13862171389E+02  0.12700000000E+01 0.  1.
         25    2    1    2    0    0  0.00000000000E+00  0.00000000000E+00  0.26854521065E+03  0.29621411073E+03  0.12500507682E+03 0.  0.
    9000005    1    3    3    0    0  0.12502423750E+02 -0.11653006720E+02  0.27671522969E+03  0.27724433539E+03  0.10000000000E+01 0.  0.
    9000005    1    3    3    0    0 -0.12502423750E+02  0.11653006720E+02 -0.81700190369E+01  0.18969775336E+02  0.10000000000E+01 0.  0.
<mgrwt>
<rscale>  0 0.12500508E+03</rscale>
<asrwt>0</asrwt>
<pdfrwt beam="1">  1        4 0.43443024E-01 0.12500508E+03</pdfrwt>
<pdfrwt beam="2">  1       -4 0.21283770E-02 0.12500508E+03</pdfrwt>
<totfact> 0.76067625E+03</totfact>
</mgrwt>
</event>
<event>
 5    1  0.3246948E-002  0.1250062E+03  0.7818608E-02  0.1235060E+00
         -4   -1    0    0    0  501 -0.00000000000E+00  0.00000000000E+00  0.78290343397E+01  0.79313730648E+01  0.12700000000E+01 0. -1.
          4   -1    0    0  501    0  0.00000000000E+00 -0.00000000000E+00 -0.49565056726E+03  0.49565219431E+03  0.12700000000E+01 0. -1.
         25    2    1    2    0    0  0.00000000000E+00  0.00000000000E+00 -0.48782153292E+03  0.50358356738E+03  0.12500624524E+03 0.  0.
    9000005    1    3    3    0    0  0.42529043894E+02 -0.14478667756E+02 -0.41891922401E+03  0.42132252212E+03  0.10000000000E+01 0.  0.
    9000005    1    3    3    0    0 -0.42529043894E+02  0.14478667756E+02 -0.68902308909E+02  0.82261045262E+02  0.10000000000E+01 0.  0.
<mgrwt>
<rscale>  0 0.12500625E+03</rscale>
<asrwt>0</asrwt>
<pdfrwt beam="2">  1        4 0.76261907E-01 0.12500625E+03</pdfrwt>
<pdfrwt beam="1">  1       -4 0.12124646E-02 0.12500625E+03</pdfrwt>
<totfact> 0.55579773E+03</totfact>
</mgrwt>
</event>
<event>
 5    1  0.3246948E-002  0.1249996E+03  0.7818608E-02  0.1235070E+00
         -4   -1    0    0    0  501 -0.00000000000E+00  0.00000000000E+00  0.24098142557E+03  0.24098477207E+03  0.12700000000E+01 0. -1.
          4   -1    0    0  501    0  0.00000000000E+00 -0.00000000000E+00 -0.16181303422E+02  0.16231065290E+02  0.12700000000E+01 0. -1.
         25    2    1    2    0    0  0.00000000000E+00  0.00000000000E+00  0.22480012214E+03  0.25721583736E+03  0.12499956828E+03 0.  0.
    9000005    1    3    3    0    0 -0.40627611718E+02 -0.92052040459E+01  0.20825345428E+03  0.21238135472E+03  0.10000000000E+01 0.  0.
    9000005    1    3    3    0    0  0.40627611718E+02  0.92052040459E+01  0.16546667866E+02  0.44834482633E+02  0.10000000000E+01 0.  0.
<mgrwt>
<rscale>  0 0.12499957E+03</rscale>
<asrwt>0</asrwt>
<pdfrwt beam="2">  1        4 0.24935166E-02 0.12499957E+03</pdfrwt>
<pdfrwt beam="1">  1       -4 0.37078150E-01 0.12499957E+03</pdfrwt>
<totfact> 0.81299154E+03</totfact>
</mgrwt>
</event>
<event>
 5    1  0.3246948E-002  0.1249975E+03  0.7818608E-02  0.1235073E+00
          4   -1    0    0  501    0  0.00000000000E+00  0.00000000000E+00  0.46742757794E+02  0.46760007552E+02  0.12700000000E+01 0. -1.
         -4   -1    0    0    0  501 -0.00000000000E+00 -0.00000000000E+00 -0.83528269554E+02  0.83537923811E+02  0.12700000000E+01 0. -1.
         25    2    1    2    0    0  0.00000000000E+00  0.00000000000E+00 -0.36785511760E+02  0.13029793136E+03  0.12499750814E+03 0.  0.
    9000005    1    3    3    0    0  0.30986140847E+02 -0.51033795428E+01 -0.74710653294E+02  0.81048547938E+02  0.10000000000E+01 0.  0.
    9000005    1    3    3    0    0 -0.30986140847E+02  0.51033795428E+01  0.37925141534E+02  0.49249383425E+02  0.10000000000E+01 0.  0.
<mgrwt>
<rscale>  0 0.12499751E+03</rscale>
<asrwt>0</asrwt>
<pdfrwt beam="1">  1        4 0.71932630E-02 0.12499751E+03</pdfrwt>
<pdfrwt beam="2">  1       -4 0.12852573E-01 0.12499751E+03</pdfrwt>
<totfact> 0.10338720E+04</totfact>
</mgrwt>
</event>
<event>
 5    1  0.3246948E-002  0.1249932E+03  0.7818608E-02  0.1235080E+00
          4   -1    0    0  501    0  0.00000000000E+00  0.00000000000E+00  0.88118259346E+02  0.88127410777E+02  0.12700000000E+01 0.  1.
         -4   -1    0    0    0  501 -0.00000000000E+00 -0.00000000000E+00 -0.44304225101E+02  0.44322423916E+02  0.12700000000E+01 0.  1.
         25    2    1    2    0    0  0.00000000000E+00  0.00000000000E+00  0.43814034246E+02  0.13244983469E+03  0.12499315627E+03 0.  0.
    9000005    1    3    3    0    0 -0.97527032516E+01 -0.14365091217E+02 -0.41701970395E+02  0.45183242482E+02  0.10000000000E+01 0.  0.
    9000005    1    3    3    0    0  0.97527032516E+01  0.14365091217E+02  0.85516004640E+02  0.87266592211E+02  0.10000000000E+01 0.  0.
<mgrwt>
<rscale>  0 0.12499316E+03</rscale>
<asrwt>0</asrwt>
<pdfrwt beam="1">  1        4 0.13558759E-01 0.12499316E+03</pdfrwt>
<pdfrwt beam="2">  1       -4 0.68181385E-02 0.12499316E+03</pdfrwt>
<totfact> 0.10293695E+04</totfact>
</mgrwt>
</event>
<event>
 5    1  0.3246948E-002  0.1250009E+03  0.7818608E-02  0.1235068E+00
          4   -1    0    0  501    0  0.00000000000E+00  0.00000000000E+00  0.20123903923E+02  0.20163938333E+02  0.12700000000E+01 0. -1.
         -4   -1    0    0    0  501 -0.00000000000E+00 -0.00000000000E+00 -0.19387774123E+03  0.19388190077E+03  0.12700000000E+01 0. -1.
         25    2    1    2    0    0  0.00000000000E+00  0.00000000000E+00 -0.17375383731E+03  0.21404583910E+03  0.12500090102E+03 0.  0.
    9000005    1    3    3    0    0  0.55867443527E+02  0.23010697110E+02 -0.11420187146E+03  0.12920422158E+03  0.10000000000E+01 0.  0.
    9000005    1    3    3    0    0 -0.55867443527E+02 -0.23010697110E+02 -0.59551965846E+02  0.84841617522E+02  0.10000000000E+01 0.  0.
<mgrwt>
<rscale>  0 0.12500090E+03</rscale>
<asrwt>0</asrwt>
<pdfrwt beam="1">  1        4 0.30993849E-02 0.12500090E+03</pdfrwt>
<pdfrwt beam="2">  1       -4 0.29830743E-01 0.12500090E+03</pdfrwt>
<totfact> 0.87817608E+03</totfact>
</mgrwt>
</event>
<event>
 5    1  0.3246948E-002  0.1249932E+03  0.7818608E-02  0.1235080E+00
          4   -1    0    0  501    0  0.00000000000E+00  0.00000000000E+00  0.49505091457E+02  0.49521379022E+02  0.12700000000E+01 0.  1.
         -4   -1    0    0    0  501 -0.00000000000E+00 -0.00000000000E+00 -0.78863083919E+02  0.78873309207E+02  0.12700000000E+01 0.  1.
         25    2    1    2    0    0  0.00000000000E+00  0.00000000000E+00 -0.29357992462E+02  0.12839468823E+03  0.12499321679E+03 0.  0.
    9000005    1    3    3    0    0 -0.62361563803E+02  0.58343252121E+00 -0.18725881078E+02  0.65122681575E+02  0.10000000000E+01 0.  0.
    9000005    1    3    3    0    0  0.62361563803E+02 -0.58343252121E+00 -0.10632111384E+02  0.63272006653E+02  0.10000000000E+01 0.  0.
<mgrwt>
<rscale>  0 0.12499322E+03</rscale>
<asrwt>0</asrwt>
<pdfrwt beam="1">  1        4 0.76182074E-02 0.12499322E+03</pdfrwt>
<pdfrwt beam="2">  1       -4 0.12134822E-01 0.12499322E+03</pdfrwt>
<totfact> 0.10380562E+04</totfact>
</mgrwt>
</event>
<event>
 5    1  0.3246948E-002  0.1249999E+03  0.7818608E-02  0.1235069E+00
         -4   -1    0    0    0  501 -0.00000000000E+00  0.00000000000E+00  0.28347601731E+03  0.28347886216E+03  0.12700000000E+01 0. -1.
          4   -1    0    0  501    0  0.00000000000E+00 -0.00000000000E+00 -0.13747628159E+02  0.13806164565E+02  0.12700000000E+01 0. -1.
         25    2    1    2    0    0  0.00000000000E+00  0.00000000000E+00  0.26972838915E+03  0.29728502672E+03  0.12499993280E+03 0.  0.
    9000005    1    3    3    0    0  0.89592262375E+01  0.56027076803E+02  0.72575702375E+02  0.92127811463E+02  0.10000000000E+01 0.  0.
    9000005    1    3    3    0    0 -0.89592262375E+01 -0.56027076803E+02  0.19715268678E+03  0.20515721526E+03  0.10000000000E+01 0.  0.
<mgrwt>
<rscale>  0 0.12499993E+03</rscale>
<asrwt>0</asrwt>
<pdfrwt beam="2">  1        4 0.21197416E-02 0.12499993E+03</pdfrwt>
<pdfrwt beam="1">  1       -4 0.43616412E-01 0.12499993E+03</pdfrwt>
<totfact> 0.75940782E+03</totfact>
</mgrwt>
</event>
<event>
 5    1  0.3246948E-002  0.1249977E+03  0.7818608E-02  0.1235073E+00
         -4   -1    0    0    0  501 -0.00000000000E+00  0.00000000000E+00  0.42033768141E+02  0.42052949529E+02  0.12700000000E+01 0. -1.
          4   -1    0    0  501    0  0.00000000000E+00 -0.00000000000E+00 -0.92883146156E+02  0.92891828165E+02  0.12700000000E+01 0. -1.
         25    2    1    2    0    0  0.00000000000E+00  0.00000000000E+00 -0.50849378015E+02  0.13494477769E+03  0.12499773511E+03 0.  0.
    9000005    1    3    3    0    0 -0.56315642122E+02 -0.52655579513E+00  0.38113385038E+01  0.56455780128E+02  0.10000000000E+01 0.  0.
    9000005    1    3    3    0    0  0.56315642122E+02  0.52655579513E+00 -0.54660716519E+02  0.78488997566E+02  0.10000000000E+01 0.  0.
<mgrwt>
<rscale>  0 0.12499774E+03</rscale>
<asrwt>0</asrwt>
<pdfrwt beam="2">  1        4 0.14291858E-01 0.12499774E+03</pdfrwt>
<pdfrwt beam="1">  1       -4 0.64688769E-02 0.12499774E+03</pdfrwt>
<totfact> 0.10239758E+04</totfact>
</mgrwt>
</event>
<event>
 5    1  0.3246948E-002  0.1249995E+03  0.7818608E-02  0.1235070E+00
          4   -1    0    0  501    0  0.00000000000E+00  0.00000000000E+00  0.21288684654E+02  0.21326532636E+02  0.12700000000E+01 0.  1.
         -4   -1    0    0    0  501 -0.00000000000E+00 -0.00000000000E+00 -0.18328500718E+03  0.18328940711E+03  0.12700000000E+01 0.  1.
         25    2    1    2    0    0  0.00000000000E+00  0.00000000000E+00 -0.16199632253E+03  0.20461593974E+03  0.12499949714E+03 0.  0.
    9000005    1    3    3    0    0  0.53922186380E+01  0.37940641524E+02 -0.16180121919E+03  0.16628049444E+03  0.10000000000E+01 0.  0.
    9000005    1    3    3    0    0 -0.53922186380E+01 -0.37940641524E+02 -0.19510333960E+00  0.38335445301E+02  0.10000000000E+01 0.  0.
<mgrwt>
<rscale>  0 0.12499950E+03</rscale>
<asrwt>0</asrwt>
<pdfrwt beam="1">  1        4 0.32784322E-02 0.12499950E+03</pdfrwt>
<pdfrwt beam="2">  1       -4 0.28200942E-01 0.12499950E+03</pdfrwt>
<totfact> 0.89363793E+03</totfact>
</mgrwt>
</event>
<event>
 5    1  0.3246948E-002  0.1250011E+03  0.7818608E-02  0.1235068E+00
          4   -1    0    0  501    0  0.00000000000E+00  0.00000000000E+00  0.99156411860E+01  0.99966414425E+01  0.12700000000E+01 0.  1.
         -4   -1    0    0    0  501 -0.00000000000E+00 -0.00000000000E+00 -0.39227060448E+03  0.39227266032E+03  0.12700000000E+01 0.  1.
         25    2    1    2    0    0  0.00000000000E+00  0.00000000000E+00 -0.38235496329E+03  0.40226930176E+03  0.12500109275E+03 0.  0.
    9000005    1    3    3    0    0  0.33995695598E+02  0.24935562780E+02 -0.33962447708E+03  0.34223277903E+03  0.10000000000E+01 0.  0.
    9000005    1    3    3    0    0 -0.33995695598E+02 -0.24935562780E+02 -0.42730486210E+02  0.60036522735E+02  0.10000000000E+01 0.  0.
<mgrwt>
<rscale>  0 0.12500109E+03</rscale>
<asrwt>0</asrwt>
<pdfrwt beam="1">  1        4 0.15318725E-02 0.12500109E+03</pdfrwt>
<pdfrwt beam="2">  1       -4 0.60355701E-01 0.12500109E+03</pdfrwt>
<totfact> 0.64331130E+03</totfact>
</mgrwt>
</event>
<event>
 5    1  0.3246948E-002  0.1250010E+03  0.7818608E-02  0.1235068E+00
          4   -1    0    0  501    0  0.00000000000E+00  0.00000000000E+00  0.23535849241E+03  0.23536191886E+03  0.12700000000E+01 0.  1.
         -4   -1    0    0    0  501 -0.00000000000E+00 -0.00000000000E+00 -0.16569442512E+02  0.16618042158E+02  0.12700000000E+01 0.  1.
         25    2    1    2    0    0  0.00000000000E+00  0.00000000000E+00  0.21878904990E+03  0.25197996102E+03  0.12500100960E+03 0.  0.
    9000005    1    3    3    0    0  0.36612368812E+00 -0.39583156252E+02  0.11916324895E+02  0.41351651774E+02  0.10000000000E+01 0.  0.
    9000005    1    3    3    0    0 -0.36612368812E+00  0.39583156252E+02  0.20687272501E+03  0.21062830925E+03  0.10000000000E+01 0.  0.
<mgrwt>
<rscale>  0 0.12500101E+03</rscale>
<asrwt>0</asrwt>
<pdfrwt beam="1">  1        4 0.36213000E-01 0.12500101E+03</pdfrwt>
<pdfrwt beam="2">  1       -4 0.25531470E-02 0.12500101E+03</pdfrwt>
<totfact> 0.82043056E+03</totfact>
</mgrwt>
</event>
<event>
 5    1  0.3246948E-002  0.1250004E+03  0.7818608E-02  0.1235069E+00
         -4   -1    0    0    0  501 -0.00000000000E+00  0.00000000000E+00  0.65418657229E+01  0.66640008356E+01  0.12700000000E+01 0.  1.
          4   -1    0    0  501    0  0.00000000000E+00 -0.00000000000E+00 -0.59147456642E+03  0.59147592987E+03  0.12700000000E+01 0.  1.
         25    2    1    2    0    0  0.00000000000E+00  0.00000000000E+00 -0.58493270070E+03  0.59813993071E+03  0.12500044946E+03 0.  0.
    9000005    1    3    3    0    0 -0.18933238891E+02  0.48801430855E+02 -0.12912459497E+03  0.13933487796E+03  0.10000000000E+01 0.  0.
    9000005    1    3    3    0    0  0.18933238891E+02 -0.48801430855E+02 -0.45580810572E+03  0.45880505275E+03  0.10000000000E+01 0.  0.
<mgrwt>
<rscale>  0 0.12500045E+03</rscale>
<asrwt>0</asrwt>
<pdfrwt beam="2">  1        4 0.91005545E-01 0.12500045E+03</pdfrwt>
<pdfrwt beam="1">  1       -4 0.10159412E-02 0.12500045E+03</pdfrwt>
<totfact> 0.48984768E+03</totfact>
</mgrwt>
</event>
<event>
 5    1  0.3246948E-002  0.1250003E+03  0.7818608E-02  0.1235069E+00
         -4   -1    0    0    0  501 -0.00000000000E+00  0.00000000000E+00  0.33948985054E+03  0.33949222601E+03  0.12700000000E+01 0. -1.
          4   -1    0    0  501    0  0.00000000000E+00 -0.00000000000E+00 -0.11468826146E+02  0.11538928597E+02  0.12700000000E+01 0. -1.
         25    2    1    2    0    0  0.00000000000E+00  0.00000000000E+00  0.32802102439E+03  0.35103115460E+03  0.12500031623E+03 0.  0.
    9000005    1    3    3    0    0 -0.43653746796E+02  0.42667534943E+02  0.20159289436E+03  0.21063443025E+03  0.10000000000E+01 0.  0.
    9000005    1    3    3    0    0  0.43653746796E+02 -0.42667534943E+02  0.12642813003E+03  0.14039672436E+03  0.10000000000E+01 0.  0.
<mgrwt>
<rscale>  0 0.12500032E+03</rscale>
<asrwt>0</asrwt>
<pdfrwt beam="2">  1        4 0.17700101E-02 0.12500032E+03</pdfrwt>
<pdfrwt beam="1">  1       -4 0.52234779E-01 0.12500032E+03</pdfrwt>
<totfact> 0.69610778E+03</totfact>
</mgrwt>
</event>
<event>
 5    1  0.3246948E-002  0.1250007E+03  0.7818608E-02  0.1235068E+00
         -4   -1    0    0    0  501 -0.00000000000E+00  0.00000000000E+00  0.26936998951E+03  0.26937298333E+03  0.12700000000E+01 0.  1.
          4   -1    0    0  501    0  0.00000000000E+00 -0.00000000000E+00 -0.14470695280E+02  0.14526318250E+02  0.12700000000E+01 0.  1.
         25    2    1    2    0    0  0.00000000000E+00  0.00000000000E+00  0.25489929423E+03  0.28389930158E+03  0.12500065296E+03 0.  0.
    9000005    1    3    3    0    0  0.25394988122E+02 -0.47222075025E+02  0.54542882459E+02  0.76490233483E+02  0.10000000000E+01 0.  0.
    9000005    1    3    3    0    0 -0.25394988122E+02  0.47222075025E+02  0.20035641177E+03  0.20740906810E+03  0.10000000000E+01 0.  0.
<mgrwt>
<rscale>  0 0.12500065E+03</rscale>
<asrwt>0</asrwt>
<pdfrwt beam="2">  1        4 0.22307696E-02 0.12500065E+03</pdfrwt>
<pdfrwt beam="1">  1       -4 0.41446049E-01 0.12500065E+03</pdfrwt>
<totfact> 0.77662780E+03</totfact>
</mgrwt>
</event>
<event>
 5    1  0.3246948E-002  0.1249985E+03  0.7818608E-02  0.1235072E+00
         -4   -1    0    0    0  501 -0.00000000000E+00  0.00000000000E+00  0.31085555611E+03  0.31085815039E+03  0.12700000000E+01 0. -1.
          4   -1    0    0  501    0  0.00000000000E+00 -0.00000000000E+00 -0.12531077629E+02  0.12595269213E+02  0.12700000000E+01 0. -1.
         25    2    1    2    0    0  0.00000000000E+00  0.00000000000E+00  0.29832447848E+03  0.32345341960E+03  0.12499848076E+03 0.  0.
    9000005    1    3    3    0    0  0.61478520227E+02 -0.92903675366E+01  0.13295356298E+03  0.14677727783E+03  0.10000000000E+01 0.  0.
    9000005    1    3    3    0    0 -0.61478520227E+02  0.92903675366E+01  0.16537091550E+03  0.17667614178E+03  0.10000000000E+01 0.  0.
<mgrwt>
<rscale>  0 0.12499848E+03</rscale>
<asrwt>0</asrwt>
<pdfrwt beam="2">  1        4 0.19329954E-02 0.12499848E+03</pdfrwt>
<pdfrwt beam="1">  1       -4 0.47829071E-01 0.12499848E+03</pdfrwt>
<totfact> 0.72749707E+03</totfact>
</mgrwt>
</event>
<event>
 5    1  0.3246948E-002  0.1249989E+03  0.7818608E-02  0.1235071E+00
         -4   -1    0    0    0  501 -0.00000000000E+00  0.00000000000E+00  0.58213287604E+02  0.58227139322E+02  0.12700000000E+01 0.  1.
          4   -1    0    0  501    0  0.00000000000E+00 -0.00000000000E+00 -0.67073366051E+02  0.67085388375E+02  0.12700000000E+01 0.  1.
         25    2    1    2    0    0  0.00000000000E+00  0.00000000000E+00 -0.88600784467E+01  0.12531252770E+03  0.12499891443E+03 0.  0.
    9000005    1    3    3    0    0  0.56991325138E+02  0.15347819597E+02 -0.25014832253E+02  0.64111688014E+02  0.10000000000E+01 0.  0.
    9000005    1    3    3    0    0 -0.56991325138E+02 -0.15347819597E+02  0.16154753806E+02  0.61200839683E+02  0.10000000000E+01 0.  0.
<mgrwt>
<rscale>  0 0.12499891E+03</rscale>
<asrwt>0</asrwt>
<pdfrwt beam="2">  1        4 0.10320970E-01 0.12499891E+03</pdfrwt>
<pdfrwt beam="1">  1       -4 0.89578806E-02 0.12499891E+03</pdfrwt>
<totfact> 0.10446334E+04</totfact>
</mgrwt>
</event>
<event>
 5    1  0.3246948E-002  0.1249981E+03  0.7818608E-02  0.1235072E+00
         -4   -1    0    0    0  501 -0.00000000000E+00  0.00000000000E+00  0.55178051517E+02  0.55192664995E+02  0.12700000000E+01 0. -1.
          4   -1    0    0  501    0  0.00000000000E+00 -0.00000000000E+00 -0.70761675076E+02  0.70773070865E+02  0.12700000000E+01 0. -1.
         25    2    1    2    0    0  0.00000000000E+00  0.00000000000E+00 -0.15583623559E+02  0.12596573586E+03  0.12499806913E+03 0.  0.
    9000005    1    3    3    0    0  0.36979228600E+02 -0.47914955023E+02  0.78792339886E+01  0.61044152799E+02  0.10000000000E+01 0.  0.
    9000005    1    3    3    0    0 -0.36979228600E+02  0.47914955023E+02 -0.23462857548E+02  0.64921583060E+02  0.10000000000E+01 0.  0.
<mgrwt>
<rscale>  0 0.12499807E+03</rscale>
<asrwt>0</asrwt>
<pdfrwt beam="2">  1        4 0.10888412E-01 0.12499807E+03</pdfrwt>
<pdfrwt beam="1">  1       -4 0.84909317E-02 0.12499807E+03</pdfrwt>
<totfact> 0.10432162E+04</totfact>
</mgrwt>
</event>
<event>
 5    1  0.3246948E-002  0.1250012E+03  0.7818608E-02  0.1235067E+00
          4   -1    0    0  501    0  0.00000000000E+00  0.00000000000E+00  0.59973661863E+01  0.61303589759E+01  0.12700000000E+01 0. -1.
         -4   -1    0    0    0  501 -0.00000000000E+00 -0.00000000000E+00 -0.64406401747E+03  0.64406526960E+03  0.12700000000E+01 0. -1.
         25    2    1    2    0    0  0.00000000000E+00  0.00000000000E+00 -0.63806665128E+03  0.65019562857E+03  0.12500121573E+03 0.  0.
    9000005    1    3    3    0    0 -0.19561096842E+02  0.51016516910E+02 -0.47680345390E+03  0.47992484324E+03  0.10000000000E+01 0.  0.
    9000005    1    3    3    0    0  0.19561096842E+02 -0.51016516910E+02 -0.16126319739E+03  0.17027078533E+03  0.10000000000E+01 0.  0.
<mgrwt>
<rscale>  0 0.12500122E+03</rscale>
<asrwt>0</asrwt>
<pdfrwt beam="1">  1        4 0.93299876E-03 0.12500122E+03</pdfrwt>
<pdfrwt beam="2">  1       -4 0.99097044E-01 0.12500122E+03</pdfrwt>
<totfact> 0.45843655E+03</totfact>
</mgrwt>
</event>
<event>
 5    1  0.3246948E-002  0.1250001E+03  0.7818608E-02  0.1235069E+00
         -4   -1    0    0    0  501 -0.00000000000E+00  0.00000000000E+00  0.74556915261E+03  0.74557023427E+03  0.12700000000E+01 0.  1.
          4   -1    0    0  501    0  0.00000000000E+00 -0.00000000000E+00 -0.51612302705E+01  0.53151855946E+01  0.12700000000E+01 0.  1.
         25    2    1    2    0    0  0.00000000000E+00  0.00000000000E+00  0.74040792234E+03  0.75088541986E+03  0.12500008919E+03 0.  0.
    9000005    1    3    3    0    0 -0.55838541626E+02  0.27717182590E+02  0.34397108574E+03  0.34957587555E+03  0.10000000000E+01 0.  0.
    9000005    1    3    3    0    0  0.55838541626E+02 -0.27717182590E+02  0.39643683660E+03  0.40130954431E+03  0.10000000000E+01 0.  0.
<mgrwt>
<rscale>  0 0.12500009E+03</rscale>
<asrwt>0</asrwt>
<pdfrwt beam="2">  1        4 0.80596119E-03 0.12500009E+03</pdfrwt>
<pdfrwt beam="1">  1       -4 0.11471489E+00 0.12500009E+03</pdfrwt>
<totfact> 0.40531734E+03</totfact>
</mgrwt>
</event>
<event>
 5    1  0.3246948E-002  0.1250012E+03  0.7818608E-02  0.1235067E+00
          4   -1    0    0  501    0  0.00000000000E+00  0.00000000000E+00  0.19477237703E+03  0.19477651746E+03  0.12700000000E+01 0. -1.
         -4   -1    0    0    0  501 -0.00000000000E+00 -0.00000000000E+00 -0.20031388376E+02  0.20071607316E+02  0.12700000000E+01 0. -1.
         25    2    1    2    0    0  0.00000000000E+00  0.00000000000E+00  0.17474098866E+03  0.21484812478E+03  0.12500121441E+03 0.  0.
    9000005    1    3    3    0    0 -0.84244746509E+01 -0.60898873729E+02  0.68101782639E+02  0.91752369960E+02  0.10000000000E+01 0.  0.
    9000005    1    3    3    0    0  0.84244746509E+01  0.60898873729E+02  0.10663920602E+03  0.12309575482E+03  0.10000000000E+01 0.  0.
<mgrwt>
<rscale>  0 0.12500121E+03</rscale>
<asrwt>0</asrwt>
<pdfrwt beam="1">  1        4 0.29968391E-01 0.12500121E+03</pdfrwt>
<pdfrwt beam="2">  1       -4 0.30851645E-02 0.12500121E+03</pdfrwt>
<totfact> 0.87687810E+03</totfact>
</mgrwt>
</event>
<event>
 5    1  0.3246948E-002  0.1249978E+03  0.7818608E-02  0.1235073E+00
          4   -1    0    0  501    0  0.00000000000E+00  0.00000000000E+00  0.31943859655E+02  0.31969095540E+02  0.12700000000E+01 0. -1.
         -4   -1    0    0    0  501 -0.00000000000E+00 -0.00000000000E+00 -0.12220365946E+03  0.12221025851E+03  0.12700000000E+01 0. -1.
         25    2    1    2    0    0  0.00000000000E+00  0.00000000000E+00 -0.90259799804E+02  0.15417935405E+03  0.12499776700E+03 0.  0.
    9000005    1    3    3    0    0 -0.17693845491E+02  0.28452173178E+02 -0.11019416051E+03  0.11517964811E+03  0.10000000000E+01 0.  0.
    9000005    1    3    3    0    0  0.17693845491E+02 -0.28452173178E+02  0.19934360710E+02  0.38999705944E+02  0.10000000000E+01 0.  0.
<mgrwt>
<rscale>  0 0.12499777E+03</rscale>
<asrwt>0</asrwt>
<pdfrwt beam="1">  1        4 0.49168889E-02 0.12499777E+03</pdfrwt>
<pdfrwt beam="2">  1       -4 0.18803012E-01 0.12499777E+03</pdfrwt>
<totfact> 0.98481789E+03</totfact>
</mgrwt>
</event>
<event>
 5    1  0.3246948E-002  0.1249976E+03  0.7818608E-02  0.1235073E+00
          4   -1    0    0  501    0  0.00000000000E+00  0.00000000000E+00  0.30523147844E+01  0.33059832944E+01  0.12700000000E+01 0.  1.
         -4   -1    0    0    0  501 -0.00000000000E+00 -0.00000000000E+00 -0.12284080400E+04  0.12284086965E+04  0.12700000000E+01 0.  1.
         25    2    1    2    0    0  0.00000000000E+00  0.00000000000E+00 -0.12253557252E+04  0.12317146798E+04  0.12499759639E+03 0.  0.
    9000005    1    3    3    0    0  0.75983180927E+01  0.10071295360E+02 -0.12157767625E+04  0.12158426303E+04  0.10000000000E+01 0.  0.
    9000005    1    3    3    0    0 -0.75983180927E+01 -0.10071295360E+02 -0.95789626936E+01  0.15872049469E+02  0.10000000000E+01 0.  0.
<mgrwt>
<rscale>  0 0.12499760E+03</rscale>
<asrwt>0</asrwt>
<pdfrwt beam="1">  1        4 0.48915133E-03 0.12499760E+03</pdfrwt>
<pdfrwt beam="2">  1       -4 0.18900504E+00 0.12499760E+03</pdfrwt>
<totfact> 0.23898707E+03</totfact>
</mgrwt>
</event>
<event>
 5    1  0.3246948E-002  0.1249999E+03  0.7818608E-02  0.1235069E+00
          4   -1    0    0  501    0  0.00000000000E+00  0.00000000000E+00  0.21040646012E+03  0.21041029290E+03  0.12700000000E+01 0.  1.
         -4   -1    0    0    0  501 -0.00000000000E+00 -0.00000000000E+00 -0.18539506460E+02  0.18582954549E+02  0.12700000000E+01 0.  1.
         25    2    1    2    0    0  0.00000000000E+00  0.00000000000E+00  0.19186695366E+03  0.22899324745E+03  0.12499991789E+03 0.  0.
    9000005    1    3    3    0    0 -0.88122202302E+01  0.61514217796E+02  0.83838372208E+02  0.10436247827E+03  0.10000000000E+01 0.  0.
    9000005    1    3    3    0    0  0.88122202302E+01 -0.61514217796E+02  0.10802858145E+03  0.12463076918E+03  0.10000000000E+01 0.  0.
<mgrwt>
<rscale>  0 0.12499992E+03</rscale>
<asrwt>0</asrwt>
<pdfrwt beam="1">  1        4 0.32373861E-01 0.12499992E+03</pdfrwt>
<pdfrwt beam="2">  1       -4 0.28558688E-02 0.12499992E+03</pdfrwt>
<totfact> 0.85464581E+03</totfact>
</mgrwt>
</event>
<event>
 5    1  0.3246948E-002  0.1249993E+03  0.7818608E-02  0.1235070E+00
          4   -1    0    0  501    0  0.00000000000E+00  0.00000000000E+00  0.62743864517E+03  0.62743993048E+03  0.12700000000E+01 0.  1.
         -4   -1    0    0    0  501 -0.00000000000E+00 -0.00000000000E+00 -0.61595618963E+01  0.62891257544E+01  0.12700000000E+01 0.  1.
         25    2    1    2    0    0  0.00000000000E+00  0.00000000000E+00  0.62127908328E+03  0.63372905623E+03  0.12499926958E+03 0.  0.
    9000005    1    3    3    0    0 -0.30280767526E+02  0.79256434361E+01  0.58485598719E+03  0.58569383338E+03  0.10000000000E+01 0.  0.
    9000005    1    3    3    0    0  0.30280767526E+02 -0.79256434361E+01  0.36423096084E+02  0.48035222849E+02  0.10000000000E+01 0.  0.
<mgrwt>
<rscale>  0 0.12499927E+03</rscale>
<asrwt>0</asrwt>
<pdfrwt beam="1">  1        4 0.96539077E-01 0.12499927E+03</pdfrwt>
<pdfrwt beam="2">  1       -4 0.95769034E-03 0.12499927E+03</pdfrwt>
<totfact> 0.46806231E+03</totfact>
</mgrwt>
</event>
<event>
 5    1  0.3246948E-002  0.1249898E+03  0.7818608E-02  0.1235085E+00
         -4   -1    0    0    0  501 -0.00000000000E+00  0.00000000000E+00  0.12833788302E+01  0.18055362699E+01  0.12700000000E+01 0.  1.
          4   -1    0    0  501    0  0.00000000000E+00 -0.00000000000E+00 -0.25282694903E+04  0.25282698092E+04  0.12700000000E+01 0.  1.
         25    2    1    2    0    0  0.00000000000E+00  0.00000000000E+00 -0.25269861114E+04  0.25300753455E+04  0.12498978583E+03 0.  0.
    9000005    1    3    3    0    0  0.42453572870E+02 -0.40026341882E+02 -0.81077293553E+03  0.81287032600E+03  0.10000000000E+01 0.  0.
    9000005    1    3    3    0    0 -0.42453572870E+02  0.40026341882E+02 -0.17162131759E+04  0.17172050195E+04  0.10000000000E+01 0.  0.
<mgrwt>
<rscale>  0 0.12498979E+03</rscale>
<asrwt>0</asrwt>
<pdfrwt beam="2">  1        4 0.38900141E+00 0.12498979E+03</pdfrwt>
<pdfrwt beam="1">  1       -4 0.23763541E-03 0.12498979E+03</pdfrwt>
<totfact> 0.44385099E+02</totfact>
</mgrwt>
</event>
<event>
 5    1  0.3246948E-002  0.1250053E+03  0.7818608E-02  0.1235061E+00
         -4   -1    0    0    0  501 -0.00000000000E+00  0.00000000000E+00  0.93395422610E+02  0.93404057002E+02  0.12700000000E+01 0.  1.
          4   -1    0    0  501    0  0.00000000000E+00 -0.00000000000E+00 -0.41808206008E+02  0.41827490835E+02  0.12700000000E+01 0.  1.
         25    2    1    2    0    0  0.00000000000E+00  0.00000000000E+00  0.51587216602E+02  0.13523154784E+03  0.12500532234E+03 0.  0.
    9000005    1    3    3    0    0  0.48349371835E+02 -0.39542200048E+02  0.28046081824E+02  0.68475032290E+02  0.10000000000E+01 0.  0.
    9000005    1    3    3    0    0 -0.48349371835E+02  0.39542200048E+02  0.23541134778E+02  0.66756515548E+02  0.10000000000E+01 0.  0.
<mgrwt>
<rscale>  0 0.12500532E+03</rscale>
<asrwt>0</asrwt>
<pdfrwt beam="2">  1        4 0.64341793E-02 0.12500532E+03</pdfrwt>
<pdfrwt beam="1">  1       -4 0.14370674E-01 0.12500532E+03</pdfrwt>
<totfact> 0.10231965E+04</totfact>
</mgrwt>
</event>
<event>
 5    1  0.3246948E-002  0.1250010E+03  0.7818608E-02  0.1235068E+00
          4   -1    0    0  501    0  0.00000000000E+00  0.00000000000E+00  0.79329103364E+03  0.79329205023E+03  0.12700000000E+01 0.  1.
         -4   -1    0    0    0  501 -0.00000000000E+00 -0.00000000000E+00 -0.48412652754E+01  0.50050723738E+01  0.12700000000E+01 0.  1.
         25    2    1    2    0    0  0.00000000000E+00  0.00000000000E+00  0.78844976837E+03  0.79829712261E+03  0.12500103487E+03 0.  0.
    9000005    1    3    3    0    0 -0.15458075996E+02 -0.10372594289E+02  0.13245891711E+02  0.22869116140E+02  0.10000000000E+01 0.  0.
    9000005    1    3    3    0    0  0.15458075996E+02  0.10372594289E+02  0.77520387666E+03  0.77542800647E+03  0.10000000000E+01 0.  0.
<mgrwt>
<rscale>  0 0.12500103E+03</rscale>
<asrwt>0</asrwt>
<pdfrwt beam="1">  1        4 0.12205746E+00 0.12500103E+03</pdfrwt>
<pdfrwt beam="2">  1       -4 0.75748877E-03 0.12500103E+03</pdfrwt>
<totfact> 0.38339990E+03</totfact>
</mgrwt>
</event>
<event>
 5    1  0.3246948E-002  0.1250015E+03  0.7818608E-02  0.1235067E+00
         -4   -1    0    0    0  501 -0.00000000000E+00  0.00000000000E+00  0.68249609308E+02  0.68261424470E+02  0.12700000000E+01 0. -1.
          4   -1    0    0  501    0  0.00000000000E+00 -0.00000000000E+00 -0.57212307563E+02  0.57226401570E+02  0.12700000000E+01 0. -1.
         25    2    1    2    0    0  0.00000000000E+00  0.00000000000E+00  0.11037301744E+02  0.12548782604E+03  0.12500148981E+03 0.  0.
    9000005    1    3    3    0    0 -0.33693663846E+02  0.20574992748E+02  0.54150390100E+02  0.67021325397E+02  0.10000000000E+01 0.  0.
    9000005    1    3    3    0    0  0.33693663846E+02 -0.20574992748E+02 -0.43113088356E+02  0.58466500644E+02  0.10000000000E+01 0.  0.
<mgrwt>
<rscale>  0 0.12500149E+03</rscale>
<asrwt>0</asrwt>
<pdfrwt beam="2">  1        4 0.88038865E-02 0.12500149E+03</pdfrwt>
<pdfrwt beam="1">  1       -4 0.10501933E-01 0.12500149E+03</pdfrwt>
<totfact> 0.10441872E+04</totfact>
</mgrwt>
</event>
<event>
 5    1  0.3246948E-002  0.1250000E+03  0.7818608E-02  0.1235069E+00
         -4   -1    0    0    0  501 -0.00000000000E+00  0.00000000000E+00  0.16194149967E+02  0.16243872480E+02  0.12700000000E+01 0.  1.
          4   -1    0    0  501    0  0.00000000000E+00 -0.00000000000E+00 -0.24079262357E+03  0.24079597269E+03  0.12700000000E+01 0.  1.
         25    2    1    2    0    0  0.00000000000E+00  0.00000000000E+00 -0.22459847360E+03  0.25703984517E+03  0.12500003065E+03 0.  0.
    9000005    1    3    3    0    0  0.62027723631E+02  0.28155068282E+01 -0.12682306636E+03  0.14121067856E+03  0.10000000000E+01 0.  0.
    9000005    1    3    3    0    0 -0.62027723631E+02 -0.28155068282E+01 -0.97775407239E+02  0.11582916661E+03  0.10000000000E+01 0.  0.
<mgrwt>
<rscale>  0 0.12500003E+03</rscale>
<asrwt>0</asrwt>
<pdfrwt beam="2">  1        4 0.37049099E-01 0.12500003E+03</pdfrwt>
<pdfrwt beam="1">  1       -4 0.24954903E-02 0.12500003E+03</pdfrwt>
<totfact> 0.81323225E+03</totfact>
</mgrwt>
</event>
<event>
 5    1  0.3246948E-002  0.1250508E+03  0.7818608E-02  0.1234990E+00
          4   -1    0    0  501    0  0.00000000000E+00  0.00000000000E+00  0.10605469813E+03  0.10606230196E+03  0.12700000000E+01 0.  1.
         -4   -1    0    0    0  501 -0.00000000000E+00 -0.00000000000E+00 -0.36842462194E+02  0.36864344841E+02  0.12700000000E+01 0.  1.
         25    2    1    2    0    0  0.00000000000E+00  0.00000000000E+00  0.69212235940E+02  0.14292664680E+03  0.12505076074E+03 0.  0.
    9000005    1    3    3    0    0  0.38169534688E+02 -0.81415843256E+01 -0.21214095110E+02  0.44432382392E+02  0.10000000000E+01 0.  0.
    9000005    1    3    3    0    0 -0.38169534688E+02  0.81415843256E+01  0.90426331050E+02  0.98494264406E+02  0.10000000000E+01 0.  0.
<mgrwt>
<rscale>  0 0.12505076E+03</rscale>
<asrwt>0</asrwt>
<pdfrwt beam="1">  1        4 0.16318375E-01 0.12505076E+03</pdfrwt>
<pdfrwt beam="2">  1       -4 0.56703394E-02 0.12505076E+03</pdfrwt>
<totfact> 0.10061778E+04</totfact>
</mgrwt>
</event>
<event>
 5    1  0.3246948E-002  0.1249987E+03  0.7818608E-02  0.1235071E+00
          4   -1    0    0  501    0  0.00000000000E+00  0.00000000000E+00  0.53804483448E+03  0.53804633333E+03  0.12700000000E+01 0. -1.
         -4   -1    0    0    0  501 -0.00000000000E+00 -0.00000000000E+00 -0.72028708487E+01  0.73139762416E+01  0.12700000000E+01 0. -1.
         25    2    1    2    0    0  0.00000000000E+00  0.00000000000E+00  0.53084196363E+03  0.54536030958E+03  0.12499870761E+03 0.  0.
    9000005    1    3    3    0    0 -0.14153922394E+02  0.60718008289E+02  0.24682898312E+03  0.25458310423E+03  0.10000000000E+01 0.  0.
    9000005    1    3    3    0    0  0.14153922394E+02 -0.60718008289E+02  0.28401298051E+03  0.29077720534E+03  0.10000000000E+01 0.  0.
<mgrwt>
<rscale>  0 0.12499871E+03</rscale>
<asrwt>0</asrwt>
<pdfrwt beam="1">  1        4 0.82784799E-01 0.12499871E+03</pdfrwt>
<pdfrwt beam="2">  1       -4 0.11167957E-02 0.12499871E+03</pdfrwt>
<totfact> 0.52510563E+03</totfact>
</mgrwt>
</event>
<event>
 5    1  0.3246948E-002  0.1250009E+03  0.7818608E-02  0.1235068E+00
         -4   -1    0    0    0  501 -0.00000000000E+00  0.00000000000E+00  0.36344289148E+03  0.36344511039E+03  0.12700000000E+01 0. -1.
          4   -1    0    0  501    0  0.00000000000E+00 -0.00000000000E+00 -0.10708292892E+02  0.10783340700E+02  0.12700000000E+01 0. -1.
         25    2    1    2    0    0  0.00000000000E+00  0.00000000000E+00  0.35273459858E+03  0.37422845109E+03  0.12500094626E+03 0.  0.
    9000005    1    3    3    0    0  0.49666194581E+02  0.31779803323E+02  0.11438596631E+03  0.12869279729E+03  0.10000000000E+01 0.  0.
    9000005    1    3    3    0    0 -0.49666194581E+02 -0.31779803323E+02  0.23834863227E+03  0.24553565380E+03  0.10000000000E+01 0.  0.
<mgrwt>
<rscale>  0 0.12500095E+03</rscale>
<asrwt>0</asrwt>
<pdfrwt beam="2">  1        4 0.16533733E-02 0.12500095E+03</pdfrwt>
<pdfrwt beam="1">  1       -4 0.55920232E-01 0.12500095E+03</pdfrwt>
<totfact> 0.67137466E+03</totfact>
</mgrwt>
</event>
<event>
 5    1  0.3246948E-002  0.1250186E+03  0.7818608E-02  0.1235040E+00
          4   -1    0    0  501    0  0.00000000000E+00  0.00000000000E+00  0.28966207880E+01  0.31628012883E+01  0.12700000000E+01 0. -1.
         -4   -1    0    0    0  501 -0.00000000000E+00 -0.00000000000E+00 -0.12894322819E+04  0.12894329073E+04  0.12700000000E+01 0. -1.
         25    2    1    2    0    0  0.00000000000E+00  0.00000000000E+00 -0.12865356611E+04  0.12925957086E+04  0.12501863311E+03 0.  0.
    9000005    1    3    3    0    0 -0.43652441443E+02  0.33767638210E+00 -0.11057404258E+04  0.11066022497E+04  0.10000000000E+01 0.  0.
    9000005    1    3    3    0    0  0.43652441443E+02 -0.33767638210E+00 -0.18079523527E+03  0.18599345893E+03  0.10000000000E+01 0.  0.
<mgrwt>
<rscale>  0 0.12501863E+03</rscale>
<asrwt>0</asrwt>
<pdfrwt beam="1">  1        4 0.46615853E-03 0.12501863E+03</pdfrwt>
<pdfrwt beam="2">  1       -4 0.19839428E+00 0.12501863E+03</pdfrwt>
<totfact> 0.22394905E+03</totfact>
</mgrwt>
</event>
<event>
 5    1  0.3246948E-002  0.1250014E+03  0.7818608E-02  0.1235067E+00
          4   -1    0    0  501    0  0.00000000000E+00  0.00000000000E+00  0.32711352652E+03  0.32711599187E+03  0.12700000000E+01 0.  1.
         -4   -1    0    0    0  501 -0.00000000000E+00 -0.00000000000E+00 -0.11905556797E+02  0.11973102465E+02  0.12700000000E+01 0.  1.
         25    2    1    2    0    0  0.00000000000E+00  0.00000000000E+00  0.31520796973E+03  0.33908909433E+03  0.12500139885E+03 0.  0.
    9000005    1    3    3    0    0  0.96808460006E+01  0.99766232538E+01 -0.76713107824E+01  0.15909142025E+02  0.10000000000E+01 0.  0.
    9000005    1    3    3    0    0 -0.96808460006E+01 -0.99766232538E+01  0.32287928051E+03  0.32317995231E+03  0.10000000000E+01 0.  0.
<mgrwt>
<rscale>  0 0.12500140E+03</rscale>
<asrwt>0</asrwt>
<pdfrwt beam="1">  1        4 0.50330547E-01 0.12500140E+03</pdfrwt>
<pdfrwt beam="2">  1       -4 0.18370095E-02 0.12500140E+03</pdfrwt>
<totfact> 0.70939605E+03</totfact>
</mgrwt>
</event>
<event>
 5    1  0.3246948E-002  0.1250008E+03  0.7818608E-02  0.1235068E+00
          4   -1    0    0  501    0  0.00000000000E+00  0.00000000000E+00  0.51707870385E+02  0.51723464305E+02  0.12700000000E+01 0.  1.
         -4   -1    0    0    0  501 -0.00000000000E+00 -0.00000000000E+00 -0.75513253200E+02  0.75523932028E+02  0.12700000000E+01 0.  1.
         25    2    1    2    0    0  0.00000000000E+00  0.00000000000E+00 -0.23805382816E+02  0.12724739633E+03  0.12500081449E+03 0.  0.
    9000005    1    3    3    0    0 -0.40543619143E+02  0.17521957291E+02  0.33101560928E+02  0.55204323892E+02  0.10000000000E+01 0.  0.
    9000005    1    3    3    0    0  0.40543619143E+02 -0.17521957291E+02 -0.56906943744E+02  0.72043072441E+02  0.10000000000E+01 0.  0.
<mgrwt>
<rscale>  0 0.12500081E+03</rscale>
<asrwt>0</asrwt>
<pdfrwt beam="1">  1        4 0.79570779E-02 0.12500081E+03</pdfrwt>
<pdfrwt beam="2">  1       -4 0.11619445E-01 0.12500081E+03</pdfrwt>
<totfact> 0.10403584E+04</totfact>
</mgrwt>
</event>
<event>
 4    1  0.3246948E-002  0.1249031E+03  0.7818608E-02  0.1235221E+00
         -4   -1    0    0    0  501 -0.00000000000E+00  0.00000000000E+00  0.25748267705E+02  0.25779569232E+02  0.12700000000E+01 0.  1.
          4   -1    0    0  501    0  0.00000000000E+00 -0.00000000000E+00 -0.15134807388E+03  0.15135340223E+03  0.12700000000E+01 0.  1.
    9000005    1    1    2    0    0  0.54204964965E+02 -0.19417024833E+02 -0.28528568152E+02  0.64265685097E+02  0.10000000000E+01 0.  0.
    9000005    1    1    2    0    0 -0.54204964965E+02  0.19417024833E+02 -0.97071238020E+02  0.11286728636E+03  0.10000000000E+01 0.  0.
<mgrwt>
<rscale>  0 0.12490308E+03</rscale>
<asrwt>0</asrwt>
<pdfrwt beam="2">  1        4 0.23287136E-01 0.12490308E+03</pdfrwt>
<pdfrwt beam="1">  1       -4 0.39640897E-02 0.12490308E+03</pdfrwt>
<totfact> 0.94340569E+03</totfact>
</mgrwt>
</event>
<event>
 5    1  0.3246948E-002  0.1249916E+03  0.7818608E-02  0.1235082E+00
          4   -1    0    0  501    0  0.00000000000E+00  0.00000000000E+00  0.14429330856E+02  0.14485112667E+02  0.12700000000E+01 0. -1.
         -4   -1    0    0    0  501 -0.00000000000E+00 -0.00000000000E+00 -0.27009990719E+03  0.27010289292E+03  0.12700000000E+01 0. -1.
         25    2    1    2    0    0  0.00000000000E+00  0.00000000000E+00 -0.25567057634E+03  0.28458800559E+03  0.12499155700E+03 0.  0.
    9000005    1    3    3    0    0  0.31442179600E+02  0.49849278091E+02 -0.17511292094E+03  0.18476768187E+03  0.10000000000E+01 0.  0.
    9000005    1    3    3    0    0 -0.31442179600E+02 -0.49849278091E+02 -0.80557655399E+02  0.99820323720E+02  0.10000000000E+01 0.  0.
<mgrwt>
<rscale>  0 0.12499156E+03</rscale>
<asrwt>0</asrwt>
<pdfrwt beam="1">  1        4 0.22244178E-02 0.12499156E+03</pdfrwt>
<pdfrwt beam="2">  1       -4 0.41558349E-01 0.12499156E+03</pdfrwt>
<totfact> 0.77588233E+03</totfact>
</mgrwt>
</event>
<event>
 5    1  0.3246948E-002  0.1250061E+03  0.7818608E-02  0.1235060E+00
          4   -1    0    0  501    0  0.00000000000E+00  0.00000000000E+00  0.61437288385E+02  0.61450413376E+02  0.12700000000E+01 0.  1.
         -4   -1    0    0    0  501 -0.00000000000E+00 -0.00000000000E+00 -0.63561012036E+02  0.63573698579E+02  0.12700000000E+01 0.  1.
         25    2    1    2    0    0  0.00000000000E+00  0.00000000000E+00 -0.21237236507E+01  0.12502411195E+03  0.12500607332E+03 0.  0.
    9000005    1    3    3    0    0  0.43139927524E+02 -0.28802820460E+02 -0.35923365671E+02  0.63104231351E+02  0.10000000000E+01 0.  0.
    9000005    1    3    3    0    0 -0.43139927524E+02  0.28802820460E+02  0.33799642021E+02  0.61919880604E+02  0.10000000000E+01 0.  0.
<mgrwt>
<rscale>  0 0.12500607E+03</rscale>
<asrwt>0</asrwt>
<pdfrwt beam="1">  1        4 0.94538760E-02 0.12500607E+03</pdfrwt>
<pdfrwt beam="2">  1       -4 0.97806027E-02 0.12500607E+03</pdfrwt>
<totfact> 0.10450904E+04</totfact>
</mgrwt>
</event>
<event>
 5    1  0.3246948E-002  0.1249998E+03  0.7818608E-02  0.1235070E+00
         -4   -1    0    0    0  501 -0.00000000000E+00  0.00000000000E+00  0.81169331908E+02  0.81179266703E+02  0.12700000000E+01 0.  1.
          4   -1    0    0  501    0  0.00000000000E+00 -0.00000000000E+00 -0.48103311296E+02  0.48120073333E+02  0.12700000000E+01 0.  1.
         25    2    1    2    0    0  0.00000000000E+00  0.00000000000E+00  0.33066020613E+02  0.12929934004E+03  0.12499983046E+03 0.  0.
    9000005    1    3    3    0    0 -0.26999405675E+01  0.33790684182E+02  0.70837717077E+02  0.78537138840E+02  0.10000000000E+01 0.  0.
    9000005    1    3    3    0    0  0.26999405675E+01 -0.33790684182E+02 -0.37771696464E+02  0.50762201196E+02  0.10000000000E+01 0.  0.
<mgrwt>
<rscale>  0 0.12499983E+03</rscale>
<asrwt>0</asrwt>
<pdfrwt beam="2">  1        4 0.74025631E-02 0.12499983E+03</pdfrwt>
<pdfrwt beam="1">  1       -4 0.12489643E-01 0.12499983E+03</pdfrwt>
<totfact> 0.10359559E+04</totfact>
</mgrwt>
</event>
<event>
 5    1  0.3246948E-002  0.1249930E+03  0.7818608E-02  0.1235080E+00
          4   -1    0    0  501    0  0.00000000000E+00  0.00000000000E+00  0.11792794288E+03  0.11793478118E+03  0.12700000000E+01 0.  1.
         -4   -1    0    0    0  501 -0.00000000000E+00 -0.00000000000E+00 -0.33100375547E+02  0.33124730359E+02  0.12700000000E+01 0.  1.
         25    2    1    2    0    0  0.00000000000E+00  0.00000000000E+00  0.84827567330E+02  0.15105951154E+03  0.12499303919E+03 0.  0.
    9000005    1    3    3    0    0  0.19801496096E+02 -0.40322877810E+02  0.94909398023E+02  0.10500870229E+03  0.10000000000E+01 0.  0.
    9000005    1    3    3    0    0 -0.19801496096E+02  0.40322877810E+02 -0.10081830693E+02  0.46050809251E+02  0.10000000000E+01 0.  0.
<mgrwt>
<rscale>  0 0.12499304E+03</rscale>
<asrwt>0</asrwt>
<pdfrwt beam="1">  1        4 0.18145160E-01 0.12499304E+03</pdfrwt>
<pdfrwt beam="2">  1       -4 0.50947650E-02 0.12499304E+03</pdfrwt>
<totfact> 0.99108442E+03</totfact>
</mgrwt>
</event>
<event>
 5    1  0.3246948E-002  0.1249992E+03  0.7818608E-02  0.1235071E+00
         -4   -1    0    0    0  501 -0.00000000000E+00  0.00000000000E+00  0.62315283870E+01  0.63596262499E+01  0.12700000000E+01 0. -1.
          4   -1    0    0  501    0  0.00000000000E+00 -0.00000000000E+00 -0.62033862356E+03  0.62033992357E+03  0.12700000000E+01 0. -1.
         25    2    1    2    0    0  0.00000000000E+00  0.00000000000E+00 -0.61410709517E+03  0.62669954982E+03  0.12499920563E+03 0.  0.
    9000005    1    3    3    0    0  0.61107418473E+02 -0.82999998693E+01 -0.35773678204E+03  0.36301461653E+03  0.10000000000E+01 0.  0.
    9000005    1    3    3    0    0 -0.61107418473E+02  0.82999998693E+01 -0.25637031313E+03  0.26368493329E+03  0.10000000000E+01 0.  0.
<mgrwt>
<rscale>  0 0.12499921E+03</rscale>
<asrwt>0</asrwt>
<pdfrwt beam="2">  1        4 0.95446617E-01 0.12499921E+03</pdfrwt>
<pdfrwt beam="1">  1       -4 0.96865085E-03 0.12499921E+03</pdfrwt>
<totfact> 0.47225334E+03</totfact>
</mgrwt>
</event>
<event>
 5    1  0.3246948E-002  0.1249987E+03  0.7818608E-02  0.1235071E+00
          4   -1    0    0  501    0  0.00000000000E+00  0.00000000000E+00  0.22033560947E+02  0.22070131581E+02  0.12700000000E+01 0.  1.
         -4   -1    0    0    0  501 -0.00000000000E+00 -0.00000000000E+00 -0.17709671580E+03  0.17710126947E+03  0.12700000000E+01 0.  1.
         25    2    1    2    0    0  0.00000000000E+00  0.00000000000E+00 -0.15506315485E+03  0.19917140105E+03  0.12499866001E+03 0.  0.
    9000005    1    3    3    0    0  0.25720290883E+02  0.42171381050E+02 -0.16539814194E+02  0.52101095922E+02  0.10000000000E+01 0.  0.
    9000005    1    3    3    0    0 -0.25720290883E+02 -0.42171381050E+02 -0.13852334066E+03  0.14707030513E+03  0.10000000000E+01 0.  0.
<mgrwt>
<rscale>  0 0.12499866E+03</rscale>
<asrwt>0</asrwt>
<pdfrwt beam="1">  1        4 0.33929421E-02 0.12499866E+03</pdfrwt>
<pdfrwt beam="2">  1       -4 0.27248811E-01 0.12499866E+03</pdfrwt>
<totfact> 0.90278152E+03</totfact>
</mgrwt>
</event>
<event>
 5    1  0.3246948E-002  0.1249989E+03  0.7818608E-02  0.1235071E+00
          4   -1    0    0  501    0  0.00000000000E+00  0.00000000000E+00  0.93781540000E+02  0.93790138846E+02  0.12700000000E+01 0.  1.
         -4   -1    0    0    0  501 -0.00000000000E+00 -0.00000000000E+00 -0.41631710729E+02  0.41651077276E+02  0.12700000000E+01 0.  1.
         25    2    1    2    0    0  0.00000000000E+00  0.00000000000E+00  0.52149829271E+02  0.13544121612E+03  0.12499887332E+03 0.  0.
    9000005    1    3    3    0    0 -0.21210724894E+02  0.54208594177E+02  0.50705200993E+02  0.77204170489E+02  0.10000000000E+01 0.  0.
    9000005    1    3    3    0    0  0.21210724894E+02 -0.54208594177E+02  0.14446282780E+01  0.58237045633E+02  0.10000000000E+01 0.  0.
<mgrwt>
<rscale>  0 0.12499887E+03</rscale>
<asrwt>0</asrwt>
<pdfrwt beam="1">  1        4 0.14430081E-01 0.12499887E+03</pdfrwt>
<pdfrwt beam="2">  1       -4 0.64070297E-02 0.12499887E+03</pdfrwt>
<totfact> 0.10229039E+04</totfact>
</mgrwt>
</event>
<event>
 5    1  0.3246948E-002  0.1249954E+03  0.7818608E-02  0.1235076E+00
         -4   -1    0    0    0  501 -0.00000000000E+00  0.00000000000E+00  0.14079377197E+03  0.14079949974E+03  0.12700000000E+01 0. -1.
          4   -1    0    0  501    0  0.00000000000E+00 -0.00000000000E+00 -0.27721620244E+02  0.27750696008E+02  0.12700000000E+01 0. -1.
         25    2    1    2    0    0  0.00000000000E+00  0.00000000000E+00  0.11307215173E+03  0.16855019575E+03  0.12499542787E+03 0.  0.
    9000005    1    3    3    0    0 -0.53713592439E+02 -0.22101832825E+02  0.87618474916E+02  0.10512677192E+03  0.10000000000E+01 0.  0.
    9000005    1    3    3    0    0  0.53713592439E+02  0.22101832825E+02  0.25453676813E+02  0.63423423830E+02  0.10000000000E+01 0.  0.
<mgrwt>
<rscale>  0 0.12499543E+03</rscale>
<asrwt>0</asrwt>
<pdfrwt beam="2">  1        4 0.42675419E-02 0.12499543E+03</pdfrwt>
<pdfrwt beam="1">  1       -4 0.21663257E-01 0.12499543E+03</pdfrwt>
<totfact> 0.95729063E+03</totfact>
</mgrwt>
</event>
<event>
 5    1  0.3246948E-002  0.1250276E+03  0.7818608E-02  0.1235026E+00
         -4   -1    0    0    0  501 -0.00000000000E+00  0.00000000000E+00  0.46178138040E+03  0.46178312679E+03  0.12700000000E+01 0. -1.
          4   -1    0    0  501    0  0.00000000000E+00 -0.00000000000E+00 -0.84134093461E+01  0.85087223967E+01  0.12700000000E+01 0. -1.
         25    2    1    2    0    0  0.00000000000E+00  0.00000000000E+00  0.45336797106E+03  0.47029184919E+03  0.12502762187E+03 0.  0.
    9000005    1    3    3    0    0 -0.54597380239E+02  0.27215254331E+02  0.17546222769E+03  0.18576742810E+03  0.10000000000E+01 0.  0.
    9000005    1    3    3    0    0  0.54597380239E+02 -0.27215254331E+02  0.27790574337E+03  0.28452442109E+03  0.10000000000E+01 0.  0.
<mgrwt>
<rscale>  0 0.12502762E+03</rscale>
<asrwt>0</asrwt>
<pdfrwt beam="2">  1        4 0.13018371E-02 0.12502762E+03</pdfrwt>
<pdfrwt beam="1">  1       -4 0.71050739E-01 0.12502762E+03</pdfrwt>
<totfact> 0.58209962E+03</totfact>
</mgrwt>
</event>
<event>
 5    1  0.3246948E-002  0.1249807E+03  0.7818608E-02  0.1235100E+00
          4   -1    0    0  501    0  0.00000000000E+00  0.00000000000E+00  0.53237133602E+03  0.53237285084E+03  0.12700000000E+01 0.  1.
         -4   -1    0    0    0  501 -0.00000000000E+00 -0.00000000000E+00 -0.72786749055E+01  0.73886404961E+01  0.12700000000E+01 0.  1.
         25    2    1    2    0    0  0.00000000000E+00  0.00000000000E+00  0.52509266111E+03  0.53976149134E+03  0.12498065761E+03 0.  0.
    9000005    1    3    3    0    0 -0.57983671792E+02 -0.22681612792E+02  0.28518563285E+03  0.29190479088E+03  0.10000000000E+01 0.  0.
    9000005    1    3    3    0    0  0.57983671792E+02  0.22681612792E+02  0.23990702826E+03  0.24785670046E+03  0.10000000000E+01 0.  0.
<mgrwt>
<rscale>  0 0.12498066E+03</rscale>
<asrwt>0</asrwt>
<pdfrwt beam="1">  1        4 0.81911859E-01 0.12498066E+03</pdfrwt>
<pdfrwt beam="2">  1       -4 0.11283715E-02 0.12498066E+03</pdfrwt>
<totfact> 0.52928638E+03</totfact>
</mgrwt>
</event>
<event>
 5    1  0.3246948E-002  0.1249994E+03  0.7818608E-02  0.1235070E+00
         -4   -1    0    0    0  501 -0.00000000000E+00  0.00000000000E+00  0.42086608806E+03  0.42086800422E+03  0.12700000000E+01 0. -1.
          4   -1    0    0  501    0  0.00000000000E+00 -0.00000000000E+00 -0.92359698953E+01  0.93228772333E+01  0.12700000000E+01 0. -1.
         25    2    1    2    0    0  0.00000000000E+00  0.00000000000E+00  0.41163011816E+03  0.43019088145E+03  0.12499936123E+03 0.  0.
    9000005    1    3    3    0    0 -0.46656338024E+02  0.32231859555E+02  0.11544561264E+03  0.12862502138E+03  0.10000000000E+01 0.  0.
    9000005    1    3    3    0    0  0.46656338024E+02 -0.32231859555E+02  0.29618450552E+03  0.30156586007E+03  0.10000000000E+01 0.  0.
<mgrwt>
<rscale>  0 0.12499936E+03</rscale>
<asrwt>0</asrwt>
<pdfrwt beam="2">  1        4 0.14277511E-02 0.12499936E+03</pdfrwt>
<pdfrwt beam="1">  1       -4 0.64755460E-01 0.12499936E+03</pdfrwt>
<totfact> 0.61719561E+03</totfact>
</mgrwt>
</event>
<event>
 5    1  0.3246948E-002  0.1250033E+03  0.7818608E-02  0.1235064E+00
          4   -1    0    0  501    0  0.00000000000E+00  0.00000000000E+00  0.54638467785E+01  0.56095027960E+01  0.12700000000E+01 0.  1.
         -4   -1    0    0    0  501 -0.00000000000E+00 -0.00000000000E+00 -0.70541415713E+03  0.70541530035E+03  0.12700000000E+01 0.  1.
         25    2    1    2    0    0  0.00000000000E+00  0.00000000000E+00 -0.69995031035E+03  0.71102480315E+03  0.12500333491E+03 0.  0.
    9000005    1    3    3    0    0  0.51181171642E+02 -0.17343770482E+02 -0.52850551006E+03  0.53126207550E+03  0.10000000000E+01 0.  0.
    9000005    1    3    3    0    0 -0.51181171642E+02  0.17343770482E+02 -0.17144480029E+03  0.17976272765E+03  0.10000000000E+01 0.  0.
<mgrwt>
<rscale>  0 0.12500333E+03</rscale>
<asrwt>0</asrwt>
<pdfrwt beam="1">  1        4 0.85188462E-03 0.12500333E+03</pdfrwt>
<pdfrwt beam="2">  1       -4 0.10853648E+00 0.12500333E+03</pdfrwt>
<totfact> 0.42507991E+03</totfact>
</mgrwt>
</event>
<event>
 5    1  0.3246948E-002  0.1249996E+03  0.7818608E-02  0.1235070E+00
          4   -1    0    0  501    0  0.00000000000E+00  0.00000000000E+00  0.46274695142E+01  0.47985804260E+01  0.12700000000E+01 0. -1.
         -4   -1    0    0    0  501 -0.00000000000E+00 -0.00000000000E+00 -0.82864258621E+03  0.82864355942E+03  0.12700000000E+01 0. -1.
         25    2    1    2    0    0  0.00000000000E+00  0.00000000000E+00 -0.82401511669E+03  0.83344213985E+03  0.12499955176E+03 0.  0.
    9000005    1    3    3    0    0 -0.16383251714E+02  0.52138798839E+02 -0.20995111702E+03  0.21695007909E+03  0.10000000000E+01 0.  0.
    9000005    1    3    3    0    0  0.16383251714E+02 -0.52138798839E+02 -0.61406399968E+03  0.61649206076E+03  0.10000000000E+01 0.  0.
<mgrwt>
<rscale>  0 0.12499955E+03</rscale>
<asrwt>0</asrwt>
<pdfrwt beam="1">  1        4 0.72515629E-03 0.12499955E+03</pdfrwt>
<pdfrwt beam="2">  1       -4 0.12749660E+00 0.12499955E+03</pdfrwt>
<totfact> 0.36815021E+03</totfact>
</mgrwt>
</event>
<event>
 5    1  0.3246948E-002  0.1249987E+03  0.7818608E-02  0.1235071E+00
         -4   -1    0    0    0  501 -0.00000000000E+00  0.00000000000E+00  0.24277861323E+03  0.24278193496E+03  0.12700000000E+01 0. -1.
          4   -1    0    0  501    0  0.00000000000E+00 -0.00000000000E+00 -0.16060916224E+02  0.16111049933E+02  0.12700000000E+01 0. -1.
         25    2    1    2    0    0  0.00000000000E+00  0.00000000000E+00  0.22671769701E+03  0.25889298489E+03  0.12499865395E+03 0.  0.
    9000005    1    3    3    0    0  0.57422524681E+01  0.61220562592E+02  0.90273462163E+02  0.10923016396E+03  0.10000000000E+01 0.  0.
    9000005    1    3    3    0    0 -0.57422524681E+01 -0.61220562592E+02  0.13644423485E+03  0.14966282093E+03  0.10000000000E+01 0.  0.
<mgrwt>
<rscale>  0 0.12499865E+03</rscale>
<asrwt>0</asrwt>
<pdfrwt beam="2">  1        4 0.24750221E-02 0.12499865E+03</pdfrwt>
<pdfrwt beam="1">  1       -4 0.37354668E-01 0.12499865E+03</pdfrwt>
<totfact> 0.81064094E+03</totfact>
</mgrwt>
</event>
<event>
 5    1  0.3246948E-002  0.1249547E+03  0.7818608E-02  0.1235140E+00
         -4   -1    0    0    0  501 -0.00000000000E+00  0.00000000000E+00  0.35903304653E+02  0.35925759351E+02  0.12700000000E+01 0.  1.
          4   -1    0    0  501    0  0.00000000000E+00 -0.00000000000E+00 -0.10866024982E+03  0.10866767132E+03  0.12700000000E+01 0.  1.
         25    2    1    2    0    0  0.00000000000E+00  0.00000000000E+00 -0.72756945168E+02  0.14459343068E+03  0.12495474030E+03 0.  0.
    9000005    1    3    3    0    0  0.60649943428E+02  0.13081227399E+02 -0.44793836299E+02  0.76531182655E+02  0.10000000000E+01 0.  0.
    9000005    1    3    3    0    0 -0.60649943428E+02 -0.13081227399E+02 -0.27963108869E+02  0.68062248021E+02  0.10000000000E+01 0.  0.
<mgrwt>
<rscale>  0 0.12495474E+03</rscale>
<asrwt>0</asrwt>
<pdfrwt beam="2">  1        4 0.16719260E-01 0.12495474E+03</pdfrwt>
<pdfrwt beam="1">  1       -4 0.55258835E-02 0.12495474E+03</pdfrwt>
<totfact> 0.10049494E+04</totfact>
</mgrwt>
</event>
<event>
 5    1  0.3246948E-002  0.1250008E+03  0.7818608E-02  0.1235068E+00
         -4   -1    0    0    0  501 -0.00000000000E+00  0.00000000000E+00  0.12246736703E+04  0.12246743288E+04  0.12700000000E+01 0.  1.
          4   -1    0    0  501    0  0.00000000000E+00 -0.00000000000E+00 -0.30625650135E+01  0.33154493605E+01  0.12700000000E+01 0.  1.
         25    2    1    2    0    0  0.00000000000E+00  0.00000000000E+00  0.12216111053E+04  0.12279897782E+04  0.12500081084E+03 0.  0.
    9000005    1    3    3    0    0 -0.29499481260E+02  0.47197955160E+02  0.33165690899E+03  0.33629625577E+03  0.10000000000E+01 0.  0.
    9000005    1    3    3    0    0  0.29499481260E+02 -0.47197955160E+02  0.88995419629E+03  0.89169352238E+03  0.10000000000E+01 0.  0.
<mgrwt>
<rscale>  0 0.12500081E+03</rscale>
<asrwt>0</asrwt>
<pdfrwt beam="2">  1        4 0.49066768E-03 0.12500081E+03</pdfrwt>
<pdfrwt beam="1">  1       -4 0.18843063E+00 0.12500081E+03</pdfrwt>
<totfact> 0.23991267E+03</totfact>
</mgrwt>
</event>
<event>
 5    1  0.3246948E-002  0.1249984E+03  0.7818608E-02  0.1235072E+00
          4   -1    0    0  501    0  0.00000000000E+00  0.00000000000E+00  0.13159685201E+02  0.13220825034E+02  0.12700000000E+01 0.  1.
         -4   -1    0    0    0  501 -0.00000000000E+00 -0.00000000000E+00 -0.29607670410E+03  0.29607942788E+03  0.12700000000E+01 0.  1.
         25    2    1    2    0    0  0.00000000000E+00  0.00000000000E+00 -0.28291701890E+03  0.30930025291E+03  0.12499842746E+03 0.  0.
    9000005    1    3    3    0    0  0.53774316051E+02 -0.25827032039E+02 -0.95402197798E+02  0.11252240664E+03  0.10000000000E+01 0.  0.
    9000005    1    3    3    0    0 -0.53774316051E+02  0.25827032039E+02 -0.18751482110E+03  0.19677784628E+03  0.10000000000E+01 0.  0.
<mgrwt>
<rscale>  0 0.12499843E+03</rscale>
<asrwt>0</asrwt>
<pdfrwt beam="1">  1        4 0.20294798E-02 0.12499843E+03</pdfrwt>
<pdfrwt beam="2">  1       -4 0.45555170E-01 0.12499843E+03</pdfrwt>
<totfact> 0.74449447E+03</totfact>
</mgrwt>
</event>
<event>
 5    1  0.3246948E-002  0.1249910E+03  0.7818608E-02  0.1235083E+00
          4   -1    0    0  501    0  0.00000000000E+00  0.00000000000E+00  0.11991062879E+03  0.11991735402E+03  0.12700000000E+01 0.  1.
         -4   -1    0    0    0  501 -0.00000000000E+00 -0.00000000000E+00 -0.32551616901E+02  0.32576381979E+02  0.12700000000E+01 0.  1.
         25    2    1    2    0    0  0.00000000000E+00  0.00000000000E+00  0.87359011885E+02  0.15249373600E+03  0.12499096992E+03 0.  0.
    9000005    1    3    3    0    0  0.14604544204E+02 -0.28451848736E+02 -0.21816031034E+02  0.38726471799E+02  0.10000000000E+01 0.  0.
    9000005    1    3    3    0    0 -0.14604544204E+02  0.28451848736E+02  0.10917504292E+03  0.11376726420E+03  0.10000000000E+01 0.  0.
<mgrwt>
<rscale>  0 0.12499097E+03</rscale>
<asrwt>0</asrwt>
<pdfrwt beam="1">  1        4 0.18450212E-01 0.12499097E+03</pdfrwt>
<pdfrwt beam="2">  1       -4 0.50103634E-02 0.12499097E+03</pdfrwt>
<totfact> 0.98828990E+03</totfact>
</mgrwt>
</event>
<event>
 5    1  0.3246948E-002  0.1249980E+03  0.7818608E-02  0.1235072E+00
          4   -1    0    0  501    0  0.00000000000E+00  0.00000000000E+00  0.17287391006E+03  0.17287857495E+03  0.12700000000E+01 0.  1.
         -4   -1    0    0    0  501 -0.00000000000E+00 -0.00000000000E+00 -0.22572423951E+02  0.22608122944E+02  0.12700000000E+01 0.  1.
         25    2    1    2    0    0  0.00000000000E+00  0.00000000000E+00  0.15030148611E+03  0.19548669790E+03  0.12499804930E+03 0.  0.
    9000005    1    3    3    0    0  0.14952215291E+02 -0.59034855689E+02  0.53231041575E+02  0.80890213966E+02  0.10000000000E+01 0.  0.
    9000005    1    3    3    0    0 -0.14952215291E+02  0.59034855689E+02  0.97070444530E+02  0.11459648393E+03  0.10000000000E+01 0.  0.
<mgrwt>
<rscale>  0 0.12499805E+03</rscale>
<asrwt>0</asrwt>
<pdfrwt beam="1">  1        4 0.26599091E-01 0.12499805E+03</pdfrwt>
<pdfrwt beam="2">  1       -4 0.34757855E-02 0.12499805E+03</pdfrwt>
<totfact> 0.90905283E+03</totfact>
</mgrwt>
</event>
<event>
 4    1  0.3246948E-002  0.1253157E+03  0.7818608E-02  0.1234577E+00
          4   -1    0    0  501    0  0.00000000000E+00  0.00000000000E+00  0.14659175928E+02  0.14714086410E+02  0.12700000000E+01 0. -1.
         -4   -1    0    0    0  501 -0.00000000000E+00 -0.00000000000E+00 -0.26726198930E+03  0.26726500673E+03  0.12700000000E+01 0. -1.
    9000005    1    1    2    0    0 -0.53914973209E+02 -0.23392060254E+01 -0.54694637182E+02  0.76842693586E+02  0.10000000000E+01 0.  0.
    9000005    1    1    2    0    0  0.53914973209E+02  0.23392060254E+01 -0.19790817619E+03  0.20513639956E+03  0.10000000000E+01 0.  0.
<mgrwt>
<rscale>  0 0.12531571E+03</rscale>
<asrwt>0</asrwt>
<pdfrwt beam="1">  1        4 0.22597140E-02 0.12531571E+03</pdfrwt>
<pdfrwt beam="2">  1       -4 0.41121681E-01 0.12531571E+03</pdfrwt>
<totfact> 0.77372216E+03</totfact>
</mgrwt>
</event>
<event>
 5    1  0.3246948E-002  0.1249978E+03  0.7818608E-02  0.1235073E+00
          4   -1    0    0  501    0  0.00000000000E+00  0.00000000000E+00  0.78104272900E+02  0.78114597516E+02  0.12700000000E+01 0.  1.
         -4   -1    0    0    0  501 -0.00000000000E+00 -0.00000000000E+00 -0.49989819956E+02  0.50005949639E+02  0.12700000000E+01 0.  1.
         25    2    1    2    0    0  0.00000000000E+00  0.00000000000E+00  0.28114452943E+02  0.12812054716E+03  0.12499780854E+03 0.  0.
    9000005    1    3    3    0    0 -0.21890960717E+02  0.57944988201E+02  0.22526658524E+02  0.65918784599E+02  0.10000000000E+01 0.  0.
    9000005    1    3    3    0    0  0.21890960717E+02 -0.57944988201E+02  0.55877944189E+01  0.62201762557E+02  0.10000000000E+01 0.  0.
<mgrwt>
<rscale>  0 0.12499781E+03</rscale>
<asrwt>0</asrwt>
<pdfrwt beam="1">  1        4 0.12018077E-01 0.12499781E+03</pdfrwt>
<pdfrwt beam="2">  1       -4 0.76927765E-02 0.12499781E+03</pdfrwt>
<totfact> 0.10385399E+04</totfact>
</mgrwt>
</event>
<event>
 5    1  0.3246948E-002  0.1250010E+03  0.7818608E-02  0.1235068E+00
          4   -1    0    0  501    0  0.00000000000E+00  0.00000000000E+00  0.13075663493E+02  0.13137194365E+02  0.12700000000E+01 0.  1.
         -4   -1    0    0    0  501 -0.00000000000E+00 -0.00000000000E+00 -0.29798258621E+03  0.29798529257E+03  0.12700000000E+01 0.  1.
         25    2    1    2    0    0  0.00000000000E+00  0.00000000000E+00 -0.28490692272E+03  0.31112248693E+03  0.12500098904E+03 0.  0.
    9000005    1    3    3    0    0 -0.94685548652E+01 -0.45932373029E+02 -0.24525310391E+03  0.24969886143E+03  0.10000000000E+01 0.  0.
    9000005    1    3    3    0    0  0.94685548652E+01  0.45932373029E+02 -0.39653818813E+02  0.61423625502E+02  0.10000000000E+01 0.  0.
<mgrwt>
<rscale>  0 0.12500099E+03</rscale>
<asrwt>0</asrwt>
<pdfrwt beam="1">  1        4 0.20165821E-02 0.12500099E+03</pdfrwt>
<pdfrwt beam="2">  1       -4 0.45848411E-01 0.12500099E+03</pdfrwt>
<totfact> 0.74222878E+03</totfact>
</mgrwt>
</event>
<event>
 4    1  0.3246948E-002  0.1255304E+03  0.7818608E-02  0.1234243E+00
          4   -1    0    0  501    0  0.00000000000E+00  0.00000000000E+00  0.88508470014E+02  0.88517581102E+02  0.12700000000E+01 0. -1.
         -4   -1    0    0    0  501 -0.00000000000E+00 -0.00000000000E+00 -0.44489043925E+02  0.44507167168E+02  0.12700000000E+01 0. -1.
    9000005    1    1    2    0    0  0.50472848660E+02  0.21795556827E+02  0.54080595758E+02  0.77124999753E+02  0.10000000000E+01 0.  0.
    9000005    1    1    2    0    0 -0.50472848660E+02 -0.21795556827E+02 -0.10061169669E+02  0.55899748518E+02  0.10000000000E+01 0.  0.
<mgrwt>
<rscale>  0 0.12553037E+03</rscale>
<asrwt>0</asrwt>
<pdfrwt beam="1">  1        4 0.13618782E-01 0.12553037E+03</pdfrwt>
<pdfrwt beam="2">  1       -4 0.68465633E-02 0.12553037E+03</pdfrwt>
<totfact> 0.10157852E+04</totfact>
</mgrwt>
</event>
<event>
 5    1  0.3246948E-002  0.1250030E+03  0.7818608E-02  0.1235065E+00
         -4   -1    0    0    0  501 -0.00000000000E+00  0.00000000000E+00  0.18702827819E+02  0.18745897376E+02  0.12700000000E+01 0. -1.
          4   -1    0    0  501    0  0.00000000000E+00 -0.00000000000E+00 -0.20858371744E+03  0.20858758372E+03  0.12700000000E+01 0. -1.
         25    2    1    2    0    0  0.00000000000E+00  0.00000000000E+00 -0.18988088962E+03  0.22733348110E+03  0.12500303749E+03 0.  0.
    9000005    1    3    3    0    0  0.62424821175E+02 -0.47724597803E+00 -0.89684092869E+02  0.10927635872E+03  0.10000000000E+01 0.  0.
    9000005    1    3    3    0    0 -0.62424821175E+02  0.47724597803E+00 -0.10019679675E+03  0.11805712237E+03  0.10000000000E+01 0.  0.
<mgrwt>
<rscale>  0 0.12500304E+03</rscale>
<asrwt>0</asrwt>
<pdfrwt beam="2">  1        4 0.32093411E-01 0.12500304E+03</pdfrwt>
<pdfrwt beam="1">  1       -4 0.28809687E-02 0.12500304E+03</pdfrwt>
<totfact> 0.85714922E+03</totfact>
</mgrwt>
</event>
<event>
 5    1  0.3246948E-002  0.1250004E+03  0.7818608E-02  0.1235069E+00
          4   -1    0    0  501    0  0.00000000000E+00  0.00000000000E+00  0.11344223545E+03  0.11344934413E+03  0.12700000000E+01 0.  1.
         -4   -1    0    0    0  501 -0.00000000000E+00 -0.00000000000E+00 -0.34414139665E+02  0.34437565374E+02  0.12700000000E+01 0.  1.
         25    2    1    2    0    0  0.00000000000E+00  0.00000000000E+00  0.79028095782E+02  0.14788690950E+03  0.12500039232E+03 0.  0.
    9000005    1    3    3    0    0 -0.43405473444E+02 -0.25787648543E+02  0.83083899796E+02  0.97226397380E+02  0.10000000000E+01 0.  0.
    9000005    1    3    3    0    0  0.43405473444E+02  0.25787648543E+02 -0.40558040138E+01  0.50660512122E+02  0.10000000000E+01 0.  0.
<mgrwt>
<rscale>  0 0.12500039E+03</rscale>
<asrwt>0</asrwt>
<pdfrwt beam="1">  1        4 0.17455000E-01 0.12500039E+03</pdfrwt>
<pdfrwt beam="2">  1       -4 0.52968318E-02 0.12500039E+03</pdfrwt>
<totfact> 0.99725709E+03</totfact>
</mgrwt>
</event>
<event>
 5    1  0.3246948E-002  0.1250019E+03  0.7818608E-02  0.1235066E+00
          4   -1    0    0  501    0  0.00000000000E+00  0.00000000000E+00  0.83213205749E+02  0.83222896555E+02  0.12700000000E+01 0. -1.
         -4   -1    0    0    0  501 -0.00000000000E+00 -0.00000000000E+00 -0.46923050859E+02  0.46940234362E+02  0.12700000000E+01 0. -1.
         25    2    1    2    0    0  0.00000000000E+00  0.00000000000E+00  0.36290154890E+02  0.13016313092E+03  0.12500186122E+03 0.  0.
    9000005    1    3    3    0    0  0.13131798303E+02  0.56923071995E+02 -0.49679402028E+01  0.58637536458E+02  0.10000000000E+01 0.  0.
    9000005    1    3    3    0    0 -0.13131798303E+02 -0.56923071995E+02  0.41258095093E+02  0.71525594459E+02  0.10000000000E+01 0.  0.
<mgrwt>
<rscale>  0 0.12500186E+03</rscale>
<asrwt>0</asrwt>
<pdfrwt beam="1">  1        4 0.12804099E-01 0.12500186E+03</pdfrwt>
<pdfrwt beam="2">  1       -4 0.72209982E-02 0.12500186E+03</pdfrwt>
<totfact> 0.10340585E+04</totfact>
</mgrwt>
</event>
<event>
 5    1  0.3246948E-002  0.1250061E+03  0.7818608E-02  0.1235060E+00
         -4   -1    0    0    0  501 -0.00000000000E+00  0.00000000000E+00  0.32558783770E+02  0.32583543401E+02  0.12700000000E+01 0. -1.
          4   -1    0    0  501    0  0.00000000000E+00 -0.00000000000E+00 -0.11991333529E+03  0.11992006038E+03  0.12700000000E+01 0. -1.
         25    2    1    2    0    0  0.00000000000E+00  0.00000000000E+00 -0.87354551524E+02  0.15250360378E+03  0.12500612583E+03 0.  0.
    9000005    1    3    3    0    0 -0.12171192432E+02 -0.59782396365E+02 -0.60205944454E+02  0.85719476129E+02  0.10000000000E+01 0.  0.
    9000005    1    3    3    0    0  0.12171192432E+02  0.59782396365E+02 -0.27148607070E+02  0.66784127651E+02  0.10000000000E+01 0.  0.
<mgrwt>
<rscale>  0 0.12500613E+03</rscale>
<asrwt>0</asrwt>
<pdfrwt beam="2">  1        4 0.18450627E-01 0.12500613E+03</pdfrwt>
<pdfrwt beam="1">  1       -4 0.50114656E-02 0.12500613E+03</pdfrwt>
<totfact> 0.98793346E+03</totfact>
</mgrwt>
</event>
<event>
 5    1  0.3246948E-002  0.1250004E+03  0.7818608E-02  0.1235069E+00
         -4   -1    0    0    0  501 -0.00000000000E+00  0.00000000000E+00  0.22259502338E+02  0.22295702374E+02  0.12700000000E+01 0.  1.
          4   -1    0    0  501    0  0.00000000000E+00 -0.00000000000E+00 -0.17530688682E+03  0.17531148698E+03  0.12700000000E+01 0.  1.
         25    2    1    2    0    0  0.00000000000E+00  0.00000000000E+00 -0.15304738448E+03  0.19760718935E+03  0.12500039755E+03 0.  0.
    9000005    1    3    3    0    0 -0.40848322200E+02 -0.77457453270E+01 -0.15027842982E+03  0.15592686897E+03  0.10000000000E+01 0.  0.
    9000005    1    3    3    0    0  0.40848322200E+02  0.77457453270E+01 -0.27689546603E+01  0.41680320382E+02  0.10000000000E+01 0.  0.
<mgrwt>
<rscale>  0 0.12500040E+03</rscale>
<asrwt>0</asrwt>
<pdfrwt beam="2">  1        4 0.26973428E-01 0.12500040E+03</pdfrwt>
<pdfrwt beam="1">  1       -4 0.34276774E-02 0.12500040E+03</pdfrwt>
<totfact> 0.90539471E+03</totfact>
</mgrwt>
</event>
<event>
 5    1  0.3246948E-002  0.1250093E+03  0.7818608E-02  0.1235055E+00
          4   -1    0    0  501    0  0.00000000000E+00  0.00000000000E+00  0.37353832613E+01  0.39453755346E+01  0.12700000000E+01 0. -1.
         -4   -1    0    0    0  501 -0.00000000000E+00 -0.00000000000E+00 -0.10170935565E+04  0.10170943494E+04  0.12700000000E+01 0. -1.
         25    2    1    2    0    0  0.00000000000E+00  0.00000000000E+00 -0.10133581733E+04  0.10210397249E+04  0.12500933012E+03 0.  0.
    9000005    1    3    3    0    0 -0.43243605775E+02  0.13800314742E+02 -0.15581208075E+03  0.16229252181E+03  0.10000000000E+01 0.  0.
    9000005    1    3    3    0    0  0.43243605775E+02 -0.13800314742E+02 -0.85754609250E+03  0.85874720313E+03  0.10000000000E+01 0.  0.
<mgrwt>
<rscale>  0 0.12500933E+03</rscale>
<asrwt>0</asrwt>
<pdfrwt beam="1">  1        4 0.59088940E-03 0.12500933E+03</pdfrwt>
<pdfrwt beam="2">  1       -4 0.15649193E+00 0.12500933E+03</pdfrwt>
<totfact> 0.29910471E+03</totfact>
</mgrwt>
</event>
<event>
 5    1  0.3246948E-002  0.1250008E+03  0.7818608E-02  0.1235068E+00
         -4   -1    0    0    0  501 -0.00000000000E+00  0.00000000000E+00  0.55284843745E+03  0.55284989616E+03  0.12700000000E+01 0. -1.
          4   -1    0    0  501    0  0.00000000000E+00 -0.00000000000E+00 -0.70072247558E+01  0.71213832068E+01  0.12700000000E+01 0. -1.
         25    2    1    2    0    0  0.00000000000E+00  0.00000000000E+00  0.54584121269E+03  0.55997127937E+03  0.12500081698E+03 0.  0.
    9000005    1    3    3    0    0 -0.48387551588E+02  0.26998544795E+02  0.40237074153E+03  0.40616928762E+03  0.10000000000E+01 0.  0.
    9000005    1    3    3    0    0  0.48387551588E+02 -0.26998544795E+02  0.14347047116E+03  0.15380199175E+03  0.10000000000E+01 0.  0.
<mgrwt>
<rscale>  0 0.12500082E+03</rscale>
<asrwt>0</asrwt>
<pdfrwt beam="2">  1        4 0.10869282E-02 0.12500082E+03</pdfrwt>
<pdfrwt beam="1">  1       -4 0.85062497E-01 0.12500082E+03</pdfrwt>
<totfact> 0.51494997E+03</totfact>
</mgrwt>
</event>
<event>
 5    1  0.3246948E-002  0.1250005E+03  0.7818608E-02  0.1235068E+00
          4   -1    0    0  501    0  0.00000000000E+00  0.00000000000E+00  0.15309102775E+02  0.15361690265E+02  0.12700000000E+01 0.  1.
         -4   -1    0    0    0  501 -0.00000000000E+00 -0.00000000000E+00 -0.25466904330E+03  0.25467220994E+03  0.12700000000E+01 0.  1.
         25    2    1    2    0    0  0.00000000000E+00  0.00000000000E+00 -0.23935994053E+03  0.27003390021E+03  0.12500050453E+03 0.  0.
    9000005    1    3    3    0    0 -0.50816692944E+02 -0.16313428547E+02 -0.18990735252E+03  0.19726699363E+03  0.10000000000E+01 0.  0.
    9000005    1    3    3    0    0  0.50816692944E+02  0.16313428547E+02 -0.49452588005E+02  0.72766906579E+02  0.10000000000E+01 0.  0.
<mgrwt>
<rscale>  0 0.12500050E+03</rscale>
<asrwt>0</asrwt>
<pdfrwt beam="1">  1        4 0.23595355E-02 0.12500050E+03</pdfrwt>
<pdfrwt beam="2">  1       -4 0.39184139E-01 0.12500050E+03</pdfrwt>
<totfact> 0.79517354E+03</totfact>
</mgrwt>
</event>
<event>
 5    1  0.3246948E-002  0.1249924E+03  0.7818608E-02  0.1235081E+00
         -4   -1    0    0    0  501 -0.00000000000E+00  0.00000000000E+00  0.46801802666E+01  0.48494316500E+01  0.12700000000E+01 0. -1.
          4   -1    0    0  501    0  0.00000000000E+00 -0.00000000000E+00 -0.81954401971E+03  0.81954500374E+03  0.12700000000E+01 0. -1.
         25    2    1    2    0    0  0.00000000000E+00  0.00000000000E+00 -0.81486383945E+03  0.82439443539E+03  0.12499243280E+03 0.  0.
    9000005    1    3    3    0    0 -0.33599290831E+02 -0.82874186048E+01 -0.75060259618E+03  0.75140059292E+03  0.10000000000E+01 0.  0.
    9000005    1    3    3    0    0  0.33599290831E+02  0.82874186048E+01 -0.64261243270E+02  0.72993842467E+02  0.10000000000E+01 0.  0.
<mgrwt>
<rscale>  0 0.12499243E+03</rscale>
<asrwt>0</asrwt>
<pdfrwt beam="2">  1        4 0.12609668E+00 0.12499243E+03</pdfrwt>
<pdfrwt beam="1">  1       -4 0.73312341E-03 0.12499243E+03</pdfrwt>
<totfact> 0.37204797E+03</totfact>
</mgrwt>
</event>
<event>
 5    1  0.3246948E-002  0.1250210E+03  0.7818608E-02  0.1235037E+00
          4   -1    0    0  501    0  0.00000000000E+00  0.00000000000E+00  0.10435027889E+03  0.10435800690E+03  0.12700000000E+01 0.  1.
         -4   -1    0    0    0  501 -0.00000000000E+00 -0.00000000000E+00 -0.37426680987E+02  0.37448222250E+02  0.12700000000E+01 0.  1.
         25    2    1    2    0    0  0.00000000000E+00  0.00000000000E+00  0.66923597903E+02  0.14180622915E+03  0.12502095292E+03 0.  0.
    9000005    1    3    3    0    0  0.33447409836E+02 -0.39178626049E+02  0.73609877413E+02  0.89850475884E+02  0.10000000000E+01 0.  0.
    9000005    1    3    3    0    0 -0.33447409836E+02  0.39178626049E+02 -0.66862795105E+01  0.51955753266E+02  0.10000000000E+01 0.  0.
<mgrwt>
<rscale>  0 0.12502095E+03</rscale>
<asrwt>0</asrwt>
<pdfrwt beam="1">  1        4 0.16056140E-01 0.12502095E+03</pdfrwt>
<pdfrwt beam="2">  1       -4 0.57602024E-02 0.12502095E+03</pdfrwt>
<totfact> 0.10091523E+04</totfact>
</mgrwt>
</event>
<event>
 5    1  0.3246948E-002  0.1250000E+03  0.7818608E-02  0.1235069E+00
         -4   -1    0    0    0  501 -0.00000000000E+00  0.00000000000E+00  0.22397949450E+02  0.22433926084E+02  0.12700000000E+01 0.  1.
          4   -1    0    0  501    0  0.00000000000E+00 -0.00000000000E+00 -0.17422391242E+03  0.17422854118E+03  0.12700000000E+01 0.  1.
         25    2    1    2    0    0  0.00000000000E+00  0.00000000000E+00 -0.15182596297E+03  0.19666246726E+03  0.12500001198E+03 0.  0.
    9000005    1    3    3    0    0  0.30225051890E+02  0.34365649499E+02 -0.89654490735E+01  0.46646874540E+02  0.10000000000E+01 0.  0.
    9000005    1    3    3    0    0 -0.30225051890E+02 -0.34365649499E+02 -0.14286051390E+03  0.15001559272E+03  0.10000000000E+01 0.  0.
<mgrwt>
<rscale>  0 0.12500001E+03</rscale>
<asrwt>0</asrwt>
<pdfrwt beam="2">  1        4 0.26806801E-01 0.12500001E+03</pdfrwt>
<pdfrwt beam="1">  1       -4 0.34489620E-02 0.12500001E+03</pdfrwt>
<totfact> 0.90700792E+03</totfact>
</mgrwt>
</event>
<event>
 5    1  0.3246948E-002  0.1250055E+03  0.7818608E-02  0.1235061E+00
          4   -1    0    0  501    0  0.00000000000E+00  0.00000000000E+00  0.60029172073E+03  0.60029306416E+03  0.12700000000E+01 0. -1.
         -4   -1    0    0    0  501 -0.00000000000E+00 -0.00000000000E+00 -0.64445040569E+01  0.65684497821E+01  0.12700000000E+01 0. -1.
         25    2    1    2    0    0  0.00000000000E+00  0.00000000000E+00  0.59384721667E+03  0.60686151394E+03  0.12500552129E+03 0.  0.
    9000005    1    3    3    0    0  0.36690252736E+02 -0.49339249415E+02  0.35121334301E+03  0.35655623467E+03  0.10000000000E+01 0.  0.
    9000005    1    3    3    0    0 -0.36690252736E+02  0.49339249415E+02  0.24263387366E+03  0.25030527927E+03  0.10000000000E+01 0.  0.
<mgrwt>
<rscale>  0 0.12500552E+03</rscale>
<asrwt>0</asrwt>
<pdfrwt beam="1">  1        4 0.92362203E-01 0.12500552E+03</pdfrwt>
<pdfrwt beam="2">  1       -4 0.10010999E-02 0.12500552E+03</pdfrwt>
<totfact> 0.48431476E+03</totfact>
</mgrwt>
</event>
<event>
 5    1  0.3246948E-002  0.1249986E+03  0.7818608E-02  0.1235071E+00
          4   -1    0    0  501    0  0.00000000000E+00  0.00000000000E+00  0.26960198767E+02  0.26990094805E+02  0.12700000000E+01 0.  1.
         -4   -1    0    0    0  501 -0.00000000000E+00 -0.00000000000E+00 -0.14477337001E+03  0.14477894034E+03  0.12700000000E+01 0.  1.
         25    2    1    2    0    0  0.00000000000E+00  0.00000000000E+00 -0.11781317125E+03  0.17176903514E+03  0.12499863245E+03 0.  0.
    9000005    1    3    3    0    0  0.12000700887E+02  0.49168502406E+02 -0.10927700821E+03  0.12043264912E+03  0.10000000000E+01 0.  0.
    9000005    1    3    3    0    0 -0.12000700887E+02 -0.49168502406E+02 -0.85361630393E+01  0.51336386025E+02  0.10000000000E+01 0.  0.
<mgrwt>
<rscale>  0 0.12499863E+03</rscale>
<asrwt>0</asrwt>
<pdfrwt beam="1">  1        4 0.41504512E-02 0.12499863E+03</pdfrwt>
<pdfrwt beam="2">  1       -4 0.22275554E-01 0.12499863E+03</pdfrwt>
<totfact> 0.95122857E+03</totfact>
</mgrwt>
</event>
<event>
 4    1  0.3246948E-002  0.1251770E+03  0.7818608E-02  0.1234793E+00
         -4   -1    0    0    0  501 -0.00000000000E+00  0.00000000000E+00  0.27752405658E+02  0.27781449203E+02  0.12700000000E+01 0. -1.
          4   -1    0    0  501    0  0.00000000000E+00 -0.00000000000E+00 -0.14104666465E+03  0.14105238215E+03  0.12700000000E+01 0. -1.
    9000005    1    1    2    0    0  0.37973520364E+02  0.48458086074E+02 -0.71795585655E+02  0.94582136127E+02  0.10000000000E+01 0.  0.
    9000005    1    1    2    0    0 -0.37973520364E+02 -0.48458086074E+02 -0.41498673341E+02  0.74251695225E+02  0.10000000000E+01 0.  0.
<mgrwt>
<rscale>  0 0.12517697E+03</rscale>
<asrwt>0</asrwt>
<pdfrwt beam="2">  1        4 0.21702160E-01 0.12517697E+03</pdfrwt>
<pdfrwt beam="1">  1       -4 0.42722749E-02 0.12517697E+03</pdfrwt>
<totfact> 0.95287037E+03</totfact>
</mgrwt>
</event>
<event>
 5    1  0.3246948E-002  0.1249907E+03  0.7818608E-02  0.1235084E+00
          4   -1    0    0  501    0  0.00000000000E+00  0.00000000000E+00  0.19376714262E+03  0.19377130453E+03  0.12700000000E+01 0. -1.
         -4   -1    0    0    0  501 -0.00000000000E+00 -0.00000000000E+00 -0.20132123805E+02  0.20172141902E+02  0.12700000000E+01 0. -1.
         25    2    1    2    0    0  0.00000000000E+00  0.00000000000E+00  0.17363501881E+03  0.21394344643E+03  0.12499071370E+03 0.  0.
    9000005    1    3    3    0    0 -0.49706414437E+02 -0.14548179279E+02  0.14665988258E+03  0.15553937867E+03  0.10000000000E+01 0.  0.
    9000005    1    3    3    0    0  0.49706414437E+02  0.14548179279E+02  0.26975136226E+02  0.58404067760E+02  0.10000000000E+01 0.  0.
<mgrwt>
<rscale>  0 0.12499071E+03</rscale>
<asrwt>0</asrwt>
<pdfrwt beam="1">  1        4 0.29813727E-01 0.12499071E+03</pdfrwt>
<pdfrwt beam="2">  1       -4 0.31006484E-02 0.12499071E+03</pdfrwt>
<totfact> 0.87854119E+03</totfact>
</mgrwt>
</event>
<event>
 5    1  0.3246948E-002  0.1250017E+03  0.7818608E-02  0.1235067E+00
         -4   -1    0    0    0  501 -0.00000000000E+00  0.00000000000E+00  0.14269855274E+03  0.14270420405E+03  0.12700000000E+01 0. -1.
          4   -1    0    0  501    0  0.00000000000E+00 -0.00000000000E+00 -0.27353939379E+02  0.27383405550E+02  0.12700000000E+01 0. -1.
         25    2    1    2    0    0  0.00000000000E+00  0.00000000000E+00  0.11534461336E+03  0.17008760960E+03  0.12500166042E+03 0.  0.
    9000005    1    3    3    0    0 -0.31892886109E+02 -0.39334728095E+02  0.10749962579E+03  0.11883411364E+03  0.10000000000E+01 0.  0.
    9000005    1    3    3    0    0  0.31892886109E+02  0.39334728095E+02  0.78449875702E+01  0.51253495965E+02  0.10000000000E+01 0.  0.
<mgrwt>
<rscale>  0 0.12500166E+03</rscale>
<asrwt>0</asrwt>
<pdfrwt beam="2">  1        4 0.42109996E-02 0.12500166E+03</pdfrwt>
<pdfrwt beam="1">  1       -4 0.21956325E-01 0.12500166E+03</pdfrwt>
<totfact> 0.95428753E+03</totfact>
</mgrwt>
</event>
<event>
 5    1  0.3246948E-002  0.1249992E+03  0.7818608E-02  0.1235070E+00
          4   -1    0    0  501    0  0.00000000000E+00  0.00000000000E+00  0.30883506593E+03  0.30883767719E+03  0.12700000000E+01 0. -1.
         -4   -1    0    0    0  501 -0.00000000000E+00 -0.00000000000E+00 -0.12613632048E+02  0.12677405627E+02  0.12700000000E+01 0. -1.
         25    2    1    2    0    0  0.00000000000E+00  0.00000000000E+00  0.29622143389E+03  0.32151508282E+03  0.12499924233E+03 0.  0.
    9000005    1    3    3    0    0  0.10587695521E+02  0.59863098018E+02  0.11088018015E+03  0.12645593759E+03  0.10000000000E+01 0.  0.
    9000005    1    3    3    0    0 -0.10587695521E+02 -0.59863098018E+02  0.18534125373E+03  0.19505914523E+03  0.10000000000E+01 0.  0.
<mgrwt>
<rscale>  0 0.12499924E+03</rscale>
<asrwt>0</asrwt>
<pdfrwt beam="1">  1        4 0.47518195E-01 0.12499924E+03</pdfrwt>
<pdfrwt beam="2">  1       -4 0.19456652E-02 0.12499924E+03</pdfrwt>
<totfact> 0.72977510E+03</totfact>
</mgrwt>
</event>
<event>
 5    1  0.3246948E-002  0.1250014E+03  0.7818608E-02  0.1235067E+00
         -4   -1    0    0    0  501 -0.00000000000E+00  0.00000000000E+00  0.47341561653E+02  0.47358593304E+02  0.12700000000E+01 0. -1.
          4   -1    0    0  501    0  0.00000000000E+00 -0.00000000000E+00 -0.82477177233E+02  0.82486954510E+02  0.12700000000E+01 0. -1.
         25    2    1    2    0    0  0.00000000000E+00  0.00000000000E+00 -0.35135615580E+02  0.12984554781E+03  0.12500141921E+03 0.  0.
    9000005    1    3    3    0    0  0.49574875031E+02  0.78130177413E-01 -0.57090458197E+02  0.75617423626E+02  0.10000000000E+01 0.  0.
    9000005    1    3    3    0    0 -0.49574875031E+02 -0.78130177413E-01  0.21954842617E+02  0.54228124188E+02  0.10000000000E+01 0.  0.
<mgrwt>
<rscale>  0 0.12500142E+03</rscale>
<asrwt>0</asrwt>
<pdfrwt beam="2">  1        4 0.12690859E-01 0.12500142E+03</pdfrwt>
<pdfrwt beam="1">  1       -4 0.72853794E-02 0.12500142E+03</pdfrwt>
<totfact> 0.10347481E+04</totfact>
</mgrwt>
</event>
<event>
 5    1  0.3246948E-002  0.1250002E+03  0.7818608E-02  0.1235069E+00
          4   -1    0    0  501    0  0.00000000000E+00  0.00000000000E+00  0.20886157435E+02  0.20924733509E+02  0.12700000000E+01 0. -1.
         -4   -1    0    0    0  501 -0.00000000000E+00 -0.00000000000E+00 -0.18681308703E+03  0.18681740386E+03  0.12700000000E+01 0. -1.
         25    2    1    2    0    0  0.00000000000E+00  0.00000000000E+00 -0.16592692960E+03  0.20774213737E+03  0.12500019870E+03 0.  0.
    9000005    1    3    3    0    0  0.16620700781E+02  0.58011830033E+02 -0.55978525937E+02  0.82317771376E+02  0.10000000000E+01 0.  0.
    9000005    1    3    3    0    0 -0.16620700781E+02 -0.58011830033E+02 -0.10994840366E+03  0.12542436600E+03  0.10000000000E+01 0.  0.
<mgrwt>
<rscale>  0 0.12500020E+03</rscale>
<asrwt>0</asrwt>
<pdfrwt beam="1">  1        4 0.32165546E-02 0.12500020E+03</pdfrwt>
<pdfrwt beam="2">  1       -4 0.28743773E-01 0.12500020E+03</pdfrwt>
<totfact> 0.88845558E+03</totfact>
</mgrwt>
</event>
<event>
 5    1  0.3246948E-002  0.1250042E+03  0.7818608E-02  0.1235063E+00
          4   -1    0    0  501    0  0.00000000000E+00  0.00000000000E+00  0.10515282790E+04  0.10515290459E+04  0.12700000000E+01 0. -1.
         -4   -1    0    0    0  501 -0.00000000000E+00 -0.00000000000E+00 -0.36057507335E+01  0.38228704336E+01  0.12700000000E+01 0. -1.
         25    2    1    2    0    0  0.00000000000E+00  0.00000000000E+00  0.10479225282E+04  0.10553519163E+04  0.12500416843E+03 0.  0.
    9000005    1    3    3    0    0  0.49321501700E+02 -0.31641887689E+01  0.20105361473E+03  0.20704149008E+03  0.10000000000E+01 0.  0.
    9000005    1    3    3    0    0 -0.49321501700E+02  0.31641887689E+01  0.84686891351E+03  0.84831042625E+03  0.10000000000E+01 0.  0.
<mgrwt>
<rscale>  0 0.12500417E+03</rscale>
<asrwt>0</asrwt>
<pdfrwt beam="1">  1        4 0.16179032E+00 0.12500417E+03</pdfrwt>
<pdfrwt beam="2">  1       -4 0.57149146E-03 0.12500417E+03</pdfrwt>
<totfact> 0.28825630E+03</totfact>
</mgrwt>
</event>
<event>
 5    1  0.3246948E-002  0.1249993E+03  0.7818608E-02  0.1235070E+00
          4   -1    0    0  501    0  0.00000000000E+00  0.00000000000E+00  0.12975771715E+03  0.12976393205E+03  0.12700000000E+01 0.  1.
         -4   -1    0    0    0  501 -0.00000000000E+00 -0.00000000000E+00 -0.30083500868E+02  0.30110295988E+02  0.12700000000E+01 0.  1.
         25    2    1    2    0    0  0.00000000000E+00  0.00000000000E+00  0.99674216284E+02  0.15987422803E+03  0.12499927759E+03 0.  0.
    9000005    1    3    3    0    0  0.41597951747E+02 -0.74992145680E+01 -0.90327633960E+01  0.43234461061E+02  0.10000000000E+01 0.  0.
    9000005    1    3    3    0    0 -0.41597951747E+02  0.74992145680E+01  0.10870697968E+03  0.11663976697E+03  0.10000000000E+01 0.  0.
<mgrwt>
<rscale>  0 0.12499928E+03</rscale>
<asrwt>0</asrwt>
<pdfrwt beam="1">  1        4 0.19965265E-01 0.12499928E+03</pdfrwt>
<pdfrwt beam="2">  1       -4 0.46307701E-02 0.12499928E+03</pdfrwt>
<totfact> 0.97368619E+03</totfact>
</mgrwt>
</event>
<event>
 5    1  0.3246948E-002  0.1250328E+03  0.7818608E-02  0.1235018E+00
          4   -1    0    0  501    0  0.00000000000E+00  0.00000000000E+00  0.25676285543E+02  0.25707674716E+02  0.12700000000E+01 0.  1.
         -4   -1    0    0    0  501 -0.00000000000E+00 -0.00000000000E+00 -0.15208743083E+03  0.15209273327E+03  0.12700000000E+01 0.  1.
         25    2    1    2    0    0  0.00000000000E+00  0.00000000000E+00 -0.12641114528E+03  0.17780040799E+03  0.12503282541E+03 0.  0.
    9000005    1    3    3    0    0  0.55590403062E+02  0.17948716645E+02 -0.31572119741E+02  0.66409698740E+02  0.10000000000E+01 0.  0.
    9000005    1    3    3    0    0 -0.55590403062E+02 -0.17948716645E+02 -0.94839025541E+02  0.11139070925E+03  0.10000000000E+01 0.  0.
<mgrwt>
<rscale>  0 0.12503283E+03</rscale>
<asrwt>0</asrwt>
<pdfrwt beam="1">  1        4 0.39530203E-02 0.12503283E+03</pdfrwt>
<pdfrwt beam="2">  1       -4 0.23400888E-01 0.12503283E+03</pdfrwt>
<totfact> 0.93945265E+03</totfact>
</mgrwt>
</event>
<event>
 5    1  0.3246948E-002  0.1250583E+03  0.7818608E-02  0.1234978E+00
          4   -1    0    0  501    0  0.00000000000E+00  0.00000000000E+00  0.72384655605E+02  0.72395795921E+02  0.12700000000E+01 0.  1.
         -4   -1    0    0    0  501 -0.00000000000E+00 -0.00000000000E+00 -0.53992772529E+02  0.54007706722E+02  0.12700000000E+01 0.  1.
         25    2    1    2    0    0  0.00000000000E+00  0.00000000000E+00  0.18391883075E+02  0.12640350264E+03  0.12505832286E+03 0.  0.
    9000005    1    3    3    0    0  0.52655767612E+02 -0.33354443020E+02  0.42704043343E+01  0.62485078900E+02  0.10000000000E+01 0.  0.
    9000005    1    3    3    0    0 -0.52655767612E+02  0.33354443020E+02  0.14121478741E+02  0.63918423743E+02  0.10000000000E+01 0.  0.
<mgrwt>
<rscale>  0 0.12505832E+03</rscale>
<asrwt>0</asrwt>
<pdfrwt beam="1">  1        4 0.11138107E-01 0.12505832E+03</pdfrwt>
<pdfrwt beam="2">  1       -4 0.83085861E-02 0.12505832E+03</pdfrwt>
<totfact> 0.10408426E+04</totfact>
</mgrwt>
</event>
<event>
 5    1  0.3246948E-002  0.1250000E+03  0.7818608E-02  0.1235069E+00
         -4   -1    0    0    0  501 -0.00000000000E+00  0.00000000000E+00  0.62282635643E+02  0.62295582529E+02  0.12700000000E+01 0.  1.
          4   -1    0    0  501    0  0.00000000000E+00 -0.00000000000E+00 -0.62692179936E+02  0.62705042262E+02  0.12700000000E+01 0.  1.
         25    2    1    2    0    0  0.00000000000E+00  0.00000000000E+00 -0.40954429297E+00  0.12500062479E+03  0.12499995389E+03 0.  0.
    9000005    1    3    3    0    0  0.41173531921E+02 -0.23567108070E+02 -0.40881504628E+02  0.62633583119E+02  0.10000000000E+01 0.  0.
    9000005    1    3    3    0    0 -0.41173531921E+02  0.23567108070E+02  0.40471960335E+02  0.62367041673E+02  0.10000000000E+01 0.  0.
<mgrwt>
<rscale>  0 0.12499995E+03</rscale>
<asrwt>0</asrwt>
<pdfrwt beam="2">  1        4 0.96469360E-02 0.12499995E+03</pdfrwt>
<pdfrwt beam="1">  1       -4 0.95839293E-02 0.12499995E+03</pdfrwt>
<totfact> 0.10452860E+04</totfact>
</mgrwt>
</event>
<event>
 5    1  0.3246948E-002  0.1250000E+03  0.7818608E-02  0.1235069E+00
         -4   -1    0    0    0  501 -0.00000000000E+00  0.00000000000E+00  0.83872921007E+02  0.83882535598E+02  0.12700000000E+01 0. -1.
          4   -1    0    0  501    0  0.00000000000E+00 -0.00000000000E+00 -0.46552523574E+02  0.46569843795E+02  0.12700000000E+01 0. -1.
         25    2    1    2    0    0  0.00000000000E+00  0.00000000000E+00  0.37320397433E+02  0.13045237939E+03  0.12500004490E+03 0.  0.
    9000005    1    3    3    0    0  0.28532189066E+02  0.54955328900E+02  0.98616318958E+01  0.62709056532E+02  0.10000000000E+01 0.  0.
    9000005    1    3    3    0    0 -0.28532189066E+02 -0.54955328900E+02  0.27458765538E+02  0.67743322861E+02  0.10000000000E+01 0.  0.
<mgrwt>
<rscale>  0 0.12500004E+03</rscale>
<asrwt>0</asrwt>
<pdfrwt beam="2">  1        4 0.71639987E-02 0.12500004E+03</pdfrwt>
<pdfrwt beam="1">  1       -4 0.12905598E-01 0.12500004E+03</pdfrwt>
<totfact> 0.10334829E+04</totfact>
</mgrwt>
</event>
<event>
 5    1  0.3246948E-002  0.1250056E+03  0.7818608E-02  0.1235061E+00
         -4   -1    0    0    0  501 -0.00000000000E+00  0.00000000000E+00  0.64804299876E+02  0.64816743071E+02  0.12700000000E+01 0. -1.
          4   -1    0    0  501    0  0.00000000000E+00 -0.00000000000E+00 -0.60258104281E+02  0.60271486057E+02  0.12700000000E+01 0. -1.
         25    2    1    2    0    0  0.00000000000E+00  0.00000000000E+00  0.45461955949E+01  0.12508822913E+03  0.12500558856E+03 0.  0.
    9000005    1    3    3    0    0  0.41125020283E+02 -0.15339208619E+02  0.46788917584E+02  0.64161993602E+02  0.10000000000E+01 0.  0.
    9000005    1    3    3    0    0 -0.41125020283E+02  0.15339208619E+02 -0.42242721989E+02  0.60926235526E+02  0.10000000000E+01 0.  0.
<mgrwt>
<rscale>  0 0.12500559E+03</rscale>
<asrwt>0</asrwt>
<pdfrwt beam="2">  1        4 0.92724642E-02 0.12500559E+03</pdfrwt>
<pdfrwt beam="1">  1       -4 0.99718788E-02 0.12500559E+03</pdfrwt>
<totfact> 0.10449627E+04</totfact>
</mgrwt>
</event>
<event>
 5    1  0.3246948E-002  0.1249957E+03  0.7818608E-02  0.1235076E+00
         -4   -1    0    0    0  501 -0.00000000000E+00  0.00000000000E+00  0.31832026439E+02  0.31857350913E+02  0.12700000000E+01 0. -1.
          4   -1    0    0  501    0  0.00000000000E+00 -0.00000000000E+00 -0.12262857957E+03  0.12263515576E+03  0.12700000000E+01 0. -1.
         25    2    1    2    0    0  0.00000000000E+00  0.00000000000E+00 -0.90796553136E+02  0.15449250667E+03  0.12499568215E+03 0.  0.
    9000005    1    3    3    0    0  0.17146693430E+02 -0.27530712395E+02 -0.11141677585E+03  0.11604588386E+03  0.10000000000E+01 0.  0.
    9000005    1    3    3    0    0 -0.17146693430E+02  0.27530712395E+02  0.20620222716E+02  0.38446622809E+02  0.10000000000E+01 0.  0.
<mgrwt>
<rscale>  0 0.12499568E+03</rscale>
<asrwt>0</asrwt>
<pdfrwt beam="2">  1        4 0.18868389E-01 0.12499568E+03</pdfrwt>
<pdfrwt beam="1">  1       -4 0.48996888E-02 0.12499568E+03</pdfrwt>
<totfact> 0.98424776E+03</totfact>
</mgrwt>
</event>
<event>
 5    1  0.3246948E-002  0.1250009E+03  0.7818608E-02  0.1235068E+00
          4   -1    0    0  501    0  0.00000000000E+00  0.00000000000E+00  0.76564891131E+01  0.77611033712E+01  0.12700000000E+01 0. -1.
         -4   -1    0    0    0  501 -0.00000000000E+00 -0.00000000000E+00 -0.50662830438E+03  0.50662989618E+03  0.12700000000E+01 0. -1.
         25    2    1    2    0    0  0.00000000000E+00  0.00000000000E+00 -0.49897181527E+03  0.51439099955E+03  0.12500091193E+03 0.  0.
    9000005    1    3    3    0    0 -0.37953688993E+02  0.49123313471E+02 -0.27908160572E+03  0.28590404874E+03  0.10000000000E+01 0.  0.
    9000005    1    3    3    0    0  0.37953688993E+02 -0.49123313471E+02 -0.21989020955E+03  0.22848695081E+03  0.10000000000E+01 0.  0.
<mgrwt>
<rscale>  0 0.12500091E+03</rscale>
<asrwt>0</asrwt>
<pdfrwt beam="1">  1        4 0.11860915E-02 0.12500091E+03</pdfrwt>
<pdfrwt beam="2">  1       -4 0.77950960E-01 0.12500091E+03</pdfrwt>
<totfact> 0.54763752E+03</totfact>
</mgrwt>
</event>
<event>
 5    1  0.3246948E-002  0.1249989E+03  0.7818608E-02  0.1235071E+00
         -4   -1    0    0    0  501 -0.00000000000E+00  0.00000000000E+00  0.11386650634E+03  0.11387358854E+03  0.12700000000E+01 0.  1.
          4   -1    0    0  501    0  0.00000000000E+00 -0.00000000000E+00 -0.34284990275E+02  0.34308504167E+02  0.12700000000E+01 0.  1.
         25    2    1    2    0    0  0.00000000000E+00  0.00000000000E+00  0.79581516064E+02  0.14818209270E+03  0.12499885959E+03 0.  0.
    9000005    1    3    3    0    0  0.36364186645E+02  0.37210760386E+02 -0.12439572833E+01  0.52053262996E+02  0.10000000000E+01 0.  0.
    9000005    1    3    3    0    0 -0.36364186645E+02 -0.37210760386E+02  0.80825473348E+02  0.96128829706E+02  0.10000000000E+01 0.  0.
<mgrwt>
<rscale>  0 0.12499886E+03</rscale>
<asrwt>0</asrwt>
<pdfrwt beam="2">  1        4 0.52769674E-02 0.12499886E+03</pdfrwt>
<pdfrwt beam="1">  1       -4 0.17520278E-01 0.12499886E+03</pdfrwt>
<totfact> 0.99669871E+03</totfact>
</mgrwt>
</event>
<event>
 5    1  0.3246948E-002  0.1250133E+03  0.7818608E-02  0.1235049E+00
         -4   -1    0    0    0  501 -0.00000000000E+00  0.00000000000E+00  0.13315492790E+03  0.13316098425E+03  0.12700000000E+01 0. -1.
          4   -1    0    0  501    0  0.00000000000E+00 -0.00000000000E+00 -0.29321893564E+02  0.29349384017E+02  0.12700000000E+01 0. -1.
         25    2    1    2    0    0  0.00000000000E+00  0.00000000000E+00  0.10383303434E+03  0.16251036826E+03  0.12501328238E+03 0.  0.
    9000005    1    3    3    0    0  0.18825605665E+02  0.19863508288E+02 -0.21125088177E+02  0.34586583246E+02  0.10000000000E+01 0.  0.
    9000005    1    3    3    0    0 -0.18825605665E+02 -0.19863508288E+02  0.12495812252E+03  0.12792378502E+03  0.10000000000E+01 0.  0.
<mgrwt>
<rscale>  0 0.12501328E+03</rscale>
<asrwt>0</asrwt>
<pdfrwt beam="2">  1        4 0.45136411E-02 0.12501328E+03</pdfrwt>
<pdfrwt beam="1">  1       -4 0.20487954E-01 0.12501328E+03</pdfrwt>
<totfact> 0.96832073E+03</totfact>
</mgrwt>
</event>
<event>
 5    1  0.3246948E-002  0.1249996E+03  0.7818608E-02  0.1235070E+00
          4   -1    0    0  501    0  0.00000000000E+00  0.00000000000E+00  0.15372569131E+02  0.15424940249E+02  0.12700000000E+01 0.  1.
         -4   -1    0    0    0  501 -0.00000000000E+00 -0.00000000000E+00 -0.25361739754E+03  0.25362057731E+03  0.12700000000E+01 0.  1.
         25    2    1    2    0    0  0.00000000000E+00  0.00000000000E+00 -0.23824482841E+03  0.26904551756E+03  0.12499956902E+03 0.  0.
    9000005    1    3    3    0    0 -0.36846800983E+02 -0.45466695246E+02 -0.16629402939E+03  0.17629410463E+03  0.10000000000E+01 0.  0.
    9000005    1    3    3    0    0  0.36846800983E+02  0.45466695246E+02 -0.71950799019E+02  0.92751412921E+02  0.10000000000E+01 0.  0.
<mgrwt>
<rscale>  0 0.12499957E+03</rscale>
<asrwt>0</asrwt>
<pdfrwt beam="1">  1        4 0.23692840E-02 0.12499957E+03</pdfrwt>
<pdfrwt beam="2">  1       -4 0.39022331E-01 0.12499957E+03</pdfrwt>
<totfact> 0.79653939E+03</totfact>
</mgrwt>
</event>
<event>
 5    1  0.3246948E-002  0.1250012E+03  0.7818608E-02  0.1235067E+00
         -4   -1    0    0    0  501 -0.00000000000E+00  0.00000000000E+00  0.27042827762E+02  0.27072632553E+02  0.12700000000E+01 0. -1.
          4   -1    0    0  501    0  0.00000000000E+00 -0.00000000000E+00 -0.14433737618E+03  0.14434296333E+03  0.12700000000E+01 0. -1.
         25    2    1    2    0    0  0.00000000000E+00  0.00000000000E+00 -0.11729454842E+03  0.17141559588E+03  0.12500118169E+03 0.  0.
    9000005    1    3    3    0    0  0.60382105700E+02 -0.10925756356E+02 -0.42424417072E+02  0.74606983618E+02  0.10000000000E+01 0.  0.
    9000005    1    3    3    0    0 -0.60382105700E+02  0.10925756356E+02 -0.74870131346E+02  0.96808612264E+02  0.10000000000E+01 0.  0.
<mgrwt>
<rscale>  0 0.12500118E+03</rscale>
<asrwt>0</asrwt>
<pdfrwt beam="2">  1        4 0.22208472E-01 0.12500118E+03</pdfrwt>
<pdfrwt beam="1">  1       -4 0.41631576E-02 0.12500118E+03</pdfrwt>
<totfact> 0.95182921E+03</totfact>
</mgrwt>
</event>
<event>
 5    1  0.3246948E-002  0.1250005E+03  0.7818608E-02  0.1235069E+00
         -4   -1    0    0    0  501 -0.00000000000E+00  0.00000000000E+00  0.24775573870E+03  0.24775899370E+03  0.12700000000E+01 0. -1.
          4   -1    0    0  501    0  0.00000000000E+00 -0.00000000000E+00 -0.15737715380E+02  0.15788875368E+02  0.12700000000E+01 0. -1.
         25    2    1    2    0    0  0.00000000000E+00  0.00000000000E+00  0.23201802332E+03  0.26354786907E+03  0.12500046458E+03 0.  0.
    9000005    1    3    3    0    0 -0.35028803307E+02 -0.43873854806E+01  0.72893485826E+01  0.36061070634E+02  0.10000000000E+01 0.  0.
    9000005    1    3    3    0    0  0.35028803307E+02  0.43873854806E+01  0.22472867474E+03  0.22748679844E+03  0.10000000000E+01 0.  0.
<mgrwt>
<rscale>  0 0.12500046E+03</rscale>
<asrwt>0</asrwt>
<pdfrwt beam="2">  1        4 0.24253728E-02 0.12500046E+03</pdfrwt>
<pdfrwt beam="1">  1       -4 0.38120453E-01 0.12500046E+03</pdfrwt>
<totfact> 0.80409900E+03</totfact>
</mgrwt>
</event>
<event>
 5    1  0.3246948E-002  0.1250048E+03  0.7818608E-02  0.1235062E+00
         -4   -1    0    0    0  501 -0.00000000000E+00  0.00000000000E+00  0.18977265251E+02  0.19019713363E+02  0.12700000000E+01 0.  1.
          4   -1    0    0  501    0  0.00000000000E+00 -0.00000000000E+00 -0.20557972236E+03  0.20558364513E+03  0.12700000000E+01 0.  1.
         25    2    1    2    0    0  0.00000000000E+00  0.00000000000E+00 -0.18660245711E+03  0.22460335849E+03  0.12500476650E+03 0.  0.
    9000005    1    3    3    0    0  0.20328121419E+02  0.35032736621E+02 -0.77894464142E+01  0.41257734196E+02  0.10000000000E+01 0.  0.
    9000005    1    3    3    0    0 -0.20328121419E+02 -0.35032736621E+02 -0.17881301069E+03  0.18334562430E+03  0.10000000000E+01 0.  0.
<mgrwt>
<rscale>  0 0.12500477E+03</rscale>
<asrwt>0</asrwt>
<pdfrwt beam="2">  1        4 0.31631215E-01 0.12500477E+03</pdfrwt>
<pdfrwt beam="1">  1       -4 0.29231464E-02 0.12500477E+03</pdfrwt>
<totfact> 0.86135962E+03</totfact>
</mgrwt>
</event>
<event>
 5    1  0.3246948E-002  0.1249996E+03  0.7818608E-02  0.1235070E+00
         -4   -1    0    0    0  501 -0.00000000000E+00  0.00000000000E+00  0.51845328306E+02  0.51860880894E+02  0.12700000000E+01 0.  1.
          4   -1    0    0  501    0  0.00000000000E+00 -0.00000000000E+00 -0.75311658444E+02  0.75322365852E+02  0.12700000000E+01 0.  1.
         25    2    1    2    0    0  0.00000000000E+00  0.00000000000E+00 -0.23466330138E+02  0.12718324675E+03  0.12499963841E+03 0.  0.
    9000005    1    3    3    0    0 -0.73854770232E+01  0.61872074347E+02 -0.69038256388E+01  0.62700571475E+02  0.10000000000E+01 0.  0.
    9000005    1    3    3    0    0  0.73854770232E+01 -0.61872074347E+02 -0.16562504499E+02  0.64482675272E+02  0.10000000000E+01 0.  0.
<mgrwt>
<rscale>  0 0.12499964E+03</rscale>
<asrwt>0</asrwt>
<pdfrwt beam="2">  1        4 0.11588429E-01 0.12499964E+03</pdfrwt>
<pdfrwt beam="1">  1       -4 0.79782243E-02 0.12499964E+03</pdfrwt>
<totfact> 0.10405252E+04</totfact>
</mgrwt>
</event>
<event>
 5    1  0.3246948E-002  0.1249999E+03  0.7818608E-02  0.1235069E+00
          4   -1    0    0  501    0  0.00000000000E+00  0.00000000000E+00  0.17554947087E+02  0.17600825754E+02  0.12700000000E+01 0.  1.
         -4   -1    0    0    0  501 -0.00000000000E+00 -0.00000000000E+00 -0.22217708206E+03  0.22218071180E+03  0.12700000000E+01 0.  1.
         25    2    1    2    0    0  0.00000000000E+00  0.00000000000E+00 -0.20462213498E+03  0.23978153755E+03  0.12499987051E+03 0.  0.
    9000005    1    3    3    0    0  0.18278675665E+02 -0.82783222401E+01  0.11216551650E+02  0.23009816037E+02  0.10000000000E+01 0.  0.
    9000005    1    3    3    0    0 -0.18278675665E+02  0.82783222401E+01 -0.21583868663E+03  0.21677172151E+03  0.10000000000E+01 0.  0.
<mgrwt>
<rscale>  0 0.12499987E+03</rscale>
<asrwt>0</asrwt>
<pdfrwt beam="1">  1        4 0.27045696E-02 0.12499987E+03</pdfrwt>
<pdfrwt beam="2">  1       -4 0.34184896E-01 0.12499987E+03</pdfrwt>
<totfact> 0.83830157E+03</totfact>
</mgrwt>
</event>
<event>
 5    1  0.3246948E-002  0.1250015E+03  0.7818608E-02  0.1235067E+00
         -4   -1    0    0    0  501 -0.00000000000E+00  0.00000000000E+00  0.70068297049E+03  0.70068412143E+03  0.12700000000E+01 0. -1.
          4   -1    0    0  501    0  0.00000000000E+00 -0.00000000000E+00 -0.55015566409E+01  0.56462399411E+01  0.12700000000E+01 0. -1.
         25    2    1    2    0    0  0.00000000000E+00  0.00000000000E+00  0.69518141384E+03  0.70633036137E+03  0.12500152497E+03 0.  0.
    9000005    1    3    3    0    0 -0.28528092061E+02  0.55305959829E+02  0.37992467246E+03  0.38498877643E+03  0.10000000000E+01 0.  0.
    9000005    1    3    3    0    0  0.28528092061E+02 -0.55305959829E+02  0.31525674138E+03  0.32134158494E+03  0.10000000000E+01 0.  0.
<mgrwt>
<rscale>  0 0.12500152E+03</rscale>
<asrwt>0</asrwt>
<pdfrwt beam="2">  1        4 0.85761106E-03 0.12500152E+03</pdfrwt>
<pdfrwt beam="1">  1       -4 0.10780863E+00 0.12500152E+03</pdfrwt>
<totfact> 0.42753185E+03</totfact>
</mgrwt>
</event>
<event>
 4    1  0.3246948E-002  0.1250672E+03  0.7818608E-02  0.1234964E+00
         -4   -1    0    0    0  501 -0.00000000000E+00  0.00000000000E+00  0.17706336195E+03  0.17706791648E+03  0.12700000000E+01 0. -1.
          4   -1    0    0  501    0  0.00000000000E+00 -0.00000000000E+00 -0.22061928715E+02  0.22098452404E+02  0.12700000000E+01 0. -1.
    9000005    1    1    2    0    0 -0.49540275312E+02  0.35492328969E+02  0.55234220456E+02  0.82254260698E+02  0.10000000000E+01 0.  0.
    9000005    1    1    2    0    0  0.49540275312E+02 -0.35492328969E+02  0.99767212779E+02  0.11691210818E+03  0.10000000000E+01 0.  0.
<mgrwt>
<rscale>  0 0.12506717E+03</rscale>
<asrwt>0</asrwt>
<pdfrwt beam="2">  1        4 0.33973030E-02 0.12506717E+03</pdfrwt>
<pdfrwt beam="1">  1       -4 0.27243675E-01 0.12506717E+03</pdfrwt>
<totfact> 0.90140718E+03</totfact>
</mgrwt>
</event>
<event>
 5    1  0.3246948E-002  0.1249955E+03  0.7818608E-02  0.1235076E+00
         -4   -1    0    0    0  501 -0.00000000000E+00  0.00000000000E+00  0.12375215290E+03  0.12375866939E+03  0.12700000000E+01 0.  1.
          4   -1    0    0  501    0  0.00000000000E+00 -0.00000000000E+00 -0.31542719074E+02  0.31568275636E+02  0.12700000000E+01 0.  1.
         25    2    1    2    0    0  0.00000000000E+00  0.00000000000E+00  0.92209433831E+02  0.15532694502E+03  0.12499552057E+03 0.  0.
    9000005    1    3    3    0    0  0.16710833025E+02  0.68994830098E+00  0.12092526009E+03  0.12208049188E+03  0.10000000000E+01 0.  0.
    9000005    1    3    3    0    0 -0.16710833025E+02 -0.68994830098E+00 -0.28715826259E+02  0.33246453146E+02  0.10000000000E+01 0.  0.
<mgrwt>
<rscale>  0 0.12499552E+03</rscale>
<asrwt>0</asrwt>
<pdfrwt beam="2">  1        4 0.48551933E-02 0.12499552E+03</pdfrwt>
<pdfrwt beam="1">  1       -4 0.19041260E-01 0.12499552E+03</pdfrwt>
<totfact> 0.98261252E+03</totfact>
</mgrwt>
</event>
<event>
 5    1  0.3246948E-002  0.1249855E+03  0.7818608E-02  0.1235092E+00
         -4   -1    0    0    0  501 -0.00000000000E+00  0.00000000000E+00  0.93176300949E+02  0.93184955645E+02  0.12700000000E+01 0. -1.
          4   -1    0    0  501    0  0.00000000000E+00 -0.00000000000E+00 -0.41893245452E+02  0.41912491152E+02  0.12700000000E+01 0. -1.
         25    2    1    2    0    0  0.00000000000E+00  0.00000000000E+00  0.51283055497E+02  0.13509744680E+03  0.12498547256E+03 0.  0.
    9000005    1    3    3    0    0 -0.46666088535E+02 -0.16421797449E+02 -0.15616537762E+02  0.51887141974E+02  0.10000000000E+01 0.  0.
    9000005    1    3    3    0    0  0.46666088535E+02  0.16421797449E+02  0.66899593258E+02  0.83210304823E+02  0.10000000000E+01 0.  0.
<mgrwt>
<rscale>  0 0.12498547E+03</rscale>
<asrwt>0</asrwt>
<pdfrwt beam="2">  1        4 0.64472609E-02 0.12498547E+03</pdfrwt>
<pdfrwt beam="1">  1       -4 0.14336962E-01 0.12498547E+03</pdfrwt>
<totfact> 0.10239372E+04</totfact>
</mgrwt>
</event>
<event>
 5    1  0.3246948E-002  0.1250004E+03  0.7818608E-02  0.1235069E+00
         -4   -1    0    0    0  501 -0.00000000000E+00  0.00000000000E+00  0.24786053891E+03  0.24786379253E+03  0.12700000000E+01 0.  1.
          4   -1    0    0  501    0  0.00000000000E+00 -0.00000000000E+00 -0.15731016043E+02  0.15782197748E+02  0.12700000000E+01 0.  1.
         25    2    1    2    0    0  0.00000000000E+00  0.00000000000E+00  0.23212952287E+03  0.26364599028E+03  0.12500037122E+03 0.  0.
    9000005    1    3    3    0    0  0.23010360928E+02 -0.41023147522E+02  0.29283642460E+02  0.55415765431E+02  0.10000000000E+01 0.  0.
    9000005    1    3    3    0    0 -0.23010360928E+02  0.41023147522E+02  0.20284588041E+03  0.20823022485E+03  0.10000000000E+01 0.  0.
<mgrwt>
<rscale>  0 0.12500037E+03</rscale>
<asrwt>0</asrwt>
<pdfrwt beam="2">  1        4 0.24243437E-02 0.12500037E+03</pdfrwt>
<pdfrwt beam="1">  1       -4 0.38136578E-01 0.12500037E+03</pdfrwt>
<totfact> 0.80396440E+03</totfact>
</mgrwt>
</event>
<event>
 5    1  0.3246948E-002  0.1249982E+03  0.7818608E-02  0.1235072E+00
         -4   -1    0    0    0  501 -0.00000000000E+00  0.00000000000E+00  0.14509708022E+04  0.14509713580E+04  0.12700000000E+01 0. -1.
          4   -1    0    0  501    0  0.00000000000E+00 -0.00000000000E+00 -0.25417165630E+01  0.28413417757E+01  0.12700000000E+01 0. -1.
         25    2    1    2    0    0  0.00000000000E+00  0.00000000000E+00  0.14484290856E+04  0.14538126998E+04  0.12499819963E+03 0.  0.
    9000005    1    3    3    0    0 -0.42321948614E+02  0.23451638659E+02  0.11841793165E+04  0.11851678279E+04  0.10000000000E+01 0.  0.
    9000005    1    3    3    0    0  0.42321948614E+02 -0.23451638659E+02  0.26424976916E+03  0.26864487189E+03  0.10000000000E+01 0.  0.
<mgrwt>
<rscale>  0 0.12499820E+03</rscale>
<asrwt>0</asrwt>
<pdfrwt beam="2">  1        4 0.41412399E-03 0.12499820E+03</pdfrwt>
<pdfrwt beam="1">  1       -4 0.22324946E+00 0.12499820E+03</pdfrwt>
<totfact> 0.18855505E+03</totfact>
</mgrwt>
</event>
<event>
 5    1  0.3246948E-002  0.1249785E+03  0.7818608E-02  0.1235103E+00
         -4   -1    0    0    0  501 -0.00000000000E+00  0.00000000000E+00  0.29395327395E+02  0.29422749237E+02  0.12700000000E+01 0. -1.
          4   -1    0    0  501    0  0.00000000000E+00 -0.00000000000E+00 -0.13274864514E+03  0.13275472001E+03  0.12700000000E+01 0. -1.
         25    2    1    2    0    0  0.00000000000E+00  0.00000000000E+00 -0.10335331774E+03  0.16217746925E+03  0.12497849113E+03 0.  0.
    9000005    1    3    3    0    0 -0.27254453486E+02 -0.56192440427E+02 -0.49245450970E+02  0.79539361559E+02  0.10000000000E+01 0.  0.
    9000005    1    3    3    0    0  0.27254453486E+02  0.56192440427E+02 -0.54107866771E+02  0.82638107689E+02  0.10000000000E+01 0.  0.
<mgrwt>
<rscale>  0 0.12497849E+03</rscale>
<asrwt>0</asrwt>
<pdfrwt beam="2">  1        4 0.20425445E-01 0.12497849E+03</pdfrwt>
<pdfrwt beam="1">  1       -4 0.45249348E-02 0.12497849E+03</pdfrwt>
<totfact> 0.96971484E+03</totfact>
</mgrwt>
</event>
<event>
 5    1  0.3246948E-002  0.1250003E+03  0.7818608E-02  0.1235069E+00
          4   -1    0    0  501    0  0.00000000000E+00  0.00000000000E+00  0.18241934003E+02  0.18286089144E+02  0.12700000000E+01 0.  1.
         -4   -1    0    0    0  501 -0.00000000000E+00 -0.00000000000E+00 -0.21383188362E+03  0.21383565501E+03  0.12700000000E+01 0.  1.
         25    2    1    2    0    0  0.00000000000E+00  0.00000000000E+00 -0.19558994962E+03  0.23212174415E+03  0.12500030287E+03 0.  0.
    9000005    1    3    3    0    0  0.57861110384E+02  0.99824795447E+01 -0.13752331350E+03  0.14953668362E+03  0.10000000000E+01 0.  0.
    9000005    1    3    3    0    0 -0.57861110384E+02 -0.99824795447E+01 -0.58066636119E+02  0.82585060531E+02  0.10000000000E+01 0.  0.
<mgrwt>
<rscale>  0 0.12500030E+03</rscale>
<asrwt>0</asrwt>
<pdfrwt beam="1">  1        4 0.28101382E-02 0.12500030E+03</pdfrwt>
<pdfrwt beam="2">  1       -4 0.32900898E-01 0.12500030E+03</pdfrwt>
<totfact> 0.84984289E+03</totfact>
</mgrwt>
</event>
<event>
 5    1  0.3246948E-002  0.1250015E+03  0.7818608E-02  0.1235067E+00
          4   -1    0    0  501    0  0.00000000000E+00  0.00000000000E+00  0.32771030046E+03  0.32771276131E+03  0.12700000000E+01 0. -1.
         -4   -1    0    0    0  501 -0.00000000000E+00 -0.00000000000E+00 -0.11883768247E+02  0.11951437058E+02  0.12700000000E+01 0. -1.
         25    2    1    2    0    0  0.00000000000E+00  0.00000000000E+00  0.31582653221E+03  0.33966419837E+03  0.12500147681E+03 0.  0.
    9000005    1    3    3    0    0  0.15388948817E+02 -0.87541400438E+01  0.32076635395E+03  0.32125614164E+03  0.10000000000E+01 0.  0.
    9000005    1    3    3    0    0 -0.15388948817E+02  0.87541400438E+01 -0.49398217434E+01  0.18408056727E+02  0.10000000000E+01 0.  0.
<mgrwt>
<rscale>  0 0.12500148E+03</rscale>
<asrwt>0</asrwt>
<pdfrwt beam="1">  1        4 0.50422372E-01 0.12500148E+03</pdfrwt>
<pdfrwt beam="2">  1       -4 0.18336663E-02 0.12500148E+03</pdfrwt>
<totfact> 0.70874465E+03</totfact>
</mgrwt>
</event>
<event>
 5    1  0.3246948E-002  0.1250608E+03  0.7818608E-02  0.1234974E+00
          4   -1    0    0  501    0  0.00000000000E+00  0.00000000000E+00  0.10106076143E+04  0.10106084123E+04  0.12700000000E+01 0. -1.
         -4   -1    0    0    0  501 -0.00000000000E+00 -0.00000000000E+00 -0.37639721267E+01  0.39724534196E+01  0.12700000000E+01 0. -1.
         25    2    1    2    0    0  0.00000000000E+00  0.00000000000E+00  0.10068436422E+04  0.10145808657E+04  0.12506083827E+03 0.  0.
    9000005    1    3    3    0    0  0.39426288888E+02 -0.26733119990E+02  0.83195719656E+03  0.83332038789E+03  0.10000000000E+01 0.  0.
    9000005    1    3    3    0    0 -0.39426288888E+02  0.26733119990E+02  0.17488644565E+03  0.18126047785E+03  0.10000000000E+01 0.  0.
<mgrwt>
<rscale>  0 0.12506084E+03</rscale>
<asrwt>0</asrwt>
<pdfrwt beam="1">  1        4 0.15549396E+00 0.12506084E+03</pdfrwt>
<pdfrwt beam="2">  1       -4 0.59517194E-03 0.12506084E+03</pdfrwt>
<totfact> 0.30087041E+03</totfact>
</mgrwt>
</event>
<event>
 5    1  0.3246948E-002  0.1249862E+03  0.7818608E-02  0.1235091E+00
          4   -1    0    0  501    0  0.00000000000E+00  0.00000000000E+00  0.62220811484E+02  0.62233771231E+02  0.12700000000E+01 0. -1.
         -4   -1    0    0    0  501 -0.00000000000E+00 -0.00000000000E+00 -0.62740637399E+02  0.62753489793E+02  0.12700000000E+01 0. -1.
         25    2    1    2    0    0  0.00000000000E+00  0.00000000000E+00 -0.51982591569E+00  0.12498726102E+03  0.12498618003E+03 0.  0.
    9000005    1    3    3    0    0  0.57678446463E+02 -0.17664835450E+01  0.23708244801E+02  0.62393946197E+02  0.10000000000E+01 0.  0.
    9000005    1    3    3    0    0 -0.57678446463E+02  0.17664835450E+01 -0.24228070716E+02  0.62593314828E+02  0.10000000000E+01 0.  0.
<mgrwt>
<rscale>  0 0.12498618E+03</rscale>
<asrwt>0</asrwt>
<pdfrwt beam="1">  1        4 0.95744181E-02 0.12498618E+03</pdfrwt>
<pdfrwt beam="2">  1       -4 0.96543913E-02 0.12498618E+03</pdfrwt>
<totfact> 0.10456405E+04</totfact>
</mgrwt>
</event>
<event>
 5    1  0.3246948E-002  0.1250036E+03  0.7818608E-02  0.1235064E+00
          4   -1    0    0  501    0  0.00000000000E+00  0.00000000000E+00  0.23242677625E+02  0.23277348715E+02  0.12700000000E+01 0. -1.
         -4   -1    0    0    0  501 -0.00000000000E+00 -0.00000000000E+00 -0.16791109365E+03  0.16791589642E+03  0.12700000000E+01 0. -1.
         25    2    1    2    0    0  0.00000000000E+00  0.00000000000E+00 -0.14466841602E+03  0.19119324513E+03  0.12500362551E+03 0.  0.
    9000005    1    3    3    0    0 -0.41534830261E+02 -0.46601224789E+02 -0.76835290049E+02  0.99002414483E+02  0.10000000000E+01 0.  0.
    9000005    1    3    3    0    0  0.41534830261E+02  0.46601224789E+02 -0.67833125973E+02  0.92190830649E+02  0.10000000000E+01 0.  0.
<mgrwt>
<rscale>  0 0.12500363E+03</rscale>
<asrwt>0</asrwt>
<pdfrwt beam="1">  1        4 0.35788331E-02 0.12500363E+03</pdfrwt>
<pdfrwt beam="2">  1       -4 0.25835512E-01 0.12500363E+03</pdfrwt>
<totfact> 0.91632667E+03</totfact>
</mgrwt>
</event>
<event>
 5    1  0.3246948E-002  0.1250018E+03  0.7818608E-02  0.1235066E+00
         -4   -1    0    0    0  501 -0.00000000000E+00  0.00000000000E+00  0.59401360446E+01  0.60743819627E+01  0.12700000000E+01 0. -1.
          4   -1    0    0  501    0  0.00000000000E+00 -0.00000000000E+00 -0.65013863811E+03  0.65013987853E+03  0.12700000000E+01 0. -1.
         25    2    1    2    0    0  0.00000000000E+00  0.00000000000E+00 -0.64419850206E+03  0.65621426050E+03  0.12500178246E+03 0.  0.
    9000005    1    3    3    0    0  0.55875366607E+02  0.19574776629E+02 -0.21708902194E+03  0.22501971451E+03  0.10000000000E+01 0.  0.
    9000005    1    3    3    0    0 -0.55875366607E+02 -0.19574776629E+02 -0.42710948013E+03  0.43119454599E+03  0.10000000000E+01 0.  0.
<mgrwt>
<rscale>  0 0.12500178E+03</rscale>
<asrwt>0</asrwt>
<pdfrwt beam="2">  1        4 0.10003170E+00 0.12500178E+03</pdfrwt>
<pdfrwt beam="1">  1       -4 0.92428962E-03 0.12500178E+03</pdfrwt>
<totfact> 0.45499023E+03</totfact>
</mgrwt>
</event>
<event>
 5    1  0.3246948E-002  0.1249947E+03  0.7818608E-02  0.1235078E+00
         -4   -1    0    0    0  501 -0.00000000000E+00  0.00000000000E+00  0.34472826608E+02  0.34496212464E+02  0.12700000000E+01 0. -1.
          4   -1    0    0  501    0  0.00000000000E+00 -0.00000000000E+00 -0.11323886119E+03  0.11324598263E+03  0.12700000000E+01 0. -1.
         25    2    1    2    0    0  0.00000000000E+00  0.00000000000E+00 -0.78766034579E+02  0.14774219510E+03  0.12499467192E+03 0.  0.
    9000005    1    3    3    0    0 -0.50515874875E+02  0.36737900358E+02 -0.41559308833E+02  0.75031347368E+02  0.10000000000E+01 0.  0.
    9000005    1    3    3    0    0  0.50515874875E+02 -0.36737900358E+02 -0.37206725745E+02  0.72710847731E+02  0.10000000000E+01 0.  0.
<mgrwt>
<rscale>  0 0.12499467E+03</rscale>
<asrwt>0</asrwt>
<pdfrwt beam="2">  1        4 0.17423710E-01 0.12499467E+03</pdfrwt>
<pdfrwt beam="1">  1       -4 0.53058585E-02 0.12499467E+03</pdfrwt>
<totfact> 0.99767642E+03</totfact>
</mgrwt>
</event>
<event>
 5    1  0.3246948E-002  0.1249885E+03  0.7818608E-02  0.1235087E+00
          4   -1    0    0  501    0  0.00000000000E+00  0.00000000000E+00  0.26138484604E+03  0.26138793132E+03  0.12700000000E+01 0. -1.
         -4   -1    0    0    0  501 -0.00000000000E+00 -0.00000000000E+00 -0.14911512324E+02  0.14965496978E+02  0.12700000000E+01 0. -1.
         25    2    1    2    0    0  0.00000000000E+00  0.00000000000E+00  0.24647333372E+03  0.27635342830E+03  0.12498845186E+03 0.  0.
    9000005    1    3    3    0    0 -0.57506575415E+02  0.23578310709E+02  0.10897845687E+03  0.12546014113E+03  0.10000000000E+01 0.  0.
    9000005    1    3    3    0    0  0.57506575415E+02 -0.23578310709E+02  0.13749487685E+03  0.15089328717E+03  0.10000000000E+01 0.  0.
<mgrwt>
<rscale>  0 0.12498845E+03</rscale>
<asrwt>0</asrwt>
<pdfrwt beam="1">  1        4 0.40217441E-01 0.12498845E+03</pdfrwt>
<pdfrwt beam="2">  1       -4 0.22984689E-02 0.12498845E+03</pdfrwt>
<totfact> 0.78684313E+03</totfact>
</mgrwt>
</event>
<event>
 5    1  0.3246948E-002  0.1249986E+03  0.7818608E-02  0.1235072E+00
         -4   -1    0    0    0  501 -0.00000000000E+00  0.00000000000E+00  0.27995660360E+03  0.27995948421E+03  0.12700000000E+01 0. -1.
          4   -1    0    0  501    0  0.00000000000E+00 -0.00000000000E+00 -0.13920880217E+02  0.13978691141E+02  0.12700000000E+01 0. -1.
         25    2    1    2    0    0  0.00000000000E+00  0.00000000000E+00  0.26603572338E+03  0.29393817535E+03  0.12499857924E+03 0.  0.
    9000005    1    3    3    0    0 -0.14174395909E+02  0.47254299102E+02  0.42819546907E+02  0.65332961668E+02  0.10000000000E+01 0.  0.
    9000005    1    3    3    0    0  0.14174395909E+02 -0.47254299102E+02  0.22321617647E+03  0.22860521368E+03  0.10000000000E+01 0.  0.
<mgrwt>
<rscale>  0 0.12499858E+03</rscale>
<asrwt>0</asrwt>
<pdfrwt beam="2">  1        4 0.21463425E-02 0.12499858E+03</pdfrwt>
<pdfrwt beam="1">  1       -4 0.43074915E-01 0.12499858E+03</pdfrwt>
<totfact> 0.76367977E+03</totfact>
</mgrwt>
</event>
<event>
 5    1  0.3246948E-002  0.1250118E+03  0.7818608E-02  0.1235051E+00
         -4   -1    0    0    0  501 -0.00000000000E+00  0.00000000000E+00  0.24398357588E+01  0.27505814894E+01  0.12700000000E+01 0. -1.
          4   -1    0    0  501    0  0.00000000000E+00 -0.00000000000E+00 -0.15051505064E+04  0.15051510422E+04  0.12700000000E+01 0. -1.
         25    2    1    2    0    0  0.00000000000E+00  0.00000000000E+00 -0.15027106706E+04  0.15079016237E+04  0.12501178763E+03 0.  0.
    9000005    1    3    3    0    0  0.29026273975E+02 -0.51386212250E+02 -0.99941196133E+03  0.10011535026E+04  0.10000000000E+01 0.  0.
    9000005    1    3    3    0    0 -0.29026273975E+02  0.51386212250E+02 -0.50329870928E+03  0.50674812102E+03  0.10000000000E+01 0.  0.
<mgrwt>
<rscale>  0 0.12501179E+03</rscale>
<asrwt>0</asrwt>
<pdfrwt beam="2">  1        4 0.23158486E+00 0.12501179E+03</pdfrwt>
<pdfrwt beam="1">  1       -4 0.39930528E-03 0.12501179E+03</pdfrwt>
<totfact> 0.17771120E+03</totfact>
</mgrwt>
</event>
<event>
 5    1  0.3246948E-002  0.1250090E+03  0.7818608E-02  0.1235055E+00
         -4   -1    0    0    0  501 -0.00000000000E+00  0.00000000000E+00  0.39479063707E+03  0.39479267979E+03  0.12700000000E+01 0. -1.
          4   -1    0    0  501    0  0.00000000000E+00 -0.00000000000E+00 -0.98530871598E+01  0.99345974542E+01  0.12700000000E+01 0. -1.
         25    2    1    2    0    0  0.00000000000E+00  0.00000000000E+00  0.38493754991E+03  0.40472727724E+03  0.12500900614E+03 0.  0.
    9000005    1    3    3    0    0 -0.36163264239E+02  0.49569101154E+02  0.15403338670E+03  0.16580760444E+03  0.10000000000E+01 0.  0.
    9000005    1    3    3    0    0  0.36163264239E+02 -0.49569101154E+02  0.23090416321E+03  0.23891967281E+03  0.10000000000E+01 0.  0.
<mgrwt>
<rscale>  0 0.12500901E+03</rscale>
<asrwt>0</asrwt>
<pdfrwt beam="2">  1        4 0.15222868E-02 0.12500901E+03</pdfrwt>
<pdfrwt beam="1">  1       -4 0.60743444E-01 0.12500901E+03</pdfrwt>
<totfact> 0.64082863E+03</totfact>
</mgrwt>
</event>
<event>
 5    1  0.3246948E-002  0.1249943E+03  0.7818608E-02  0.1235078E+00
          4   -1    0    0  501    0  0.00000000000E+00  0.00000000000E+00  0.21054676367E+02  0.21092944245E+02  0.12700000000E+01 0.  1.
         -4   -1    0    0    0  501 -0.00000000000E+00 -0.00000000000E+00 -0.18530307247E+03  0.18530742448E+03  0.12700000000E+01 0.  1.
         25    2    1    2    0    0  0.00000000000E+00  0.00000000000E+00 -0.16424839610E+03  0.20640036872E+03  0.12499430622E+03 0.  0.
    9000005    1    3    3    0    0 -0.28341005970E+02  0.11971999279E+02 -0.17193844191E+03  0.17467217636E+03  0.10000000000E+01 0.  0.
    9000005    1    3    3    0    0  0.28341005970E+02 -0.11971999279E+02  0.76900458115E+01  0.31728192364E+02  0.10000000000E+01 0.  0.
<mgrwt>
<rscale>  0 0.12499431E+03</rscale>
<asrwt>0</asrwt>
<pdfrwt beam="1">  1        4 0.32424596E-02 0.12499431E+03</pdfrwt>
<pdfrwt beam="2">  1       -4 0.28511442E-01 0.12499431E+03</pdfrwt>
<totfact> 0.89078486E+03</totfact>
</mgrwt>
</event>
<event>
 5    1  0.3246948E-002  0.1249993E+03  0.7818608E-02  0.1235070E+00
          4   -1    0    0  501    0  0.00000000000E+00  0.00000000000E+00  0.89451718279E+02  0.89460733303E+02  0.12700000000E+01 0.  1.
         -4   -1    0    0    0  501 -0.00000000000E+00 -0.00000000000E+00 -0.43647857973E+02  0.43666330343E+02  0.12700000000E+01 0.  1.
         25    2    1    2    0    0  0.00000000000E+00  0.00000000000E+00  0.45803860306E+02  0.13312706365E+03  0.12499928582E+03 0.  0.
    9000005    1    3    3    0    0  0.36159918502E+02  0.20242766295E+02 -0.26914449837E+02  0.49423647208E+02  0.10000000000E+01 0.  0.
    9000005    1    3    3    0    0 -0.36159918502E+02 -0.20242766295E+02  0.72718310143E+02  0.83703416438E+02  0.10000000000E+01 0.  0.
<mgrwt>
<rscale>  0 0.12499929E+03</rscale>
<asrwt>0</asrwt>
<pdfrwt beam="1">  1        4 0.13763917E-01 0.12499929E+03</pdfrwt>
<pdfrwt beam="2">  1       -4 0.67171695E-02 0.12499929E+03</pdfrwt>
<totfact> 0.10277866E+04</totfact>
</mgrwt>
</event>
<event>
 5    1  0.3246948E-002  0.1250097E+03  0.7818608E-02  0.1235054E+00
         -4   -1    0    0    0  501 -0.00000000000E+00  0.00000000000E+00  0.13130130137E+03  0.13130744321E+03  0.12700000000E+01 0.  1.
          4   -1    0    0  501    0  0.00000000000E+00 -0.00000000000E+00 -0.29734489303E+02  0.29761598648E+02  0.12700000000E+01 0.  1.
         25    2    1    2    0    0  0.00000000000E+00  0.00000000000E+00  0.10156681207E+03  0.16106904186E+03  0.12500967535E+03 0.  0.
    9000005    1    3    3    0    0  0.61684821299E+02  0.63902593708E+01  0.40802917161E+02  0.74241030720E+02  0.10000000000E+01 0.  0.
    9000005    1    3    3    0    0 -0.61684821299E+02 -0.63902593708E+01  0.60763894908E+02  0.86828011136E+02  0.10000000000E+01 0.  0.
<mgrwt>
<rscale>  0 0.12500968E+03</rscale>
<asrwt>0</asrwt>
<pdfrwt beam="2">  1        4 0.45770946E-02 0.12500968E+03</pdfrwt>
<pdfrwt beam="1">  1       -4 0.20202758E-01 0.12500968E+03</pdfrwt>
<totfact> 0.97115958E+03</totfact>
</mgrwt>
</event>
<event>
 5    1  0.3246948E-002  0.1249979E+03  0.7818608E-02  0.1235073E+00
          4   -1    0    0  501    0  0.00000000000E+00  0.00000000000E+00  0.12534200837E+03  0.12534844221E+03  0.12700000000E+01 0. -1.
         -4   -1    0    0    0  501 -0.00000000000E+00 -0.00000000000E+00 -0.31143492187E+02  0.31169376086E+02  0.12700000000E+01 0. -1.
         25    2    1    2    0    0  0.00000000000E+00  0.00000000000E+00  0.94198516188E+02  0.15651781829E+03  0.12499786795E+03 0.  0.
    9000005    1    3    3    0    0 -0.54165596949E+02  0.20483668828E+02  0.76508431779E+02  0.95958494750E+02  0.10000000000E+01 0.  0.
    9000005    1    3    3    0    0  0.54165596949E+02 -0.20483668828E+02  0.17690084408E+02  0.60559323542E+02  0.10000000000E+01 0.  0.
<mgrwt>
<rscale>  0 0.12499787E+03</rscale>
<asrwt>0</asrwt>
<pdfrwt beam="1">  1        4 0.19285872E-01 0.12499787E+03</pdfrwt>
<pdfrwt beam="2">  1       -4 0.47937925E-02 0.12499787E+03</pdfrwt>
<totfact> 0.98023053E+03</totfact>
</mgrwt>
</event>
<event>
 5    1  0.3246948E-002  0.1249964E+03  0.7818608E-02  0.1235075E+00
         -4   -1    0    0    0  501 -0.00000000000E+00  0.00000000000E+00  0.75901560822E+03  0.75901667071E+03  0.12700000000E+01 0. -1.
          4   -1    0    0  501    0  0.00000000000E+00 -0.00000000000E+00 -0.50667390813E+01  0.52234801538E+01  0.12700000000E+01 0. -1.
         25    2    1    2    0    0  0.00000000000E+00  0.00000000000E+00  0.75394886914E+03  0.76424015086E+03  0.12499644364E+03 0.  0.
    9000005    1    3    3    0    0 -0.45396126079E+01 -0.32076225164E+02  0.50254246795E+02  0.59799511907E+02  0.10000000000E+01 0.  0.
    9000005    1    3    3    0    0  0.45396126079E+01  0.32076225164E+02  0.70369462234E+03  0.70444063896E+03  0.10000000000E+01 0.  0.
<mgrwt>
<rscale>  0 0.12499644E+03</rscale>
<asrwt>0</asrwt>
<pdfrwt beam="2">  1        4 0.79163762E-03 0.12499644E+03</pdfrwt>
<pdfrwt beam="1">  1       -4 0.11678369E+00 0.12499644E+03</pdfrwt>
<totfact> 0.39905243E+03</totfact>
</mgrwt>
</event>
<event>
 5    1  0.3246948E-002  0.1249992E+03  0.7818608E-02  0.1235071E+00
         -4   -1    0    0    0  501 -0.00000000000E+00  0.00000000000E+00  0.14316597735E+04  0.14316603368E+04  0.12700000000E+01 0. -1.
          4   -1    0    0  501    0  0.00000000000E+00 -0.00000000000E+00 -0.25800601614E+01  0.28756930359E+01  0.12700000000E+01 0. -1.
         25    2    1    2    0    0  0.00000000000E+00  0.00000000000E+00  0.14290797133E+04  0.14345360298E+04  0.12499917525E+03 0.  0.
    9000005    1    3    3    0    0  0.13006295392E+02  0.60112371599E+02  0.58750033617E+03  0.59071169443E+03  0.10000000000E+01 0.  0.
    9000005    1    3    3    0    0 -0.13006295392E+02 -0.60112371599E+02  0.84157937716E+03  0.84382433539E+03  0.10000000000E+01 0.  0.
<mgrwt>
<rscale>  0 0.12499918E+03</rscale>
<asrwt>0</asrwt>
<pdfrwt beam="2">  1        4 0.41971684E-03 0.12499918E+03</pdfrwt>
<pdfrwt beam="1">  1       -4 0.22027804E+00 0.12499918E+03</pdfrwt>
<totfact> 0.19252080E+03</totfact>
</mgrwt>
</event>
<event>
 5    1  0.3246948E-002  0.1249977E+03  0.7818608E-02  0.1235073E+00
          4   -1    0    0  501    0  0.00000000000E+00  0.00000000000E+00  0.23601701394E+03  0.23602043083E+03  0.12700000000E+01 0. -1.
         -4   -1    0    0    0  501 -0.00000000000E+00 -0.00000000000E+00 -0.16522202210E+02  0.16570940404E+02  0.12700000000E+01 0. -1.
         25    2    1    2    0    0  0.00000000000E+00  0.00000000000E+00  0.21949481173E+03  0.25259137124E+03  0.12499771376E+03 0.  0.
    9000005    1    3    3    0    0 -0.22812426365E+02  0.36675592333E+02  0.20100921519E+03  0.20559963634E+03  0.10000000000E+01 0.  0.
    9000005    1    3    3    0    0  0.22812426365E+02 -0.36675592333E+02  0.18485596542E+02  0.46991734902E+02  0.10000000000E+01 0.  0.
<mgrwt>
<rscale>  0 0.12499771E+03</rscale>
<asrwt>0</asrwt>
<pdfrwt beam="1">  1        4 0.36314320E-01 0.12499771E+03</pdfrwt>
<pdfrwt beam="2">  1       -4 0.25458893E-02 0.12499771E+03</pdfrwt>
<totfact> 0.81961305E+03</totfact>
</mgrwt>
</event>
<event>
 5    1  0.3246948E-002  0.1250045E+03  0.7818608E-02  0.1235062E+00
          4   -1    0    0  501    0  0.00000000000E+00  0.00000000000E+00  0.74547302056E+01  0.75621361029E+01  0.12700000000E+01 0. -1.
         -4   -1    0    0    0  501 -0.00000000000E+00 -0.00000000000E+00 -0.52017798190E+03  0.52017953224E+03  0.12700000000E+01 0. -1.
         25    2    1    2    0    0  0.00000000000E+00  0.00000000000E+00 -0.51272325170E+03  0.52774166834E+03  0.12500454259E+03 0.  0.
    9000005    1    3    3    0    0 -0.37717454851E+02 -0.49069187970E+02 -0.29295798305E+03  0.29942573611E+03  0.10000000000E+01 0.  0.
    9000005    1    3    3    0    0  0.37717454851E+02  0.49069187970E+02 -0.21976526864E+03  0.22831593223E+03  0.10000000000E+01 0.  0.
<mgrwt>
<rscale>  0 0.12500454E+03</rscale>
<asrwt>0</asrwt>
<pdfrwt beam="1">  1        4 0.11552632E-02 0.12500454E+03</pdfrwt>
<pdfrwt beam="2">  1       -4 0.80035735E-01 0.12500454E+03</pdfrwt>
<totfact> 0.53769062E+03</totfact>
</mgrwt>
</event>
<event>
 5    1  0.3246948E-002  0.1250010E+03  0.7818608E-02  0.1235068E+00
         -4   -1    0    0    0  501 -0.00000000000E+00  0.00000000000E+00  0.69283261783E+02  0.69294900702E+02  0.12700000000E+01 0. -1.
          4   -1    0    0  501    0  0.00000000000E+00 -0.00000000000E+00 -0.56358198151E+02  0.56372505700E+02  0.12700000000E+01 0. -1.
         25    2    1    2    0    0  0.00000000000E+00  0.00000000000E+00  0.12925063631E+02  0.12566740640E+03  0.12500095904E+03 0.  0.
    9000005    1    3    3    0    0 -0.49555381023E+02  0.37766943293E+02  0.11308203385E+02  0.63332087111E+02  0.10000000000E+01 0.  0.
    9000005    1    3    3    0    0  0.49555381023E+02 -0.37766943293E+02  0.16168602462E+01  0.62335319291E+02  0.10000000000E+01 0.  0.
<mgrwt>
<rscale>  0 0.12500096E+03</rscale>
<asrwt>0</asrwt>
<pdfrwt beam="2">  1        4 0.86724879E-02 0.12500096E+03</pdfrwt>
<pdfrwt beam="1">  1       -4 0.10660959E-01 0.12500096E+03</pdfrwt>
<totfact> 0.10438036E+04</totfact>
</mgrwt>
</event>
<event>
 5    1  0.3246948E-002  0.1249987E+03  0.7818608E-02  0.1235071E+00
         -4   -1    0    0    0  501 -0.00000000000E+00  0.00000000000E+00  0.13367339564E+03  0.13367942850E+03  0.12700000000E+01 0.  1.
          4   -1    0    0  501    0  0.00000000000E+00 -0.00000000000E+00 -0.29201227631E+02  0.29228831574E+02  0.12700000000E+01 0.  1.
         25    2    1    2    0    0  0.00000000000E+00  0.00000000000E+00  0.10447216801E+03  0.16290826007E+03  0.12499866923E+03 0.  0.
    9000005    1    3    3    0    0  0.32306832036E+02  0.20029058888E+02 -0.12408076251E+02  0.39998186864E+02  0.10000000000E+01 0.  0.
    9000005    1    3    3    0    0 -0.32306832036E+02 -0.20029058888E+02  0.11688024426E+03  0.12291007321E+03  0.10000000000E+01 0.  0.
<mgrwt>
<rscale>  0 0.12499867E+03</rscale>
<asrwt>0</asrwt>
<pdfrwt beam="2">  1        4 0.44950839E-02 0.12499867E+03</pdfrwt>
<pdfrwt beam="1">  1       -4 0.20567726E-01 0.12499867E+03</pdfrwt>
<totfact> 0.96787901E+03</totfact>
</mgrwt>
</event>
<event>
 5    1  0.3246948E-002  0.1249989E+03  0.7818608E-02  0.1235071E+00
         -4   -1    0    0    0  501 -0.00000000000E+00  0.00000000000E+00  0.10639596556E+04  0.10639604136E+04  0.12700000000E+01 0.  1.
          4   -1    0    0  501    0  0.00000000000E+00 -0.00000000000E+00 -0.35607517409E+01  0.37804567132E+01  0.12700000000E+01 0.  1.
         25    2    1    2    0    0  0.00000000000E+00  0.00000000000E+00  0.10603989039E+04  0.10677408703E+04  0.12499892307E+03 0.  0.
    9000005    1    3    3    0    0 -0.25846022025E+01 -0.82009869063E+01  0.10589241936E+04  0.10589595763E+04  0.10000000000E+01 0.  0.
    9000005    1    3    3    0    0  0.25846022025E+01  0.82009869063E+01  0.14747102830E+01  0.87812940505E+01  0.10000000000E+01 0.  0.
<mgrwt>
<rscale>  0 0.12499892E+03</rscale>
<asrwt>0</asrwt>
<pdfrwt beam="2">  1        4 0.56476740E-03 0.12499892E+03</pdfrwt>
<pdfrwt beam="1">  1       -4 0.16370284E+00 0.12499892E+03</pdfrwt>
<totfact> 0.28447946E+03</totfact>
</mgrwt>
</event>
<event>
 5    1  0.3246948E-002  0.1250100E+03  0.7818608E-02  0.1235054E+00
         -4   -1    0    0    0  501 -0.00000000000E+00  0.00000000000E+00  0.40482114268E+02  0.40502030512E+02  0.12700000000E+01 0.  1.
          4   -1    0    0  501    0  0.00000000000E+00 -0.00000000000E+00 -0.96460790331E+02  0.96469150361E+02  0.12700000000E+01 0.  1.
         25    2    1    2    0    0  0.00000000000E+00  0.00000000000E+00 -0.55978676064E+02  0.13697118087E+03  0.12500996847E+03 0.  0.
    9000005    1    3    3    0    0 -0.51597861057E+02  0.96422554680E+01  0.91761056458E+01  0.53296465840E+02  0.10000000000E+01 0.  0.
    9000005    1    3    3    0    0  0.51597861057E+02 -0.96422554680E+01 -0.65154781710E+02  0.83674715033E+02  0.10000000000E+01 0.  0.
<mgrwt>
<rscale>  0 0.12500997E+03</rscale>
<asrwt>0</asrwt>
<pdfrwt beam="2">  1        4 0.14842297E-01 0.12500997E+03</pdfrwt>
<pdfrwt beam="1">  1       -4 0.62301927E-02 0.12500997E+03</pdfrwt>
<totfact> 0.10194397E+04</totfact>
</mgrwt>
</event>
<event>
 5    1  0.3246948E-002  0.1250023E+03  0.7818608E-02  0.1235066E+00
         -4   -1    0    0    0  501 -0.00000000000E+00  0.00000000000E+00  0.32834111111E+03  0.32834356724E+03  0.12700000000E+01 0. -1.
          4   -1    0    0  501    0  0.00000000000E+00 -0.00000000000E+00 -0.11860972633E+02  0.11928770758E+02  0.12700000000E+01 0. -1.
         25    2    1    2    0    0  0.00000000000E+00  0.00000000000E+00  0.31648013848E+03  0.34027233800E+03  0.12500234379E+03 0.  0.
    9000005    1    3    3    0    0  0.18522530888E+02 -0.45523646502E+02  0.53167706359E+02  0.72410576167E+02  0.10000000000E+01 0.  0.
    9000005    1    3    3    0    0 -0.18522530888E+02  0.45523646502E+02  0.26331243212E+03  0.26786176183E+03  0.10000000000E+01 0.  0.
<mgrwt>
<rscale>  0 0.12500234E+03</rscale>
<asrwt>0</asrwt>
<pdfrwt beam="2">  1        4 0.18301692E-02 0.12500234E+03</pdfrwt>
<pdfrwt beam="1">  1       -4 0.50519422E-01 0.12500234E+03</pdfrwt>
<totfact> 0.70804467E+03</totfact>
</mgrwt>
</event>
<event>
 5    1  0.3246948E-002  0.1250012E+03  0.7818608E-02  0.1235067E+00
          4   -1    0    0  501    0  0.00000000000E+00  0.00000000000E+00  0.78783975742E+02  0.78794211295E+02  0.12700000000E+01 0.  1.
         -4   -1    0    0    0  501 -0.00000000000E+00 -0.00000000000E+00 -0.49561104460E+02  0.49577373622E+02  0.12700000000E+01 0.  1.
         25    2    1    2    0    0  0.00000000000E+00  0.00000000000E+00  0.29222871282E+02  0.12837158492E+03  0.12500115043E+03 0.  0.
    9000005    1    3    3    0    0  0.59104169690E+02 -0.17634529835E+01 -0.61553063155E+01  0.59458392485E+02  0.10000000000E+01 0.  0.
    9000005    1    3    3    0    0 -0.59104169690E+02  0.17634529835E+01  0.35378177597E+02  0.68913192432E+02  0.10000000000E+01 0.  0.
<mgrwt>
<rscale>  0 0.12500115E+03</rscale>
<asrwt>0</asrwt>
<pdfrwt beam="1">  1        4 0.12122650E-01 0.12500115E+03</pdfrwt>
<pdfrwt beam="2">  1       -4 0.76268241E-02 0.12500115E+03</pdfrwt>
<totfact> 0.10379201E+04</totfact>
</mgrwt>
</event>
<event>
 5    1  0.3246948E-002  0.1249971E+03  0.7818608E-02  0.1235074E+00
         -4   -1    0    0    0  501 -0.00000000000E+00  0.00000000000E+00  0.39914444555E+02  0.39934643909E+02  0.12700000000E+01 0.  1.
          4   -1    0    0  501    0  0.00000000000E+00 -0.00000000000E+00 -0.97811930487E+02  0.97820175043E+02  0.12700000000E+01 0.  1.
         25    2    1    2    0    0  0.00000000000E+00  0.00000000000E+00 -0.57897485932E+02  0.13775481895E+03  0.12499708504E+03 0.  0.
    9000005    1    3    3    0    0  0.36824243182E+02  0.39885268772E+02  0.51655890222E+01  0.54539369824E+02  0.10000000000E+01 0.  0.
    9000005    1    3    3    0    0 -0.36824243182E+02 -0.39885268772E+02 -0.63063074954E+02  0.83215449128E+02  0.10000000000E+01 0.  0.
<mgrwt>
<rscale>  0 0.12499709E+03</rscale>
<asrwt>0</asrwt>
<pdfrwt beam="2">  1        4 0.15050177E-01 0.12499709E+03</pdfrwt>
<pdfrwt beam="1">  1       -4 0.61428718E-02 0.12499709E+03</pdfrwt>
<totfact> 0.10180996E+04</totfact>
</mgrwt>
</event>
<event>
 5    1  0.3246948E-002  0.1249803E+03  0.7818608E-02  0.1235100E+00
         -4   -1    0    0    0  501 -0.00000000000E+00  0.00000000000E+00  0.18185670096E+03  0.18186113544E+03  0.12700000000E+01 0.  1.
          4   -1    0    0  501    0  0.00000000000E+00 -0.00000000000E+00 -0.21449567107E+02  0.21487131709E+02  0.12700000000E+01 0.  1.
         25    2    1    2    0    0  0.00000000000E+00  0.00000000000E+00  0.16040713385E+03  0.20334826715E+03  0.12498027509E+03 0.  0.
    9000005    1    3    3    0    0 -0.43134673636E+02 -0.44875391756E+02  0.71349039368E+02  0.94689420073E+02  0.10000000000E+01 0.  0.
    9000005    1    3    3    0    0  0.43134673636E+02  0.44875391756E+02  0.89058094485E+02  0.10865884708E+03  0.10000000000E+01 0.  0.
<mgrwt>
<rscale>  0 0.12498028E+03</rscale>
<asrwt>0</asrwt>
<pdfrwt beam="2">  1        4 0.33031641E-02 0.12498028E+03</pdfrwt>
<pdfrwt beam="1">  1       -4 0.27981185E-01 0.12498028E+03</pdfrwt>
<totfact> 0.89613386E+03</totfact>
</mgrwt>
</event>
<event>
 5    1  0.3246948E-002  0.1250177E+03  0.7818608E-02  0.1235042E+00
          4   -1    0    0  501    0  0.00000000000E+00  0.00000000000E+00  0.36998161584E+01  0.39117182421E+01  0.12700000000E+01 0. -1.
         -4   -1    0    0    0  501 -0.00000000000E+00 -0.00000000000E+00 -0.10264813094E+04  0.10264820950E+04  0.12700000000E+01 0. -1.
         25    2    1    2    0    0  0.00000000000E+00  0.00000000000E+00 -0.10227814932E+04  0.10303938133E+04  0.12501770891E+03 0.  0.
    9000005    1    3    3    0    0 -0.48931046736E+02  0.18123597464E+02 -0.79494906859E+03  0.79666036287E+03  0.10000000000E+01 0.  0.
    9000005    1    3    3    0    0  0.48931046736E+02 -0.18123597464E+02 -0.22783242462E+03  0.23373345039E+03  0.10000000000E+01 0.  0.
<mgrwt>
<rscale>  0 0.12501771E+03</rscale>
<asrwt>0</asrwt>
<pdfrwt beam="1">  1        4 0.58556390E-03 0.12501771E+03</pdfrwt>
<pdfrwt beam="2">  1       -4 0.15793634E+00 0.12501771E+03</pdfrwt>
<totfact> 0.29603539E+03</totfact>
</mgrwt>
</event>
<event>
 5    1  0.3246948E-002  0.1250006E+03  0.7818608E-02  0.1235068E+00
         -4   -1    0    0    0  501 -0.00000000000E+00  0.00000000000E+00  0.26759829240E+03  0.26760130604E+03  0.12700000000E+01 0. -1.
          4   -1    0    0  501    0  0.00000000000E+00 -0.00000000000E+00 -0.14566865633E+02  0.14622122772E+02  0.12700000000E+01 0. -1.
         25    2    1    2    0    0  0.00000000000E+00  0.00000000000E+00  0.25303142677E+03  0.28222342881E+03  0.12500064336E+03 0.  0.
    9000005    1    3    3    0    0  0.58321252566E+02  0.21977083625E+02  0.11618666553E+03  0.13185105973E+03  0.10000000000E+01 0.  0.
    9000005    1    3    3    0    0 -0.58321252566E+02 -0.21977083625E+02  0.13684476123E+03  0.15037236908E+03  0.10000000000E+01 0.  0.
<mgrwt>
<rscale>  0 0.12500064E+03</rscale>
<asrwt>0</asrwt>
<pdfrwt beam="2">  1        4 0.22455387E-02 0.12500064E+03</pdfrwt>
<pdfrwt beam="1">  1       -4 0.41173449E-01 0.12500064E+03</pdfrwt>
<totfact> 0.77883102E+03</totfact>
</mgrwt>
</event>
<event>
 5    1  0.3246948E-002  0.1250043E+03  0.7818608E-02  0.1235063E+00
         -4   -1    0    0    0  501 -0.00000000000E+00  0.00000000000E+00  0.31324815276E+03  0.31325072723E+03  0.12700000000E+01 0. -1.
          4   -1    0    0  501    0  0.00000000000E+00 -0.00000000000E+00 -0.12436036637E+02  0.12500716269E+02  0.12700000000E+01 0. -1.
         25    2    1    2    0    0  0.00000000000E+00  0.00000000000E+00  0.30081211613E+03  0.32575144350E+03  0.12500429486E+03 0.  0.
    9000005    1    3    3    0    0  0.54357537673E+02  0.13594029763E+02  0.22252839885E+03  0.22947642110E+03  0.10000000000E+01 0.  0.
    9000005    1    3    3    0    0 -0.54357537673E+02 -0.13594029763E+02  0.78283717281E+02  0.96275022401E+02  0.10000000000E+01 0.  0.
<mgrwt>
<rscale>  0 0.12500429E+03</rscale>
<asrwt>0</asrwt>
<pdfrwt beam="2">  1        4 0.19184101E-02 0.12500429E+03</pdfrwt>
<pdfrwt beam="1">  1       -4 0.48197188E-01 0.12500429E+03</pdfrwt>
<totfact> 0.72470356E+03</totfact>
</mgrwt>
</event>
<event>
 5    1  0.3246948E-002  0.1250096E+03  0.7818608E-02  0.1235054E+00
         -4   -1    0    0    0  501 -0.00000000000E+00  0.00000000000E+00  0.30628123553E+02  0.30654442620E+02  0.12700000000E+01 0.  1.
          4   -1    0    0  501    0  0.00000000000E+00 -0.00000000000E+00 -0.12747340901E+03  0.12747973527E+03  0.12700000000E+01 0.  1.
         25    2    1    2    0    0  0.00000000000E+00  0.00000000000E+00 -0.96845285453E+02  0.15813417789E+03  0.12500963523E+03 0.  0.
    9000005    1    3    3    0    0 -0.25067657841E+01  0.56697781976E+02 -0.15316749486E+02  0.58792220322E+02  0.10000000000E+01 0.  0.
    9000005    1    3    3    0    0  0.25067657841E+01 -0.56697781976E+02 -0.81528535967E+02  0.99341957564E+02  0.10000000000E+01 0.  0.
<mgrwt>
<rscale>  0 0.12500964E+03</rscale>
<asrwt>0</asrwt>
<pdfrwt beam="2">  1        4 0.19613805E-01 0.12500964E+03</pdfrwt>
<pdfrwt beam="1">  1       -4 0.47145303E-02 0.12500964E+03</pdfrwt>
<totfact> 0.97682550E+03</totfact>
</mgrwt>
</event>
<event>
 5    1  0.3246948E-002  0.1249996E+03  0.7818608E-02  0.1235070E+00
          4   -1    0    0  501    0  0.00000000000E+00  0.00000000000E+00  0.14239436060E+02  0.14295958845E+02  0.12700000000E+01 0. -1.
         -4   -1    0    0    0  501 -0.00000000000E+00 -0.00000000000E+00 -0.27372301982E+03  0.27372596603E+03  0.12700000000E+01 0. -1.
         25    2    1    2    0    0  0.00000000000E+00  0.00000000000E+00 -0.25948358376E+03  0.28802192488E+03  0.12499959587E+03 0.  0.
    9000005    1    3    3    0    0 -0.32745717984E+02  0.31297426754E+02 -0.22893984136E+03  0.23338008040E+03  0.10000000000E+01 0.  0.
    9000005    1    3    3    0    0  0.32745717984E+02 -0.31297426754E+02 -0.30543742407E+02  0.54641844478E+02  0.10000000000E+01 0.  0.
<mgrwt>
<rscale>  0 0.12499960E+03</rscale>
<asrwt>0</asrwt>
<pdfrwt beam="1">  1        4 0.21952572E-02 0.12499960E+03</pdfrwt>
<pdfrwt beam="2">  1       -4 0.42115805E-01 0.12499960E+03</pdfrwt>
<totfact> 0.77127033E+03</totfact>
</mgrwt>
</event>
<event>
 5    1  0.3246948E-002  0.1250017E+03  0.7818608E-02  0.1235067E+00
          4   -1    0    0  501    0  0.00000000000E+00  0.00000000000E+00  0.21317464720E+02  0.21355261695E+02  0.12700000000E+01 0. -1.
         -4   -1    0    0    0  501 -0.00000000000E+00 -0.00000000000E+00 -0.18304440262E+03  0.18304880833E+03  0.12700000000E+01 0. -1.
         25    2    1    2    0    0  0.00000000000E+00  0.00000000000E+00 -0.16172693790E+03  0.20440407002E+03  0.12500168559E+03 0.  0.
    9000005    1    3    3    0    0  0.53180416181E+02  0.25924101560E+01 -0.27362387341E+02  0.59871341195E+02  0.10000000000E+01 0.  0.
    9000005    1    3    3    0    0 -0.53180416181E+02 -0.25924101560E+01 -0.13436455056E+03  0.14453272883E+03  0.10000000000E+01 0.  0.
<mgrwt>
<rscale>  0 0.12500169E+03</rscale>
<asrwt>0</asrwt>
<pdfrwt beam="1">  1        4 0.32828564E-02 0.12500169E+03</pdfrwt>
<pdfrwt beam="2">  1       -4 0.28163923E-01 0.12500169E+03</pdfrwt>
<totfact> 0.89394633E+03</totfact>
</mgrwt>
</event>
<event>
 5    1  0.3246948E-002  0.1250020E+03  0.7818608E-02  0.1235066E+00
         -4   -1    0    0    0  501 -0.00000000000E+00  0.00000000000E+00  0.15399286225E+03  0.15399809909E+03  0.12700000000E+01 0.  1.
          4   -1    0    0  501    0  0.00000000000E+00 -0.00000000000E+00 -0.25345664901E+02  0.25377463019E+02  0.12700000000E+01 0.  1.
         25    2    1    2    0    0  0.00000000000E+00  0.00000000000E+00  0.12864719734E+03  0.17937556211E+03  0.12500196357E+03 0.  0.
    9000005    1    3    3    0    0 -0.14825363376E+02  0.27207298467E+02 -0.13554343965E+02  0.33834135565E+02  0.10000000000E+01 0.  0.
    9000005    1    3    3    0    0  0.14825363376E+02 -0.27207298467E+02  0.14220154131E+03  0.14554142654E+03  0.10000000000E+01 0.  0.
<mgrwt>
<rscale>  0 0.12500196E+03</rscale>
<asrwt>0</asrwt>
<pdfrwt beam="2">  1        4 0.39021819E-02 0.12500196E+03</pdfrwt>
<pdfrwt beam="1">  1       -4 0.23694059E-01 0.12500196E+03</pdfrwt>
<totfact> 0.93725398E+03</totfact>
</mgrwt>
</event>
<event>
 5    1  0.3246948E-002  0.1249984E+03  0.7818608E-02  0.1235072E+00
         -4   -1    0    0    0  501 -0.00000000000E+00  0.00000000000E+00  0.60796861154E+02  0.60810124373E+02  0.12700000000E+01 0. -1.
          4   -1    0    0  501    0  0.00000000000E+00 -0.00000000000E+00 -0.64222653287E+02  0.64235209156E+02  0.12700000000E+01 0. -1.
         25    2    1    2    0    0  0.00000000000E+00  0.00000000000E+00 -0.34257921332E+01  0.12504533353E+03  0.12499839753E+03 0.  0.
    9000005    1    3    3    0    0  0.52860732397E+02 -0.15534647123E+02  0.27786607503E+02  0.61714486527E+02  0.10000000000E+01 0.  0.
    9000005    1    3    3    0    0 -0.52860732397E+02  0.15534647123E+02 -0.31212399637E+02  0.63330847001E+02  0.10000000000E+01 0.  0.
<mgrwt>
<rscale>  0 0.12499840E+03</rscale>
<asrwt>0</asrwt>
<pdfrwt beam="2">  1        4 0.98823943E-02 0.12499840E+03</pdfrwt>
<pdfrwt beam="1">  1       -4 0.93553493E-02 0.12499840E+03</pdfrwt>
<totfact> 0.10452257E+04</totfact>
</mgrwt>
</event>
<event>
 5    1  0.3246948E-002  0.1249993E+03  0.7818608E-02  0.1235070E+00
          4   -1    0    0  501    0  0.00000000000E+00  0.00000000000E+00  0.23501188703E+02  0.23535478972E+02  0.12700000000E+01 0. -1.
         -4   -1    0    0    0  501 -0.00000000000E+00 -0.00000000000E+00 -0.16605531095E+03  0.16606016740E+03  0.12700000000E+01 0. -1.
         25    2    1    2    0    0  0.00000000000E+00  0.00000000000E+00 -0.14255412225E+03  0.18959564637E+03  0.12499932540E+03 0.  0.
    9000005    1    3    3    0    0  0.53820521804E+02 -0.26843355395E+02 -0.97017269935E+02  0.11415150004E+03  0.10000000000E+01 0.  0.
    9000005    1    3    3    0    0 -0.53820521804E+02  0.26843355395E+02 -0.45536852316E+02  0.75444146327E+02  0.10000000000E+01 0.  0.
<mgrwt>
<rscale>  0 0.12499933E+03</rscale>
<asrwt>0</asrwt>
<pdfrwt beam="1">  1        4 0.36185789E-02 0.12499933E+03</pdfrwt>
<pdfrwt beam="2">  1       -4 0.25549981E-01 0.12499933E+03</pdfrwt>
<totfact> 0.91919108E+03</totfact>
</mgrwt>
</event>
<event>
 5    1  0.3246948E-002  0.1250019E+03  0.7818608E-02  0.1235066E+00
          4   -1    0    0  501    0  0.00000000000E+00  0.00000000000E+00  0.88550406697E+02  0.88559513471E+02  0.12700000000E+01 0.  1.
         -4   -1    0    0    0  501 -0.00000000000E+00 -0.00000000000E+00 -0.44094140835E+02  0.44112426321E+02  0.12700000000E+01 0.  1.
         25    2    1    2    0    0  0.00000000000E+00  0.00000000000E+00  0.44456265863E+02  0.13267193979E+03  0.12500193612E+03 0.  0.
    9000005    1    3    3    0    0 -0.19269299284E+02  0.59403760786E+02  0.24661937836E+02  0.67151499375E+02  0.10000000000E+01 0.  0.
    9000005    1    3    3    0    0  0.19269299284E+02 -0.59403760786E+02  0.19794328027E+02  0.65520440418E+02  0.10000000000E+01 0.  0.
<mgrwt>
<rscale>  0 0.12500194E+03</rscale>
<asrwt>0</asrwt>
<pdfrwt beam="1">  1        4 0.13625247E-01 0.12500194E+03</pdfrwt>
<pdfrwt beam="2">  1       -4 0.67858211E-02 0.12500194E+03</pdfrwt>
<totfact> 0.10286928E+04</totfact>
</mgrwt>
</event>
<event>
 5    1  0.3246948E-002  0.1250145E+03  0.7818608E-02  0.1235047E+00
          4   -1    0    0  501    0  0.00000000000E+00  0.00000000000E+00  0.15967393551E+02  0.16017819977E+02  0.12700000000E+01 0.  1.
         -4   -1    0    0    0  501 -0.00000000000E+00 -0.00000000000E+00 -0.24425812872E+03  0.24426143033E+03  0.12700000000E+01 0.  1.
         25    2    1    2    0    0  0.00000000000E+00  0.00000000000E+00 -0.22829073517E+03  0.26027925030E+03  0.12501451266E+03 0.  0.
    9000005    1    3    3    0    0 -0.25544739302E+02 -0.22858898672E+02 -0.53407191379E+01  0.34707149629E+02  0.10000000000E+01 0.  0.
    9000005    1    3    3    0    0  0.25544739302E+02  0.22858898672E+02 -0.22295001603E+03  0.22557210067E+03  0.10000000000E+01 0.  0.
<mgrwt>
<rscale>  0 0.12501451E+03</rscale>
<asrwt>0</asrwt>
<pdfrwt beam="1">  1        4 0.24606552E-02 0.12501451E+03</pdfrwt>
<pdfrwt beam="2">  1       -4 0.37582304E-01 0.12501451E+03</pdfrwt>
<totfact> 0.80840771E+03</totfact>
</mgrwt>
</event>
<event>
 5    1  0.3246948E-002  0.1249693E+03  0.7818608E-02  0.1235117E+00
         -4   -1    0    0    0  501 -0.00000000000E+00  0.00000000000E+00  0.19819046048E+03  0.19819452950E+03  0.12700000000E+01 0. -1.
          4   -1    0    0  501    0  0.00000000000E+00 -0.00000000000E+00 -0.19675143253E+02  0.19716088913E+02  0.12700000000E+01 0. -1.
         25    2    1    2    0    0  0.00000000000E+00  0.00000000000E+00  0.17851531723E+03  0.21791061842E+03  0.12496927276E+03 0.  0.
    9000005    1    3    3    0    0 -0.44872408069E+02  0.36536127062E+02  0.13033342931E+03  0.14260513449E+03  0.10000000000E+01 0.  0.
    9000005    1    3    3    0    0  0.44872408069E+02 -0.36536127062E+02  0.48181887918E+02  0.75305483930E+02  0.10000000000E+01 0.  0.
<mgrwt>
<rscale>  0 0.12496927E+03</rscale>
<asrwt>0</asrwt>
<pdfrwt beam="2">  1        4 0.30304079E-02 0.12496927E+03</pdfrwt>
<pdfrwt beam="1">  1       -4 0.30494302E-01 0.12496927E+03</pdfrwt>
<totfact> 0.87259938E+03</totfact>
</mgrwt>
</event>
<event>
 5    1  0.3246948E-002  0.1249997E+03  0.7818608E-02  0.1235070E+00
         -4   -1    0    0    0  501 -0.00000000000E+00  0.00000000000E+00  0.12457284648E+02  0.12521854527E+02  0.12700000000E+01 0.  1.
          4   -1    0    0  501    0  0.00000000000E+00 -0.00000000000E+00 -0.31269379764E+03  0.31269637667E+03  0.12700000000E+01 0.  1.
         25    2    1    2    0    0  0.00000000000E+00  0.00000000000E+00 -0.30023651299E+03  0.32521823120E+03  0.12499973668E+03 0.  0.
    9000005    1    3    3    0    0  0.12983610331E+02  0.60077834198E+02 -0.12076187139E+03  0.13550774842E+03  0.10000000000E+01 0.  0.
    9000005    1    3    3    0    0 -0.12983610331E+02 -0.60077834198E+02 -0.17947464160E+03  0.18971048278E+03  0.10000000000E+01 0.  0.
<mgrwt>
<rscale>  0 0.12499974E+03</rscale>
<asrwt>0</asrwt>
<pdfrwt beam="2">  1        4 0.48111897E-01 0.12499974E+03</pdfrwt>
<pdfrwt beam="1">  1       -4 0.19216709E-02 0.12499974E+03</pdfrwt>
<totfact> 0.72540180E+03</totfact>
</mgrwt>
</event>
<event>
 5    1  0.3246948E-002  0.1249982E+03  0.7818608E-02  0.1235072E+00
         -4   -1    0    0    0  501 -0.00000000000E+00  0.00000000000E+00  0.79899397590E+02  0.79909490270E+02  0.12700000000E+01 0.  1.
          4   -1    0    0  501    0  0.00000000000E+00 -0.00000000000E+00 -0.48866791178E+02  0.48883291420E+02  0.12700000000E+01 0.  1.
         25    2    1    2    0    0  0.00000000000E+00  0.00000000000E+00  0.31032606412E+02  0.12879278169E+03  0.12499823181E+03 0.  0.
    9000005    1    3    3    0    0  0.51917806132E+02 -0.15696835832E+01 -0.20283473915E+02  0.55770438533E+02  0.10000000000E+01 0.  0.
    9000005    1    3    3    0    0 -0.51917806132E+02  0.15696835832E+01  0.51316080327E+02  0.73022343158E+02  0.10000000000E+01 0.  0.
<mgrwt>
<rscale>  0 0.12499823E+03</rscale>
<asrwt>0</asrwt>
<pdfrwt beam="2">  1        4 0.75200136E-02 0.12499823E+03</pdfrwt>
<pdfrwt beam="1">  1       -4 0.12294260E-01 0.12499823E+03</pdfrwt>
<totfact> 0.10370816E+04</totfact>
</mgrwt>
</event>
<event>
 5    1  0.3246948E-002  0.1250024E+03  0.7818608E-02  0.1235065E+00
          4   -1    0    0  501    0  0.00000000000E+00  0.00000000000E+00  0.13610101117E+04  0.13610107042E+04  0.12700000000E+01 0.  1.
         -4   -1    0    0    0  501 -0.00000000000E+00 -0.00000000000E+00 -0.27291156268E+01  0.30101448644E+01  0.12700000000E+01 0.  1.
         25    2    1    2    0    0  0.00000000000E+00  0.00000000000E+00  0.13582809961E+04  0.13640208491E+04  0.12500244994E+03 0.  0.
    9000005    1    3    3    0    0  0.21110904399E+02 -0.14648816974E+02  0.13007527088E+04  0.13010068669E+04  0.10000000000E+01 0.  0.
    9000005    1    3    3    0    0 -0.21110904399E+02  0.14648816974E+02  0.57528287251E+02  0.63013982236E+02  0.10000000000E+01 0.  0.
<mgrwt>
<rscale>  0 0.12500245E+03</rscale>
<asrwt>0</asrwt>
<pdfrwt beam="1">  1        4 0.20940729E+00 0.12500245E+03</pdfrwt>
<pdfrwt beam="2">  1       -4 0.44152831E-03 0.12500245E+03</pdfrwt>
<totfact> 0.20764905E+03</totfact>
</mgrwt>
</event>
<event>
 5    1  0.3246948E-002  0.1249992E+03  0.7818608E-02  0.1235070E+00
         -4   -1    0    0    0  501 -0.00000000000E+00  0.00000000000E+00  0.13284860059E+02  0.13345426437E+02  0.12700000000E+01 0. -1.
          4   -1    0    0  501    0  0.00000000000E+00 -0.00000000000E+00 -0.29330346275E+03  0.29330621228E+03  0.12700000000E+01 0. -1.
         25    2    1    2    0    0  0.00000000000E+00  0.00000000000E+00 -0.28001860269E+03  0.30665163872E+03  0.12499923869E+03 0.  0.
    9000005    1    3    3    0    0  0.22576836381E+02 -0.51659871889E+02 -0.73874599420E+02  0.92934989880E+02  0.10000000000E+01 0.  0.
    9000005    1    3    3    0    0 -0.22576836381E+02  0.51659871889E+02 -0.20614400327E+03  0.21371664884E+03  0.10000000000E+01 0.  0.
<mgrwt>
<rscale>  0 0.12499924E+03</rscale>
<asrwt>0</asrwt>
<pdfrwt beam="2">  1        4 0.45128475E-01 0.12499924E+03</pdfrwt>
<pdfrwt beam="1">  1       -4 0.20486953E-02 0.12499924E+03</pdfrwt>
<totfact> 0.74773239E+03</totfact>
</mgrwt>
</event>
<event>
 5    1  0.3246948E-002  0.1250208E+03  0.7818608E-02  0.1235037E+00
         -4   -1    0    0    0  501 -0.00000000000E+00  0.00000000000E+00  0.48940558057E+03  0.48940722838E+03  0.12700000000E+01 0. -1.
          4   -1    0    0  501    0  0.00000000000E+00 -0.00000000000E+00 -0.79321025613E+01  0.80331283473E+01  0.12700000000E+01 0. -1.
         25    2    1    2    0    0  0.00000000000E+00  0.00000000000E+00  0.48147347801E+03  0.49744035673E+03  0.12502079218E+03 0.  0.
    9000005    1    3    3    0    0 -0.22326310573E+02  0.40437283496E+02  0.73202989671E+02  0.86563940166E+02  0.10000000000E+01 0.  0.
    9000005    1    3    3    0    0  0.22326310573E+02 -0.40437283496E+02  0.40827048834E+03  0.41087641656E+03  0.10000000000E+01 0.  0.
<mgrwt>
<rscale>  0 0.12502079E+03</rscale>
<asrwt>0</asrwt>
<pdfrwt beam="2">  1        4 0.12282213E-02 0.12502079E+03</pdfrwt>
<pdfrwt beam="1">  1       -4 0.75301075E-01 0.12502079E+03</pdfrwt>
<totfact> 0.56037879E+03</totfact>
</mgrwt>
</event>
<event>
 5    1  0.3246948E-002  0.1250008E+03  0.7818608E-02  0.1235068E+00
         -4   -1    0    0    0  501 -0.00000000000E+00  0.00000000000E+00  0.74581750990E+01  0.75655320902E+01  0.12700000000E+01 0.  1.
          4   -1    0    0  501    0  0.00000000000E+00 -0.00000000000E+00 -0.51991031517E+03  0.51991186630E+03  0.12700000000E+01 0.  1.
         25    2    1    2    0    0  0.00000000000E+00  0.00000000000E+00 -0.51245214007E+03  0.52747739839E+03  0.12500083980E+03 0.  0.
    9000005    1    3    3    0    0  0.28006944747E+02 -0.50995481444E+02 -0.35248674192E+03  0.35725737405E+03  0.10000000000E+01 0.  0.
    9000005    1    3    3    0    0 -0.28006944747E+02  0.50995481444E+02 -0.15996539815E+03  0.17022002434E+03  0.10000000000E+01 0.  0.
<mgrwt>
<rscale>  0 0.12500084E+03</rscale>
<asrwt>0</asrwt>
<pdfrwt beam="2">  1        4 0.79994552E-01 0.12500084E+03</pdfrwt>
<pdfrwt beam="1">  1       -4 0.11557895E-02 0.12500084E+03</pdfrwt>
<totfact> 0.53792772E+03</totfact>
</mgrwt>
</event>
<event>
 5    1  0.3246948E-002  0.1249992E+03  0.7818608E-02  0.1235071E+00
         -4   -1    0    0    0  501 -0.00000000000E+00  0.00000000000E+00  0.39450969074E+02  0.39471405611E+02  0.12700000000E+01 0.  1.
          4   -1    0    0  501    0  0.00000000000E+00 -0.00000000000E+00 -0.98963880434E+02  0.98972029031E+02  0.12700000000E+01 0.  1.
         25    2    1    2    0    0  0.00000000000E+00  0.00000000000E+00 -0.59512911360E+02  0.13844343464E+03  0.12499919191E+03 0.  0.
    9000005    1    3    3    0    0  0.24296673465E+02 -0.50311219568E+02  0.12481974308E+01  0.55893695107E+02  0.10000000000E+01 0.  0.
    9000005    1    3    3    0    0 -0.24296673465E+02  0.50311219568E+02 -0.60761108791E+02  0.82549739535E+02  0.10000000000E+01 0.  0.
<mgrwt>
<rscale>  0 0.12499919E+03</rscale>
<asrwt>0</asrwt>
<pdfrwt beam="2">  1        4 0.15227411E-01 0.12499919E+03</pdfrwt>
<pdfrwt beam="1">  1       -4 0.60715787E-02 0.12499919E+03</pdfrwt>
<totfact> 0.10166134E+04</totfact>
</mgrwt>
</event>
<event>
 5    1  0.3246948E-002  0.1249980E+03  0.7818608E-02  0.1235072E+00
         -4   -1    0    0    0  501 -0.00000000000E+00  0.00000000000E+00  0.25312150667E+02  0.25343990834E+02  0.12700000000E+01 0. -1.
          4   -1    0    0  501    0  0.00000000000E+00 -0.00000000000E+00 -0.15418673418E+03  0.15419196444E+03  0.12700000000E+01 0. -1.
         25    2    1    2    0    0  0.00000000000E+00  0.00000000000E+00 -0.12887458351E+03  0.17953595527E+03  0.12499800382E+03 0.  0.
    9000005    1    3    3    0    0  0.95940275425E+01  0.45618798194E+01 -0.15288731158E+03  0.15325921230E+03  0.10000000000E+01 0.  0.
    9000005    1    3    3    0    0 -0.95940275425E+01 -0.45618798194E+01  0.24012728068E+02  0.26276742973E+02  0.10000000000E+01 0.  0.
<mgrwt>
<rscale>  0 0.12499800E+03</rscale>
<asrwt>0</asrwt>
<pdfrwt beam="2">  1        4 0.23723887E-01 0.12499800E+03</pdfrwt>
<pdfrwt beam="1">  1       -4 0.38970287E-02 0.12499800E+03</pdfrwt>
<totfact> 0.93704794E+03</totfact>
</mgrwt>
</event>
<event>
 5    1  0.3246948E-002  0.1249996E+03  0.7818608E-02  0.1235070E+00
         -4   -1    0    0    0  501 -0.00000000000E+00  0.00000000000E+00  0.23572484795E+02  0.23606671502E+02  0.12700000000E+01 0. -1.
          4   -1    0    0  501    0  0.00000000000E+00 -0.00000000000E+00 -0.16555445251E+03  0.16555932364E+03  0.12700000000E+01 0. -1.
         25    2    1    2    0    0  0.00000000000E+00  0.00000000000E+00 -0.14198196771E+03  0.18916599515E+03  0.12499957825E+03 0.  0.
    9000005    1    3    3    0    0  0.24002269766E+02 -0.55694935097E+02 -0.48180837701E+02  0.77462428770E+02  0.10000000000E+01 0.  0.
    9000005    1    3    3    0    0 -0.24002269766E+02  0.55694935097E+02 -0.93801130013E+02  0.11170356638E+03  0.10000000000E+01 0.  0.
<mgrwt>
<rscale>  0 0.12499958E+03</rscale>
<asrwt>0</asrwt>
<pdfrwt beam="2">  1        4 0.25472919E-01 0.12499958E+03</pdfrwt>
<pdfrwt beam="1">  1       -4 0.36295407E-02 0.12499958E+03</pdfrwt>
<totfact> 0.91993501E+03</totfact>
</mgrwt>
</event>
<event>
 5    1  0.3246948E-002  0.1250012E+03  0.7818608E-02  0.1235067E+00
         -4   -1    0    0    0  501 -0.00000000000E+00  0.00000000000E+00  0.95065747137E+02  0.95074229835E+02  0.12700000000E+01 0. -1.
          4   -1    0    0  501    0  0.00000000000E+00 -0.00000000000E+00 -0.41070633542E+02  0.41090264534E+02  0.12700000000E+01 0. -1.
         25    2    1    2    0    0  0.00000000000E+00  0.00000000000E+00  0.53995113596E+02  0.13616449437E+03  0.12500118893E+03 0.  0.
    9000005    1    3    3    0    0  0.37061550316E+02  0.11613177473E+02 -0.26332823803E+02  0.46934443773E+02  0.10000000000E+01 0.  0.
    9000005    1    3    3    0    0 -0.37061550316E+02 -0.11613177473E+02  0.80327937399E+02  0.89230050597E+02  0.10000000000E+01 0.  0.
<mgrwt>
<rscale>  0 0.12500119E+03</rscale>
<asrwt>0</asrwt>
<pdfrwt beam="2">  1        4 0.63207216E-02 0.12500119E+03</pdfrwt>
<pdfrwt beam="1">  1       -4 0.14627662E-01 0.12500119E+03</pdfrwt>
<totfact> 0.10213310E+04</totfact>
</mgrwt>
</event>
<event>
 5    1  0.3246948E-002  0.1250105E+03  0.7818608E-02  0.1235053E+00
          4   -1    0    0  501    0  0.00000000000E+00  0.00000000000E+00  0.17315837701E+03  0.17316303424E+03  0.12700000000E+01 0.  1.
         -4   -1    0    0    0  501 -0.00000000000E+00 -0.00000000000E+00 -0.22539773101E+02  0.22575523725E+02  0.12700000000E+01 0.  1.
         25    2    1    2    0    0  0.00000000000E+00  0.00000000000E+00  0.15061860391E+03  0.19573855797E+03  0.12501047649E+03 0.  0.
    9000005    1    3    3    0    0  0.61057043761E+02  0.13294947693E+02  0.73603696066E+02  0.96556834567E+02  0.10000000000E+01 0.  0.
    9000005    1    3    3    0    0 -0.61057043761E+02 -0.13294947693E+02  0.77014907842E+02  0.99181723402E+02  0.10000000000E+01 0.  0.
<mgrwt>
<rscale>  0 0.12501048E+03</rscale>
<asrwt>0</asrwt>
<pdfrwt beam="1">  1        4 0.26642860E-01 0.12501048E+03</pdfrwt>
<pdfrwt beam="2">  1       -4 0.34707656E-02 0.12501048E+03</pdfrwt>
<totfact> 0.90836992E+03</totfact>
</mgrwt>
</event>
<event>
 5    1  0.3246948E-002  0.1249877E+03  0.7818608E-02  0.1235089E+00
          4   -1    0    0  501    0  0.00000000000E+00  0.00000000000E+00  0.12106336846E+03  0.12107002967E+03  0.12700000000E+01 0.  1.
         -4   -1    0    0    0  501 -0.00000000000E+00 -0.00000000000E+00 -0.32239753426E+02  0.32264757878E+02  0.12700000000E+01 0.  1.
         25    2    1    2    0    0  0.00000000000E+00  0.00000000000E+00  0.88823615039E+02  0.15333478755E+03  0.12498768933E+03 0.  0.
    9000005    1    3    3    0    0  0.42827707846E+02 -0.41989218007E+02  0.65913142405E+02  0.89122664513E+02  0.10000000000E+01 0.  0.
    9000005    1    3    3    0    0 -0.42827707846E+02  0.41989218007E+02  0.22910472633E+02  0.64212123034E+02  0.10000000000E+01 0.  0.
<mgrwt>
<rscale>  0 0.12498769E+03</rscale>
<asrwt>0</asrwt>
<pdfrwt beam="1">  1        4 0.18627569E-01 0.12498769E+03</pdfrwt>
<pdfrwt beam="2">  1       -4 0.49623979E-02 0.12498769E+03</pdfrwt>
<totfact> 0.98670388E+03</totfact>
</mgrwt>
</event>
<event>
 5    1  0.3246948E-002  0.1250033E+03  0.7818608E-02  0.1235064E+00
         -4   -1    0    0    0  501 -0.00000000000E+00  0.00000000000E+00  0.58828421715E+01  0.60183662247E+01  0.12700000000E+01 0.  1.
          4   -1    0    0  501    0  0.00000000000E+00 -0.00000000000E+00 -0.65634491670E+03  0.65634614540E+03  0.12700000000E+01 0.  1.
         25    2    1    2    0    0  0.00000000000E+00  0.00000000000E+00 -0.65046207453E+03  0.66236451163E+03  0.12500334338E+03 0.  0.
    9000005    1    3    3    0    0 -0.32480466326E+02 -0.35047156614E+02 -0.53864571747E+03  0.54076195579E+03  0.10000000000E+01 0.  0.
    9000005    1    3    3    0    0  0.32480466326E+02  0.35047156614E+02 -0.11181635707E+03  0.12160255584E+03  0.10000000000E+01 0.  0.
<mgrwt>
<rscale>  0 0.12500334E+03</rscale>
<asrwt>0</asrwt>
<pdfrwt beam="2">  1        4 0.10098660E+00 0.12500334E+03</pdfrwt>
<pdfrwt beam="1">  1       -4 0.91557260E-03 0.12500334E+03</pdfrwt>
<totfact> 0.45145873E+03</totfact>
</mgrwt>
</event>
<event>
 5    1  0.3246948E-002  0.1249945E+03  0.7818608E-02  0.1235078E+00
          4   -1    0    0  501    0  0.00000000000E+00  0.00000000000E+00  0.77607891843E+02  0.77618282487E+02  0.12700000000E+01 0. -1.
         -4   -1    0    0    0  501 -0.00000000000E+00 -0.00000000000E+00 -0.50306913942E+02  0.50322941989E+02  0.12700000000E+01 0. -1.
         25    2    1    2    0    0  0.00000000000E+00  0.00000000000E+00  0.27300977900E+02  0.12794122448E+03  0.12499445398E+03 0.  0.
    9000005    1    3    3    0    0 -0.40805800455E+02 -0.46531035943E+02  0.22494363859E+02  0.65857779056E+02  0.10000000000E+01 0.  0.
    9000005    1    3    3    0    0  0.40805800455E+02  0.46531035943E+02  0.48066140412E+01  0.62083445420E+02  0.10000000000E+01 0.  0.
<mgrwt>
<rscale>  0 0.12499445E+03</rscale>
<asrwt>0</asrwt>
<pdfrwt beam="1">  1        4 0.11941708E-01 0.12499445E+03</pdfrwt>
<pdfrwt beam="2">  1       -4 0.77415574E-02 0.12499445E+03</pdfrwt>
<totfact> 0.10390058E+04</totfact>
</mgrwt>
</event>
<event>
 5    1  0.3246948E-002  0.1249923E+03  0.7818608E-02  0.1235081E+00
         -4   -1    0    0    0  501 -0.00000000000E+00  0.00000000000E+00  0.40481269346E+02  0.40501186006E+02  0.12700000000E+01 0. -1.
          4   -1    0    0  501    0  0.00000000000E+00 -0.00000000000E+00 -0.96435578654E+02  0.96443940869E+02  0.12700000000E+01 0. -1.
         25    2    1    2    0    0  0.00000000000E+00  0.00000000000E+00 -0.55954309308E+02  0.13694512688E+03  0.12499233194E+03 0.  0.
    9000005    1    3    3    0    0 -0.37407862083E+02 -0.28384153946E+02  0.17193597656E+02  0.50016278763E+02  0.10000000000E+01 0.  0.
    9000005    1    3    3    0    0  0.37407862083E+02  0.28384153946E+02 -0.73147906964E+02  0.86928848112E+02  0.10000000000E+01 0.  0.
<mgrwt>
<rscale>  0 0.12499233E+03</rscale>
<asrwt>0</asrwt>
<pdfrwt beam="2">  1        4 0.14838418E-01 0.12499233E+03</pdfrwt>
<pdfrwt beam="1">  1       -4 0.62300629E-02 0.12499233E+03</pdfrwt>
<totfact> 0.10198997E+04</totfact>
</mgrwt>
</event>
<event>
 5    1  0.3246948E-002  0.1250014E+03  0.7818608E-02  0.1235067E+00
         -4   -1    0    0    0  501 -0.00000000000E+00  0.00000000000E+00  0.45914258549E+02  0.45931819451E+02  0.12700000000E+01 0.  1.
          4   -1    0    0  501    0  0.00000000000E+00 -0.00000000000E+00 -0.85040452509E+02  0.85049935114E+02  0.12700000000E+01 0.  1.
         25    2    1    2    0    0  0.00000000000E+00  0.00000000000E+00 -0.39126193960E+02  0.13098175457E+03  0.12500144389E+03 0.  0.
    9000005    1    3    3    0    0 -0.46305132499E+02 -0.41885600345E+02 -0.16836405321E+02  0.64676374018E+02  0.10000000000E+01 0.  0.
    9000005    1    3    3    0    0  0.46305132499E+02  0.41885600345E+02 -0.22289788639E+02  0.66305380547E+02  0.10000000000E+01 0.  0.
<mgrwt>
<rscale>  0 0.12500144E+03</rscale>
<asrwt>0</asrwt>
<pdfrwt beam="2">  1        4 0.13085227E-01 0.12500144E+03</pdfrwt>
<pdfrwt beam="1">  1       -4 0.70658124E-02 0.12500144E+03</pdfrwt>
<totfact> 0.10323144E+04</totfact>
</mgrwt>
</event>
<event>
 5    1  0.3246948E-002  0.1250003E+03  0.7818608E-02  0.1235069E+00
          4   -1    0    0  501    0  0.00000000000E+00  0.00000000000E+00  0.29268054872E+02  0.29295595847E+02  0.12700000000E+01 0. -1.
         -4   -1    0    0    0  501 -0.00000000000E+00 -0.00000000000E+00 -0.13337202547E+03  0.13337807196E+03  0.12700000000E+01 0. -1.
         25    2    1    2    0    0  0.00000000000E+00  0.00000000000E+00 -0.10410397060E+03  0.16267366780E+03  0.12500034201E+03 0.  0.
    9000005    1    3    3    0    0  0.12610416415E+02 -0.59372242171E+02 -0.71406599304E+02  0.93722932982E+02  0.10000000000E+01 0.  0.
    9000005    1    3    3    0    0 -0.12610416415E+02  0.59372242171E+02 -0.32697371296E+02  0.68950734820E+02  0.10000000000E+01 0.  0.
<mgrwt>
<rscale>  0 0.12500034E+03</rscale>
<asrwt>0</asrwt>
<pdfrwt beam="1">  1        4 0.45053614E-02 0.12500034E+03</pdfrwt>
<pdfrwt beam="2">  1       -4 0.20521356E-01 0.12500034E+03</pdfrwt>
<totfact> 0.96829042E+03</totfact>
</mgrwt>
</event>
<event>
 5    1  0.3246948E-002  0.1250075E+03  0.7818608E-02  0.1235058E+00
          4   -1    0    0  501    0  0.00000000000E+00  0.00000000000E+00  0.84846420276E+03  0.84846515324E+03  0.12700000000E+01 0. -1.
         -4   -1    0    0    0  501 -0.00000000000E+00 -0.00000000000E+00 -0.45159119440E+01  0.46910937622E+01  0.12700000000E+01 0. -1.
         25    2    1    2    0    0  0.00000000000E+00  0.00000000000E+00  0.84394829082E+03  0.85315624701E+03  0.12500745670E+03 0.  0.
    9000005    1    3    3    0    0  0.81663647666E+01  0.20474894575E+02  0.22863472119E+02  0.31774977242E+02  0.10000000000E+01 0.  0.
    9000005    1    3    3    0    0 -0.81663647666E+01 -0.20474894575E+02  0.82108481870E+03  0.82138126976E+03  0.10000000000E+01 0.  0.
<mgrwt>
<rscale>  0 0.12500746E+03</rscale>
<asrwt>0</asrwt>
<pdfrwt beam="1">  1        4 0.13054641E+00 0.12500746E+03</pdfrwt>
<pdfrwt beam="2">  1       -4 0.70830484E-03 0.12500746E+03</pdfrwt>
<totfact> 0.35992676E+03</totfact>
</mgrwt>
</event>
<event>
 5    1  0.3246948E-002  0.1250008E+03  0.7818608E-02  0.1235068E+00
          4   -1    0    0  501    0  0.00000000000E+00  0.00000000000E+00  0.30201938072E+02  0.30228628208E+02  0.12700000000E+01 0. -1.
         -4   -1    0    0    0  501 -0.00000000000E+00 -0.00000000000E+00 -0.12925250174E+03  0.12925874093E+03  0.12700000000E+01 0. -1.
         25    2    1    2    0    0  0.00000000000E+00  0.00000000000E+00 -0.99050563669E+02  0.15948736914E+03  0.12500082700E+03 0.  0.
    9000005    1    3    3    0    0  0.12357036225E+02  0.29664761050E+02  0.18858251590E+02  0.37273691063E+02  0.10000000000E+01 0.  0.
    9000005    1    3    3    0    0 -0.12357036225E+02 -0.29664761050E+02 -0.11790881526E+03  0.12221367807E+03  0.10000000000E+01 0.  0.
<mgrwt>
<rscale>  0 0.12500083E+03</rscale>
<asrwt>0</asrwt>
<pdfrwt beam="1">  1        4 0.46489851E-02 0.12500083E+03</pdfrwt>
<pdfrwt beam="2">  1       -4 0.19887533E-01 0.12500083E+03</pdfrwt>
<totfact> 0.97439896E+03</totfact>
</mgrwt>
</event>
<event>
 5    1  0.3246948E-002  0.1249876E+03  0.7818608E-02  0.1235089E+00
         -4   -1    0    0    0  501 -0.00000000000E+00  0.00000000000E+00  0.15385701262E+02  0.15438027832E+02  0.12700000000E+01 0.  1.
          4   -1    0    0  501    0  0.00000000000E+00 -0.00000000000E+00 -0.25335329654E+03  0.25335647962E+03  0.12700000000E+01 0.  1.
         25    2    1    2    0    0  0.00000000000E+00  0.00000000000E+00 -0.23796759528E+03  0.26879450745E+03  0.12498764273E+03 0.  0.
    9000005    1    3    3    0    0  0.43808369424E+02 -0.29836474241E+02 -0.19015070230E+03  0.19740232525E+03  0.10000000000E+01 0.  0.
    9000005    1    3    3    0    0 -0.43808369424E+02  0.29836474241E+02 -0.47816892974E+02  0.71392182208E+02  0.10000000000E+01 0.  0.
<mgrwt>
<rscale>  0 0.12498764E+03</rscale>
<asrwt>0</asrwt>
<pdfrwt beam="2">  1        4 0.38981697E-01 0.12498764E+03</pdfrwt>
<pdfrwt beam="1">  1       -4 0.23713011E-02 0.12498764E+03</pdfrwt>
<totfact> 0.79709413E+03</totfact>
</mgrwt>
</event>
<event>
 5    1  0.3246948E-002  0.1249744E+03  0.7818608E-02  0.1235109E+00
         -4   -1    0    0    0  501 -0.00000000000E+00  0.00000000000E+00  0.11254704948E+02  0.11326132768E+02  0.12700000000E+01 0.  1.
          4   -1    0    0  501    0  0.00000000000E+00 -0.00000000000E+00 -0.34576515896E+03  0.34576749131E+03  0.12700000000E+01 0.  1.
         25    2    1    2    0    0  0.00000000000E+00  0.00000000000E+00 -0.33451045401E+03  0.35709362408E+03  0.12497444746E+03 0.  0.
    9000005    1    3    3    0    0  0.50609721484E+02 -0.34129586553E+02 -0.20532113945E+03  0.21420537550E+03  0.10000000000E+01 0.  0.
    9000005    1    3    3    0    0 -0.50609721484E+02  0.34129586553E+02 -0.12918931456E+03  0.14288824858E+03  0.10000000000E+01 0.  0.
<mgrwt>
<rscale>  0 0.12497445E+03</rscale>
<asrwt>0</asrwt>
<pdfrwt beam="2">  1        4 0.53200306E-01 0.12497445E+03</pdfrwt>
<pdfrwt beam="1">  1       -4 0.17371672E-02 0.12497445E+03</pdfrwt>
<totfact> 0.68990151E+03</totfact>
</mgrwt>
</event>
<event>
 5    1  0.3246948E-002  0.1249992E+03  0.7818608E-02  0.1235071E+00
         -4   -1    0    0    0  501 -0.00000000000E+00  0.00000000000E+00  0.89275195969E+01  0.90174001881E+01  0.12700000000E+01 0.  1.
          4   -1    0    0  501    0  0.00000000000E+00 -0.00000000000E+00 -0.43526325332E+03  0.43526510610E+03  0.12700000000E+01 0.  1.
         25    2    1    2    0    0  0.00000000000E+00  0.00000000000E+00 -0.42633573372E+03  0.44428250629E+03  0.12499915018E+03 0.  0.
    9000005    1    3    3    0    0 -0.41125240730E+02 -0.30780489162E+02 -0.86679637950E+02  0.10076251075E+03  0.10000000000E+01 0.  0.
    9000005    1    3    3    0    0  0.41125240730E+02  0.30780489162E+02 -0.33965609577E+03  0.34351999553E+03  0.10000000000E+01 0.  0.
<mgrwt>
<rscale>  0 0.12499915E+03</rscale>
<asrwt>0</asrwt>
<pdfrwt beam="2">  1        4 0.66970618E-01 0.12499915E+03</pdfrwt>
<pdfrwt beam="1">  1       -4 0.13805213E-02 0.12499915E+03</pdfrwt>
<totfact> 0.60463461E+03</totfact>
</mgrwt>
</event>
<event>
 5    1  0.3246948E-002  0.1250001E+03  0.7818608E-02  0.1235069E+00
          4   -1    0    0  501    0  0.00000000000E+00  0.00000000000E+00  0.16270264850E+03  0.16270760501E+03  0.12700000000E+01 0. -1.
         -4   -1    0    0    0  501 -0.00000000000E+00 -0.00000000000E+00 -0.23986457596E+02  0.24020055121E+02  0.12700000000E+01 0. -1.
         25    2    1    2    0    0  0.00000000000E+00  0.00000000000E+00  0.13871619091E+03  0.18672766013E+03  0.12500014976E+03 0.  0.
    9000005    1    3    3    0    0  0.60626004211E+02 -0.72267726682E+01  0.49454906796E+02  0.78578154954E+02  0.10000000000E+01 0.  0.
    9000005    1    3    3    0    0 -0.60626004211E+02  0.72267726682E+01  0.89261284110E+02  0.10814950518E+03  0.10000000000E+01 0.  0.
<mgrwt>
<rscale>  0 0.12500015E+03</rscale>
<asrwt>0</asrwt>
<pdfrwt beam="1">  1        4 0.25034142E-01 0.12500015E+03</pdfrwt>
<pdfrwt beam="2">  1       -4 0.36931899E-02 0.12500015E+03</pdfrwt>
<totfact> 0.92419518E+03</totfact>
</mgrwt>
</event>
<event>
 5    1  0.3246948E-002  0.1250041E+03  0.7818608E-02  0.1235063E+00
         -4   -1    0    0    0  501 -0.00000000000E+00  0.00000000000E+00  0.25136101521E+02  0.25168164408E+02  0.12700000000E+01 0.  1.
          4   -1    0    0  501    0  0.00000000000E+00 -0.00000000000E+00 -0.15528032893E+03  0.15528552235E+03  0.12700000000E+01 0.  1.
         25    2    1    2    0    0  0.00000000000E+00  0.00000000000E+00 -0.13014422741E+03  0.18045368676E+03  0.12500405249E+03 0.  0.
    9000005    1    3    3    0    0 -0.60781071786E+02 -0.74870131351E+01 -0.83050904945E+02  0.10319325010E+03  0.10000000000E+01 0.  0.
    9000005    1    3    3    0    0  0.60781071786E+02  0.74870131351E+01 -0.47093322465E+02  0.77260436666E+02  0.10000000000E+01 0.  0.
<mgrwt>
<rscale>  0 0.12500405E+03</rscale>
<asrwt>0</asrwt>
<pdfrwt beam="2">  1        4 0.23892147E-01 0.12500405E+03</pdfrwt>
<pdfrwt beam="1">  1       -4 0.38699585E-02 0.12500405E+03</pdfrwt>
<totfact> 0.93526904E+03</totfact>
</mgrwt>
</event>
<event>
 5    1  0.3246948E-002  0.1250031E+03  0.7818608E-02  0.1235064E+00
         -4   -1    0    0    0  501 -0.00000000000E+00  0.00000000000E+00  0.23225792721E+03  0.23226139940E+03  0.12700000000E+01 0.  1.
          4   -1    0    0  501    0  0.00000000000E+00 -0.00000000000E+00 -0.16791852458E+02  0.16839810241E+02  0.12700000000E+01 0.  1.
         25    2    1    2    0    0  0.00000000000E+00  0.00000000000E+00  0.21546607475E+03  0.24910120964E+03  0.12500313307E+03 0.  0.
    9000005    1    3    3    0    0 -0.41964274537E+02  0.94371081199E+00  0.15471169489E+02  0.44746486039E+02  0.10000000000E+01 0.  0.
    9000005    1    3    3    0    0  0.41964274537E+02 -0.94371081199E+00  0.19999490527E+03  0.20435472361E+03  0.10000000000E+01 0.  0.
<mgrwt>
<rscale>  0 0.12500313E+03</rscale>
<asrwt>0</asrwt>
<pdfrwt beam="2">  1        4 0.25873180E-02 0.12500313E+03</pdfrwt>
<pdfrwt beam="1">  1       -4 0.35735946E-01 0.12500313E+03</pdfrwt>
<totfact> 0.82454547E+03</totfact>
</mgrwt>
</event>
<event>
 5    1  0.3246948E-002  0.1249947E+03  0.7818608E-02  0.1235077E+00
         -4   -1    0    0    0  501 -0.00000000000E+00  0.00000000000E+00  0.17934153663E+02  0.17979064704E+02  0.12700000000E+01 0. -1.
          4   -1    0    0  501    0  0.00000000000E+00 -0.00000000000E+00 -0.21747324282E+03  0.21747695106E+03  0.12700000000E+01 0. -1.
         25    2    1    2    0    0  0.00000000000E+00  0.00000000000E+00 -0.19953908915E+03  0.23545601576E+03  0.12499474892E+03 0.  0.
    9000005    1    3    3    0    0 -0.33747533271E+01  0.60555944152E+02 -0.12812013937E+03  0.14175394684E+03  0.10000000000E+01 0.  0.
    9000005    1    3    3    0    0  0.33747533271E+01 -0.60555944152E+02 -0.71418949781E+02  0.93702068921E+02  0.10000000000E+01 0.  0.
<mgrwt>
<rscale>  0 0.12499475E+03</rscale>
<asrwt>0</asrwt>
<pdfrwt beam="2">  1        4 0.33461160E-01 0.12499475E+03</pdfrwt>
<pdfrwt beam="1">  1       -4 0.27628407E-02 0.12499475E+03</pdfrwt>
<totfact> 0.84488696E+03</totfact>
</mgrwt>
</event>
<event>
 5    1  0.3246948E-002  0.1250168E+03  0.7818608E-02  0.1235043E+00
         -4   -1    0    0    0  501 -0.00000000000E+00  0.00000000000E+00  0.95519204292E+02  0.95527646724E+02  0.12700000000E+01 0. -1.
          4   -1    0    0  501    0  0.00000000000E+00 -0.00000000000E+00 -0.40885818439E+02  0.40905538127E+02  0.12700000000E+01 0. -1.
         25    2    1    2    0    0  0.00000000000E+00  0.00000000000E+00  0.54633385853E+02  0.13643318485E+03  0.12501682718E+03 0.  0.
    9000005    1    3    3    0    0  0.48468481557E+02 -0.35742009090E+02  0.90679389939E+01  0.60909050525E+02  0.10000000000E+01 0.  0.
    9000005    1    3    3    0    0 -0.48468481557E+02  0.35742009090E+02  0.45565446859E+02  0.75524134326E+02  0.10000000000E+01 0.  0.
<mgrwt>
<rscale>  0 0.12501683E+03</rscale>
<asrwt>0</asrwt>
<pdfrwt beam="2">  1        4 0.62922923E-02 0.12501683E+03</pdfrwt>
<pdfrwt beam="1">  1       -4 0.14697428E-01 0.12501683E+03</pdfrwt>
<totfact> 0.10204078E+04</totfact>
</mgrwt>
</event>
<event>
 5    1  0.3246948E-002  0.1249931E+03  0.7818608E-02  0.1235080E+00
          4   -1    0    0  501    0  0.00000000000E+00  0.00000000000E+00  0.11023103374E+02  0.11096022170E+02  0.12700000000E+01 0. -1.
         -4   -1    0    0    0  501 -0.00000000000E+00 -0.00000000000E+00 -0.35308788756E+03  0.35309017155E+03  0.12700000000E+01 0. -1.
         25    2    1    2    0    0  0.00000000000E+00  0.00000000000E+00 -0.34206478419E+03  0.36418619372E+03  0.12499306826E+03 0.  0.
    9000005    1    3    3    0    0  0.38319170721E+02  0.43677853028E+02 -0.23802755883E+03  0.24501884101E+03  0.10000000000E+01 0.  0.
    9000005    1    3    3    0    0 -0.38319170721E+02 -0.43677853028E+02 -0.10403722536E+03  0.11916735271E+03  0.10000000000E+01 0.  0.
<mgrwt>
<rscale>  0 0.12499307E+03</rscale>
<asrwt>0</asrwt>
<pdfrwt beam="1">  1        4 0.17016472E-02 0.12499307E+03</pdfrwt>
<pdfrwt beam="2">  1       -4 0.54326990E-01 0.12499307E+03</pdfrwt>
<totfact> 0.68202046E+03</totfact>
</mgrwt>
</event>
<event>
 5    1  0.3246948E-002  0.1249950E+03  0.7818608E-02  0.1235077E+00
          4   -1    0    0  501    0  0.00000000000E+00  0.00000000000E+00  0.28033027152E+02  0.28061780259E+02  0.12700000000E+01 0.  1.
         -4   -1    0    0    0  501 -0.00000000000E+00 -0.00000000000E+00 -0.13923027208E+03  0.13923606417E+03  0.12700000000E+01 0.  1.
         25    2    1    2    0    0  0.00000000000E+00  0.00000000000E+00 -0.11119724493E+03  0.16729784443E+03  0.12499496577E+03 0.  0.
    9000005    1    3    3    0    0 -0.61116845308E+02 -0.13008813192E+02 -0.54713465253E+02  0.83060588013E+02  0.10000000000E+01 0.  0.
    9000005    1    3    3    0    0  0.61116845308E+02  0.13008813192E+02 -0.56483779679E+02  0.84237256413E+02  0.10000000000E+01 0.  0.
<mgrwt>
<rscale>  0 0.12499497E+03</rscale>
<asrwt>0</asrwt>
<pdfrwt beam="1">  1        4 0.43154308E-02 0.12499497E+03</pdfrwt>
<pdfrwt beam="2">  1       -4 0.21422699E-01 0.12499497E+03</pdfrwt>
<totfact> 0.95964828E+03</totfact>
</mgrwt>
</event>
<event>
 5    1  0.3246948E-002  0.1249973E+03  0.7818608E-02  0.1235074E+00
         -4   -1    0    0    0  501 -0.00000000000E+00  0.00000000000E+00  0.74600511485E+02  0.74611320949E+02  0.12700000000E+01 0.  1.
          4   -1    0    0  501    0  0.00000000000E+00 -0.00000000000E+00 -0.52337660925E+02  0.52353067256E+02  0.12700000000E+01 0.  1.
         25    2    1    2    0    0  0.00000000000E+00  0.00000000000E+00  0.22262850560E+02  0.12696438821E+03  0.12499728540E+03 0.  0.
    9000005    1    3    3    0    0 -0.41762521268E+02 -0.18700463504E+02  0.54360139580E+02  0.71062228315E+02  0.10000000000E+01 0.  0.
    9000005    1    3    3    0    0  0.41762521268E+02  0.18700463504E+02 -0.32097289020E+02  0.55902159890E+02  0.10000000000E+01 0.  0.
<mgrwt>
<rscale>  0 0.12499729E+03</rscale>
<asrwt>0</asrwt>
<pdfrwt beam="2">  1        4 0.80539644E-02 0.12499729E+03</pdfrwt>
<pdfrwt beam="1">  1       -4 0.11479018E-01 0.12499729E+03</pdfrwt>
<totfact> 0.10410557E+04</totfact>
</mgrwt>
</event>
<event>
 5    1  0.3246948E-002  0.1250014E+03  0.7818608E-02  0.1235067E+00
          4   -1    0    0  501    0  0.00000000000E+00  0.00000000000E+00  0.47217187905E+03  0.47217358700E+03  0.12700000000E+01 0. -1.
         -4   -1    0    0    0  501 -0.00000000000E+00 -0.00000000000E+00 -0.82226558439E+01  0.83201543933E+01  0.12700000000E+01 0. -1.
         25    2    1    2    0    0  0.00000000000E+00  0.00000000000E+00  0.46394922320E+03  0.48049374140E+03  0.12500141523E+03 0.  0.
    9000005    1    3    3    0    0 -0.23489516068E+02  0.53548122476E+02  0.14721846550E+03  0.15840907603E+03  0.10000000000E+01 0.  0.
    9000005    1    3    3    0    0  0.23489516068E+02 -0.53548122476E+02  0.31673075770E+03  0.32208466536E+03  0.10000000000E+01 0.  0.
<mgrwt>
<rscale>  0 0.12500142E+03</rscale>
<asrwt>0</asrwt>
<pdfrwt beam="1">  1        4 0.72649458E-01 0.12500142E+03</pdfrwt>
<pdfrwt beam="2">  1       -4 0.12726553E-02 0.12500142E+03</pdfrwt>
<totfact> 0.57408435E+03</totfact>
</mgrwt>
</event>
<event>
 5    1  0.3246948E-002  0.1249994E+03  0.7818608E-02  0.1235070E+00
         -4   -1    0    0    0  501 -0.00000000000E+00  0.00000000000E+00  0.12339055557E+03  0.12339709114E+03  0.12700000000E+01 0. -1.
          4   -1    0    0  501    0  0.00000000000E+00 -0.00000000000E+00 -0.31637210514E+02  0.31662690806E+02  0.12700000000E+01 0. -1.
         25    2    1    2    0    0  0.00000000000E+00  0.00000000000E+00  0.91753345052E+02  0.15505978195E+03  0.12499943860E+03 0.  0.
    9000005    1    3    3    0    0  0.31343267033E+02  0.89804695605E+01 -0.20255958749E+02  0.38397305722E+02  0.10000000000E+01 0.  0.
    9000005    1    3    3    0    0 -0.31343267033E+02 -0.89804695605E+01  0.11200930380E+03  0.11666247623E+03  0.10000000000E+01 0.  0.
<mgrwt>
<rscale>  0 0.12499944E+03</rscale>
<asrwt>0</asrwt>
<pdfrwt beam="2">  1        4 0.48697260E-02 0.12499944E+03</pdfrwt>
<pdfrwt beam="1">  1       -4 0.18985625E-01 0.12499944E+03</pdfrwt>
<totfact> 0.98305006E+03</totfact>
</mgrwt>
</event>
<event>
 5    1  0.3246948E-002  0.1250000E+03  0.7818608E-02  0.1235069E+00
         -4   -1    0    0    0  501 -0.00000000000E+00  0.00000000000E+00  0.17611640970E+03  0.17612098871E+03  0.12700000000E+01 0. -1.
          4   -1    0    0  501    0  0.00000000000E+00 -0.00000000000E+00 -0.22156877092E+02  0.22193244524E+02  0.12700000000E+01 0. -1.
         25    2    1    2    0    0  0.00000000000E+00  0.00000000000E+00  0.15395953260E+03  0.19831423323E+03  0.12499998969E+03 0.  0.
    9000005    1    3    3    0    0 -0.37175916150E+02  0.48605857535E+02  0.56869724939E+02  0.83544860661E+02  0.10000000000E+01 0.  0.
    9000005    1    3    3    0    0  0.37175916150E+02 -0.48605857535E+02  0.97089807664E+02  0.11476937257E+03  0.10000000000E+01 0.  0.
<mgrwt>
<rscale>  0 0.12499999E+03</rscale>
<asrwt>0</asrwt>
<pdfrwt beam="2">  1        4 0.34119000E-02 0.12499999E+03</pdfrwt>
<pdfrwt beam="1">  1       -4 0.27097982E-01 0.12499999E+03</pdfrwt>
<totfact> 0.90420472E+03</totfact>
</mgrwt>
</event>
<event>
 5    1  0.3246948E-002  0.1250015E+03  0.7818608E-02  0.1235067E+00
         -4   -1    0    0    0  501 -0.00000000000E+00  0.00000000000E+00  0.15050103627E+03  0.15050639461E+03  0.12700000000E+01 0. -1.
          4   -1    0    0  501    0  0.00000000000E+00 -0.00000000000E+00 -0.25934228817E+02  0.25965306166E+02  0.12700000000E+01 0. -1.
         25    2    1    2    0    0  0.00000000000E+00  0.00000000000E+00  0.12456680745E+03  0.17647170078E+03  0.12500148661E+03 0.  0.
    9000005    1    3    3    0    0  0.41747771287E+02 -0.42822046524E+02  0.87880187581E+02  0.10630395781E+03  0.10000000000E+01 0.  0.
    9000005    1    3    3    0    0 -0.41747771287E+02  0.42822046524E+02  0.36686619873E+02  0.70167742971E+02  0.10000000000E+01 0.  0.
<mgrwt>
<rscale>  0 0.12500149E+03</rscale>
<asrwt>0</asrwt>
<pdfrwt beam="2">  1        4 0.39926840E-02 0.12500149E+03</pdfrwt>
<pdfrwt beam="1">  1       -4 0.23156809E-01 0.12500149E+03</pdfrwt>
<totfact> 0.94252848E+03</totfact>
</mgrwt>
</event>
<event>
 5    1  0.3246948E-002  0.1249994E+03  0.7818608E-02  0.1235070E+00
          4   -1    0    0  501    0  0.00000000000E+00  0.00000000000E+00  0.79857028229E+03  0.79857129216E+03  0.12700000000E+01 0.  1.
         -4   -1    0    0    0  501 -0.00000000000E+00 -0.00000000000E+00 -0.48080460850E+01  0.49729475319E+01  0.12700000000E+01 0.  1.
         25    2    1    2    0    0  0.00000000000E+00  0.00000000000E+00  0.79376223621E+03  0.80354423969E+03  0.12499943004E+03 0.  0.
    9000005    1    3    3    0    0 -0.38954804930E+02  0.47102917241E+02  0.48046313833E+03  0.48433664835E+03  0.10000000000E+01 0.  0.
    9000005    1    3    3    0    0  0.38954804930E+02 -0.47102917241E+02  0.31329909788E+03  0.31920759135E+03  0.10000000000E+01 0.  0.
<mgrwt>
<rscale>  0 0.12499943E+03</rscale>
<asrwt>0</asrwt>
<pdfrwt beam="1">  1        4 0.12286967E+00 0.12499943E+03</pdfrwt>
<pdfrwt beam="2">  1       -4 0.75246216E-03 0.12499943E+03</pdfrwt>
<totfact> 0.38107479E+03</totfact>
</mgrwt>
</event>
<event>
 5    1  0.3246948E-002  0.1250032E+03  0.7818608E-02  0.1235064E+00
          4   -1    0    0  501    0  0.00000000000E+00  0.00000000000E+00  0.20591649990E+03  0.20592041626E+03  0.12700000000E+01 0.  1.
         -4   -1    0    0    0  501 -0.00000000000E+00 -0.00000000000E+00 -0.18945671788E+02  0.18988190528E+02  0.12700000000E+01 0.  1.
         25    2    1    2    0    0  0.00000000000E+00  0.00000000000E+00  0.18697082811E+03  0.22490860679E+03  0.12500316332E+03 0.  0.
    9000005    1    3    3    0    0  0.47614561919E+02  0.36679959976E+01  0.16601101058E+03  0.17274621945E+03  0.10000000000E+01 0.  0.
    9000005    1    3    3    0    0 -0.47614561919E+02 -0.36679959976E+01  0.20959817535E+02  0.52162387335E+02  0.10000000000E+01 0.  0.
<mgrwt>
<rscale>  0 0.12500316E+03</rscale>
<asrwt>0</asrwt>
<pdfrwt beam="1">  1        4 0.31683033E-01 0.12500316E+03</pdfrwt>
<pdfrwt beam="2">  1       -4 0.29182907E-02 0.12500316E+03</pdfrwt>
<totfact> 0.86091456E+03</totfact>
</mgrwt>
</event>
<event>
 5    1  0.3246948E-002  0.1249992E+03  0.7818608E-02  0.1235071E+00
         -4   -1    0    0    0  501 -0.00000000000E+00  0.00000000000E+00  0.11843329563E+03  0.11844010475E+03  0.12700000000E+01 0.  1.
          4   -1    0    0  501    0  0.00000000000E+00 -0.00000000000E+00 -0.32962275983E+02  0.32986732757E+02  0.12700000000E+01 0.  1.
         25    2    1    2    0    0  0.00000000000E+00  0.00000000000E+00  0.85471019645E+02  0.15142683751E+03  0.12499916767E+03 0.  0.
    9000005    1    3    3    0    0 -0.41003181312E+02  0.24041930434E+02 -0.64118787124E+01  0.47972778587E+02  0.10000000000E+01 0.  0.
    9000005    1    3    3    0    0  0.41003181312E+02 -0.24041930434E+02  0.91882898358E+02  0.10345405892E+03  0.10000000000E+01 0.  0.
<mgrwt>
<rscale>  0 0.12499917E+03</rscale>
<asrwt>0</asrwt>
<pdfrwt beam="2">  1        4 0.50735244E-02 0.12499917E+03</pdfrwt>
<pdfrwt beam="1">  1       -4 0.18222912E-01 0.12499917E+03</pdfrwt>
<totfact> 0.99021891E+03</totfact>
</mgrwt>
</event>
<event>
 5    1  0.3246948E-002  0.1250110E+03  0.7818608E-02  0.1235052E+00
         -4   -1    0    0    0  501 -0.00000000000E+00  0.00000000000E+00  0.48085530674E+03  0.48085698386E+03  0.12700000000E+01 0.  1.
          4   -1    0    0  501    0  0.00000000000E+00 -0.00000000000E+00 -0.80736405175E+01  0.81729169338E+01  0.12700000000E+01 0.  1.
         25    2    1    2    0    0  0.00000000000E+00  0.00000000000E+00  0.47278166622E+03  0.48902990079E+03  0.12501095931E+03 0.  0.
    9000005    1    3    3    0    0  0.30925830983E+02 -0.38160755621E+02  0.85223262671E+02  0.98369989284E+02  0.10000000000E+01 0.  0.
    9000005    1    3    3    0    0 -0.30925830983E+02  0.38160755621E+02  0.38755840355E+03  0.39065991150E+03  0.10000000000E+01 0.  0.
<mgrwt>
<rscale>  0 0.12501096E+03</rscale>
<asrwt>0</asrwt>
<pdfrwt beam="2">  1        4 0.12498646E-02 0.12501096E+03</pdfrwt>
<pdfrwt beam="1">  1       -4 0.73985482E-01 0.12501096E+03</pdfrwt>
<totfact> 0.56712009E+03</totfact>
</mgrwt>
</event>
<event>
 5    1  0.3246948E-002  0.1249858E+03  0.7818608E-02  0.1235092E+00
          4   -1    0    0  501    0  0.00000000000E+00  0.00000000000E+00  0.58374624792E+02  0.58388438235E+02  0.12700000000E+01 0. -1.
         -4   -1    0    0    0  501 -0.00000000000E+00 -0.00000000000E+00 -0.66873924772E+02  0.66885982944E+02  0.12700000000E+01 0. -1.
         25    2    1    2    0    0  0.00000000000E+00  0.00000000000E+00 -0.84992999802E+01  0.12527442118E+03  0.12498576920E+03 0.  0.
    9000005    1    3    3    0    0 -0.58543183651E+01  0.46211541620E+02  0.37494837200E+02  0.59805036904E+02  0.10000000000E+01 0.  0.
    9000005    1    3    3    0    0  0.58543183651E+01 -0.46211541620E+02 -0.45994137180E+02  0.65469384275E+02  0.10000000000E+01 0.  0.
<mgrwt>
<rscale>  0 0.12498577E+03</rscale>
<asrwt>0</asrwt>
<pdfrwt beam="1">  1        4 0.89827017E-02 0.12498577E+03</pdfrwt>
<pdfrwt beam="2">  1       -4 0.10290286E-01 0.12498577E+03</pdfrwt>
<totfact> 0.10450266E+04</totfact>
</mgrwt>
</event>
<event>
 5    1  0.3246948E-002  0.1250020E+03  0.7818608E-02  0.1235066E+00
          4   -1    0    0  501    0  0.00000000000E+00  0.00000000000E+00  0.20430114720E+02  0.20469550251E+02  0.12700000000E+01 0.  1.
         -4   -1    0    0    0  501 -0.00000000000E+00 -0.00000000000E+00 -0.19098090154E+03  0.19098512416E+03  0.12700000000E+01 0.  1.
         25    2    1    2    0    0  0.00000000000E+00  0.00000000000E+00 -0.17055078682E+03  0.21145467441E+03  0.12500203378E+03 0.  0.
    9000005    1    3    3    0    0  0.30449006141E+02  0.43149679475E+02 -0.28755867237E+02  0.60140973673E+02  0.10000000000E+01 0.  0.
    9000005    1    3    3    0    0 -0.30449006141E+02 -0.43149679475E+02 -0.14179491958E+03  0.15131370074E+03  0.10000000000E+01 0.  0.
<mgrwt>
<rscale>  0 0.12500203E+03</rscale>
<asrwt>0</asrwt>
<pdfrwt beam="1">  1        4 0.31464530E-02 0.12500203E+03</pdfrwt>
<pdfrwt beam="2">  1       -4 0.29385034E-01 0.12500203E+03</pdfrwt>
<totfact> 0.88234852E+03</totfact>
</mgrwt>
</event>
<event>
 5    1  0.3246948E-002  0.1249992E+03  0.7818608E-02  0.1235070E+00
          4   -1    0    0  501    0  0.00000000000E+00  0.00000000000E+00  0.93865051760E+02  0.93873642956E+02  0.12700000000E+01 0.  1.
         -4   -1    0    0    0  501 -0.00000000000E+00 -0.00000000000E+00 -0.41594907734E+02  0.41614291409E+02  0.12700000000E+01 0.  1.
         25    2    1    2    0    0  0.00000000000E+00  0.00000000000E+00  0.52270144025E+02  0.13548793436E+03  0.12499924961E+03 0.  0.
    9000005    1    3    3    0    0 -0.35718341660E+02 -0.18989735763E+02  0.77763709347E+02  0.87661875902E+02  0.10000000000E+01 0.  0.
    9000005    1    3    3    0    0  0.35718341660E+02  0.18989735763E+02 -0.25493565321E+02  0.47826058463E+02  0.10000000000E+01 0.  0.
<mgrwt>
<rscale>  0 0.12499925E+03</rscale>
<asrwt>0</asrwt>
<pdfrwt beam="1">  1        4 0.14442929E-01 0.12499925E+03</pdfrwt>
<pdfrwt beam="2">  1       -4 0.64013685E-02 0.12499925E+03</pdfrwt>
<totfact> 0.10227970E+04</totfact>
</mgrwt>
</event>
<event>
 5    1  0.3246948E-002  0.1249958E+03  0.7818608E-02  0.1235076E+00
         -4   -1    0    0    0  501 -0.00000000000E+00  0.00000000000E+00  0.14568384243E+03  0.14568937795E+03  0.12700000000E+01 0.  1.
          4   -1    0    0  501    0  0.00000000000E+00 -0.00000000000E+00 -0.26790296991E+02  0.26820382415E+02  0.12700000000E+01 0.  1.
         25    2    1    2    0    0  0.00000000000E+00  0.00000000000E+00  0.11889354544E+03  0.17250976036E+03  0.12499576902E+03 0.  0.
    9000005    1    3    3    0    0  0.98254900900E+01 -0.56766939552E+02  0.26038632325E+02  0.63230024949E+02  0.10000000000E+01 0.  0.
    9000005    1    3    3    0    0 -0.98254900900E+01  0.56766939552E+02  0.92854913118E+02  0.10927973541E+03  0.10000000000E+01 0.  0.
<mgrwt>
<rscale>  0 0.12499577E+03</rscale>
<asrwt>0</asrwt>
<pdfrwt beam="2">  1        4 0.41243242E-02 0.12499577E+03</pdfrwt>
<pdfrwt beam="1">  1       -4 0.22415639E-01 0.12499577E+03</pdfrwt>
<totfact> 0.94991929E+03</totfact>
</mgrwt>
</event>
<event>
 5    1  0.3246948E-002  0.1249961E+03  0.7818608E-02  0.1235075E+00
          4   -1    0    0  501    0  0.00000000000E+00  0.00000000000E+00  0.35478808277E+02  0.35501531471E+02  0.12700000000E+01 0.  1.
         -4   -1    0    0    0  501 -0.00000000000E+00 -0.00000000000E+00 -0.11003250511E+03  0.11003983406E+03  0.12700000000E+01 0.  1.
         25    2    1    2    0    0  0.00000000000E+00  0.00000000000E+00 -0.74553696832E+02  0.14554136553E+03  0.12499614142E+03 0.  0.
    9000005    1    3    3    0    0  0.52279513483E+02  0.19099426614E+02 -0.41983104554E+01  0.55826171619E+02  0.10000000000E+01 0.  0.
    9000005    1    3    3    0    0 -0.52279513483E+02 -0.19099426614E+02 -0.70355386377E+02  0.89715193915E+02  0.10000000000E+01 0.  0.
<mgrwt>
<rscale>  0 0.12499614E+03</rscale>
<asrwt>0</asrwt>
<pdfrwt beam="1">  1        4 0.54605899E-02 0.12499614E+03</pdfrwt>
<pdfrwt beam="2">  1       -4 0.16930389E-01 0.12499614E+03</pdfrwt>
<totfact> 0.10020871E+04</totfact>
</mgrwt>
</event>
<event>
 5    1  0.3246948E-002  0.1249992E+03  0.7818608E-02  0.1235070E+00
         -4   -1    0    0    0  501 -0.00000000000E+00  0.00000000000E+00  0.24108463092E+02  0.24141890827E+02  0.12700000000E+01 0. -1.
          4   -1    0    0  501    0  0.00000000000E+00 -0.00000000000E+00 -0.16187803520E+03  0.16188301696E+03  0.12700000000E+01 0. -1.
         25    2    1    2    0    0  0.00000000000E+00  0.00000000000E+00 -0.13776957211E+03  0.18602490779E+03  0.12499924527E+03 0.  0.
    9000005    1    3    3    0    0 -0.38585596945E+02  0.36503903491E+02 -0.11787870744E+03  0.12929722708E+03  0.10000000000E+01 0.  0.
    9000005    1    3    3    0    0  0.38585596945E+02 -0.36503903491E+02 -0.19890864668E+02  0.56727680712E+02  0.10000000000E+01 0.  0.
<mgrwt>
<rscale>  0 0.12499925E+03</rscale>
<asrwt>0</asrwt>
<pdfrwt beam="2">  1        4 0.24907267E-01 0.12499925E+03</pdfrwt>
<pdfrwt beam="1">  1       -4 0.37119490E-02 0.12499925E+03</pdfrwt>
<totfact> 0.92545170E+03</totfact>
</mgrwt>
</event>
<event>
 5    1  0.3246948E-002  0.1249940E+03  0.7818608E-02  0.1235079E+00
          4   -1    0    0  501    0  0.00000000000E+00  0.00000000000E+00  0.12178956514E+02  0.12244994151E+02  0.12700000000E+01 0. -1.
         -4   -1    0    0    0  501 -0.00000000000E+00 -0.00000000000E+00 -0.31977231412E+03  0.31977483606E+03  0.12700000000E+01 0. -1.
         25    2    1    2    0    0  0.00000000000E+00  0.00000000000E+00 -0.30759335761E+03  0.33201983021E+03  0.12499397590E+03 0.  0.
    9000005    1    3    3    0    0 -0.25175970069E+02  0.42069004825E+02 -0.50876526803E+02  0.70661528538E+02  0.10000000000E+01 0.  0.
    9000005    1    3    3    0    0  0.25175970069E+02 -0.42069004825E+02 -0.25671683081E+03  0.26135830168E+03  0.10000000000E+01 0.  0.
<mgrwt>
<rscale>  0 0.12499398E+03</rscale>
<asrwt>0</asrwt>
<pdfrwt beam="1">  1        4 0.18789597E-02 0.12499398E+03</pdfrwt>
<pdfrwt beam="2">  1       -4 0.49201008E-01 0.12499398E+03</pdfrwt>
<totfact> 0.71758547E+03</totfact>
</mgrwt>
</event>
<event>
 5    1  0.3246948E-002  0.1249977E+03  0.7818608E-02  0.1235073E+00
         -4   -1    0    0    0  501 -0.00000000000E+00  0.00000000000E+00  0.19784191847E+03  0.19784599466E+03  0.12700000000E+01 0. -1.
          4   -1    0    0  501    0  0.00000000000E+00 -0.00000000000E+00 -0.19718876900E+02  0.19759731937E+02  0.12700000000E+01 0. -1.
         25    2    1    2    0    0  0.00000000000E+00  0.00000000000E+00  0.17812304157E+03  0.21760572660E+03  0.12499773722E+03 0.  0.
    9000005    1    3    3    0    0 -0.61324086570E+02 -0.60652624376E+01  0.10712622285E+03  0.12358988076E+03  0.10000000000E+01 0.  0.
    9000005    1    3    3    0    0  0.61324086570E+02  0.60652624376E+01  0.70996818717E+02  0.94015845845E+02  0.10000000000E+01 0.  0.
<mgrwt>
<rscale>  0 0.12499774E+03</rscale>
<asrwt>0</asrwt>
<pdfrwt beam="2">  1        4 0.30371299E-02 0.12499774E+03</pdfrwt>
<pdfrwt beam="1">  1       -4 0.30440672E-01 0.12499774E+03</pdfrwt>
<totfact> 0.87253048E+03</totfact>
</mgrwt>
</event>
<event>
 5    1  0.3246948E-002  0.1250020E+03  0.7818608E-02  0.1235066E+00
          4   -1    0    0  501    0  0.00000000000E+00  0.00000000000E+00  0.48238473709E+03  0.48238640889E+03  0.12700000000E+01 0. -1.
         -4   -1    0    0    0  501 -0.00000000000E+00 -0.00000000000E+00 -0.80465537384E+01  0.81461602652E+01  0.12700000000E+01 0. -1.
         25    2    1    2    0    0  0.00000000000E+00  0.00000000000E+00  0.47433818335E+03  0.49053256915E+03  0.12500195683E+03 0.  0.
    9000005    1    3    3    0    0 -0.31088159267E+02  0.23886855562E+02  0.42814163542E+03  0.42993408274E+03  0.10000000000E+01 0.  0.
    9000005    1    3    3    0    0  0.31088159267E+02 -0.23886855562E+02  0.46196547928E+02  0.60598486415E+02  0.10000000000E+01 0.  0.
<mgrwt>
<rscale>  0 0.12500196E+03</rscale>
<asrwt>0</asrwt>
<pdfrwt beam="1">  1        4 0.74220833E-01 0.12500196E+03</pdfrwt>
<pdfrwt beam="2">  1       -4 0.12457219E-02 0.12500196E+03</pdfrwt>
<totfact> 0.56604037E+03</totfact>
</mgrwt>
</event>
<event>
 5    1  0.3246948E-002  0.1250008E+03  0.7818608E-02  0.1235068E+00
         -4   -1    0    0    0  501 -0.00000000000E+00  0.00000000000E+00  0.37195264367E+01  0.39303660024E+01  0.12700000000E+01 0. -1.
          4   -1    0    0  501    0  0.00000000000E+00 -0.00000000000E+00 -0.10210580270E+04  0.10210588168E+04  0.12700000000E+01 0. -1.
         25    2    1    2    0    0  0.00000000000E+00  0.00000000000E+00 -0.10173385006E+04  0.10249891828E+04  0.12500080068E+03 0.  0.
    9000005    1    3    3    0    0 -0.35902870698E+02 -0.51136087347E+02 -0.49902094037E+03  0.50291829802E+03  0.10000000000E+01 0.  0.
    9000005    1    3    3    0    0  0.35902870698E+02  0.51136087347E+02 -0.51831756020E+03  0.52207088481E+03  0.10000000000E+01 0.  0.
<mgrwt>
<rscale>  0 0.12500080E+03</rscale>
<asrwt>0</asrwt>
<pdfrwt beam="2">  1        4 0.15710191E+00 0.12500080E+03</pdfrwt>
<pdfrwt beam="1">  1       -4 0.58851483E-03 0.12500080E+03</pdfrwt>
<totfact> 0.29788250E+03</totfact>
</mgrwt>
</event>
<event>
 5    1  0.3246948E-002  0.1250067E+03  0.7818608E-02  0.1235059E+00
         -4   -1    0    0    0  501 -0.00000000000E+00  0.00000000000E+00  0.31954166237E+03  0.31954418613E+03  0.12700000000E+01 0.  1.
          4   -1    0    0  501    0  0.00000000000E+00 -0.00000000000E+00 -0.12190284218E+02  0.12256260821E+02  0.12700000000E+01 0.  1.
         25    2    1    2    0    0  0.00000000000E+00  0.00000000000E+00  0.30735137815E+03  0.33180044695E+03  0.12500666760E+03 0.  0.
    9000005    1    3    3    0    0 -0.13319340638E+02 -0.59903226133E+02  0.18506623978E+03  0.19497772807E+03  0.10000000000E+01 0.  0.
    9000005    1    3    3    0    0  0.13319340638E+02  0.59903226133E+02  0.12228513837E+03  0.13682271888E+03  0.10000000000E+01 0.  0.
<mgrwt>
<rscale>  0 0.12500667E+03</rscale>
<asrwt>0</asrwt>
<pdfrwt beam="2">  1        4 0.18806978E-02 0.12500667E+03</pdfrwt>
<pdfrwt beam="1">  1       -4 0.49165521E-01 0.12500667E+03</pdfrwt>
<totfact> 0.71763657E+03</totfact>
</mgrwt>
</event>
<event>
 5    1  0.3246948E-002  0.1250108E+03  0.7818608E-02  0.1235052E+00
         -4   -1    0    0    0  501 -0.00000000000E+00  0.00000000000E+00  0.16274722616E+03  0.16275218132E+03  0.12700000000E+01 0. -1.
          4   -1    0    0  501    0  0.00000000000E+00 -0.00000000000E+00 -0.23983973845E+02  0.24017574845E+02  0.12700000000E+01 0. -1.
         25    2    1    2    0    0  0.00000000000E+00  0.00000000000E+00  0.13876325232E+03  0.18676975616E+03  0.12501080603E+03 0.  0.
    9000005    1    3    3    0    0  0.37929596130E+02  0.37684307619E+02  0.11772827424E+03  0.12930470934E+03  0.10000000000E+01 0.  0.
    9000005    1    3    3    0    0 -0.37929596130E+02 -0.37684307619E+02  0.21034978082E+02  0.57465046822E+02  0.10000000000E+01 0.  0.
<mgrwt>
<rscale>  0 0.12501081E+03</rscale>
<asrwt>0</asrwt>
<pdfrwt beam="2">  1        4 0.36928079E-02 0.12501081E+03</pdfrwt>
<pdfrwt beam="1">  1       -4 0.25041001E-01 0.12501081E+03</pdfrwt>
<totfact> 0.92390050E+03</totfact>
</mgrwt>
</event>
<event>
 5    1  0.3246948E-002  0.1250003E+03  0.7818608E-02  0.1235069E+00
         -4   -1    0    0    0  501 -0.00000000000E+00  0.00000000000E+00  0.91360741123E+02  0.91369567793E+02  0.12700000000E+01 0. -1.
          4   -1    0    0  501    0  0.00000000000E+00 -0.00000000000E+00 -0.42736227361E+02  0.42755093604E+02  0.12700000000E+01 0. -1.
         25    2    1    2    0    0  0.00000000000E+00  0.00000000000E+00  0.48624513763E+02  0.13412466140E+03  0.12500032582E+03 0.  0.
    9000005    1    3    3    0    0  0.90285613689E+01  0.35750556059E+02  0.78449621599E+02  0.86688870727E+02  0.10000000000E+01 0.  0.
    9000005    1    3    3    0    0 -0.90285613689E+01 -0.35750556059E+02 -0.29825107837E+02  0.47435790669E+02  0.10000000000E+01 0.  0.
<mgrwt>
<rscale>  0 0.12500033E+03</rscale>
<asrwt>0</asrwt>
<pdfrwt beam="2">  1        4 0.65769346E-02 0.12500033E+03</pdfrwt>
<pdfrwt beam="1">  1       -4 0.14057629E-01 0.12500033E+03</pdfrwt>
<totfact> 0.10256478E+04</totfact>
</mgrwt>
</event>
<event>
 5    1  0.3246948E-002  0.1250023E+03  0.7818608E-02  0.1235066E+00
          4   -1    0    0  501    0  0.00000000000E+00  0.00000000000E+00  0.74680992343E+02  0.74691790161E+02  0.12700000000E+01 0. -1.
         -4   -1    0    0    0  501 -0.00000000000E+00 -0.00000000000E+00 -0.52285418369E+02  0.52300840090E+02  0.12700000000E+01 0. -1.
         25    2    1    2    0    0  0.00000000000E+00  0.00000000000E+00  0.22395573974E+02  0.12699263025E+03  0.12500226560E+03 0.  0.
    9000005    1    3    3    0    0  0.91461551759E+01  0.59828297273E+02  0.27012093386E+02  0.66285220813E+02  0.10000000000E+01 0.  0.
    9000005    1    3    3    0    0 -0.91461551759E+01 -0.59828297273E+02 -0.46165194121E+01  0.60707409437E+02  0.10000000000E+01 0.  0.
<mgrwt>
<rscale>  0 0.12500227E+03</rscale>
<asrwt>0</asrwt>
<pdfrwt beam="1">  1        4 0.11491400E-01 0.12500227E+03</pdfrwt>
<pdfrwt beam="2">  1       -4 0.80459274E-02 0.12500227E+03</pdfrwt>
<totfact> 0.10408773E+04</totfact>
</mgrwt>
</event>
<event>
 5    1  0.3246948E-002  0.1250003E+03  0.7818608E-02  0.1235069E+00
         -4   -1    0    0    0  501 -0.00000000000E+00  0.00000000000E+00  0.12289461766E+02  0.12354908761E+02  0.12700000000E+01 0. -1.
          4   -1    0    0  501    0  0.00000000000E+00 -0.00000000000E+00 -0.31694456810E+03  0.31694711254E+03  0.12700000000E+01 0. -1.
         25    2    1    2    0    0  0.00000000000E+00  0.00000000000E+00 -0.30465510633E+03  0.32930202130E+03  0.12500034967E+03 0.  0.
    9000005    1    3    3    0    0  0.32808412795E+02 -0.23535174733E+02 -0.26674939624E+02  0.48402983418E+02  0.10000000000E+01 0.  0.
    9000005    1    3    3    0    0 -0.32808412795E+02  0.23535174733E+02 -0.27798016671E+03  0.28089903788E+03  0.10000000000E+01 0.  0.
<mgrwt>
<rscale>  0 0.12500035E+03</rscale>
<asrwt>0</asrwt>
<pdfrwt beam="2">  1        4 0.48765927E-01 0.12500035E+03</pdfrwt>
<pdfrwt beam="1">  1       -4 0.18959168E-02 0.12500035E+03</pdfrwt>
<totfact> 0.72062708E+03</totfact>
</mgrwt>
</event>
<event>
 5    1  0.3246948E-002  0.1250013E+03  0.7818608E-02  0.1235067E+00
          4   -1    0    0  501    0  0.00000000000E+00  0.00000000000E+00  0.64321363183E+02  0.64333899787E+02  0.12700000000E+01 0. -1.
         -4   -1    0    0    0  501 -0.00000000000E+00 -0.00000000000E+00 -0.60706424751E+02  0.60719707723E+02  0.12700000000E+01 0. -1.
         25    2    1    2    0    0  0.00000000000E+00  0.00000000000E+00  0.36149384324E+01  0.12505360751E+03  0.12500134788E+03 0.  0.
    9000005    1    3    3    0    0  0.46533261280E+02 -0.22913808490E+02  0.36678134574E+02  0.63534813927E+02  0.10000000000E+01 0.  0.
    9000005    1    3    3    0    0 -0.46533261280E+02  0.22913808490E+02 -0.33063196142E+02  0.61518793583E+02  0.10000000000E+01 0.  0.
<mgrwt>
<rscale>  0 0.12500135E+03</rscale>
<asrwt>0</asrwt>
<pdfrwt beam="1">  1        4 0.98975804E-02 0.12500135E+03</pdfrwt>
<pdfrwt beam="2">  1       -4 0.93414361E-02 0.12500135E+03</pdfrwt>
<totfact> 0.10451380E+04</totfact>
</mgrwt>
</event>
<event>
 5    1  0.3246948E-002  0.1249999E+03  0.7818608E-02  0.1235070E+00
          4   -1    0    0  501    0  0.00000000000E+00  0.00000000000E+00  0.13274864083E+03  0.13275471570E+03  0.12700000000E+01 0.  1.
         -4   -1    0    0    0  501 -0.00000000000E+00 -0.00000000000E+00 -0.29405388083E+02  0.29432800551E+02  0.12700000000E+01 0.  1.
         25    2    1    2    0    0  0.00000000000E+00  0.00000000000E+00  0.10334325274E+03  0.16218751625E+03  0.12499985016E+03 0.  0.
    9000005    1    3    3    0    0 -0.16591752751E+02  0.39597512238E+01 -0.26332667941E+02  0.31390687950E+02  0.10000000000E+01 0.  0.
    9000005    1    3    3    0    0  0.16591752751E+02 -0.39597512238E+01  0.12967592069E+03  0.13079682830E+03  0.10000000000E+01 0.  0.
<mgrwt>
<rscale>  0 0.12499985E+03</rscale>
<asrwt>0</asrwt>
<pdfrwt beam="1">  1        4 0.20425444E-01 0.12499985E+03</pdfrwt>
<pdfrwt beam="2">  1       -4 0.45264818E-02 0.12499985E+03</pdfrwt>
<totfact> 0.96923025E+03</totfact>
</mgrwt>
</event>
<event>
 5    1  0.3246948E-002  0.1250015E+03  0.7818608E-02  0.1235067E+00
         -4   -1    0    0    0  501 -0.00000000000E+00  0.00000000000E+00  0.53490235762E+02  0.53505310221E+02  0.12700000000E+01 0.  1.
          4   -1    0    0  501    0  0.00000000000E+00 -0.00000000000E+00 -0.72998231974E+02  0.73009278666E+02  0.12700000000E+01 0.  1.
         25    2    1    2    0    0  0.00000000000E+00  0.00000000000E+00 -0.19507996213E+02  0.12651458889E+03  0.12500151713E+03 0.  0.
    9000005    1    3    3    0    0 -0.47535105946E+02  0.19153042818E+02  0.26440863871E+02  0.57676205048E+02  0.10000000000E+01 0.  0.
    9000005    1    3    3    0    0  0.47535105946E+02 -0.19153042818E+02 -0.45948860084E+02  0.68838383839E+02  0.10000000000E+01 0.  0.
<mgrwt>
<rscale>  0 0.12500152E+03</rscale>
<asrwt>0</asrwt>
<pdfrwt beam="2">  1        4 0.11232506E-01 0.12500152E+03</pdfrwt>
<pdfrwt beam="1">  1       -4 0.82312764E-02 0.12500152E+03</pdfrwt>
<totfact> 0.10419353E+04</totfact>
</mgrwt>
</event>
<event>
 5    1  0.3246948E-002  0.1250044E+03  0.7818608E-02  0.1235062E+00
          4   -1    0    0  501    0  0.00000000000E+00  0.00000000000E+00  0.40417497628E+03  0.40417697158E+03  0.12700000000E+01 0.  1.
         -4   -1    0    0    0  501 -0.00000000000E+00 -0.00000000000E+00 -0.96216810717E+01  0.97051350658E+01  0.12700000000E+01 0.  1.
         25    2    1    2    0    0  0.00000000000E+00  0.00000000000E+00  0.39455329521E+03  0.41388210664E+03  0.12500438167E+03 0.  0.
    9000005    1    3    3    0    0  0.39453878559E+02  0.41649903097E+02  0.11522134749E+03  0.12871783823E+03  0.10000000000E+01 0.  0.
    9000005    1    3    3    0    0 -0.39453878559E+02 -0.41649903097E+02  0.27933194773E+03  0.28516426842E+03  0.10000000000E+01 0.  0.
<mgrwt>
<rscale>  0 0.12500438E+03</rscale>
<asrwt>0</asrwt>
<pdfrwt beam="1">  1        4 0.62187334E-01 0.12500438E+03</pdfrwt>
<pdfrwt beam="2">  1       -4 0.14868318E-02 0.12500438E+03</pdfrwt>
<totfact> 0.63218550E+03</totfact>
</mgrwt>
</event>
<event>
 5    1  0.3246948E-002  0.1249990E+03  0.7818608E-02  0.1235071E+00
          4   -1    0    0  501    0  0.00000000000E+00  0.00000000000E+00  0.34750353627E+02  0.34773552841E+02  0.12700000000E+01 0. -1.
         -4   -1    0    0    0  501 -0.00000000000E+00 -0.00000000000E+00 -0.11234287871E+03  0.11235005695E+03  0.12700000000E+01 0. -1.
         25    2    1    2    0    0  0.00000000000E+00  0.00000000000E+00 -0.77592525087E+02  0.14712360980E+03  0.12499902644E+03 0.  0.
    9000005    1    3    3    0    0  0.49846700698E+02 -0.26771438495E+02 -0.75717297151E+01  0.57094085337E+02  0.10000000000E+01 0.  0.
    9000005    1    3    3    0    0 -0.49846700698E+02  0.26771438495E+02 -0.70020795372E+02  0.90029524458E+02  0.10000000000E+01 0.  0.
<mgrwt>
<rscale>  0 0.12499903E+03</rscale>
<asrwt>0</asrwt>
<pdfrwt beam="1">  1        4 0.53485450E-02 0.12499903E+03</pdfrwt>
<pdfrwt beam="2">  1       -4 0.17285856E-01 0.12499903E+03</pdfrwt>
<totfact> 0.99882374E+03</totfact>
</mgrwt>
</event>
<event>
 5    1  0.3246948E-002  0.1250002E+03  0.7818608E-02  0.1235069E+00
          4   -1    0    0  501    0  0.00000000000E+00  0.00000000000E+00  0.69650758141E+02  0.69662335660E+02  0.12700000000E+01 0. -1.
         -4   -1    0    0    0  501 -0.00000000000E+00 -0.00000000000E+00 -0.56060093873E+02  0.56074477484E+02  0.12700000000E+01 0. -1.
         25    2    1    2    0    0  0.00000000000E+00  0.00000000000E+00  0.13590664268E+02  0.12573681314E+03  0.12500016010E+03 0.  0.
    9000005    1    3    3    0    0  0.28676666994E+02  0.48343082588E+00  0.62644377581E+02  0.68905028683E+02  0.10000000000E+01 0.  0.
    9000005    1    3    3    0    0 -0.28676666994E+02 -0.48343082588E+00 -0.49053713313E+02  0.56831784461E+02  0.10000000000E+01 0.  0.
<mgrwt>
<rscale>  0 0.12500016E+03</rscale>
<asrwt>0</asrwt>
<pdfrwt beam="1">  1        4 0.10717498E-01 0.12500016E+03</pdfrwt>
<pdfrwt beam="2">  1       -4 0.86266268E-02 0.12500016E+03</pdfrwt>
<totfact> 0.10436697E+04</totfact>
</mgrwt>
</event>
<event>
 5    1  0.3246948E-002  0.1250110E+03  0.7818608E-02  0.1235052E+00
         -4   -1    0    0    0  501 -0.00000000000E+00  0.00000000000E+00  0.11878985978E+03  0.11879664847E+03  0.12700000000E+01 0. -1.
          4   -1    0    0  501    0  0.00000000000E+00 -0.00000000000E+00 -0.32869486367E+02  0.32894012130E+02  0.12700000000E+01 0. -1.
         25    2    1    2    0    0  0.00000000000E+00  0.00000000000E+00  0.85920373414E+02  0.15169066060E+03  0.12501098330E+03 0.  0.
    9000005    1    3    3    0    0 -0.48693990883E+01  0.61944511643E+02  0.51109349279E+02  0.80461165502E+02  0.10000000000E+01 0.  0.
    9000005    1    3    3    0    0  0.48693990883E+01 -0.61944511643E+02  0.34811024135E+02  0.71229495095E+02  0.10000000000E+01 0.  0.
<mgrwt>
<rscale>  0 0.12501098E+03</rscale>
<asrwt>0</asrwt>
<pdfrwt beam="2">  1        4 0.50592529E-02 0.12501098E+03</pdfrwt>
<pdfrwt beam="1">  1       -4 0.18277772E-01 0.12501098E+03</pdfrwt>
<totfact> 0.98943297E+03</totfact>
</mgrwt>
</event>
<event>
 5    1  0.3246948E-002  0.1249990E+03  0.7818608E-02  0.1235071E+00
          4   -1    0    0  501    0  0.00000000000E+00  0.00000000000E+00  0.19430240034E+03  0.19430655079E+03  0.12700000000E+01 0.  1.
         -4   -1    0    0    0  501 -0.00000000000E+00 -0.00000000000E+00 -0.20079233096E+02  0.20119356394E+02  0.12700000000E+01 0.  1.
         25    2    1    2    0    0  0.00000000000E+00  0.00000000000E+00  0.17422316725E+03  0.21442590718E+03  0.12499903066E+03 0.  0.
    9000005    1    3    3    0    0  0.36594727255E+01 -0.58818446445E+02  0.51449478171E+02  0.78237140713E+02  0.10000000000E+01 0.  0.
    9000005    1    3    3    0    0 -0.36594727255E+01  0.58818446445E+02  0.12277368908E+03  0.13618876647E+03  0.10000000000E+01 0.  0.
<mgrwt>
<rscale>  0 0.12499903E+03</rscale>
<asrwt>0</asrwt>
<pdfrwt beam="1">  1        4 0.29896082E-01 0.12499903E+03</pdfrwt>
<pdfrwt beam="2">  1       -4 0.30925185E-02 0.12499903E+03</pdfrwt>
<totfact> 0.87760036E+03</totfact>
</mgrwt>
</event>
<event>
 5    1  0.3246948E-002  0.1249555E+03  0.7818608E-02  0.1235139E+00
         -4   -1    0    0    0  501 -0.00000000000E+00  0.00000000000E+00  0.26842731129E+02  0.26872757850E+02  0.12700000000E+01 0.  1.
          4   -1    0    0  501    0  0.00000000000E+00 -0.00000000000E+00 -0.14530585286E+03  0.14531140277E+03  0.12700000000E+01 0.  1.
         25    2    1    2    0    0  0.00000000000E+00  0.00000000000E+00 -0.11846312173E+03  0.17218416062E+03  0.12495548791E+03 0.  0.
    9000005    1    3    3    0    0  0.29394384942E+02  0.19150844986E+02 -0.13045622147E+03  0.13509482022E+03  0.10000000000E+01 0.  0.
    9000005    1    3    3    0    0 -0.29394384942E+02 -0.19150844986E+02  0.11993099742E+02  0.37089340399E+02  0.10000000000E+01 0.  0.
<mgrwt>
<rscale>  0 0.12495549E+03</rscale>
<asrwt>0</asrwt>
<pdfrwt beam="2">  1        4 0.22357483E-01 0.12495549E+03</pdfrwt>
<pdfrwt beam="1">  1       -4 0.41323877E-02 0.12495549E+03</pdfrwt>
<totfact> 0.95138096E+03</totfact>
</mgrwt>
</event>
<event>
 5    1  0.3246948E-002  0.1250242E+03  0.7818608E-02  0.1235032E+00
          4   -1    0    0  501    0  0.00000000000E+00  0.00000000000E+00  0.27033768540E+03  0.27034066851E+03  0.12700000000E+01 0. -1.
         -4   -1    0    0    0  501 -0.00000000000E+00 -0.00000000000E+00 -0.14424144755E+02  0.14479946544E+02  0.12700000000E+01 0. -1.
         25    2    1    2    0    0  0.00000000000E+00  0.00000000000E+00  0.25591354065E+03  0.28482061505E+03  0.12502416755E+03 0.  0.
    9000005    1    3    3    0    0 -0.50346018652E+02 -0.23350440266E+02  0.19346209780E+03  0.20126735438E+03  0.10000000000E+01 0.  0.
    9000005    1    3    3    0    0  0.50346018652E+02  0.23350440266E+02  0.62451442847E+02  0.83553260668E+02  0.10000000000E+01 0.  0.
<mgrwt>
<rscale>  0 0.12502417E+03</rscale>
<asrwt>0</asrwt>
<pdfrwt beam="1">  1        4 0.41594932E-01 0.12502417E+03</pdfrwt>
<pdfrwt beam="2">  1       -4 0.22236213E-02 0.12502417E+03</pdfrwt>
<totfact> 0.77501611E+03</totfact>
</mgrwt>
</event>
<event>
 5    1  0.3246948E-002  0.1249889E+03  0.7818608E-02  0.1235087E+00
         -4   -1    0    0    0  501 -0.00000000000E+00  0.00000000000E+00  0.30566561613E+02  0.30592933643E+02  0.12700000000E+01 0. -1.
          4   -1    0    0  501    0  0.00000000000E+00 -0.00000000000E+00 -0.12768760389E+03  0.12769391954E+03  0.12700000000E+01 0. -1.
         25    2    1    2    0    0  0.00000000000E+00  0.00000000000E+00 -0.97121042277E+02  0.15828685318E+03  0.12498892366E+03 0.  0.
    9000005    1    3    3    0    0 -0.23384245462E+02 -0.39062164048E+02  0.56423240718E+01  0.45885852033E+02  0.10000000000E+01 0.  0.
    9000005    1    3    3    0    0  0.23384245462E+02  0.39062164048E+02 -0.10276336635E+03  0.11240100115E+03  0.10000000000E+01 0.  0.
<mgrwt>
<rscale>  0 0.12498892E+03</rscale>
<asrwt>0</asrwt>
<pdfrwt beam="2">  1        4 0.19646761E-01 0.12498892E+03</pdfrwt>
<pdfrwt beam="1">  1       -4 0.47050625E-02 0.12498892E+03</pdfrwt>
<totfact> 0.97698413E+03</totfact>
</mgrwt>
</event>
<event>
 5    1  0.3246948E-002  0.1250022E+03  0.7818608E-02  0.1235066E+00
          4   -1    0    0  501    0  0.00000000000E+00  0.00000000000E+00  0.58129469685E+02  0.58143341372E+02  0.12700000000E+01 0. -1.
         -4   -1    0    0    0  501 -0.00000000000E+00 -0.00000000000E+00 -0.67173569533E+02  0.67185573926E+02  0.12700000000E+01 0. -1.
         25    2    1    2    0    0  0.00000000000E+00  0.00000000000E+00 -0.90440998473E+01  0.12532891530E+03  0.12500216505E+03 0.  0.
    9000005    1    3    3    0    0  0.35550220285E+02 -0.18827422353E+02 -0.52470644122E+02  0.66124567971E+02  0.10000000000E+01 0.  0.
    9000005    1    3    3    0    0 -0.35550220285E+02  0.18827422353E+02  0.43426544275E+02  0.59204347327E+02  0.10000000000E+01 0.  0.
<mgrwt>
<rscale>  0 0.12500217E+03</rscale>
<asrwt>0</asrwt>
<pdfrwt beam="1">  1        4 0.89449859E-02 0.12500217E+03</pdfrwt>
<pdfrwt beam="2">  1       -4 0.10336386E-01 0.12500217E+03</pdfrwt>
<totfact> 0.10445212E+04</totfact>
</mgrwt>
</event>
<event>
 5    1  0.3246948E-002  0.1249983E+03  0.7818608E-02  0.1235072E+00
          4   -1    0    0  501    0  0.00000000000E+00  0.00000000000E+00  0.13858369673E+02  0.13916440277E+02  0.12700000000E+01 0.  1.
         -4   -1    0    0    0  501 -0.00000000000E+00 -0.00000000000E+00 -0.28121289781E+03  0.28121576555E+03  0.12700000000E+01 0.  1.
         25    2    1    2    0    0  0.00000000000E+00  0.00000000000E+00 -0.26735452813E+03  0.29513220582E+03  0.12499830079E+03 0.  0.
    9000005    1    3    3    0    0 -0.23667522289E+02  0.41146269483E+02 -0.37711913794E+02  0.60632957587E+02  0.10000000000E+01 0.  0.
    9000005    1    3    3    0    0  0.23667522289E+02 -0.41146269483E+02 -0.22964261434E+03  0.23449924824E+03  0.10000000000E+01 0.  0.
<mgrwt>
<rscale>  0 0.12499830E+03</rscale>
<asrwt>0</asrwt>
<pdfrwt beam="1">  1        4 0.21367446E-02 0.12499830E+03</pdfrwt>
<pdfrwt beam="2">  1       -4 0.43268206E-01 0.12499830E+03</pdfrwt>
<totfact> 0.76216409E+03</totfact>
</mgrwt>
</event>
<event>
 5    1  0.3246948E-002  0.1250021E+03  0.7818608E-02  0.1235066E+00
          4   -1    0    0  501    0  0.00000000000E+00  0.00000000000E+00  0.11051317628E+02  0.11124051479E+02  0.12700000000E+01 0.  1.
         -4   -1    0    0    0  501 -0.00000000000E+00 -0.00000000000E+00 -0.35224307447E+03  0.35224536393E+03  0.12700000000E+01 0.  1.
         25    2    1    2    0    0  0.00000000000E+00  0.00000000000E+00 -0.34119175684E+03  0.36336941541E+03  0.12500206846E+03 0.  0.
    9000005    1    3    3    0    0 -0.42089946200E+02 -0.29890980853E+02 -0.68218874431E+02  0.85556116883E+02  0.10000000000E+01 0.  0.
    9000005    1    3    3    0    0  0.42089946200E+02  0.29890980853E+02 -0.27297288241E+03  0.27781329853E+03  0.10000000000E+01 0.  0.
<mgrwt>
<rscale>  0 0.12500207E+03</rscale>
<asrwt>0</asrwt>
<pdfrwt beam="1">  1        4 0.17059740E-02 0.12500207E+03</pdfrwt>
<pdfrwt beam="2">  1       -4 0.54197005E-01 0.12500207E+03</pdfrwt>
<totfact> 0.68275253E+03</totfact>
</mgrwt>
</event>
<event>
 5    1  0.3246948E-002  0.1250159E+03  0.7818608E-02  0.1235044E+00
          4   -1    0    0  501    0  0.00000000000E+00  0.00000000000E+00  0.62045754444E+02  0.62058750749E+02  0.12700000000E+01 0.  1.
         -4   -1    0    0    0  501 -0.00000000000E+00 -0.00000000000E+00 -0.62947571311E+02  0.62960381463E+02  0.12700000000E+01 0.  1.
         25    2    1    2    0    0  0.00000000000E+00  0.00000000000E+00 -0.90181686677E+00  0.12501913221E+03  0.12501587957E+03 0.  0.
    9000005    1    3    3    0    0  0.20591525212E+02  0.30524536841E+02 -0.50954541909E+02  0.62873870574E+02  0.10000000000E+01 0.  0.
    9000005    1    3    3    0    0 -0.20591525212E+02 -0.30524536841E+02  0.50052725042E+02  0.62145261637E+02  0.10000000000E+01 0.  0.
<mgrwt>
<rscale>  0 0.12501588E+03</rscale>
<asrwt>0</asrwt>
<pdfrwt beam="1">  1        4 0.95474858E-02 0.12501588E+03</pdfrwt>
<pdfrwt beam="2">  1       -4 0.96862268E-02 0.12501588E+03</pdfrwt>
<totfact> 0.10448697E+04</totfact>
</mgrwt>
</event>
<event>
 5    1  0.3246948E-002  0.1250041E+03  0.7818608E-02  0.1235063E+00
          4   -1    0    0  501    0  0.00000000000E+00  0.00000000000E+00  0.50723573525E+01  0.52289300159E+01  0.12700000000E+01 0. -1.
         -4   -1    0    0    0  501 -0.00000000000E+00 -0.00000000000E+00 -0.75829266869E+03  0.75829373220E+03  0.12700000000E+01 0. -1.
         25    2    1    2    0    0  0.00000000000E+00  0.00000000000E+00 -0.75322031134E+03  0.76352266222E+03  0.12500407314E+03 0.  0.
    9000005    1    3    3    0    0  0.35040858167E+02  0.93225382137E+01 -0.68750184005E+03  0.68845809715E+03  0.10000000000E+01 0.  0.
    9000005    1    3    3    0    0 -0.35040858167E+02 -0.93225382137E+01 -0.65718471296E+02  0.75064565071E+02  0.10000000000E+01 0.  0.
<mgrwt>
<rscale>  0 0.12500407E+03</rscale>
<asrwt>0</asrwt>
<pdfrwt beam="1">  1        4 0.79248913E-03 0.12500407E+03</pdfrwt>
<pdfrwt beam="2">  1       -4 0.11667245E+00 0.12500407E+03</pdfrwt>
<totfact> 0.39932021E+03</totfact>
</mgrwt>
</event>
<event>
 5    1  0.3246948E-002  0.1250039E+03  0.7818608E-02  0.1235063E+00
         -4   -1    0    0    0  501 -0.00000000000E+00  0.00000000000E+00  0.60452159476E+02  0.60465498305E+02  0.12700000000E+01 0.  1.
          4   -1    0    0  501    0  0.00000000000E+00 -0.00000000000E+00 -0.64594488130E+02  0.64606971735E+02  0.12700000000E+01 0.  1.
         25    2    1    2    0    0  0.00000000000E+00  0.00000000000E+00 -0.41423286536E+01  0.12507247004E+03  0.12500385544E+03 0.  0.
    9000005    1    3    3    0    0 -0.11042143930E+02  0.57652586599E+02  0.19382183363E+02  0.61825712418E+02  0.10000000000E+01 0.  0.
    9000005    1    3    3    0    0  0.11042143930E+02 -0.57652586599E+02 -0.23524512016E+02  0.63246757622E+02  0.10000000000E+01 0.  0.
<mgrwt>
<rscale>  0 0.12500386E+03</rscale>
<asrwt>0</asrwt>
<pdfrwt beam="2">  1        4 0.99395999E-02 0.12500386E+03</pdfrwt>
<pdfrwt beam="1">  1       -4 0.93023185E-02 0.12500386E+03</pdfrwt>
<totfact> 0.10450378E+04</totfact>
</mgrwt>
</event>
<event>
 5    1  0.3246948E-002  0.1250006E+03  0.7818608E-02  0.1235068E+00
          4   -1    0    0  501    0  0.00000000000E+00  0.00000000000E+00  0.15403019569E+03  0.15403543127E+03  0.12700000000E+01 0. -1.
         -4   -1    0    0    0  501 -0.00000000000E+00 -0.00000000000E+00 -0.25338965300E+02  0.25370771814E+02  0.12700000000E+01 0. -1.
         25    2    1    2    0    0  0.00000000000E+00  0.00000000000E+00  0.12869123039E+03  0.17940620308E+03  0.12500061169E+03 0.  0.
    9000005    1    3    3    0    0  0.44630067328E+02 -0.24440018869E+02  0.11641408837E+03  0.12705273473E+03  0.10000000000E+01 0.  0.
    9000005    1    3    3    0    0 -0.44630067328E+02  0.24440018869E+02  0.12277142028E+02  0.52353468351E+02  0.10000000000E+01 0.  0.
<mgrwt>
<rscale>  0 0.12500061E+03</rscale>
<asrwt>0</asrwt>
<pdfrwt beam="1">  1        4 0.23699803E-01 0.12500061E+03</pdfrwt>
<pdfrwt beam="2">  1       -4 0.39011517E-02 0.12500061E+03</pdfrwt>
<totfact> 0.93722712E+03</totfact>
</mgrwt>
</event>
<event>
 5    1  0.3246948E-002  0.1250167E+03  0.7818608E-02  0.1235043E+00
          4   -1    0    0  501    0  0.00000000000E+00  0.00000000000E+00  0.69499206781E+01  0.70650051261E+01  0.12700000000E+01 0. -1.
         -4   -1    0    0    0  501 -0.00000000000E+00 -0.00000000000E+00 -0.55747446722E+03  0.55747591383E+03  0.12700000000E+01 0. -1.
         25    2    1    2    0    0  0.00000000000E+00  0.00000000000E+00 -0.55052454654E+03  0.56454091896E+03  0.12501669021E+03 0.  0.
    9000005    1    3    3    0    0  0.34973936830E+02  0.26621653347E+02 -0.47591519951E+03  0.47794159246E+03  0.10000000000E+01 0.  0.
    9000005    1    3    3    0    0 -0.34973936830E+02 -0.26621653347E+02 -0.74609347032E+02  0.86599326492E+02  0.10000000000E+01 0.  0.
<mgrwt>
<rscale>  0 0.12501669E+03</rscale>
<asrwt>0</asrwt>
<pdfrwt beam="1">  1        4 0.10781829E-02 0.12501669E+03</pdfrwt>
<pdfrwt beam="2">  1       -4 0.85774232E-01 0.12501669E+03</pdfrwt>
<totfact> 0.51166491E+03</totfact>
</mgrwt>
</event>
<event>
 5    1  0.3246948E-002  0.1250191E+03  0.7818608E-02  0.1235039E+00
          4   -1    0    0  501    0  0.00000000000E+00  0.00000000000E+00  0.56032821196E+02  0.56047211805E+02  0.12700000000E+01 0. -1.
         -4   -1    0    0    0  501 -0.00000000000E+00 -0.00000000000E+00 -0.69705795326E+02  0.69717363705E+02  0.12700000000E+01 0. -1.
         25    2    1    2    0    0  0.00000000000E+00  0.00000000000E+00 -0.13672974130E+02  0.12576457551E+03  0.12501911147E+03 0.  0.
    9000005    1    3    3    0    0  0.31887036450E+02 -0.21960991833E+02  0.42521099044E+02  0.57516190066E+02  0.10000000000E+01 0.  0.
    9000005    1    3    3    0    0 -0.31887036450E+02  0.21960991833E+02 -0.56194073173E+02  0.68248385444E+02  0.10000000000E+01 0.  0.
<mgrwt>
<rscale>  0 0.12501911E+03</rscale>
<asrwt>0</asrwt>
<pdfrwt beam="1">  1        4 0.86224309E-02 0.12501911E+03</pdfrwt>
<pdfrwt beam="2">  1       -4 0.10725965E-01 0.12501911E+03</pdfrwt>
<totfact> 0.10431625E+04</totfact>
</mgrwt>
</event>
<event>
 5    1  0.3246948E-002  0.1250048E+03  0.7818608E-02  0.1235062E+00
          4   -1    0    0  501    0  0.00000000000E+00  0.00000000000E+00  0.55547429432E+01  0.56980759178E+01  0.12700000000E+01 0.  1.
         -4   -1    0    0    0  501 -0.00000000000E+00 -0.00000000000E+00 -0.69418006276E+03  0.69418122449E+03  0.12700000000E+01 0.  1.
         25    2    1    2    0    0  0.00000000000E+00  0.00000000000E+00 -0.68862531982E+03  0.69987930041E+03  0.12500481609E+03 0.  0.
    9000005    1    3    3    0    0 -0.10822293082E+02  0.13761342458E+02 -0.68019766135E+03  0.68042365853E+03  0.10000000000E+01 0.  0.
    9000005    1    3    3    0    0  0.10822293082E+02 -0.13761342458E+02 -0.84276584653E+01  0.19455641881E+02  0.10000000000E+01 0.  0.
<mgrwt>
<rscale>  0 0.12500482E+03</rscale>
<asrwt>0</asrwt>
<pdfrwt beam="1">  1        4 0.86569136E-03 0.12500482E+03</pdfrwt>
<pdfrwt beam="2">  1       -4 0.10680798E+00 0.12500482E+03</pdfrwt>
<totfact> 0.43088544E+03</totfact>
</mgrwt>
</event>
<event>
 4    1  0.3246948E-002  0.1250726E+03  0.7818608E-02  0.1234956E+00
          4   -1    0    0  501    0  0.00000000000E+00  0.00000000000E+00  0.13585061678E+03  0.13585655295E+03  0.12700000000E+01 0. -1.
         -4   -1    0    0    0  501 -0.00000000000E+00 -0.00000000000E+00 -0.28766828739E+02  0.28794849117E+02  0.12700000000E+01 0. -1.
    9000005    1    1    2    0    0  0.19658548226E+02 -0.56343659669E+02  0.28958497474E+02  0.66337478692E+02  0.10000000000E+01 0.  0.
    9000005    1    1    2    0    0 -0.19658548226E+02  0.56343659669E+02  0.78125290567E+02  0.98313923375E+02  0.10000000000E+01 0.  0.
<mgrwt>
<rscale>  0 0.12507257E+03</rscale>
<asrwt>0</asrwt>
<pdfrwt beam="1">  1        4 0.20902707E-01 0.12507257E+03</pdfrwt>
<pdfrwt beam="2">  1       -4 0.44282780E-02 0.12507257E+03</pdfrwt>
<totfact> 0.96296379E+03</totfact>
</mgrwt>
</event>
<event>
 5    1  0.3246948E-002  0.1249977E+03  0.7818608E-02  0.1235073E+00
         -4   -1    0    0    0  501 -0.00000000000E+00  0.00000000000E+00  0.32808992949E+03  0.32809238750E+03  0.12700000000E+01 0.  1.
          4   -1    0    0  501    0  0.00000000000E+00 -0.00000000000E+00 -0.11869223698E+02  0.11936974960E+02  0.12700000000E+01 0.  1.
         25    2    1    2    0    0  0.00000000000E+00  0.00000000000E+00  0.31622070579E+03  0.34002936246E+03  0.12499773022E+03 0.  0.
    9000005    1    3    3    0    0  0.22183113403E+01 -0.62185737194E+02  0.17376589615E+03  0.18457403251E+03  0.10000000000E+01 0.  0.
    9000005    1    3    3    0    0 -0.22183113403E+01  0.62185737194E+02  0.14245480965E+03  0.15545532994E+03  0.10000000000E+01 0.  0.
<mgrwt>
<rscale>  0 0.12499773E+03</rscale>
<asrwt>0</asrwt>
<pdfrwt beam="2">  1        4 0.18314352E-02 0.12499773E+03</pdfrwt>
<pdfrwt beam="1">  1       -4 0.50480772E-01 0.12499773E+03</pdfrwt>
<totfact> 0.70839117E+03</totfact>
</mgrwt>
</event>
<event>
 5    1  0.3246948E-002  0.1249959E+03  0.7818608E-02  0.1235076E+00
         -4   -1    0    0    0  501 -0.00000000000E+00  0.00000000000E+00  0.14690887364E+04  0.14690892854E+04  0.12700000000E+01 0.  1.
          4   -1    0    0  501    0  0.00000000000E+00 -0.00000000000E+00 -0.25065500642E+01  0.28099276191E+01  0.12700000000E+01 0.  1.
         25    2    1    2    0    0  0.00000000000E+00  0.00000000000E+00  0.14665821864E+04  0.14718992130E+04  0.12499593533E+03 0.  0.
    9000005    1    3    3    0    0 -0.31263197892E+02 -0.38097843413E+02  0.28086327221E+03  0.28515611670E+03  0.10000000000E+01 0.  0.
    9000005    1    3    3    0    0  0.31263197892E+02  0.38097843413E+02  0.11857189142E+04  0.11867430963E+04  0.10000000000E+01 0.  0.
<mgrwt>
<rscale>  0 0.12499594E+03</rscale>
<asrwt>0</asrwt>
<pdfrwt beam="2">  1        4 0.40900180E-03 0.12499594E+03</pdfrwt>
<pdfrwt beam="1">  1       -4 0.22603717E+00 0.12499594E+03</pdfrwt>
<totfact> 0.18490242E+03</totfact>
</mgrwt>
</event>
<event>
 5    1  0.3246948E-002  0.1250011E+03  0.7818608E-02  0.1235068E+00
         -4   -1    0    0    0  501 -0.00000000000E+00  0.00000000000E+00  0.68509498155E+01  0.69676691493E+01  0.12700000000E+01 0.  1.
          4   -1    0    0  501    0  0.00000000000E+00 -0.00000000000E+00 -0.56525276449E+03  0.56525419119E+03  0.12700000000E+01 0.  1.
         25    2    1    2    0    0  0.00000000000E+00  0.00000000000E+00 -0.55840181467E+03  0.57222186034E+03  0.12500108329E+03 0.  0.
    9000005    1    3    3    0    0  0.52191327517E+02 -0.31716616005E+02 -0.21856720044E+03  0.22694162137E+03  0.10000000000E+01 0.  0.
    9000005    1    3    3    0    0 -0.52191327517E+02  0.31716616005E+02 -0.33983461423E+03  0.34528023898E+03  0.10000000000E+01 0.  0.
<mgrwt>
<rscale>  0 0.12500108E+03</rscale>
<asrwt>0</asrwt>
<pdfrwt beam="2">  1        4 0.86971015E-01 0.12500108E+03</pdfrwt>
<pdfrwt beam="1">  1       -4 0.10630809E-02 0.12500108E+03</pdfrwt>
<totfact> 0.50668154E+03</totfact>
</mgrwt>
</event>
<event>
 5    1  0.3246948E-002  0.1249992E+03  0.7818608E-02  0.1235071E+00
          4   -1    0    0  501    0  0.00000000000E+00  0.00000000000E+00  0.10765405974E+03  0.10766155061E+03  0.12700000000E+01 0. -1.
         -4   -1    0    0    0  501 -0.00000000000E+00 -0.00000000000E+00 -0.36264861205E+02  0.36287092170E+02  0.12700000000E+01 0. -1.
         25    2    1    2    0    0  0.00000000000E+00  0.00000000000E+00  0.71389198537E+02  0.14394864278E+03  0.12499917635E+03 0.  0.
    9000005    1    3    3    0    0 -0.39532171653E+02  0.13829679266E+02 -0.17716972270E+02  0.45485643126E+02  0.10000000000E+01 0.  0.
    9000005    1    3    3    0    0  0.39532171653E+02 -0.13829679266E+02  0.89106170807E+02  0.98462999650E+02  0.10000000000E+01 0.  0.
<mgrwt>
<rscale>  0 0.12499918E+03</rscale>
<asrwt>0</asrwt>
<pdfrwt beam="1">  1        4 0.16564449E-01 0.12499918E+03</pdfrwt>
<pdfrwt beam="2">  1       -4 0.55814958E-02 0.12499918E+03</pdfrwt>
<totfact> 0.10052580E+04</totfact>
</mgrwt>
</event>
<event>
 5    1  0.3246948E-002  0.1249994E+03  0.7818608E-02  0.1235070E+00
          4   -1    0    0  501    0  0.00000000000E+00  0.00000000000E+00  0.12601392462E+02  0.12665227672E+02  0.12700000000E+01 0.  1.
         -4   -1    0    0    0  501 -0.00000000000E+00 -0.00000000000E+00 -0.30913448163E+03  0.30913709035E+03  0.12700000000E+01 0.  1.
         25    2    1    2    0    0  0.00000000000E+00  0.00000000000E+00 -0.29653308917E+03  0.32180231802E+03  0.12499943566E+03 0.  0.
    9000005    1    3    3    0    0  0.11867266152E+02 -0.60846863166E+02 -0.12798860192E+03  0.14221552301E+03  0.10000000000E+01 0.  0.
    9000005    1    3    3    0    0 -0.11867266152E+02  0.60846863166E+02 -0.16854448725E+03  0.17958679502E+03  0.10000000000E+01 0.  0.
<mgrwt>
<rscale>  0 0.12499944E+03</rscale>
<asrwt>0</asrwt>
<pdfrwt beam="1">  1        4 0.19437871E-02 0.12499944E+03</pdfrwt>
<pdfrwt beam="2">  1       -4 0.47564257E-01 0.12499944E+03</pdfrwt>
<totfact> 0.72943190E+03</totfact>
</mgrwt>
</event>
<event>
 5    1  0.3246948E-002  0.1250008E+03  0.7818608E-02  0.1235068E+00
          4   -1    0    0  501    0  0.00000000000E+00  0.00000000000E+00  0.15807135405E+01  0.20276970427E+01  0.12700000000E+01 0. -1.
         -4   -1    0    0    0  501 -0.00000000000E+00 -0.00000000000E+00 -0.21646609205E+04  0.21646612931E+04  0.12700000000E+01 0. -1.
         25    2    1    2    0    0  0.00000000000E+00  0.00000000000E+00 -0.21630802070E+04  0.21666889901E+04  0.12500079224E+03 0.  0.
    9000005    1    3    3    0    0  0.43935267534E+02  0.76318222569E+01 -0.18404080602E+04  0.18409485003E+04  0.10000000000E+01 0.  0.
    9000005    1    3    3    0    0 -0.43935267534E+02 -0.76318222569E+01 -0.32267214675E+03  0.32574048986E+03  0.10000000000E+01 0.  0.
<mgrwt>
<rscale>  0 0.12500079E+03</rscale>
<asrwt>0</asrwt>
<pdfrwt beam="1">  1        4 0.27760044E-03 0.12500079E+03</pdfrwt>
<pdfrwt beam="2">  1       -4 0.33305709E+00 0.12500079E+03</pdfrwt>
<totfact> 0.78394574E+02</totfact>
</mgrwt>
</event>
<event>
 5    1  0.3246948E-002  0.1249988E+03  0.7818608E-02  0.1235071E+00
         -4   -1    0    0    0  501 -0.00000000000E+00  0.00000000000E+00  0.73951395324E+02  0.73962299656E+02  0.12700000000E+01 0. -1.
          4   -1    0    0  501    0  0.00000000000E+00 -0.00000000000E+00 -0.52798436382E+02  0.52813708300E+02  0.12700000000E+01 0. -1.
         25    2    1    2    0    0  0.00000000000E+00  0.00000000000E+00  0.21152958943E+02  0.12677600796E+03  0.12499883408E+03 0.  0.
    9000005    1    3    3    0    0 -0.36786186792E+01  0.22025620662E+00  0.73846067336E+02  0.73944725364E+02  0.10000000000E+01 0.  0.
    9000005    1    3    3    0    0  0.36786186792E+01 -0.22025620662E+00 -0.52693108393E+02  0.52831282592E+02  0.10000000000E+01 0.  0.
<mgrwt>
<rscale>  0 0.12499883E+03</rscale>
<asrwt>0</asrwt>
<pdfrwt beam="2">  1        4 0.81248500E-02 0.12499883E+03</pdfrwt>
<pdfrwt beam="1">  1       -4 0.11379151E-01 0.12499883E+03</pdfrwt>
<totfact> 0.10414290E+04</totfact>
</mgrwt>
</event>
<event>
 5    1  0.3246948E-002  0.1250104E+03  0.7818608E-02  0.1235053E+00
         -4   -1    0    0    0  501 -0.00000000000E+00  0.00000000000E+00  0.29166677252E+02  0.29194313863E+02  0.12700000000E+01 0.  1.
          4   -1    0    0  501    0  0.00000000000E+00 -0.00000000000E+00 -0.13385683152E+03  0.13386285611E+03  0.12700000000E+01 0.  1.
         25    2    1    2    0    0  0.00000000000E+00  0.00000000000E+00 -0.10469015427E+03  0.16305716997E+03  0.12501044868E+03 0.  0.
    9000005    1    3    3    0    0 -0.38372238788E+02 -0.25907970584E+02  0.24103941235E+01  0.46373070302E+02  0.10000000000E+01 0.  0.
    9000005    1    3    3    0    0  0.38372238788E+02  0.25907970584E+02 -0.10710054840E+03  0.11668409967E+03  0.10000000000E+01 0.  0.
<mgrwt>
<rscale>  0 0.12501045E+03</rscale>
<asrwt>0</asrwt>
<pdfrwt beam="2">  1        4 0.20595948E-01 0.12501045E+03</pdfrwt>
<pdfrwt beam="1">  1       -4 0.44897705E-02 0.12501045E+03</pdfrwt>
<totfact> 0.96733891E+03</totfact>
</mgrwt>
</event>
<event>
 5    1  0.3246948E-002  0.1250050E+03  0.7818608E-02  0.1235061E+00
         -4   -1    0    0    0  501 -0.00000000000E+00  0.00000000000E+00  0.43855539163E+02  0.43873924093E+02  0.12700000000E+01 0. -1.
          4   -1    0    0  501    0  0.00000000000E+00 -0.00000000000E+00 -0.89036383774E+02  0.89045440847E+02  0.12700000000E+01 0. -1.
         25    2    1    2    0    0  0.00000000000E+00  0.00000000000E+00 -0.45180844611E+02  0.13291936494E+03  0.12500499532E+03 0.  0.
    9000005    1    3    3    0    0  0.55683547488E+02  0.28362582097E+02 -0.21862468684E+02  0.66212242532E+02  0.10000000000E+01 0.  0.
    9000005    1    3    3    0    0 -0.55683547488E+02 -0.28362582097E+02 -0.23318375926E+02  0.66707122408E+02  0.10000000000E+01 0.  0.
<mgrwt>
<rscale>  0 0.12500500E+03</rscale>
<asrwt>0</asrwt>
<pdfrwt beam="2">  1        4 0.13700016E-01 0.12500500E+03</pdfrwt>
<pdfrwt beam="1">  1       -4 0.67491170E-02 0.12500500E+03</pdfrwt>
<totfact> 0.10280955E+04</totfact>
</mgrwt>
</event>
<event>
 5    1  0.3246948E-002  0.1249986E+03  0.7818608E-02  0.1235071E+00
          4   -1    0    0  501    0  0.00000000000E+00  0.00000000000E+00  0.26432467069E+02  0.26462959309E+02  0.12700000000E+01 0.  1.
         -4   -1    0    0    0  501 -0.00000000000E+00 -0.00000000000E+00 -0.14766054337E+03  0.14766600479E+03  0.12700000000E+01 0.  1.
         25    2    1    2    0    0  0.00000000000E+00  0.00000000000E+00 -0.12122807630E+03  0.17412896409E+03  0.12499859860E+03 0.  0.
    9000005    1    3    3    0    0  0.57130635299E+02  0.25210624096E+02 -0.57294795998E+02  0.84753635352E+02  0.10000000000E+01 0.  0.
    9000005    1    3    3    0    0 -0.57130635299E+02 -0.25210624096E+02 -0.63933280306E+02  0.89375328742E+02  0.10000000000E+01 0.  0.
<mgrwt>
<rscale>  0 0.12499860E+03</rscale>
<asrwt>0</asrwt>
<pdfrwt beam="1">  1        4 0.40692992E-02 0.12499860E+03</pdfrwt>
<pdfrwt beam="2">  1       -4 0.22719772E-01 0.12499860E+03</pdfrwt>
<totfact> 0.94687589E+03</totfact>
</mgrwt>
</event>
<event>
 5    1  0.3246948E-002  0.1249973E+03  0.7818608E-02  0.1235074E+00
          4   -1    0    0  501    0  0.00000000000E+00  0.00000000000E+00  0.15224303583E+03  0.15224833286E+03  0.12700000000E+01 0.  1.
         -4   -1    0    0    0  501 -0.00000000000E+00 -0.00000000000E+00 -0.25635412154E+02  0.25666851313E+02  0.12700000000E+01 0.  1.
         25    2    1    2    0    0  0.00000000000E+00  0.00000000000E+00  0.12660762367E+03  0.17791518417E+03  0.12499728952E+03 0.  0.
    9000005    1    3    3    0    0  0.47557602561E+02  0.94224885293E+01  0.11942383011E+03  0.12889359973E+03  0.10000000000E+01 0.  0.
    9000005    1    3    3    0    0 -0.47557602561E+02 -0.94224885293E+01  0.71837935575E+01  0.49021584443E+02  0.10000000000E+01 0.  0.
<mgrwt>
<rscale>  0 0.12499729E+03</rscale>
<asrwt>0</asrwt>
<pdfrwt beam="1">  1        4 0.23424831E-01 0.12499729E+03</pdfrwt>
<pdfrwt beam="2">  1       -4 0.39467354E-02 0.12499729E+03</pdfrwt>
<totfact> 0.93999342E+03</totfact>
</mgrwt>
</event>
<event>
 5    1  0.3246948E-002  0.1249977E+03  0.7818608E-02  0.1235073E+00
          4   -1    0    0  501    0  0.00000000000E+00  0.00000000000E+00  0.36594539197E+03  0.36594759570E+03  0.12700000000E+01 0.  1.
         -4   -1    0    0    0  501 -0.00000000000E+00 -0.00000000000E+00 -0.10633997092E+02  0.10709565545E+02  0.12700000000E+01 0.  1.
         25    2    1    2    0    0  0.00000000000E+00  0.00000000000E+00  0.35531139487E+03  0.37665716125E+03  0.12499771915E+03 0.  0.
    9000005    1    3    3    0    0 -0.17265260937E+02 -0.44645218777E+02  0.56603676533E+02  0.74136772198E+02  0.10000000000E+01 0.  0.
    9000005    1    3    3    0    0  0.17265260937E+02  0.44645218777E+02  0.29870771834E+03  0.30252038905E+03  0.10000000000E+01 0.  0.
<mgrwt>
<rscale>  0 0.12499772E+03</rscale>
<asrwt>0</asrwt>
<pdfrwt beam="1">  1        4 0.56305269E-01 0.12499772E+03</pdfrwt>
<pdfrwt beam="2">  1       -4 0.16419822E-02 0.12499772E+03</pdfrwt>
<totfact> 0.66891550E+03</totfact>
</mgrwt>
</event>
<event>
 5    1  0.3246948E-002  0.1249967E+03  0.7818608E-02  0.1235074E+00
          4   -1    0    0  501    0  0.00000000000E+00  0.00000000000E+00  0.23778194400E+03  0.23778533553E+03  0.12700000000E+01 0.  1.
         -4   -1    0    0    0  501 -0.00000000000E+00 -0.00000000000E+00 -0.16398950726E+02  0.16448054137E+02  0.12700000000E+01 0.  1.
         25    2    1    2    0    0  0.00000000000E+00  0.00000000000E+00  0.22138299327E+03  0.25423338967E+03  0.12499674680E+03 0.  0.
    9000005    1    3    3    0    0  0.97492962912E+01 -0.78495145261E-01 -0.14852484002E+02  0.17794696420E+02  0.10000000000E+01 0.  0.
    9000005    1    3    3    0    0 -0.97492962912E+01  0.78495145261E-01  0.23623547728E+03  0.23643869324E+03  0.10000000000E+01 0.  0.
<mgrwt>
<rscale>  0 0.12499675E+03</rscale>
<asrwt>0</asrwt>
<pdfrwt beam="1">  1        4 0.36585875E-01 0.12499675E+03</pdfrwt>
<pdfrwt beam="2">  1       -4 0.25269536E-02 0.12499675E+03</pdfrwt>
<totfact> 0.81728116E+03</totfact>
</mgrwt>
</event>
<event>
 5    1  0.3246948E-002  0.1250012E+03  0.7818608E-02  0.1235067E+00
          4   -1    0    0  501    0  0.00000000000E+00  0.00000000000E+00  0.44073074160E+01  0.45866391464E+01  0.12700000000E+01 0.  1.
         -4   -1    0    0    0  501 -0.00000000000E+00 -0.00000000000E+00 -0.86847686529E+03  0.86847779387E+03  0.12700000000E+01 0.  1.
         25    2    1    2    0    0  0.00000000000E+00  0.00000000000E+00 -0.86406955787E+03  0.87306443301E+03  0.12500121340E+03 0.  0.
    9000005    1    3    3    0    0  0.46906415038E+02  0.39649043413E+02 -0.35146578506E+03  0.35679329658E+03  0.10000000000E+01 0.  0.
    9000005    1    3    3    0    0 -0.46906415038E+02 -0.39649043413E+02 -0.51260377281E+03  0.51627113643E+03  0.10000000000E+01 0.  0.
<mgrwt>
<rscale>  0 0.12500121E+03</rscale>
<asrwt>0</asrwt>
<pdfrwt beam="1">  1        4 0.69191416E-03 0.12500121E+03</pdfrwt>
<pdfrwt beam="2">  1       -4 0.13362556E+00 0.12500121E+03</pdfrwt>
<totfact> 0.35200748E+03</totfact>
</mgrwt>
</event>
<event>
 5    1  0.3246948E-002  0.1249948E+03  0.7818608E-02  0.1235077E+00
         -4   -1    0    0    0  501 -0.00000000000E+00  0.00000000000E+00  0.85316481799E+01  0.86256547963E+01  0.12700000000E+01 0.  1.
          4   -1    0    0  501    0  0.00000000000E+00 -0.00000000000E+00 -0.45521272182E+03  0.45521449340E+03  0.12700000000E+01 0.  1.
         25    2    1    2    0    0  0.00000000000E+00  0.00000000000E+00 -0.44668107364E+03  0.46384014820E+03  0.12499480604E+03 0.  0.
    9000005    1    3    3    0    0  0.18345266212E+01  0.75689881127E+01  0.67418260852E+01  0.10349265092E+02  0.10000000000E+01 0.  0.
    9000005    1    3    3    0    0 -0.18345266212E+01 -0.75689881127E+01 -0.45342289972E+03  0.45349088311E+03  0.10000000000E+01 0.  0.
<mgrwt>
<rscale>  0 0.12499481E+03</rscale>
<asrwt>0</asrwt>
<pdfrwt beam="2">  1        4 0.70040075E-01 0.12499481E+03</pdfrwt>
<pdfrwt beam="1">  1       -4 0.13199292E-02 0.12499481E+03</pdfrwt>
<totfact> 0.58790029E+03</totfact>
</mgrwt>
</event>
<event>
 5    1  0.3246948E-002  0.1250004E+03  0.7818608E-02  0.1235069E+00
         -4   -1    0    0    0  501 -0.00000000000E+00  0.00000000000E+00  0.31535138432E+02  0.31560701132E+02  0.12700000000E+01 0. -1.
          4   -1    0    0  501    0  0.00000000000E+00 -0.00000000000E+00 -0.12379160903E+03  0.12379812343E+03  0.12700000000E+01 0. -1.
         25    2    1    2    0    0  0.00000000000E+00  0.00000000000E+00 -0.92256470594E+02  0.15535882456E+03  0.12500043201E+03 0.  0.
    9000005    1    3    3    0    0  0.41799089126E+02 -0.19782061937E+02  0.61133130430E+01  0.46656901126E+02  0.10000000000E+01 0.  0.
    9000005    1    3    3    0    0 -0.41799089126E+02  0.19782061937E+02 -0.98369783638E+02  0.10870192344E+03  0.10000000000E+01 0.  0.
<mgrwt>
<rscale>  0 0.12500043E+03</rscale>
<asrwt>0</asrwt>
<pdfrwt beam="2">  1        4 0.19047330E-01 0.12500043E+03</pdfrwt>
<pdfrwt beam="1">  1       -4 0.48540273E-02 0.12500043E+03</pdfrwt>
<totfact> 0.98244149E+03</totfact>
</mgrwt>
</event>
<event>
 5    1  0.3246948E-002  0.1249990E+03  0.7818608E-02  0.1235071E+00
          4   -1    0    0  501    0  0.00000000000E+00  0.00000000000E+00  0.10536506014E+02  0.10612768676E+02  0.12700000000E+01 0.  1.
         -4   -1    0    0    0  501 -0.00000000000E+00 -0.00000000000E+00 -0.36931453322E+03  0.36931671685E+03  0.12700000000E+01 0.  1.
         25    2    1    2    0    0  0.00000000000E+00  0.00000000000E+00 -0.35877802720E+03  0.37992948553E+03  0.12499896467E+03 0.  0.
    9000005    1    3    3    0    0 -0.46718120788E+02  0.32565345237E+02 -0.10117967184E+03  0.11610947642E+03  0.10000000000E+01 0.  0.
    9000005    1    3    3    0    0  0.46718120788E+02 -0.32565345237E+02 -0.25759835536E+03  0.26382000911E+03  0.10000000000E+01 0.  0.
<mgrwt>
<rscale>  0 0.12499896E+03</rscale>
<asrwt>0</asrwt>
<pdfrwt beam="1">  1        4 0.16270355E-02 0.12499896E+03</pdfrwt>
<pdfrwt beam="2">  1       -4 0.56823645E-01 0.12499896E+03</pdfrwt>
<totfact> 0.66554291E+03</totfact>
</mgrwt>
</event>
<event>
 5    1  0.3246948E-002  0.1250113E+03  0.7818608E-02  0.1235052E+00
          4   -1    0    0  501    0  0.00000000000E+00  0.00000000000E+00  0.17299062769E+02  0.17345618256E+02  0.12700000000E+01 0.  1.
         -4   -1    0    0    0  501 -0.00000000000E+00 -0.00000000000E+00 -0.22549612614E+03  0.22549970245E+03  0.12700000000E+01 0.  1.
         25    2    1    2    0    0  0.00000000000E+00  0.00000000000E+00 -0.20819706337E+03  0.24284532071E+03  0.12501132985E+03 0.  0.
    9000005    1    3    3    0    0 -0.93327938524E-01  0.56295090934E+02 -0.15682865186E+03  0.16662944523E+03  0.10000000000E+01 0.  0.
    9000005    1    3    3    0    0  0.93327938524E-01 -0.56295090934E+02 -0.51368411512E+02  0.76215875476E+02  0.10000000000E+01 0.  0.
<mgrwt>
<rscale>  0 0.12501133E+03</rscale>
<asrwt>0</asrwt>
<pdfrwt beam="1">  1        4 0.26652507E-02 0.12501133E+03</pdfrwt>
<pdfrwt beam="2">  1       -4 0.34695566E-01 0.12501133E+03</pdfrwt>
<totfact> 0.83354374E+03</totfact>
</mgrwt>
</event>
<event>
 5    1  0.3246948E-002  0.1250042E+03  0.7818608E-02  0.1235063E+00
         -4   -1    0    0    0  501 -0.00000000000E+00  0.00000000000E+00  0.31004469130E+02  0.31030468995E+02  0.12700000000E+01 0.  1.
          4   -1    0    0  501    0  0.00000000000E+00 -0.00000000000E+00 -0.12591645456E+03  0.12592285904E+03  0.12700000000E+01 0.  1.
         25    2    1    2    0    0  0.00000000000E+00  0.00000000000E+00 -0.94911985428E+02  0.15695332803E+03  0.12500424874E+03 0.  0.
    9000005    1    3    3    0    0 -0.57336139036E+02 -0.20218132551E+02 -0.29290776803E+02  0.67491890840E+02  0.10000000000E+01 0.  0.
    9000005    1    3    3    0    0  0.57336139036E+02  0.20218132551E+02 -0.65621208625E+02  0.89461437194E+02  0.10000000000E+01 0.  0.
<mgrwt>
<rscale>  0 0.12500425E+03</rscale>
<asrwt>0</asrwt>
<pdfrwt beam="2">  1        4 0.19374255E-01 0.12500425E+03</pdfrwt>
<pdfrwt beam="1">  1       -4 0.47724110E-02 0.12500425E+03</pdfrwt>
<totfact> 0.97924040E+03</totfact>
</mgrwt>
</event>
<event>
 5    1  0.3246948E-002  0.1250001E+03  0.7818608E-02  0.1235069E+00
          4   -1    0    0  501    0  0.00000000000E+00  0.00000000000E+00  0.86945495833E+02  0.86954770690E+02  0.12700000000E+01 0.  1.
         -4   -1    0    0    0  501 -0.00000000000E+00 -0.00000000000E+00 -0.44906971584E+02  0.44924926231E+02  0.12700000000E+01 0.  1.
         25    2    1    2    0    0  0.00000000000E+00  0.00000000000E+00  0.42038524249E+02  0.13187969692E+03  0.12500006776E+03 0.  0.
    9000005    1    3    3    0    0  0.61982417546E+02 -0.63510330939E+01  0.26089867923E+02  0.67556175991E+02  0.10000000000E+01 0.  0.
    9000005    1    3    3    0    0 -0.61982417546E+02  0.63510330939E+01  0.15948656326E+02  0.64323520930E+02  0.10000000000E+01 0.  0.
<mgrwt>
<rscale>  0 0.12500007E+03</rscale>
<asrwt>0</asrwt>
<pdfrwt beam="1">  1        4 0.13378325E-01 0.12500007E+03</pdfrwt>
<pdfrwt beam="2">  1       -4 0.69108595E-02 0.12500007E+03</pdfrwt>
<totfact> 0.10304251E+04</totfact>
</mgrwt>
</event>
<event>
 5    1  0.3246948E-002  0.1250030E+03  0.7818608E-02  0.1235065E+00
         -4   -1    0    0    0  501 -0.00000000000E+00  0.00000000000E+00  0.13040398963E+03  0.13041017373E+03  0.12700000000E+01 0. -1.
          4   -1    0    0  501    0  0.00000000000E+00 -0.00000000000E+00 -0.29936045019E+02  0.29962972005E+02  0.12700000000E+01 0. -1.
         25    2    1    2    0    0  0.00000000000E+00  0.00000000000E+00  0.10046794461E+03  0.16037314573E+03  0.12500295188E+03 0.  0.
    9000005    1    3    3    0    0  0.77979117850E+01  0.61361261774E+02  0.61667585175E+02  0.87349315601E+02  0.10000000000E+01 0.  0.
    9000005    1    3    3    0    0 -0.77979117850E+01 -0.61361261774E+02  0.38800359439E+02  0.73023830133E+02  0.10000000000E+01 0.  0.
<mgrwt>
<rscale>  0 0.12500295E+03</rscale>
<asrwt>0</asrwt>
<pdfrwt beam="2">  1        4 0.46080924E-02 0.12500295E+03</pdfrwt>
<pdfrwt beam="1">  1       -4 0.20064699E-01 0.12500295E+03</pdfrwt>
<totfact> 0.97264440E+03</totfact>
</mgrwt>
</event>
<event>
 5    1  0.3246948E-002  0.1250017E+03  0.7818608E-02  0.1235067E+00
          4   -1    0    0  501    0  0.00000000000E+00  0.00000000000E+00  0.22377013206E+03  0.22377373595E+03  0.12700000000E+01 0. -1.
         -4   -1    0    0    0  501 -0.00000000000E+00 -0.00000000000E+00 -0.17430151235E+02  0.17476357518E+02  0.12700000000E+01 0. -1.
         25    2    1    2    0    0  0.00000000000E+00  0.00000000000E+00  0.20633998082E+03  0.24125009347E+03  0.12500167964E+03 0.  0.
    9000005    1    3    3    0    0 -0.18787660418E+02  0.54893726606E+02  0.14797939958E+03  0.15895030703E+03  0.10000000000E+01 0.  0.
    9000005    1    3    3    0    0  0.18787660418E+02 -0.54893726606E+02  0.58360581240E+02  0.82299786436E+02  0.10000000000E+01 0.  0.
<mgrwt>
<rscale>  0 0.12500168E+03</rscale>
<asrwt>0</asrwt>
<pdfrwt beam="1">  1        4 0.34430006E-01 0.12500168E+03</pdfrwt>
<pdfrwt beam="2">  1       -4 0.26853933E-02 0.12500168E+03</pdfrwt>
<totfact> 0.83608408E+03</totfact>
</mgrwt>
</event>
<event>
 5    1  0.3246948E-002  0.1249995E+03  0.7818608E-02  0.1235070E+00
          4   -1    0    0  501    0  0.00000000000E+00  0.00000000000E+00  0.39645816011E+02  0.39666152160E+02  0.12700000000E+01 0. -1.
         -4   -1    0    0    0  501 -0.00000000000E+00 -0.00000000000E+00 -0.98478259789E+02  0.98486448566E+02  0.12700000000E+01 0. -1.
         25    2    1    2    0    0  0.00000000000E+00  0.00000000000E+00 -0.58832443778E+02  0.13815260073E+03  0.12499953858E+03 0.  0.
    9000005    1    3    3    0    0 -0.74113303782E+01  0.24758558348E+02  0.33468132579E+02  0.42296925749E+02  0.10000000000E+01 0.  0.
    9000005    1    3    3    0    0  0.74113303782E+01 -0.24758558348E+02 -0.92300576357E+02  0.95855674977E+02  0.10000000000E+01 0.  0.
<mgrwt>
<rscale>  0 0.12499954E+03</rscale>
<asrwt>0</asrwt>
<pdfrwt beam="1">  1        4 0.61015506E-02 0.12499954E+03</pdfrwt>
<pdfrwt beam="2">  1       -4 0.15152696E-01 0.12499954E+03</pdfrwt>
<totfact> 0.10172124E+04</totfact>
</mgrwt>
</event>
<event>
 5    1  0.3246948E-002  0.1250086E+03  0.7818608E-02  0.1235056E+00
         -4   -1    0    0    0  501 -0.00000000000E+00  0.00000000000E+00  0.29139990143E+01  0.31787246272E+01  0.12700000000E+01 0. -1.
          4   -1    0    0  501    0  0.00000000000E+00 -0.00000000000E+00 -0.12821778766E+04  0.12821785056E+04  0.12700000000E+01 0. -1.
         25    2    1    2    0    0  0.00000000000E+00  0.00000000000E+00 -0.12792638776E+04  0.12853572302E+04  0.12500856259E+03 0.  0.
    9000005    1    3    3    0    0 -0.35055146138E+02 -0.43716604446E+02 -0.92416727457E+03  0.92586508529E+03  0.10000000000E+01 0.  0.
    9000005    1    3    3    0    0  0.35055146138E+02  0.43716604446E+02 -0.35509660302E+03  0.35949214491E+03  0.10000000000E+01 0.  0.
<mgrwt>
<rscale>  0 0.12500856E+03</rscale>
<asrwt>0</asrwt>
<pdfrwt beam="2">  1        4 0.19727812E+00 0.12500856E+03</pdfrwt>
<pdfrwt beam="1">  1       -4 0.46872046E-03 0.12500856E+03</pdfrwt>
<totfact> 0.22572619E+03</totfact>
</mgrwt>
</event>
<event>
 5    1  0.3246948E-002  0.1249990E+03  0.7818608E-02  0.1235071E+00
          4   -1    0    0  501    0  0.00000000000E+00  0.00000000000E+00  0.18297510955E+02  0.18341532301E+02  0.12700000000E+01 0.  1.
         -4   -1    0    0    0  501 -0.00000000000E+00 -0.00000000000E+00 -0.21317950292E+03  0.21318328584E+03  0.12700000000E+01 0.  1.
         25    2    1    2    0    0  0.00000000000E+00  0.00000000000E+00 -0.19488199196E+03  0.23152481814E+03  0.12499900250E+03 0.  0.
    9000005    1    3    3    0    0 -0.58354218665E+02 -0.22319398600E+02 -0.94944100649E+02  0.11366069082E+03  0.10000000000E+01 0.  0.
    9000005    1    3    3    0    0  0.58354218665E+02  0.22319398600E+02 -0.99937891312E+02  0.11786412732E+03  0.10000000000E+01 0.  0.
<mgrwt>
<rscale>  0 0.12499900E+03</rscale>
<asrwt>0</asrwt>
<pdfrwt beam="1">  1        4 0.28186791E-02 0.12499900E+03</pdfrwt>
<pdfrwt beam="2">  1       -4 0.32800522E-01 0.12499900E+03</pdfrwt>
<totfact> 0.85077902E+03</totfact>
</mgrwt>
</event>
<event>
 5    1  0.3246948E-002  0.1250001E+03  0.7818608E-02  0.1235069E+00
          4   -1    0    0  501    0  0.00000000000E+00  0.00000000000E+00  0.35350774923E+01  0.37562844509E+01  0.12700000000E+01 0.  1.
         -4   -1    0    0    0  501 -0.00000000000E+00 -0.00000000000E+00 -0.10712538975E+04  0.10712546503E+04  0.12700000000E+01 0.  1.
         25    2    1    2    0    0  0.00000000000E+00  0.00000000000E+00 -0.10677188200E+04  0.10750109348E+04  0.12500012502E+03 0.  0.
    9000005    1    3    3    0    0 -0.12613170259E+02  0.49915926667E+01 -0.92369931651E+01  0.16441718404E+02  0.10000000000E+01 0.  0.
    9000005    1    3    3    0    0  0.12613170259E+02 -0.49915926667E+01 -0.10584818269E+04  0.10585692164E+04  0.10000000000E+01 0.  0.
<mgrwt>
<rscale>  0 0.12500013E+03</rscale>
<asrwt>0</asrwt>
<pdfrwt beam="1">  1        4 0.56093276E-03 0.12500013E+03</pdfrwt>
<pdfrwt beam="2">  1       -4 0.16482511E+00 0.12500013E+03</pdfrwt>
<totfact> 0.28226475E+03</totfact>
</mgrwt>
</event>
<event>
 5    1  0.3246948E-002  0.1249805E+03  0.7818608E-02  0.1235100E+00
         -4   -1    0    0    0  501 -0.00000000000E+00  0.00000000000E+00  0.19084454610E+02  0.19126664836E+02  0.12700000000E+01 0.  1.
          4   -1    0    0  501    0  0.00000000000E+00 -0.00000000000E+00 -0.20434826551E+03  0.20435221192E+03  0.12700000000E+01 0.  1.
         25    2    1    2    0    0  0.00000000000E+00  0.00000000000E+00 -0.18526381090E+03  0.22347887676E+03  0.12498051339E+03 0.  0.
    9000005    1    3    3    0    0  0.28545630691E+02  0.15766629000E+02 -0.18793316668E+03  0.19074410806E+03  0.10000000000E+01 0.  0.
    9000005    1    3    3    0    0 -0.28545630691E+02 -0.15766629000E+02  0.26693557753E+01  0.32734768700E+02  0.10000000000E+01 0.  0.
<mgrwt>
<rscale>  0 0.12498051E+03</rscale>
<asrwt>0</asrwt>
<pdfrwt beam="2">  1        4 0.31441744E-01 0.12498051E+03</pdfrwt>
<pdfrwt beam="1">  1       -4 0.29396206E-02 0.12498051E+03</pdfrwt>
<totfact> 0.86358411E+03</totfact>
</mgrwt>
</event>
<event>
 5    1  0.3246948E-002  0.1250019E+03  0.7818608E-02  0.1235066E+00
          4   -1    0    0  501    0  0.00000000000E+00  0.00000000000E+00  0.12072405568E+02  0.12139022868E+02  0.12700000000E+01 0. -1.
         -4   -1    0    0    0  501 -0.00000000000E+00 -0.00000000000E+00 -0.32262006406E+03  0.32262256374E+03  0.12700000000E+01 0. -1.
         25    2    1    2    0    0  0.00000000000E+00  0.00000000000E+00 -0.31054765849E+03  0.33476158661E+03  0.12500188668E+03 0.  0.
    9000005    1    3    3    0    0  0.58772080114E+02  0.15276605814E+02 -0.11574775253E+03  0.13071371122E+03  0.10000000000E+01 0.  0.
    9000005    1    3    3    0    0 -0.58772080114E+02 -0.15276605814E+02 -0.19479990597E+03  0.20404787539E+03  0.10000000000E+01 0.  0.
<mgrwt>
<rscale>  0 0.12500189E+03</rscale>
<asrwt>0</asrwt>
<pdfrwt beam="1">  1        4 0.18626101E-02 0.12500189E+03</pdfrwt>
<pdfrwt beam="2">  1       -4 0.49639166E-01 0.12500189E+03</pdfrwt>
<totfact> 0.71431174E+03</totfact>
</mgrwt>
</event>
<event>
 5    1  0.3246948E-002  0.1249986E+03  0.7818608E-02  0.1235071E+00
         -4   -1    0    0    0  501 -0.00000000000E+00  0.00000000000E+00  0.18111552690E+03  0.18111997952E+03  0.12700000000E+01 0. -1.
          4   -1    0    0  501    0  0.00000000000E+00 -0.00000000000E+00 -0.21543823064E+02  0.21581223603E+02  0.12700000000E+01 0. -1.
         25    2    1    2    0    0  0.00000000000E+00  0.00000000000E+00  0.15957170383E+03  0.20270120313E+03  0.12499859633E+03 0.  0.
    9000005    1    3    3    0    0 -0.35627815942E+02  0.43788744049E+02  0.12324931690E+03  0.13556618122E+03  0.10000000000E+01 0.  0.
    9000005    1    3    3    0    0  0.35627815942E+02 -0.43788744049E+02  0.36322386933E+02  0.67135021908E+02  0.10000000000E+01 0.  0.
<mgrwt>
<rscale>  0 0.12499860E+03</rscale>
<asrwt>0</asrwt>
<pdfrwt beam="2">  1        4 0.33176539E-02 0.12499860E+03</pdfrwt>
<pdfrwt beam="1">  1       -4 0.27867146E-01 0.12499860E+03</pdfrwt>
<totfact> 0.89684735E+03</totfact>
</mgrwt>
</event>
<event>
 5    1  0.3246948E-002  0.1249995E+03  0.7818608E-02  0.1235070E+00
          4   -1    0    0  501    0  0.00000000000E+00  0.00000000000E+00  0.84317414317E+02  0.84326978228E+02  0.12700000000E+01 0.  1.
         -4   -1    0    0    0  501 -0.00000000000E+00 -0.00000000000E+00 -0.46306646531E+02  0.46324058683E+02  0.12700000000E+01 0.  1.
         25    2    1    2    0    0  0.00000000000E+00  0.00000000000E+00  0.38010767786E+02  0.13065103691E+03  0.12499949991E+03 0.  0.
    9000005    1    3    3    0    0 -0.44380273741E+02  0.34902413165E+02  0.47001309895E+02  0.73470472123E+02  0.10000000000E+01 0.  0.
    9000005    1    3    3    0    0  0.44380273741E+02 -0.34902413165E+02 -0.89905421092E+01  0.57180564788E+02  0.10000000000E+01 0.  0.
<mgrwt>
<rscale>  0 0.12499950E+03</rscale>
<asrwt>0</asrwt>
<pdfrwt beam="1">  1        4 0.12973985E-01 0.12499950E+03</pdfrwt>
<pdfrwt beam="2">  1       -4 0.71261745E-02 0.12499950E+03</pdfrwt>
<totfact> 0.10330693E+04</totfact>
</mgrwt>
</event>
<event>
 5    1  0.3246948E-002  0.1250010E+03  0.7818608E-02  0.1235068E+00
         -4   -1    0    0    0  501 -0.00000000000E+00  0.00000000000E+00  0.14094542324E+03  0.14095114484E+03  0.12700000000E+01 0.  1.
          4   -1    0    0  501    0  0.00000000000E+00 -0.00000000000E+00 -0.27694216226E+02  0.27723320731E+02  0.12700000000E+01 0.  1.
         25    2    1    2    0    0  0.00000000000E+00  0.00000000000E+00  0.11325120701E+03  0.16867446557E+03  0.12500095778E+03 0.  0.
    9000005    1    3    3    0    0  0.56726903589E+02 -0.25709649095E+02  0.49694671757E+02  0.79683674918E+02  0.10000000000E+01 0.  0.
    9000005    1    3    3    0    0 -0.56726903589E+02  0.25709649095E+02  0.63556535254E+02  0.88990790652E+02  0.10000000000E+01 0.  0.
<mgrwt>
<rscale>  0 0.12500096E+03</rscale>
<asrwt>0</asrwt>
<pdfrwt beam="2">  1        4 0.42633276E-02 0.12500096E+03</pdfrwt>
<pdfrwt beam="1">  1       -4 0.21686590E-01 0.12500096E+03</pdfrwt>
<totfact> 0.95693939E+03</totfact>
</mgrwt>
</event>
<event>
 5    1  0.3246948E-002  0.1250004E+03  0.7818608E-02  0.1235069E+00
         -4   -1    0    0    0  501 -0.00000000000E+00  0.00000000000E+00  0.11196182912E+03  0.11196903179E+03  0.12700000000E+01 0.  1.
          4   -1    0    0  501    0  0.00000000000E+00 -0.00000000000E+00 -0.34869459637E+02  0.34892579661E+02  0.12700000000E+01 0.  1.
         25    2    1    2    0    0  0.00000000000E+00  0.00000000000E+00  0.77092369481E+02  0.14686161145E+03  0.12500039794E+03 0.  0.
    9000005    1    3    3    0    0 -0.23841945567E+02 -0.47973129031E+02  0.74075297774E+00  0.53585522228E+02  0.10000000000E+01 0.  0.
    9000005    1    3    3    0    0  0.23841945567E+02  0.47973129031E+02  0.76351616503E+02  0.93276089220E+02  0.10000000000E+01 0.  0.
<mgrwt>
<rscale>  0 0.12500040E+03</rscale>
<asrwt>0</asrwt>
<pdfrwt beam="2">  1        4 0.53668647E-02 0.12500040E+03</pdfrwt>
<pdfrwt beam="1">  1       -4 0.17227230E-01 0.12500040E+03</pdfrwt>
<totfact> 0.99932113E+03</totfact>
</mgrwt>
</event>
<event>
 5    1  0.3246948E-002  0.1249982E+03  0.7818608E-02  0.1235072E+00
          4   -1    0    0  501    0  0.00000000000E+00  0.00000000000E+00  0.28369755963E+03  0.28370040225E+03  0.12700000000E+01 0. -1.
         -4   -1    0    0    0  501 -0.00000000000E+00 -0.00000000000E+00 -0.13736462947E+02  0.13795046730E+02  0.12700000000E+01 0. -1.
         25    2    1    2    0    0  0.00000000000E+00  0.00000000000E+00  0.26996109668E+03  0.29749544898E+03  0.12499819377E+03 0.  0.
    9000005    1    3    3    0    0  0.16276040180E+02 -0.20561766370E+02 -0.18874316571E-01  0.26243019576E+02  0.10000000000E+01 0.  0.
    9000005    1    3    3    0    0 -0.16276040180E+02  0.20561766370E+02  0.26997997100E+03  0.27125242941E+03  0.10000000000E+01 0.  0.
<mgrwt>
<rscale>  0 0.12499819E+03</rscale>
<asrwt>0</asrwt>
<pdfrwt beam="1">  1        4 0.43650504E-01 0.12499819E+03</pdfrwt>
<pdfrwt beam="2">  1       -4 0.21180271E-02 0.12499819E+03</pdfrwt>
<totfact> 0.75917125E+03</totfact>
</mgrwt>
</event>
<event>
 5    1  0.3246948E-002  0.1249936E+03  0.7818608E-02  0.1235079E+00
          4   -1    0    0  501    0  0.00000000000E+00  0.00000000000E+00  0.49510508388E+02  0.49526794171E+02  0.12700000000E+01 0. -1.
         -4   -1    0    0    0  501 -0.00000000000E+00 -0.00000000000E+00 -0.78854972916E+02  0.78865199255E+02  0.12700000000E+01 0. -1.
         25    2    1    2    0    0  0.00000000000E+00  0.00000000000E+00 -0.29344464528E+02  0.12839199343E+03  0.12499362535E+03 0.  0.
    9000005    1    3    3    0    0 -0.30182604283E+01  0.26502355093E+02  0.43374060114E+02  0.50929302099E+02  0.10000000000E+01 0.  0.
    9000005    1    3    3    0    0  0.30182604283E+01 -0.26502355093E+02 -0.72718524642E+02  0.77462691327E+02  0.10000000000E+01 0.  0.
<mgrwt>
<rscale>  0 0.12499363E+03</rscale>
<asrwt>0</asrwt>
<pdfrwt beam="1">  1        4 0.76190407E-02 0.12499363E+03</pdfrwt>
<pdfrwt beam="2">  1       -4 0.12133574E-01 0.12499363E+03</pdfrwt>
<totfact> 0.10380525E+04</totfact>
</mgrwt>
</event>
<event>
 5    1  0.3246948E-002  0.1250047E+03  0.7818608E-02  0.1235062E+00
         -4   -1    0    0    0  501 -0.00000000000E+00  0.00000000000E+00  0.10028475971E+03  0.10029280099E+03  0.12700000000E+01 0.  1.
          4   -1    0    0  501    0  0.00000000000E+00 -0.00000000000E+00 -0.38934552948E+02  0.38955260405E+02  0.12700000000E+01 0.  1.
         25    2    1    2    0    0  0.00000000000E+00  0.00000000000E+00  0.61350206767E+02  0.13924806140E+03  0.12500469884E+03 0.  0.
    9000005    1    3    3    0    0  0.55519664208E+02 -0.68359531099E+01  0.61713557083E+02  0.83299018581E+02  0.10000000000E+01 0.  0.
    9000005    1    3    3    0    0 -0.55519664208E+02  0.68359531099E+01 -0.36335031594E+00  0.55949042817E+02  0.10000000000E+01 0.  0.
<mgrwt>
<rscale>  0 0.12500470E+03</rscale>
<asrwt>0</asrwt>
<pdfrwt beam="2">  1        4 0.59921427E-02 0.12500470E+03</pdfrwt>
<pdfrwt beam="1">  1       -4 0.15430636E-01 0.12500470E+03</pdfrwt>
<totfact> 0.10148119E+04</totfact>
</mgrwt>
</event>
<event>
 5    1  0.3246948E-002  0.1249985E+03  0.7818608E-02  0.1235072E+00
          4   -1    0    0  501    0  0.00000000000E+00  0.00000000000E+00  0.96638283766E+01  0.97469215085E+01  0.12700000000E+01 0.  1.
         -4   -1    0    0    0  501 -0.00000000000E+00 -0.00000000000E+00 -0.40238966076E+03  0.40239166491E+03  0.12700000000E+01 0.  1.
         25    2    1    2    0    0  0.00000000000E+00  0.00000000000E+00 -0.39272583238E+03  0.41213858642E+03  0.12499853996E+03 0.  0.
    9000005    1    3    3    0    0  0.29011309067E+02  0.47702882261E+02 -0.10381124139E+03  0.11787703283E+03  0.10000000000E+01 0.  0.
    9000005    1    3    3    0    0 -0.29011309067E+02 -0.47702882261E+02 -0.28891459100E+03  0.29426155359E+03  0.10000000000E+01 0.  0.
<mgrwt>
<rscale>  0 0.12499854E+03</rscale>
<asrwt>0</asrwt>
<pdfrwt beam="1">  1        4 0.14932891E-02 0.12499854E+03</pdfrwt>
<pdfrwt beam="2">  1       -4 0.61912635E-01 0.12499854E+03</pdfrwt>
<totfact> 0.63391130E+03</totfact>
</mgrwt>
</event>
<event>
 5    1  0.3246948E-002  0.1250030E+03  0.7818608E-02  0.1235065E+00
          4   -1    0    0  501    0  0.00000000000E+00  0.00000000000E+00  0.15692003078E+03  0.15692516994E+03  0.12700000000E+01 0. -1.
         -4   -1    0    0    0  501 -0.00000000000E+00 -0.00000000000E+00 -0.24872689862E+02  0.24905091868E+02  0.12700000000E+01 0. -1.
         25    2    1    2    0    0  0.00000000000E+00  0.00000000000E+00  0.13204734092E+03  0.18183026180E+03  0.12500297542E+03 0.  0.
    9000005    1    3    3    0    0 -0.20848574714E+02 -0.37240911526E+02 -0.37860143428E+00  0.42692995889E+02  0.10000000000E+01 0.  0.
    9000005    1    3    3    0    0  0.20848574714E+02  0.37240911526E+02  0.13242594235E+03  0.13913726592E+03  0.10000000000E+01 0.  0.
<mgrwt>
<rscale>  0 0.12500298E+03</rscale>
<asrwt>0</asrwt>
<pdfrwt beam="1">  1        4 0.24144431E-01 0.12500298E+03</pdfrwt>
<pdfrwt beam="2">  1       -4 0.38294554E-02 0.12500298E+03</pdfrwt>
<totfact> 0.93282361E+03</totfact>
</mgrwt>
</event>
<event>
 5    1  0.3246948E-002  0.1250047E+03  0.7818608E-02  0.1235062E+00
         -4   -1    0    0    0  501 -0.00000000000E+00  0.00000000000E+00  0.96014116326E+01  0.96850402859E+01  0.12700000000E+01 0. -1.
          4   -1    0    0  501    0  0.00000000000E+00 -0.00000000000E+00 -0.40502300730E+03  0.40502499841E+03  0.12700000000E+01 0. -1.
         25    2    1    2    0    0  0.00000000000E+00  0.00000000000E+00 -0.39542159566E+03  0.41471003870E+03  0.12500471143E+03 0.  0.
    9000005    1    3    3    0    0 -0.16063284057E+02  0.48024603396E+02 -0.76216105991E+02  0.91511127402E+02  0.10000000000E+01 0.  0.
    9000005    1    3    3    0    0  0.16063284057E+02 -0.48024603396E+02 -0.31920548967E+03  0.32319891130E+03  0.10000000000E+01 0.  0.
<mgrwt>
<rscale>  0 0.12500471E+03</rscale>
<asrwt>0</asrwt>
<pdfrwt beam="2">  1        4 0.62317805E-01 0.12500471E+03</pdfrwt>
<pdfrwt beam="1">  1       -4 0.14837267E-02 0.12500471E+03</pdfrwt>
<totfact> 0.63140261E+03</totfact>
</mgrwt>
</event>
<event>
 5    1  0.3246948E-002  0.1249991E+03  0.7818608E-02  0.1235071E+00
          4   -1    0    0  501    0  0.00000000000E+00  0.00000000000E+00  0.42619690115E+02  0.42638607921E+02  0.12700000000E+01 0.  1.
         -4   -1    0    0    0  501 -0.00000000000E+00 -0.00000000000E+00 -0.91608732759E+02  0.91617535536E+02  0.12700000000E+01 0.  1.
         25    2    1    2    0    0  0.00000000000E+00  0.00000000000E+00 -0.48989042644E+02  0.13425614346E+03  0.12499914302E+03 0.  0.
    9000005    1    3    3    0    0 -0.39654304172E+02 -0.25008789237E+02  0.19884852462E+02  0.50934376760E+02  0.10000000000E+01 0.  0.
    9000005    1    3    3    0    0  0.39654304172E+02  0.25008789237E+02 -0.68873895106E+02  0.83321766698E+02  0.10000000000E+01 0.  0.
<mgrwt>
<rscale>  0 0.12499914E+03</rscale>
<asrwt>0</asrwt>
<pdfrwt beam="1">  1        4 0.65590078E-02 0.12499914E+03</pdfrwt>
<pdfrwt beam="2">  1       -4 0.14095784E-01 0.12499914E+03</pdfrwt>
<totfact> 0.10253972E+04</totfact>
</mgrwt>
</event>
<event>
 5    1  0.3246948E-002  0.1250019E+03  0.7818608E-02  0.1235066E+00
          4   -1    0    0  501    0  0.00000000000E+00  0.00000000000E+00  0.55088762138E+02  0.55103399296E+02  0.12700000000E+01 0.  1.
         -4   -1    0    0    0  501 -0.00000000000E+00 -0.00000000000E+00 -0.70880719335E+02  0.70892095987E+02  0.12700000000E+01 0.  1.
         25    2    1    2    0    0  0.00000000000E+00  0.00000000000E+00 -0.15791957197E+02  0.12599549528E+03  0.12500191566E+03 0.  0.
    9000005    1    3    3    0    0  0.25404754897E+02 -0.43184807267E+02  0.29751142398E+02  0.58279152568E+02  0.10000000000E+01 0.  0.
    9000005    1    3    3    0    0 -0.25404754897E+02  0.43184807267E+02 -0.45543099595E+02  0.67716342715E+02  0.10000000000E+01 0.  0.
<mgrwt>
<rscale>  0 0.12500192E+03</rscale>
<asrwt>0</asrwt>
<pdfrwt beam="1">  1        4 0.84771952E-02 0.12500192E+03</pdfrwt>
<pdfrwt beam="2">  1       -4 0.10906727E-01 0.12500192E+03</pdfrwt>
<totfact> 0.10430605E+04</totfact>
</mgrwt>
</event>
<event>
 5    1  0.3246948E-002  0.1250044E+03  0.7818608E-02  0.1235062E+00
          4   -1    0    0  501    0  0.00000000000E+00  0.00000000000E+00  0.55646749493E+01  0.57077585173E+01  0.12700000000E+01 0. -1.
         -4   -1    0    0    0  501 -0.00000000000E+00 -0.00000000000E+00 -0.69296725067E+03  0.69296841443E+03  0.12700000000E+01 0. -1.
         25    2    1    2    0    0  0.00000000000E+00  0.00000000000E+00 -0.68740257572E+03  0.69867617295E+03  0.12500437409E+03 0.  0.
    9000005    1    3    3    0    0  0.10734844264E+02 -0.43782097536E+02 -0.58561899319E+03  0.58735229133E+03  0.10000000000E+01 0.  0.
    9000005    1    3    3    0    0 -0.10734844264E+02  0.43782097536E+02 -0.10178358253E+03  0.11132388162E+03  0.10000000000E+01 0.  0.
<mgrwt>
<rscale>  0 0.12500437E+03</rscale>
<asrwt>0</asrwt>
<pdfrwt beam="1">  1        4 0.86720034E-03 0.12500437E+03</pdfrwt>
<pdfrwt beam="2">  1       -4 0.10662137E+00 0.12500437E+03</pdfrwt>
<totfact> 0.43152556E+03</totfact>
</mgrwt>
</event>
<event>
 5    1  0.3246948E-002  0.1250015E+03  0.7818608E-02  0.1235067E+00
         -4   -1    0    0    0  501 -0.00000000000E+00  0.00000000000E+00  0.23400035268E+02  0.23434473550E+02  0.12700000000E+01 0.  1.
          4   -1    0    0  501    0  0.00000000000E+00 -0.00000000000E+00 -0.16677787481E+03  0.16678271022E+03  0.12700000000E+01 0.  1.
         25    2    1    2    0    0  0.00000000000E+00  0.00000000000E+00 -0.14337783955E+03  0.19021718377E+03  0.12500148850E+03 0.  0.
    9000005    1    3    3    0    0  0.32104863196E+02 -0.52811498654E+02 -0.57612694923E+02  0.84498516243E+02  0.10000000000E+01 0.  0.
    9000005    1    3    3    0    0 -0.32104863196E+02  0.52811498654E+02 -0.85765144623E+02  0.10571866752E+03  0.10000000000E+01 0.  0.
<mgrwt>
<rscale>  0 0.12500149E+03</rscale>
<asrwt>0</asrwt>
<pdfrwt beam="2">  1        4 0.25661155E-01 0.12500149E+03</pdfrwt>
<pdfrwt beam="1">  1       -4 0.36030266E-02 0.12500149E+03</pdfrwt>
<totfact> 0.91806478E+03</totfact>
</mgrwt>
</event>
<event>
 5    1  0.3246948E-002  0.1250039E+03  0.7818608E-02  0.1235063E+00
          4   -1    0    0  501    0  0.00000000000E+00  0.00000000000E+00  0.35630252466E+03  0.35630478804E+03  0.12700000000E+01 0. -1.
         -4   -1    0    0    0  501 -0.00000000000E+00 -0.00000000000E+00 -0.10924897164E+02  0.10998467077E+02  0.12700000000E+01 0. -1.
         25    2    1    2    0    0  0.00000000000E+00  0.00000000000E+00  0.34537762750E+03  0.36730325512E+03  0.12500390252E+03 0.  0.
    9000005    1    3    3    0    0 -0.18886666865E+02  0.25644800325E+02  0.14696790170E+02  0.35090705468E+02  0.10000000000E+01 0.  0.
    9000005    1    3    3    0    0  0.18886666865E+02 -0.25644800325E+02  0.33068083733E+03  0.33221254965E+03  0.10000000000E+01 0.  0.
<mgrwt>
<rscale>  0 0.12500390E+03</rscale>
<asrwt>0</asrwt>
<pdfrwt beam="1">  1        4 0.54821615E-01 0.12500390E+03</pdfrwt>
<pdfrwt beam="2">  1       -4 0.16865865E-02 0.12500390E+03</pdfrwt>
<totfact> 0.67856151E+03</totfact>
</mgrwt>
</event>
<event>
 5    1  0.3246948E-002  0.1249982E+03  0.7818608E-02  0.1235072E+00
          4   -1    0    0  501    0  0.00000000000E+00  0.00000000000E+00  0.47502281701E+03  0.47502451471E+03  0.12700000000E+01 0. -1.
         -4   -1    0    0    0  501 -0.00000000000E+00 -0.00000000000E+00 -0.81722966419E+01  0.82703888907E+01  0.12700000000E+01 0. -1.
         25    2    1    2    0    0  0.00000000000E+00  0.00000000000E+00  0.46685052036E+03  0.48329490360E+03  0.12499822192E+03 0.  0.
    9000005    1    3    3    0    0  0.42147421306E+02  0.30116418556E+02  0.36856930170E+03  0.37219314065E+03  0.10000000000E+01 0.  0.
    9000005    1    3    3    0    0 -0.42147421306E+02 -0.30116418556E+02  0.98281218664E+02  0.11110176295E+03  0.10000000000E+01 0.  0.
<mgrwt>
<rscale>  0 0.12499822E+03</rscale>
<asrwt>0</asrwt>
<pdfrwt beam="1">  1        4 0.73088118E-01 0.12499822E+03</pdfrwt>
<pdfrwt beam="2">  1       -4 0.12649524E-02 0.12499822E+03</pdfrwt>
<totfact> 0.57186408E+03</totfact>
</mgrwt>
</event>
<event>
 5    1  0.3246948E-002  0.1250005E+03  0.7818608E-02  0.1235068E+00
          4   -1    0    0  501    0  0.00000000000E+00  0.00000000000E+00  0.41305207181E+01  0.43213541168E+01  0.12700000000E+01 0.  1.
         -4   -1    0    0    0  501 -0.00000000000E+00 -0.00000000000E+00 -0.92416787464E+03  0.92416874727E+03  0.12700000000E+01 0.  1.
         25    2    1    2    0    0  0.00000000000E+00  0.00000000000E+00 -0.92003735393E+03  0.92849010138E+03  0.12500054299E+03 0.  0.
    9000005    1    3    3    0    0  0.61866047466E+02 -0.73033150997E+01 -0.49681312334E+03  0.50070452941E+03  0.10000000000E+01 0.  0.
    9000005    1    3    3    0    0 -0.61866047466E+02  0.73033150997E+01 -0.42322423058E+03  0.42778557198E+03  0.10000000000E+01 0.  0.
<mgrwt>
<rscale>  0 0.12500054E+03</rscale>
<asrwt>0</asrwt>
<pdfrwt beam="1">  1        4 0.65021208E-03 0.12500054E+03</pdfrwt>
<pdfrwt beam="2">  1       -4 0.14219426E+00 0.12500054E+03</pdfrwt>
<totfact> 0.33091821E+03</totfact>
</mgrwt>
</event>
<event>
 5    1  0.3246948E-002  0.1250000E+03  0.7818608E-02  0.1235069E+00
         -4   -1    0    0    0  501 -0.00000000000E+00  0.00000000000E+00  0.87962573569E+02  0.87971741195E+02  0.12700000000E+01 0.  1.
          4   -1    0    0  501    0  0.00000000000E+00 -0.00000000000E+00 -0.44387534137E+02  0.44405698809E+02  0.12700000000E+01 0.  1.
         25    2    1    2    0    0  0.00000000000E+00  0.00000000000E+00  0.43575039432E+02  0.13237744000E+03  0.12500001024E+03 0.  0.
    9000005    1    3    3    0    0 -0.72889463741E+01 -0.61499905039E+02  0.30640540939E+02  0.69102892907E+02  0.10000000000E+01 0.  0.
    9000005    1    3    3    0    0  0.72889463741E+01  0.61499905039E+02  0.12934498494E+02  0.63274547097E+02  0.10000000000E+01 0.  0.
<mgrwt>
<rscale>  0 0.12500001E+03</rscale>
<asrwt>0</asrwt>
<pdfrwt beam="2">  1        4 0.68309539E-02 0.12500001E+03</pdfrwt>
<pdfrwt beam="1">  1       -4 0.13534806E-01 0.12500001E+03</pdfrwt>
<totfact> 0.10293646E+04</totfact>
</mgrwt>
</event>
<event>
 5    1  0.3246948E-002  0.1249999E+03  0.7818608E-02  0.1235069E+00
         -4   -1    0    0    0  501 -0.00000000000E+00  0.00000000000E+00  0.36346918829E+02  0.36369099637E+02  0.12700000000E+01 0.  1.
          4   -1    0    0  501    0  0.00000000000E+00 -0.00000000000E+00 -0.10741233780E+03  0.10741984552E+03  0.12700000000E+01 0.  1.
         25    2    1    2    0    0  0.00000000000E+00  0.00000000000E+00 -0.71065418970E+02  0.14378894516E+03  0.12499986790E+03 0.  0.
    9000005    1    3    3    0    0  0.40662673080E+02  0.42611686422E+02 -0.59552852807E+02  0.83766049681E+02  0.10000000000E+01 0.  0.
    9000005    1    3    3    0    0 -0.40662673080E+02 -0.42611686422E+02 -0.11512566163E+02  0.60022895476E+02  0.10000000000E+01 0.  0.
<mgrwt>
<rscale>  0 0.12499987E+03</rscale>
<asrwt>0</asrwt>
<pdfrwt beam="2">  1        4 0.16527259E-01 0.12499987E+03</pdfrwt>
<pdfrwt beam="1">  1       -4 0.55941174E-02 0.12499987E+03</pdfrwt>
<totfact> 0.10055682E+04</totfact>
</mgrwt>
</event>
<event>
 5    1  0.3246948E-002  0.1250240E+03  0.7818608E-02  0.1235032E+00
         -4   -1    0    0    0  501 -0.00000000000E+00  0.00000000000E+00  0.56204914793E+01  0.57621892080E+01  0.12700000000E+01 0.  1.
          4   -1    0    0  501    0  0.00000000000E+00 -0.00000000000E+00 -0.68647090441E+03  0.68647207919E+03  0.12700000000E+01 0.  1.
         25    2    1    2    0    0  0.00000000000E+00  0.00000000000E+00 -0.68085041293E+03  0.69223426840E+03  0.12502398790E+03 0.  0.
    9000005    1    3    3    0    0 -0.52875507902E+02  0.32907533172E+02 -0.36973597660E+03  0.37494588605E+03  0.10000000000E+01 0.  0.
    9000005    1    3    3    0    0  0.52875507902E+02 -0.32907533172E+02 -0.31111443633E+03  0.31728838234E+03  0.10000000000E+01 0.  0.
<mgrwt>
<rscale>  0 0.12502399E+03</rscale>
<asrwt>0</asrwt>
<pdfrwt beam="2">  1        4 0.10562183E+00 0.12502399E+03</pdfrwt>
<pdfrwt beam="1">  1       -4 0.87568173E-03 0.12502399E+03</pdfrwt>
<totfact> 0.43477011E+03</totfact>
</mgrwt>
</event>
<event>
 5    1  0.3246948E-002  0.1250062E+03  0.7818608E-02  0.1235060E+00
          4   -1    0    0  501    0  0.00000000000E+00  0.00000000000E+00  0.24589269014E+02  0.24622043998E+02  0.12700000000E+01 0.  1.
         -4   -1    0    0    0  501 -0.00000000000E+00 -0.00000000000E+00 -0.15873452542E+03  0.15873960583E+03  0.12700000000E+01 0.  1.
         25    2    1    2    0    0  0.00000000000E+00  0.00000000000E+00 -0.13414525640E+03  0.18336164983E+03  0.12500617910E+03 0.  0.
    9000005    1    3    3    0    0  0.59234017121E+02 -0.17188653603E+02 -0.81851718788E+02  0.10249303618E+03  0.10000000000E+01 0.  0.
    9000005    1    3    3    0    0 -0.59234017121E+02  0.17188653603E+02 -0.52293537614E+02  0.80868613647E+02  0.10000000000E+01 0.  0.
<mgrwt>
<rscale>  0 0.12500618E+03</rscale>
<asrwt>0</asrwt>
<pdfrwt beam="1">  1        4 0.37858765E-02 0.12500618E+03</pdfrwt>
<pdfrwt beam="2">  1       -4 0.24423608E-01 0.12500618E+03</pdfrwt>
<totfact> 0.93002490E+03</totfact>
</mgrwt>
</event>
<event>
 5    1  0.3246948E-002  0.1249970E+03  0.7818608E-02  0.1235074E+00
         -4   -1    0    0    0  501 -0.00000000000E+00  0.00000000000E+00  0.96124978012E+02  0.96133367244E+02  0.12700000000E+01 0.  1.
          4   -1    0    0  501    0  0.00000000000E+00 -0.00000000000E+00 -0.40615158201E+02  0.40635009237E+02  0.12700000000E+01 0.  1.
         25    2    1    2    0    0  0.00000000000E+00  0.00000000000E+00  0.55509819811E+02  0.13676837648E+03  0.12499699480E+03 0.  0.
    9000005    1    3    3    0    0  0.48608629364E+02  0.35337924096E+02  0.46499936719E+02  0.75992182775E+02  0.10000000000E+01 0.  0.
    9000005    1    3    3    0    0 -0.48608629364E+02 -0.35337924096E+02  0.90098830916E+01  0.60776193706E+02  0.10000000000E+01 0.  0.
<mgrwt>
<rscale>  0 0.12499699E+03</rscale>
<asrwt>0</asrwt>
<pdfrwt beam="2">  1        4 0.62506583E-02 0.12499699E+03</pdfrwt>
<pdfrwt beam="1">  1       -4 0.14790630E-01 0.12499699E+03</pdfrwt>
<totfact> 0.10201622E+04</totfact>
</mgrwt>
</event>
<event>
 5    1  0.3246948E-002  0.1250004E+03  0.7818608E-02  0.1235069E+00
          4   -1    0    0  501    0  0.00000000000E+00  0.00000000000E+00  0.25511502291E+02  0.25543093962E+02  0.12700000000E+01 0. -1.
         -4   -1    0    0    0  501 -0.00000000000E+00 -0.00000000000E+00 -0.15298918520E+03  0.15299445640E+03  0.12700000000E+01 0. -1.
         25    2    1    2    0    0  0.00000000000E+00  0.00000000000E+00 -0.12747768291E+03  0.17853755036E+03  0.12500038899E+03 0.  0.
    9000005    1    3    3    0    0  0.35653265446E+02  0.46659099522E+02 -0.94273905264E+02  0.11107113090E+03  0.10000000000E+01 0.  0.
    9000005    1    3    3    0    0 -0.35653265446E+02 -0.46659099522E+02 -0.33203777648E+02  0.67466419464E+02  0.10000000000E+01 0.  0.
<mgrwt>
<rscale>  0 0.12500039E+03</rscale>
<asrwt>0</asrwt>
<pdfrwt beam="1">  1        4 0.39276822E-02 0.12500039E+03</pdfrwt>
<pdfrwt beam="2">  1       -4 0.23539633E-01 0.12500039E+03</pdfrwt>
<totfact> 0.93880094E+03</totfact>
</mgrwt>
</event>
<event>
 4    1  0.3246948E-002  0.1252412E+03  0.7818608E-02  0.1234693E+00
         -4   -1    0    0    0  501 -0.00000000000E+00  0.00000000000E+00  0.86217043120E+02  0.86226396332E+02  0.12700000000E+01 0. -1.
          4   -1    0    0  501    0  0.00000000000E+00 -0.00000000000E+00 -0.45461471454E+02  0.45479207192E+02  0.12700000000E+01 0. -1.
    9000005    1    1    2    0    0  0.60607549174E+02 -0.89830514381E+01  0.33941883133E+02  0.70050136764E+02  0.10000000000E+01 0.  0.
    9000005    1    1    2    0    0 -0.60607549174E+02  0.89830514381E+01  0.68136885336E+01  0.61655466760E+02  0.10000000000E+01 0.  0.
<mgrwt>
<rscale>  0 0.12524116E+03</rscale>
<asrwt>0</asrwt>
<pdfrwt beam="2">  1        4 0.69961562E-02 0.12524116E+03</pdfrwt>
<pdfrwt beam="1">  1       -4 0.13266244E-01 0.12524116E+03</pdfrwt>
<totfact> 0.10252105E+04</totfact>
</mgrwt>
</event>
<event>
 5    1  0.3246948E-002  0.1250072E+03  0.7818608E-02  0.1235058E+00
         -4   -1    0    0    0  501 -0.00000000000E+00  0.00000000000E+00  0.85988255018E+03  0.85988348804E+03  0.12700000000E+01 0.  1.
          4   -1    0    0  501    0  0.00000000000E+00 -0.00000000000E+00 -0.44535811979E+01  0.46311214070E+01  0.12700000000E+01 0.  1.
         25    2    1    2    0    0  0.00000000000E+00  0.00000000000E+00  0.85542896898E+03  0.86451460944E+03  0.12500715569E+03 0.  0.
    9000005    1    3    3    0    0  0.45990848978E+02  0.38968424899E+02  0.54177166857E+03  0.54511580164E+03  0.10000000000E+01 0.  0.
    9000005    1    3    3    0    0 -0.45990848978E+02 -0.38968424899E+02  0.31365730040E+03  0.31939880780E+03  0.10000000000E+01 0.  0.
<mgrwt>
<rscale>  0 0.12500716E+03</rscale>
<asrwt>0</asrwt>
<pdfrwt beam="2">  1        4 0.69889535E-03 0.12500716E+03</pdfrwt>
<pdfrwt beam="1">  1       -4 0.13230336E+00 0.12500716E+03</pdfrwt>
<totfact> 0.35535069E+03</totfact>
</mgrwt>
</event>
<event>
 5    1  0.3246948E-002  0.1250008E+03  0.7818608E-02  0.1235068E+00
          4   -1    0    0  501    0  0.00000000000E+00  0.00000000000E+00  0.44632716020E+01  0.46404410775E+01  0.12700000000E+01 0. -1.
         -4   -1    0    0    0  501 -0.00000000000E+00 -0.00000000000E+00 -0.85800036467E+03  0.85800130459E+03  0.12700000000E+01 0. -1.
         25    2    1    2    0    0  0.00000000000E+00  0.00000000000E+00 -0.85353709307E+03  0.86264174566E+03  0.12500084848E+03 0.  0.
    9000005    1    3    3    0    0  0.25735812314E+02 -0.17824591380E+02 -0.53518929657E+02  0.62010675895E+02  0.10000000000E+01 0.  0.
    9000005    1    3    3    0    0 -0.25735812314E+02  0.17824591380E+02 -0.80001816341E+03  0.80063106977E+03  0.10000000000E+01 0.  0.
<mgrwt>
<rscale>  0 0.12500085E+03</rscale>
<asrwt>0</asrwt>
<pdfrwt beam="1">  1        4 0.70035857E-03 0.12500085E+03</pdfrwt>
<pdfrwt beam="2">  1       -4 0.13201363E+00 0.12500085E+03</pdfrwt>
<totfact> 0.35614897E+03</totfact>
</mgrwt>
</event>
<event>
 5    1  0.3246948E-002  0.1250042E+03  0.7818608E-02  0.1235063E+00
         -4   -1    0    0    0  501 -0.00000000000E+00  0.00000000000E+00  0.14218321253E+01  0.19064381953E+01  0.12700000000E+01 0.  1.
          4   -1    0    0  501    0  0.00000000000E+00 -0.00000000000E+00 -0.23469872452E+04  0.23469875888E+04  0.12700000000E+01 0.  1.
         25    2    1    2    0    0  0.00000000000E+00  0.00000000000E+00 -0.23455654131E+04  0.23488940270E+04  0.12500417230E+03 0.  0.
    9000005    1    3    3    0    0 -0.11974784909E+02 -0.82442408792E+01 -0.23148614484E+04  0.23149073174E+04  0.10000000000E+01 0.  0.
    9000005    1    3    3    0    0  0.11974784909E+02  0.82442408792E+01 -0.30703964663E+02  0.33986709569E+02  0.10000000000E+01 0.  0.
<mgrwt>
<rscale>  0 0.12500417E+03</rscale>
<asrwt>0</asrwt>
<pdfrwt beam="2">  1        4 0.36110962E+00 0.12500417E+03</pdfrwt>
<pdfrwt beam="1">  1       -4 0.25604910E-03 0.12500417E+03</pdfrwt>
<totfact> 0.59671321E+02</totfact>
</mgrwt>
</event>
<event>
 5    1  0.3246948E-002  0.1249979E+03  0.7818608E-02  0.1235073E+00
         -4   -1    0    0    0  501 -0.00000000000E+00  0.00000000000E+00  0.15948325189E+02  0.15998811716E+02  0.12700000000E+01 0.  1.
          4   -1    0    0  501    0  0.00000000000E+00 -0.00000000000E+00 -0.24448424886E+03  0.24448754741E+03  0.12700000000E+01 0.  1.
         25    2    1    2    0    0  0.00000000000E+00  0.00000000000E+00 -0.22853592367E+03  0.26048635913E+03  0.12499789952E+03 0.  0.
    9000005    1    3    3    0    0  0.42376689070E+02 -0.16163533151E+02 -0.20385436144E+03  0.20884119387E+03  0.10000000000E+01 0.  0.
    9000005    1    3    3    0    0 -0.42376689070E+02  0.16163533151E+02 -0.24681562235E+02  0.51645165261E+02  0.10000000000E+01 0.  0.
<mgrwt>
<rscale>  0 0.12499790E+03</rscale>
<asrwt>0</asrwt>
<pdfrwt beam="2">  1        4 0.37617096E-01 0.12499790E+03</pdfrwt>
<pdfrwt beam="1">  1       -4 0.24577260E-02 0.12499790E+03</pdfrwt>
<totfact> 0.80841636E+03</totfact>
</mgrwt>
</event>
<event>
 5    1  0.3246948E-002  0.1250023E+03  0.7818608E-02  0.1235066E+00
         -4   -1    0    0    0  501 -0.00000000000E+00  0.00000000000E+00  0.13340110782E+03  0.13340715299E+03  0.12700000000E+01 0. -1.
          4   -1    0    0  501    0  0.00000000000E+00 -0.00000000000E+00 -0.29262573443E+02  0.29290119572E+02  0.12700000000E+01 0. -1.
         25    2    1    2    0    0  0.00000000000E+00  0.00000000000E+00  0.10413853438E+03  0.16269727256E+03  0.12500227260E+03 0.  0.
    9000005    1    3    3    0    0  0.18111521718E+02 -0.53517354055E+02  0.86829732255E+02  0.10359795755E+03  0.10000000000E+01 0.  0.
    9000005    1    3    3    0    0 -0.18111521718E+02  0.53517354055E+02  0.17308802123E+02  0.59099315012E+02  0.10000000000E+01 0.  0.
<mgrwt>
<rscale>  0 0.12500227E+03</rscale>
<asrwt>0</asrwt>
<pdfrwt beam="2">  1        4 0.45045184E-02 0.12500227E+03</pdfrwt>
<pdfrwt beam="1">  1       -4 0.20525831E-01 0.12500227E+03</pdfrwt>
<totfact> 0.96820334E+03</totfact>
</mgrwt>
</event>
<event>
 5    1  0.3246948E-002  0.1249962E+03  0.7818608E-02  0.1235075E+00
         -4   -1    0    0    0  501 -0.00000000000E+00  0.00000000000E+00  0.28567808298E+02  0.28596023692E+02  0.12700000000E+01 0.  1.
          4   -1    0    0  501    0  0.00000000000E+00 -0.00000000000E+00 -0.13662919482E+03  0.13663509716E+03  0.12700000000E+01 0.  1.
         25    2    1    2    0    0  0.00000000000E+00  0.00000000000E+00 -0.10806138652E+03  0.16523112085E+03  0.12499624011E+03 0.  0.
    9000005    1    3    3    0    0  0.17141941655E+02  0.57726594809E+02 -0.76103032907E+02  0.97050901746E+02  0.10000000000E+01 0.  0.
    9000005    1    3    3    0    0 -0.17141941655E+02 -0.57726594809E+02 -0.31958353612E+02  0.68180219108E+02  0.10000000000E+01 0.  0.
<mgrwt>
<rscale>  0 0.12499624E+03</rscale>
<asrwt>0</asrwt>
<pdfrwt beam="2">  1        4 0.21022500E-01 0.12499624E+03</pdfrwt>
<pdfrwt beam="1">  1       -4 0.43976719E-02 0.12499624E+03</pdfrwt>
<totfact> 0.96351778E+03</totfact>
</mgrwt>
</event>
<event>
 5    1  0.3246948E-002  0.1249960E+03  0.7818608E-02  0.1235075E+00
         -4   -1    0    0    0  501 -0.00000000000E+00  0.00000000000E+00  0.33747129407E+03  0.33747368374E+03  0.12700000000E+01 0. -1.
          4   -1    0    0  501    0  0.00000000000E+00 -0.00000000000E+00 -0.11537049853E+02  0.11606740254E+02  0.12700000000E+01 0. -1.
         25    2    1    2    0    0  0.00000000000E+00  0.00000000000E+00  0.32593424421E+03  0.34908042400E+03  0.12499604340E+03 0.  0.
    9000005    1    3    3    0    0 -0.80751284227E+01  0.35909951199E+02  0.21933602031E+02  0.42858081994E+02  0.10000000000E+01 0.  0.
    9000005    1    3    3    0    0  0.80751284227E+01 -0.35909951199E+02  0.30400064218E+03  0.30622234200E+03  0.10000000000E+01 0.  0.
<mgrwt>
<rscale>  0 0.12499604E+03</rscale>
<asrwt>0</asrwt>
<pdfrwt beam="2">  1        4 0.17804755E-02 0.12499604E+03</pdfrwt>
<pdfrwt beam="1">  1       -4 0.51924200E-01 0.12499604E+03</pdfrwt>
<totfact> 0.69831955E+03</totfact>
</mgrwt>
</event>
<event>
 5    1  0.3246948E-002  0.1250014E+03  0.7818608E-02  0.1235067E+00
          4   -1    0    0  501    0  0.00000000000E+00  0.00000000000E+00  0.27161777537E+02  0.27191451946E+02  0.12700000000E+01 0.  1.
         -4   -1    0    0    0  501 -0.00000000000E+00 -0.00000000000E+00 -0.14370650631E+03  0.14371211798E+03  0.12700000000E+01 0.  1.
         25    2    1    2    0    0  0.00000000000E+00  0.00000000000E+00 -0.11654472877E+03  0.17090356993E+03  0.12500142563E+03 0.  0.
    9000005    1    3    3    0    0  0.55872578192E+02  0.14886720109E+02 -0.90683665985E+02  0.10755411060E+03  0.10000000000E+01 0.  0.
    9000005    1    3    3    0    0 -0.55872578192E+02 -0.14886720109E+02 -0.25861062785E+02  0.63349459333E+02  0.10000000000E+01 0.  0.
<mgrwt>
<rscale>  0 0.12500143E+03</rscale>
<asrwt>0</asrwt>
<pdfrwt beam="1">  1        4 0.41814494E-02 0.12500143E+03</pdfrwt>
<pdfrwt beam="2">  1       -4 0.22111407E-01 0.12500143E+03</pdfrwt>
<totfact> 0.95277443E+03</totfact>
</mgrwt>
</event>
<event>
 5    1  0.3246948E-002  0.1249872E+03  0.7818608E-02  0.1235089E+00
         -4   -1    0    0    0  501 -0.00000000000E+00  0.00000000000E+00  0.61802768048E+02  0.61815815439E+02  0.12700000000E+01 0.  1.
          4   -1    0    0  501    0  0.00000000000E+00 -0.00000000000E+00 -0.63166049054E+02  0.63178814907E+02  0.12700000000E+01 0.  1.
         25    2    1    2    0    0  0.00000000000E+00  0.00000000000E+00 -0.13632810063E+01  0.12499463035E+03  0.12498719567E+03 0.  0.
    9000005    1    3    3    0    0  0.16051967552E+02  0.29783036878E+02  0.51854853022E+02  0.61924314529E+02  0.10000000000E+01 0.  0.
    9000005    1    3    3    0    0 -0.16051967552E+02 -0.29783036878E+02 -0.53218134028E+02  0.63070315818E+02  0.10000000000E+01 0.  0.
<mgrwt>
<rscale>  0 0.12498720E+03</rscale>
<asrwt>0</asrwt>
<pdfrwt beam="2">  1        4 0.97198393E-02 0.12498720E+03</pdfrwt>
<pdfrwt beam="1">  1       -4 0.95101038E-02 0.12498720E+03</pdfrwt>
<totfact> 0.10456005E+04</totfact>
</mgrwt>
</event>
<event>
 5    1  0.3246948E-002  0.1249997E+03  0.7818608E-02  0.1235070E+00
          4   -1    0    0  501    0  0.00000000000E+00  0.00000000000E+00  0.11914779760E+03  0.11915456589E+03  0.12700000000E+01 0. -1.
         -4   -1    0    0    0  501 -0.00000000000E+00 -0.00000000000E+00 -0.32764759581E+02  0.32789363678E+02  0.12700000000E+01 0. -1.
         25    2    1    2    0    0  0.00000000000E+00  0.00000000000E+00  0.86383038015E+02  0.15194392957E+03  0.12499971390E+03 0.  0.
    9000005    1    3    3    0    0  0.36493084800E+02 -0.50444010287E+02  0.36658131985E+02  0.72257608961E+02  0.10000000000E+01 0.  0.
    9000005    1    3    3    0    0 -0.36493084800E+02  0.50444010287E+02  0.49724906029E+02  0.79686320606E+02  0.10000000000E+01 0.  0.
<mgrwt>
<rscale>  0 0.12499971E+03</rscale>
<asrwt>0</asrwt>
<pdfrwt beam="1">  1        4 0.18332844E-01 0.12499971E+03</pdfrwt>
<pdfrwt beam="2">  1       -4 0.50431455E-02 0.12499971E+03</pdfrwt>
<totfact> 0.98918244E+03</totfact>
</mgrwt>
</event>
<event>
 5    1  0.3246948E-002  0.1249993E+03  0.7818608E-02  0.1235070E+00
          4   -1    0    0  501    0  0.00000000000E+00  0.00000000000E+00  0.43715167244E+03  0.43715351722E+03  0.12700000000E+01 0. -1.
         -4   -1    0    0    0  501 -0.00000000000E+00 -0.00000000000E+00 -0.88885928305E+01  0.89788630966E+01  0.12700000000E+01 0. -1.
         25    2    1    2    0    0  0.00000000000E+00  0.00000000000E+00  0.42826307961E+03  0.44613238032E+03  0.12499934164E+03 0.  0.
    9000005    1    3    3    0    0  0.59912531902E+01 -0.48689183297E+02  0.75962714490E+02  0.90431552445E+02  0.10000000000E+01 0.  0.
    9000005    1    3    3    0    0 -0.59912531902E+01  0.48689183297E+02  0.35230036512E+03  0.35570082788E+03  0.10000000000E+01 0.  0.
<mgrwt>
<rscale>  0 0.12499934E+03</rscale>
<asrwt>0</asrwt>
<pdfrwt beam="1">  1        4 0.67261199E-01 0.12499934E+03</pdfrwt>
<pdfrwt beam="2">  1       -4 0.13745614E-02 0.12499934E+03</pdfrwt>
<totfact> 0.60301184E+03</totfact>
</mgrwt>
</event>
<event>
 5    1  0.3246948E-002  0.1249956E+03  0.7818608E-02  0.1235076E+00
          4   -1    0    0  501    0  0.00000000000E+00  0.00000000000E+00  0.58962316359E+02  0.58975992153E+02  0.12700000000E+01 0.  1.
         -4   -1    0    0    0  501 -0.00000000000E+00 -0.00000000000E+00 -0.66217872931E+02  0.66230050547E+02  0.12700000000E+01 0.  1.
         25    2    1    2    0    0  0.00000000000E+00  0.00000000000E+00 -0.72555565722E+01  0.12520604270E+03  0.12499564003E+03 0.  0.
    9000005    1    3    3    0    0  0.16329041592E+02  0.34302813792E+02  0.46070824956E+02  0.59723040324E+02  0.10000000000E+01 0.  0.
    9000005    1    3    3    0    0 -0.16329041592E+02 -0.34302813792E+02 -0.53326381528E+02  0.65483002377E+02  0.10000000000E+01 0.  0.
<mgrwt>
<rscale>  0 0.12499564E+03</rscale>
<asrwt>0</asrwt>
<pdfrwt beam="1">  1        4 0.90731144E-02 0.12499564E+03</pdfrwt>
<pdfrwt beam="2">  1       -4 0.10189354E-01 0.12499564E+03</pdfrwt>
<totfact> 0.10449419E+04</totfact>
</mgrwt>
</event>
<event>
 5    1  0.3246948E-002  0.1249987E+03  0.7818608E-02  0.1235071E+00
         -4   -1    0    0    0  501 -0.00000000000E+00  0.00000000000E+00  0.56995030481E+02  0.57009178204E+02  0.12700000000E+01 0.  1.
          4   -1    0    0  501    0  0.00000000000E+00 -0.00000000000E+00 -0.68506735185E+02  0.68518506009E+02  0.12700000000E+01 0.  1.
         25    2    1    2    0    0  0.00000000000E+00  0.00000000000E+00 -0.11511704704E+02  0.12552768421E+03  0.12499872063E+03 0.  0.
    9000005    1    3    3    0    0 -0.34888660276E+00  0.26564449758E+02 -0.62558260502E+02  0.67972992209E+02  0.10000000000E+01 0.  0.
    9000005    1    3    3    0    0  0.34888660276E+00 -0.26564449758E+02  0.51046555798E+02  0.57554692004E+02  0.10000000000E+01 0.  0.
<mgrwt>
<rscale>  0 0.12499872E+03</rscale>
<asrwt>0</asrwt>
<pdfrwt beam="2">  1        4 0.10541491E-01 0.12499872E+03</pdfrwt>
<pdfrwt beam="1">  1       -4 0.87704600E-02 0.12499872E+03</pdfrwt>
<totfact> 0.10441644E+04</totfact>
</mgrwt>
</event>
<event>
 5    1  0.3246948E-002  0.1250015E+03  0.7818608E-02  0.1235067E+00
         -4   -1    0    0    0  501 -0.00000000000E+00  0.00000000000E+00  0.18432651960E+02  0.18476351325E+02  0.12700000000E+01 0. -1.
          4   -1    0    0  501    0  0.00000000000E+00 -0.00000000000E+00 -0.21162869604E+03  0.21163250669E+03  0.12700000000E+01 0. -1.
         25    2    1    2    0    0  0.00000000000E+00  0.00000000000E+00 -0.19319604408E+03  0.23010885801E+03  0.12500150035E+03 0.  0.
    9000005    1    3    3    0    0 -0.26257555224E+02  0.32823045036E+02 -0.18172672501E+03  0.18652724754E+03  0.10000000000E+01 0.  0.
    9000005    1    3    3    0    0  0.26257555224E+02 -0.32823045036E+02 -0.11469319072E+02  0.43581610477E+02  0.10000000000E+01 0.  0.
<mgrwt>
<rscale>  0 0.12500150E+03</rscale>
<asrwt>0</asrwt>
<pdfrwt beam="2">  1        4 0.32561914E-01 0.12500150E+03</pdfrwt>
<pdfrwt beam="1">  1       -4 0.28394474E-02 0.12500150E+03</pdfrwt>
<totfact> 0.85290030E+03</totfact>
</mgrwt>
</event>
<event>
 5    1  0.3246948E-002  0.1250426E+03  0.7818608E-02  0.1235003E+00
          4   -1    0    0  501    0  0.00000000000E+00  0.00000000000E+00  0.82636533493E+03  0.82636631083E+03  0.12700000000E+01 0. -1.
         -4   -1    0    0    0  501 -0.00000000000E+00 -0.00000000000E+00 -0.46440067946E+01  0.48145299987E+01  0.12700000000E+01 0. -1.
         25    2    1    2    0    0  0.00000000000E+00  0.00000000000E+00  0.82172132813E+03  0.83118084083E+03  0.12504258893E+03 0.  0.
    9000005    1    3    3    0    0 -0.20952297491E+02  0.93061477054E+01  0.79744496588E+03  0.79777507905E+03  0.10000000000E+01 0.  0.
    9000005    1    3    3    0    0  0.20952297491E+02 -0.93061477054E+01  0.24276362257E+02  0.33405761774E+02  0.10000000000E+01 0.  0.
<mgrwt>
<rscale>  0 0.12504259E+03</rscale>
<asrwt>0</asrwt>
<pdfrwt beam="1">  1        4 0.12714636E+00 0.12504259E+03</pdfrwt>
<pdfrwt beam="2">  1       -4 0.72765461E-03 0.12504259E+03</pdfrwt>
<totfact> 0.36875712E+03</totfact>
</mgrwt>
</event>
<event>
 5    1  0.3246948E-002  0.1249948E+03  0.7818608E-02  0.1235077E+00
          4   -1    0    0  501    0  0.00000000000E+00  0.00000000000E+00  0.25923583382E+02  0.25954673479E+02  0.12700000000E+01 0. -1.
         -4   -1    0    0    0  501 -0.00000000000E+00 -0.00000000000E+00 -0.15054677021E+03  0.15055212692E+03  0.12700000000E+01 0. -1.
         25    2    1    2    0    0  0.00000000000E+00  0.00000000000E+00 -0.12462318683E+03  0.17650680040E+03  0.12499484746E+03 0.  0.
    9000005    1    3    3    0    0  0.21928636475E+02 -0.58475780007E+02 -0.59267834554E+02  0.86104344593E+02  0.10000000000E+01 0.  0.
    9000005    1    3    3    0    0 -0.21928636475E+02  0.58475780007E+02 -0.65355352273E+02  0.90402455806E+02  0.10000000000E+01 0.  0.
<mgrwt>
<rscale>  0 0.12499485E+03</rscale>
<asrwt>0</asrwt>
<pdfrwt beam="1">  1        4 0.39910473E-02 0.12499485E+03</pdfrwt>
<pdfrwt beam="2">  1       -4 0.23163845E-01 0.12499485E+03</pdfrwt>
<totfact> 0.94260490E+03</totfact>
</mgrwt>
</event>
<event>
 5    1  0.3246948E-002  0.1250019E+03  0.7818608E-02  0.1235066E+00
          4   -1    0    0  501    0  0.00000000000E+00  0.00000000000E+00  0.24741223638E+03  0.24741549589E+03  0.12700000000E+01 0.  1.
         -4   -1    0    0    0  501 -0.00000000000E+00 -0.00000000000E+00 -0.15759991856E+02  0.15811079764E+02  0.12700000000E+01 0.  1.
         25    2    1    2    0    0  0.00000000000E+00  0.00000000000E+00  0.23165224452E+03  0.26322657566E+03  0.12500187095E+03 0.  0.
    9000005    1    3    3    0    0 -0.16618375094E+02  0.59719850295E+02  0.13250518803E+03  0.14629168044E+03  0.10000000000E+01 0.  0.
    9000005    1    3    3    0    0  0.16618375094E+02 -0.59719850295E+02  0.99147056490E+02  0.11693489522E+03  0.10000000000E+01 0.  0.
<mgrwt>
<rscale>  0 0.12500187E+03</rscale>
<asrwt>0</asrwt>
<pdfrwt beam="1">  1        4 0.38067602E-01 0.12500187E+03</pdfrwt>
<pdfrwt beam="2">  1       -4 0.24287947E-02 0.12500187E+03</pdfrwt>
<totfact> 0.80452027E+03</totfact>
</mgrwt>
</event>
<event>
 5    1  0.3246948E-002  0.1250012E+03  0.7818608E-02  0.1235067E+00
          4   -1    0    0  501    0  0.00000000000E+00  0.00000000000E+00  0.14248094588E+03  0.14248660582E+03  0.12700000000E+01 0. -1.
         -4   -1    0    0    0  501 -0.00000000000E+00 -0.00000000000E+00 -0.27395578102E+02  0.27424999536E+02  0.12700000000E+01 0. -1.
         25    2    1    2    0    0  0.00000000000E+00  0.00000000000E+00  0.11508536778E+03  0.16991160536E+03  0.12500124703E+03 0.  0.
    9000005    1    3    3    0    0 -0.30095198628E+02 -0.54594773865E+02  0.63470392493E+02  0.88970787549E+02  0.10000000000E+01 0.  0.
    9000005    1    3    3    0    0  0.30095198628E+02  0.54594773865E+02  0.51614975283E+02  0.80940817807E+02  0.10000000000E+01 0.  0.
<mgrwt>
<rscale>  0 0.12500125E+03</rscale>
<asrwt>0</asrwt>
<pdfrwt beam="1">  1        4 0.21922844E-01 0.12500125E+03</pdfrwt>
<pdfrwt beam="2">  1       -4 0.42174029E-02 0.12500125E+03</pdfrwt>
<totfact> 0.95462442E+03</totfact>
</mgrwt>
</event>
<event>
 5    1  0.3246948E-002  0.1250000E+03  0.7818608E-02  0.1235069E+00
         -4   -1    0    0    0  501 -0.00000000000E+00  0.00000000000E+00  0.16098334495E+03  0.16098835440E+03  0.12700000000E+01 0. -1.
          4   -1    0    0  501    0  0.00000000000E+00 -0.00000000000E+00 -0.24242909165E+02  0.24276151771E+02  0.12700000000E+01 0. -1.
         25    2    1    2    0    0  0.00000000000E+00  0.00000000000E+00  0.13674043579E+03  0.18526450617E+03  0.12499996187E+03 0.  0.
    9000005    1    3    3    0    0 -0.42147338228E+02  0.46092260581E+02  0.65277948959E+02  0.90349904402E+02  0.10000000000E+01 0.  0.
    9000005    1    3    3    0    0  0.42147338228E+02 -0.46092260581E+02  0.71462486830E+02  0.94914601770E+02  0.10000000000E+01 0.  0.
<mgrwt>
<rscale>  0 0.12499996E+03</rscale>
<asrwt>0</asrwt>
<pdfrwt beam="2">  1        4 0.37326209E-02 0.12499996E+03</pdfrwt>
<pdfrwt beam="1">  1       -4 0.24769610E-01 0.12499996E+03</pdfrwt>
<totfact> 0.92677946E+03</totfact>
</mgrwt>
</event>
<event>
 5    1  0.3246948E-002  0.1250007E+03  0.7818608E-02  0.1235068E+00
         -4   -1    0    0    0  501 -0.00000000000E+00  0.00000000000E+00  0.16767669230E+02  0.16815695983E+02  0.12700000000E+01 0.  1.
          4   -1    0    0  501    0  0.00000000000E+00 -0.00000000000E+00 -0.23258296501E+03  0.23258643235E+03  0.12700000000E+01 0.  1.
         25    2    1    2    0    0  0.00000000000E+00  0.00000000000E+00 -0.21581529578E+03  0.24940212833E+03  0.12500071889E+03 0.  0.
    9000005    1    3    3    0    0 -0.55238885343E+02  0.28451721370E+02 -0.94603945814E+02  0.11318896354E+03  0.10000000000E+01 0.  0.
    9000005    1    3    3    0    0  0.55238885343E+02 -0.28451721370E+02 -0.12121134996E+03  0.13621316479E+03  0.10000000000E+01 0.  0.
<mgrwt>
<rscale>  0 0.12500072E+03</rscale>
<asrwt>0</asrwt>
<pdfrwt beam="2">  1        4 0.35785954E-01 0.12500072E+03</pdfrwt>
<pdfrwt beam="1">  1       -4 0.25836027E-02 0.12500072E+03</pdfrwt>
<totfact> 0.82415397E+03</totfact>
</mgrwt>
</event>
<event>
 5    1  0.3246948E-002  0.1250013E+03  0.7818608E-02  0.1235067E+00
          4   -1    0    0  501    0  0.00000000000E+00  0.00000000000E+00  0.39484086357E+03  0.39484290603E+03  0.12700000000E+01 0.  1.
         -4   -1    0    0    0  501 -0.00000000000E+00 -0.00000000000E+00 -0.98505970976E+01  0.99321278273E+01  0.12700000000E+01 0.  1.
         25    2    1    2    0    0  0.00000000000E+00  0.00000000000E+00  0.38499026647E+03  0.40477503386E+03  0.12500129103E+03 0.  0.
    9000005    1    3    3    0    0 -0.30976272543E+02 -0.48413076923E+02  0.27194414936E+03  0.27795319003E+03  0.10000000000E+01 0.  0.
    9000005    1    3    3    0    0  0.30976272543E+02  0.48413076923E+02  0.11304611711E+03  0.12682184383E+03  0.10000000000E+01 0.  0.
<mgrwt>
<rscale>  0 0.12500129E+03</rscale>
<asrwt>0</asrwt>
<pdfrwt beam="1">  1        4 0.60751172E-01 0.12500129E+03</pdfrwt>
<pdfrwt beam="2">  1       -4 0.15219053E-02 0.12500129E+03</pdfrwt>
<totfact> 0.64089185E+03</totfact>
</mgrwt>
</event>
<event>
 5    1  0.3246948E-002  0.1249993E+03  0.7818608E-02  0.1235070E+00
         -4   -1    0    0    0  501 -0.00000000000E+00  0.00000000000E+00  0.29935910857E+03  0.29936180248E+03  0.12700000000E+01 0.  1.
          4   -1    0    0  501    0  0.00000000000E+00 -0.00000000000E+00 -0.13014897974E+02  0.13076714774E+02  0.12700000000E+01 0.  1.
         25    2    1    2    0    0  0.00000000000E+00  0.00000000000E+00  0.28634421060E+03  0.31243851726E+03  0.12499928048E+03 0.  0.
    9000005    1    3    3    0    0 -0.14640292729E+01  0.59913887334E+02  0.98923654977E+02  0.11566635981E+03  0.10000000000E+01 0.  0.
    9000005    1    3    3    0    0  0.14640292729E+01 -0.59913887334E+02  0.18742055562E+03  0.19677215745E+03  0.10000000000E+01 0.  0.
<mgrwt>
<rscale>  0 0.12499928E+03</rscale>
<asrwt>0</asrwt>
<pdfrwt beam="2">  1        4 0.20072545E-02 0.12499928E+03</pdfrwt>
<pdfrwt beam="1">  1       -4 0.46060207E-01 0.12499928E+03</pdfrwt>
<totfact> 0.74065764E+03</totfact>
</mgrwt>
</event>
<event>
 5    1  0.3246948E-002  0.1249999E+03  0.7818608E-02  0.1235069E+00
          4   -1    0    0  501    0  0.00000000000E+00  0.00000000000E+00  0.15430318002E+03  0.15430840633E+03  0.12700000000E+01 0.  1.
         -4   -1    0    0    0  501 -0.00000000000E+00 -0.00000000000E+00 -0.25293784645E+02  0.25325647902E+02  0.12700000000E+01 0.  1.
         25    2    1    2    0    0  0.00000000000E+00  0.00000000000E+00  0.12900939537E+03  0.17963405423E+03  0.12499987738E+03 0.  0.
    9000005    1    3    3    0    0 -0.34989199618E+01  0.39087048864E+02  0.13439440956E+03  0.14001034658E+03  0.10000000000E+01 0.  0.
    9000005    1    3    3    0    0  0.34989199618E+01 -0.39087048864E+02 -0.53850141866E+01  0.39623707645E+02  0.10000000000E+01 0.  0.
<mgrwt>
<rscale>  0 0.12499988E+03</rscale>
<asrwt>0</asrwt>
<pdfrwt beam="1">  1        4 0.23741804E-01 0.12499988E+03</pdfrwt>
<pdfrwt beam="2">  1       -4 0.38942045E-02 0.12499988E+03</pdfrwt>
<totfact> 0.93683173E+03</totfact>
</mgrwt>
</event>
<event>
 5    1  0.3246948E-002  0.1250004E+03  0.7818608E-02  0.1235069E+00
          4   -1    0    0  501    0  0.00000000000E+00  0.00000000000E+00  0.84651101213E+02  0.84660627428E+02  0.12700000000E+01 0.  1.
         -4   -1    0    0    0  501 -0.00000000000E+00 -0.00000000000E+00 -0.46124694863E+02  0.46142175677E+02  0.12700000000E+01 0.  1.
         25    2    1    2    0    0  0.00000000000E+00  0.00000000000E+00  0.38526406350E+02  0.13080280311E+03  0.12500035726E+03 0.  0.
    9000005    1    3    3    0    0 -0.62432633129E+02  0.27248038623E+01  0.19387427577E+02  0.65437990370E+02  0.10000000000E+01 0.  0.
    9000005    1    3    3    0    0  0.62432633129E+02 -0.27248038623E+01  0.19138978773E+02  0.65364812736E+02  0.10000000000E+01 0.  0.
<mgrwt>
<rscale>  0 0.12500036E+03</rscale>
<asrwt>0</asrwt>
<pdfrwt beam="1">  1        4 0.13025324E-01 0.12500036E+03</pdfrwt>
<pdfrwt beam="2">  1       -4 0.70981844E-02 0.12500036E+03</pdfrwt>
<totfact> 0.10327235E+04</totfact>
</mgrwt>
</event>
<event>
 5    1  0.3246948E-002  0.1250002E+03  0.7818608E-02  0.1235069E+00
         -4   -1    0    0    0  501 -0.00000000000E+00  0.00000000000E+00  0.34350440413E+03  0.34350675184E+03  0.12700000000E+01 0.  1.
          4   -1    0    0  501    0  0.00000000000E+00 -0.00000000000E+00 -0.11333936195E+02  0.11404867806E+02  0.12700000000E+01 0.  1.
         25    2    1    2    0    0  0.00000000000E+00  0.00000000000E+00  0.33217046794E+03  0.35491161965E+03  0.12500015196E+03 0.  0.
    9000005    1    3    3    0    0  0.48394911189E+02 -0.33534995839E+02  0.10662288367E+03  0.12180354140E+03  0.10000000000E+01 0.  0.
    9000005    1    3    3    0    0 -0.48394911189E+02  0.33534995839E+02  0.22554758427E+03  0.23310807825E+03  0.10000000000E+01 0.  0.
<mgrwt>
<rscale>  0 0.12500015E+03</rscale>
<asrwt>0</asrwt>
<pdfrwt beam="2">  1        4 0.17493197E-02 0.12500015E+03</pdfrwt>
<pdfrwt beam="1">  1       -4 0.52852460E-01 0.12500015E+03</pdfrwt>
<totfact> 0.69187348E+03</totfact>
</mgrwt>
</event>
<event>
 5    1  0.3246948E-002  0.1250126E+03  0.7818608E-02  0.1235050E+00
          4   -1    0    0  501    0  0.00000000000E+00  0.00000000000E+00  0.52158436377E+03  0.52158590992E+03  0.12700000000E+01 0.  1.
         -4   -1    0    0    0  501 -0.00000000000E+00 -0.00000000000E+00 -0.74353103175E+01  0.75429927428E+01  0.12700000000E+01 0.  1.
         25    2    1    2    0    0  0.00000000000E+00  0.00000000000E+00  0.51414905345E+03  0.52912890266E+03  0.12501258524E+03 0.  0.
    9000005    1    3    3    0    0 -0.48489056205E+02 -0.36862868142E+02  0.31632752058E+03  0.32213996942E+03  0.10000000000E+01 0.  0.
    9000005    1    3    3    0    0  0.48489056205E+02  0.36862868142E+02  0.19782153287E+03  0.20698893324E+03  0.10000000000E+01 0.  0.
<mgrwt>
<rscale>  0 0.12501259E+03</rscale>
<asrwt>0</asrwt>
<pdfrwt beam="1">  1        4 0.80252139E-01 0.12501259E+03</pdfrwt>
<pdfrwt beam="2">  1       -4 0.11522963E-02 0.12501259E+03</pdfrwt>
<totfact> 0.53658259E+03</totfact>
</mgrwt>
</event>
<event>
 5    1  0.3246948E-002  0.1250003E+03  0.7818608E-02  0.1235069E+00
          4   -1    0    0  501    0  0.00000000000E+00  0.00000000000E+00  0.34469676308E+02  0.34493064299E+02  0.12700000000E+01 0.  1.
         -4   -1    0    0    0  501 -0.00000000000E+00 -0.00000000000E+00 -0.11325932815E+03  0.11326644831E+03  0.12700000000E+01 0.  1.
         25    2    1    2    0    0  0.00000000000E+00  0.00000000000E+00 -0.78789651838E+02  0.14775951261E+03  0.12500025731E+03 0.  0.
    9000005    1    3    3    0    0  0.23873321490E+02 -0.56982117937E+02 -0.28282777715E+02  0.67954490350E+02  0.10000000000E+01 0.  0.
    9000005    1    3    3    0    0 -0.23873321490E+02  0.56982117937E+02 -0.50506874124E+02  0.79805022256E+02  0.10000000000E+01 0.  0.
<mgrwt>
<rscale>  0 0.12500026E+03</rscale>
<asrwt>0</asrwt>
<pdfrwt beam="1">  1        4 0.53053740E-02 0.12500026E+03</pdfrwt>
<pdfrwt beam="2">  1       -4 0.17426859E-01 0.12500026E+03</pdfrwt>
<totfact> 0.99751617E+03</totfact>
</mgrwt>
</event>
<event>
 5    1  0.3246948E-002  0.1249555E+03  0.7818608E-02  0.1235139E+00
          4   -1    0    0  501    0  0.00000000000E+00  0.00000000000E+00  0.15534471611E+02  0.15586298734E+02  0.12700000000E+01 0. -1.
         -4   -1    0    0    0  501 -0.00000000000E+00 -0.00000000000E+00 -0.25080583295E+03  0.25080904837E+03  0.12700000000E+01 0. -1.
         25    2    1    2    0    0  0.00000000000E+00  0.00000000000E+00 -0.23527136134E+03  0.26639534710E+03  0.12495546202E+03 0.  0.
    9000005    1    3    3    0    0 -0.21837738234E+02  0.57205244128E+02 -0.14401817548E+03  0.15649780074E+03  0.10000000000E+01 0.  0.
    9000005    1    3    3    0    0  0.21837738234E+02 -0.57205244128E+02 -0.91253185858E+02  0.10989754636E+03  0.10000000000E+01 0.  0.
<mgrwt>
<rscale>  0 0.12495546E+03</rscale>
<asrwt>0</asrwt>
<pdfrwt beam="1">  1        4 0.23941529E-02 0.12495546E+03</pdfrwt>
<pdfrwt beam="2">  1       -4 0.38589744E-01 0.12495546E+03</pdfrwt>
<totfact> 0.80096205E+03</totfact>
</mgrwt>
</event>
<event>
 5    1  0.3246948E-002  0.1250001E+03  0.7818608E-02  0.1235069E+00
         -4   -1    0    0    0  501 -0.00000000000E+00  0.00000000000E+00  0.38979521612E+02  0.39000205193E+02  0.12700000000E+01 0.  1.
          4   -1    0    0  501    0  0.00000000000E+00 -0.00000000000E+00 -0.10016176551E+03  0.10016981666E+03  0.12700000000E+01 0.  1.
         25    2    1    2    0    0  0.00000000000E+00  0.00000000000E+00 -0.61182243897E+02  0.13917002185E+03  0.12500011206E+03 0.  0.
    9000005    1    3    3    0    0 -0.27396268364E+02 -0.54566410228E+02 -0.15770125816E+02  0.63069370647E+02  0.10000000000E+01 0.  0.
    9000005    1    3    3    0    0  0.27396268364E+02  0.54566410228E+02 -0.45412118080E+02  0.76100651207E+02  0.10000000000E+01 0.  0.
<mgrwt>
<rscale>  0 0.12500011E+03</rscale>
<asrwt>0</asrwt>
<pdfrwt beam="2">  1        4 0.15411713E-01 0.12500011E+03</pdfrwt>
<pdfrwt beam="1">  1       -4 0.59990599E-02 0.12500011E+03</pdfrwt>
<totfact> 0.10150791E+04</totfact>
</mgrwt>
</event>
<event>
 5    1  0.3246948E-002  0.1249617E+03  0.7818608E-02  0.1235129E+00
          4   -1    0    0  501    0  0.00000000000E+00  0.00000000000E+00  0.14765233520E+03  0.14765779692E+03  0.12700000000E+01 0.  1.
         -4   -1    0    0    0  501 -0.00000000000E+00 -0.00000000000E+00 -0.26418298659E+02  0.26448807233E+02  0.12700000000E+01 0.  1.
         25    2    1    2    0    0  0.00000000000E+00  0.00000000000E+00  0.12123403654E+03  0.17410660415E+03  0.12496166609E+03 0.  0.
    9000005    1    3    3    0    0  0.11030838074E+02  0.28585088953E+02 -0.15237683399E+02  0.34234101338E+02  0.10000000000E+01 0.  0.
    9000005    1    3    3    0    0 -0.11030838074E+02 -0.28585088953E+02  0.13647171994E+03  0.13987250281E+03  0.10000000000E+01 0.  0.
<mgrwt>
<rscale>  0 0.12496167E+03</rscale>
<asrwt>0</asrwt>
<pdfrwt beam="1">  1        4 0.22718511E-01 0.12496167E+03</pdfrwt>
<pdfrwt beam="2">  1       -4 0.40671206E-02 0.12496167E+03</pdfrwt>
<totfact> 0.94770200E+03</totfact>
</mgrwt>
</event>
<event>
 5    1  0.3246948E-002  0.1249989E+03  0.7818608E-02  0.1235071E+00
         -4   -1    0    0    0  501 -0.00000000000E+00  0.00000000000E+00  0.20587598248E+02  0.20626732693E+02  0.12700000000E+01 0.  1.
          4   -1    0    0  501    0  0.00000000000E+00 -0.00000000000E+00 -0.18951320629E+03  0.18951746162E+03  0.12700000000E+01 0.  1.
         25    2    1    2    0    0  0.00000000000E+00  0.00000000000E+00 -0.16892560805E+03  0.21014419432E+03  0.12499888540E+03 0.  0.
    9000005    1    3    3    0    0  0.24784650308E+02  0.56899013594E+02 -0.96748419683E+02  0.11494795931E+03  0.10000000000E+01 0.  0.
    9000005    1    3    3    0    0 -0.24784650308E+02 -0.56899013594E+02 -0.72177188363E+02  0.95196235003E+02  0.10000000000E+01 0.  0.
<mgrwt>
<rscale>  0 0.12499889E+03</rscale>
<asrwt>0</asrwt>
<pdfrwt beam="2">  1        4 0.29159214E-01 0.12499889E+03</pdfrwt>
<pdfrwt beam="1">  1       -4 0.31706606E-02 0.12499889E+03</pdfrwt>
<totfact> 0.88454542E+03</totfact>
</mgrwt>
</event>
<event>
 5    1  0.3246948E-002  0.1250070E+03  0.7818608E-02  0.1235058E+00
          4   -1    0    0  501    0  0.00000000000E+00  0.00000000000E+00  0.16794720964E+03  0.16795201137E+03  0.12700000000E+01 0.  1.
         -4   -1    0    0    0  501 -0.00000000000E+00 -0.00000000000E+00 -0.23238920553E+02  0.23273597240E+02  0.12700000000E+01 0.  1.
         25    2    1    2    0    0  0.00000000000E+00  0.00000000000E+00  0.14470828908E+03  0.19122560861E+03  0.12500697765E+03 0.  0.
    9000005    1    3    3    0    0 -0.13917277035E+02 -0.26113188439E+02  0.15655956632E+03  0.15933451295E+03  0.10000000000E+01 0.  0.
    9000005    1    3    3    0    0  0.13917277035E+02  0.26113188439E+02 -0.11851277237E+02  0.31891095664E+02  0.10000000000E+01 0.  0.
<mgrwt>
<rscale>  0 0.12500698E+03</rscale>
<asrwt>0</asrwt>
<pdfrwt beam="1">  1        4 0.25841069E-01 0.12500698E+03</pdfrwt>
<pdfrwt beam="2">  1       -4 0.35782554E-02 0.12500698E+03</pdfrwt>
<totfact> 0.91620180E+03</totfact>
</mgrwt>
</event>
<event>
 5    1  0.3246948E-002  0.1250051E+03  0.7818608E-02  0.1235061E+00
          4   -1    0    0  501    0  0.00000000000E+00  0.00000000000E+00  0.37358538285E+03  0.37358754152E+03  0.12700000000E+01 0.  1.
         -4   -1    0    0    0  501 -0.00000000000E+00 -0.00000000000E+00 -0.10416207582E+02  0.10493344576E+02  0.12700000000E+01 0.  1.
         25    2    1    2    0    0  0.00000000000E+00  0.00000000000E+00  0.36316917526E+03  0.38408088609E+03  0.12500510869E+03 0.  0.
    9000005    1    3    3    0    0  0.24685321379E+00 -0.52107362862E+01  0.37293032924E+03  0.37296815303E+03  0.10000000000E+01 0.  0.
    9000005    1    3    3    0    0 -0.24685321379E+00  0.52107362862E+01 -0.97611539751E+01  0.11112733061E+02  0.10000000000E+01 0.  0.
<mgrwt>
<rscale>  0 0.12500511E+03</rscale>
<asrwt>0</asrwt>
<pdfrwt beam="1">  1        4 0.57480765E-01 0.12500511E+03</pdfrwt>
<pdfrwt beam="2">  1       -4 0.16085934E-02 0.12500511E+03</pdfrwt>
<totfact> 0.66123622E+03</totfact>
</mgrwt>
</event>
<event>
 5    1  0.3246948E-002  0.1249887E+03  0.7818608E-02  0.1235087E+00
          4   -1    0    0  501    0  0.00000000000E+00  0.00000000000E+00  0.50534884629E+02  0.50550840393E+02  0.12700000000E+01 0.  1.
         -4   -1    0    0    0  501 -0.00000000000E+00 -0.00000000000E+00 -0.77250779001E+02  0.77261217673E+02  0.12700000000E+01 0.  1.
         25    2    1    2    0    0  0.00000000000E+00  0.00000000000E+00 -0.26715894372E+02  0.12781205807E+03  0.12498873219E+03 0.  0.
    9000005    1    3    3    0    0 -0.18838896896E+02 -0.56404812570E+02 -0.32978299720E+02  0.68007169988E+02  0.10000000000E+01 0.  0.
    9000005    1    3    3    0    0  0.18838896896E+02  0.56404812570E+02  0.62624053472E+01  0.59804888078E+02  0.10000000000E+01 0.  0.
<mgrwt>
<rscale>  0 0.12498873E+03</rscale>
<asrwt>0</asrwt>
<pdfrwt beam="1">  1        4 0.77766279E-02 0.12498873E+03</pdfrwt>
<pdfrwt beam="2">  1       -4 0.11886766E-01 0.12498873E+03</pdfrwt>
<totfact> 0.10394192E+04</totfact>
</mgrwt>
</event>
<event>
 5    1  0.3246948E-002  0.1250026E+03  0.7818608E-02  0.1235065E+00
          4   -1    0    0  501    0  0.00000000000E+00  0.00000000000E+00  0.25814949798E+03  0.25815262193E+03  0.12700000000E+01 0.  1.
         -4   -1    0    0    0  501 -0.00000000000E+00 -0.00000000000E+00 -0.15102498113E+02  0.15155802495E+02  0.12700000000E+01 0.  1.
         25    2    1    2    0    0  0.00000000000E+00  0.00000000000E+00  0.24304699987E+03  0.27330842442E+03  0.12500260283E+03 0.  0.
    9000005    1    3    3    0    0  0.11145290616E+02  0.53589285782E+02  0.18745721203E+03  0.19528757102E+03  0.10000000000E+01 0.  0.
    9000005    1    3    3    0    0 -0.11145290616E+02 -0.53589285782E+02  0.55589787840E+02  0.78020853403E+02  0.10000000000E+01 0.  0.
<mgrwt>
<rscale>  0 0.12500260E+03</rscale>
<asrwt>0</asrwt>
<pdfrwt beam="1">  1        4 0.39719650E-01 0.12500260E+03</pdfrwt>
<pdfrwt beam="2">  1       -4 0.23278018E-02 0.12500260E+03</pdfrwt>
<totfact> 0.79069228E+03</totfact>
</mgrwt>
</event>
<event>
 5    1  0.3246948E-002  0.1250015E+03  0.7818608E-02  0.1235067E+00
          4   -1    0    0  501    0  0.00000000000E+00  0.00000000000E+00  0.79636445486E+01  0.80642751997E+01  0.12700000000E+01 0.  1.
         -4   -1    0    0    0  501 -0.00000000000E+00 -0.00000000000E+00 -0.48734126049E+03  0.48734291528E+03  0.12700000000E+01 0.  1.
         25    2    1    2    0    0  0.00000000000E+00  0.00000000000E+00 -0.47937761594E+03  0.49540719048E+03  0.12500154285E+03 0.  0.
    9000005    1    3    3    0    0 -0.63218942260E+01  0.58640420522E+01  0.56140549511E+01  0.10337840625E+02  0.10000000000E+01 0.  0.
    9000005    1    3    3    0    0  0.63218942260E+01 -0.58640420522E+01 -0.48499167089E+03  0.48506934986E+03  0.10000000000E+01 0.  0.
<mgrwt>
<rscale>  0 0.12500154E+03</rscale>
<asrwt>0</asrwt>
<pdfrwt beam="1">  1        4 0.12330446E-02 0.12500154E+03</pdfrwt>
<pdfrwt beam="2">  1       -4 0.74983423E-01 0.12500154E+03</pdfrwt>
<totfact> 0.56220583E+03</totfact>
</mgrwt>
</event>
<event>
 5    1  0.3246948E-002  0.1249832E+03  0.7818608E-02  0.1235095E+00
         -4   -1    0    0    0  501 -0.00000000000E+00  0.00000000000E+00  0.65238961600E+02  0.65251321907E+02  0.12700000000E+01 0.  1.
          4   -1    0    0  501    0  0.00000000000E+00 -0.00000000000E+00 -0.59835205179E+02  0.59848681513E+02  0.12700000000E+01 0.  1.
         25    2    1    2    0    0  0.00000000000E+00  0.00000000000E+00  0.54037564209E+01  0.12510000342E+03  0.12498323997E+03 0.  0.
    9000005    1    3    3    0    0  0.77604971678E+01  0.61997528208E+02  0.32350557640E+01  0.62573032578E+02  0.10000000000E+01 0.  0.
    9000005    1    3    3    0    0 -0.77604971678E+01 -0.61997528208E+02  0.21687006569E+01  0.62526970842E+02  0.10000000000E+01 0.  0.
<mgrwt>
<rscale>  0 0.12498324E+03</rscale>
<asrwt>0</asrwt>
<pdfrwt beam="2">  1        4 0.92074037E-02 0.12498324E+03</pdfrwt>
<pdfrwt beam="1">  1       -4 0.10038751E-01 0.12498324E+03</pdfrwt>
<totfact> 0.10454650E+04</totfact>
</mgrwt>
</event>
<event>
 5    1  0.3246948E-002  0.1249955E+03  0.7818608E-02  0.1235076E+00
          4   -1    0    0  501    0  0.00000000000E+00  0.00000000000E+00  0.89980475484E+02  0.89989437537E+02  0.12700000000E+01 0. -1.
         -4   -1    0    0    0  501 -0.00000000000E+00 -0.00000000000E+00 -0.43388620848E+02  0.43407203539E+02  0.12700000000E+01 0. -1.
         25    2    1    2    0    0  0.00000000000E+00  0.00000000000E+00  0.46591854636E+02  0.13339664108E+03  0.12499545165E+03 0.  0.
    9000005    1    3    3    0    0  0.39889401194E+02  0.46774697099E+02  0.11319872847E+02  0.62515407202E+02  0.10000000000E+01 0.  0.
    9000005    1    3    3    0    0 -0.39889401194E+02 -0.46774697099E+02  0.35271981789E+02  0.70881233875E+02  0.10000000000E+01 0.  0.
<mgrwt>
<rscale>  0 0.12499545E+03</rscale>
<asrwt>0</asrwt>
<pdfrwt beam="1">  1        4 0.13845269E-01 0.12499545E+03</pdfrwt>
<pdfrwt beam="2">  1       -4 0.66772914E-02 0.12499545E+03</pdfrwt>
<totfact> 0.10273031E+04</totfact>
</mgrwt>
</event>
<event>
 5    1  0.3246948E-002  0.1249990E+03  0.7818608E-02  0.1235071E+00
          4   -1    0    0  501    0  0.00000000000E+00  0.00000000000E+00  0.25993654540E+02  0.26024660926E+02  0.12700000000E+01 0.  1.
         -4   -1    0    0    0  501 -0.00000000000E+00 -0.00000000000E+00 -0.15015130987E+03  0.15015668069E+03  0.12700000000E+01 0.  1.
         25    2    1    2    0    0  0.00000000000E+00  0.00000000000E+00 -0.12415765533E+03  0.17618134162E+03  0.12499896702E+03 0.  0.
    9000005    1    3    3    0    0  0.35152253884E+02 -0.51385887915E+02 -0.54489293604E+02  0.82742211400E+02  0.10000000000E+01 0.  0.
    9000005    1    3    3    0    0 -0.35152253884E+02  0.51385887915E+02 -0.69668361728E+02  0.93439130217E+02  0.10000000000E+01 0.  0.
<mgrwt>
<rscale>  0 0.12499897E+03</rscale>
<asrwt>0</asrwt>
<pdfrwt beam="1">  1        4 0.40018221E-02 0.12499897E+03</pdfrwt>
<pdfrwt beam="2">  1       -4 0.23102999E-01 0.12499897E+03</pdfrwt>
<totfact> 0.94311110E+03</totfact>
</mgrwt>
</event>
<event>
 5    1  0.3246948E-002  0.1250008E+03  0.7818608E-02  0.1235068E+00
          4   -1    0    0  501    0  0.00000000000E+00  0.00000000000E+00  0.59778745381E+02  0.59792234440E+02  0.12700000000E+01 0.  1.
         -4   -1    0    0    0  501 -0.00000000000E+00 -0.00000000000E+00 -0.65318902059E+02  0.65331247242E+02  0.12700000000E+01 0.  1.
         25    2    1    2    0    0  0.00000000000E+00  0.00000000000E+00 -0.55401566779E+01  0.12512348168E+03  0.12500076933E+03 0.  0.
    9000005    1    3    3    0    0 -0.13568080188E+01 -0.57669465297E+01  0.59501921039E+02  0.59804491534E+02  0.10000000000E+01 0.  0.
    9000005    1    3    3    0    0  0.13568080188E+01  0.57669465297E+01 -0.65042077717E+02  0.65318990148E+02  0.10000000000E+01 0.  0.
<mgrwt>
<rscale>  0 0.12500077E+03</rscale>
<asrwt>0</asrwt>
<pdfrwt beam="1">  1        4 0.91987173E-02 0.12500077E+03</pdfrwt>
<pdfrwt beam="2">  1       -4 0.10051049E-01 0.12500077E+03</pdfrwt>
<totfact> 0.10450000E+04</totfact>
</mgrwt>
</event>
<event>
 5    1  0.3246948E-002  0.1249995E+03  0.7818608E-02  0.1235070E+00
          4   -1    0    0  501    0  0.00000000000E+00  0.00000000000E+00  0.98261059891E+02  0.98269266767E+02  0.12700000000E+01 0.  1.
         -4   -1    0    0    0  501 -0.00000000000E+00 -0.00000000000E+00 -0.39733481117E+02  0.39753772421E+02  0.12700000000E+01 0.  1.
         25    2    1    2    0    0  0.00000000000E+00  0.00000000000E+00  0.58527578774E+02  0.13802303919E+03  0.12499952748E+03 0.  0.
    9000005    1    3    3    0    0  0.48824675531E+02  0.14198538568E+02 -0.10849921425E+02  0.52001617600E+02  0.10000000000E+01 0.  0.
    9000005    1    3    3    0    0 -0.48824675531E+02 -0.14198538568E+02  0.69377500199E+02  0.86021421588E+02  0.10000000000E+01 0.  0.
<mgrwt>
<rscale>  0 0.12499953E+03</rscale>
<asrwt>0</asrwt>
<pdfrwt beam="1">  1        4 0.15119278E-01 0.12499953E+03</pdfrwt>
<pdfrwt beam="2">  1       -4 0.61150355E-02 0.12499953E+03</pdfrwt>
<totfact> 0.10174833E+04</totfact>
</mgrwt>
</event>
<event>
 5    1  0.3246948E-002  0.1249988E+03  0.7818608E-02  0.1235071E+00
          4   -1    0    0  501    0  0.00000000000E+00  0.00000000000E+00  0.39125642213E+02  0.39146248589E+02  0.12700000000E+01 0. -1.
         -4   -1    0    0    0  501 -0.00000000000E+00 -0.00000000000E+00 -0.99785698003E+02  0.99793779496E+02  0.12700000000E+01 0. -1.
         25    2    1    2    0    0  0.00000000000E+00  0.00000000000E+00 -0.60660055791E+02  0.13894002808E+03  0.12499875614E+03 0.  0.
    9000005    1    3    3    0    0  0.51795192191E+02 -0.31641934372E+02 -0.13797767772E+02  0.62252167355E+02  0.10000000000E+01 0.  0.
    9000005    1    3    3    0    0 -0.51795192191E+02  0.31641934372E+02 -0.46862288019E+02  0.76687860729E+02  0.10000000000E+01 0.  0.
<mgrwt>
<rscale>  0 0.12499876E+03</rscale>
<asrwt>0</asrwt>
<pdfrwt beam="1">  1        4 0.60215364E-02 0.12499876E+03</pdfrwt>
<pdfrwt beam="2">  1       -4 0.15353852E-01 0.12499876E+03</pdfrwt>
<totfact> 0.10155886E+04</totfact>
</mgrwt>
</event>
<event>
 5    1  0.3246948E-002  0.1249861E+03  0.7818608E-02  0.1235091E+00
          4   -1    0    0  501    0  0.00000000000E+00  0.00000000000E+00  0.22045149219E+03  0.22045515033E+03  0.12700000000E+01 0. -1.
         -4   -1    0    0    0  501 -0.00000000000E+00 -0.00000000000E+00 -0.17688802170E+02  0.17734334558E+02  0.12700000000E+01 0. -1.
         25    2    1    2    0    0  0.00000000000E+00  0.00000000000E+00  0.20276269002E+03  0.23818948489E+03  0.12498608822E+03 0.  0.
    9000005    1    3    3    0    0 -0.47570574046E+02 -0.37563890473E+02  0.13030670368E+03  0.14371792653E+03  0.10000000000E+01 0.  0.
    9000005    1    3    3    0    0  0.47570574046E+02  0.37563890473E+02  0.72455986340E+02  0.94471558361E+02  0.10000000000E+01 0.  0.
<mgrwt>
<rscale>  0 0.12498609E+03</rscale>
<asrwt>0</asrwt>
<pdfrwt beam="1">  1        4 0.33919399E-01 0.12498609E+03</pdfrwt>
<pdfrwt beam="2">  1       -4 0.27251380E-02 0.12498609E+03</pdfrwt>
<totfact> 0.84093833E+03</totfact>
</mgrwt>
</event>
<event>
 5    1  0.3246948E-002  0.1249961E+03  0.7818608E-02  0.1235075E+00
          4   -1    0    0  501    0  0.00000000000E+00  0.00000000000E+00  0.23171151747E+01  0.26423328203E+01  0.12700000000E+01 0. -1.
         -4   -1    0    0    0  501 -0.00000000000E+00 -0.00000000000E+00 -0.15748528864E+04  0.15748533985E+04  0.12700000000E+01 0. -1.
         25    2    1    2    0    0  0.00000000000E+00  0.00000000000E+00 -0.15725357712E+04  0.15774957313E+04  0.12499612188E+03 0.  0.
    9000005    1    3    3    0    0  0.33990371053E+02  0.26192902930E+02 -0.13595703335E+04  0.13602477367E+04  0.10000000000E+01 0.  0.
    9000005    1    3    3    0    0 -0.33990371053E+02 -0.26192902930E+02 -0.21296543771E+03  0.21724799458E+03  0.10000000000E+01 0.  0.
<mgrwt>
<rscale>  0 0.12499612E+03</rscale>
<asrwt>0</asrwt>
<pdfrwt beam="1">  1        4 0.38153665E-03 0.12499612E+03</pdfrwt>
<pdfrwt beam="2">  1       -4 0.24230932E+00 0.12499612E+03</pdfrwt>
<totfact> 0.16457855E+03</totfact>
</mgrwt>
</event>
<event>
 5    1  0.3246948E-002  0.1250034E+03  0.7818608E-02  0.1235064E+00
         -4   -1    0    0    0  501 -0.00000000000E+00  0.00000000000E+00  0.63792336540E+01  0.65044232651E+01  0.12700000000E+01 0.  1.
          4   -1    0    0  501    0  0.00000000000E+00 -0.00000000000E+00 -0.60629526447E+03  0.60629659459E+03  0.12700000000E+01 0.  1.
         25    2    1    2    0    0  0.00000000000E+00  0.00000000000E+00 -0.59991603081E+03  0.61280101786E+03  0.12500337380E+03 0.  0.
    9000005    1    3    3    0    0  0.56213695266E+02  0.14429472441E+02 -0.18632757031E+03  0.19515930075E+03  0.10000000000E+01 0.  0.
    9000005    1    3    3    0    0 -0.56213695266E+02 -0.14429472441E+02 -0.41358846050E+03  0.41764171711E+03  0.10000000000E+01 0.  0.
<mgrwt>
<rscale>  0 0.12500337E+03</rscale>
<asrwt>0</asrwt>
<pdfrwt beam="2">  1        4 0.93285882E-01 0.12500337E+03</pdfrwt>
<pdfrwt beam="1">  1       -4 0.99115333E-03 0.12500337E+03</pdfrwt>
<totfact> 0.48065878E+03</totfact>
</mgrwt>
</event>
<event>
 5    1  0.3246948E-002  0.1250049E+03  0.7818608E-02  0.1235062E+00
          4   -1    0    0  501    0  0.00000000000E+00  0.00000000000E+00  0.74099752818E+02  0.74110635321E+02  0.12700000000E+01 0. -1.
         -4   -1    0    0    0  501 -0.00000000000E+00 -0.00000000000E+00 -0.52697866242E+02  0.52713167297E+02  0.12700000000E+01 0. -1.
         25    2    1    2    0    0  0.00000000000E+00  0.00000000000E+00  0.21401886576E+02  0.12682380262E+03  0.12500494455E+03 0.  0.
    9000005    1    3    3    0    0 -0.10506168928E+01 -0.54655023148E+02 -0.20026428447E+02  0.58226567712E+02  0.10000000000E+01 0.  0.
    9000005    1    3    3    0    0  0.10506168928E+01  0.54655023148E+02  0.41428315023E+02  0.68597234906E+02  0.10000000000E+01 0.  0.
<mgrwt>
<rscale>  0 0.12500494E+03</rscale>
<asrwt>0</asrwt>
<pdfrwt beam="1">  1        4 0.11401976E-01 0.12500494E+03</pdfrwt>
<pdfrwt beam="2">  1       -4 0.81093782E-02 0.12500494E+03</pdfrwt>
<totfact> 0.10411814E+04</totfact>
</mgrwt>
</event>
<event>
 5    1  0.3246948E-002  0.1250031E+03  0.7818608E-02  0.1235064E+00
          4   -1    0    0  501    0  0.00000000000E+00  0.00000000000E+00  0.53046805632E+02  0.53062006066E+02  0.12700000000E+01 0.  1.
         -4   -1    0    0    0  501 -0.00000000000E+00 -0.00000000000E+00 -0.73610195761E+02  0.73621150630E+02  0.12700000000E+01 0.  1.
         25    2    1    2    0    0  0.00000000000E+00  0.00000000000E+00 -0.20563390129E+02  0.12668315670E+03  0.12500307667E+03 0.  0.
    9000005    1    3    3    0    0  0.46041328661E+02  0.28661264034E+02 -0.41750123005E+02  0.68449578317E+02  0.10000000000E+01 0.  0.
    9000005    1    3    3    0    0 -0.46041328661E+02 -0.28661264034E+02  0.21186732876E+02  0.58233578379E+02  0.10000000000E+01 0.  0.
<mgrwt>
<rscale>  0 0.12500308E+03</rscale>
<asrwt>0</asrwt>
<pdfrwt beam="1">  1        4 0.81630589E-02 0.12500308E+03</pdfrwt>
<pdfrwt beam="2">  1       -4 0.11326657E-01 0.12500308E+03</pdfrwt>
<totfact> 0.10415314E+04</totfact>
</mgrwt>
</event>
<event>
 5    1  0.3246948E-002  0.1249978E+03  0.7818608E-02  0.1235073E+00
         -4   -1    0    0    0  501 -0.00000000000E+00  0.00000000000E+00  0.19700157657E+03  0.19700567015E+03  0.12700000000E+01 0.  1.
          4   -1    0    0  501    0  0.00000000000E+00 -0.00000000000E+00 -0.19803171792E+02  0.19843853280E+02  0.12700000000E+01 0.  1.
         25    2    1    2    0    0  0.00000000000E+00  0.00000000000E+00  0.17719840478E+03  0.21684952343E+03  0.12499776460E+03 0.  0.
    9000005    1    3    3    0    0 -0.18551927585E+02  0.49084905708E+02  0.14747117929E+03  0.15653194787E+03  0.10000000000E+01 0.  0.
    9000005    1    3    3    0    0  0.18551927585E+02 -0.49084905708E+02  0.29727225495E+02  0.60317575557E+02  0.10000000000E+01 0.  0.
<mgrwt>
<rscale>  0 0.12499776E+03</rscale>
<asrwt>0</asrwt>
<pdfrwt beam="2">  1        4 0.30500862E-02 0.12499776E+03</pdfrwt>
<pdfrwt beam="1">  1       -4 0.30311378E-01 0.12499776E+03</pdfrwt>
<totfact> 0.87373704E+03</totfact>
</mgrwt>
</event>
<event>
 5    1  0.3246948E-002  0.1250008E+03  0.7818608E-02  0.1235068E+00
          4   -1    0    0  501    0  0.00000000000E+00  0.00000000000E+00  0.36476280694E+01  0.38623944041E+01  0.12700000000E+01 0.  1.
         -4   -1    0    0    0  501 -0.00000000000E+00 -0.00000000000E+00 -0.10400746399E+04  0.10400754152E+04  0.12700000000E+01 0.  1.
         25    2    1    2    0    0  0.00000000000E+00  0.00000000000E+00 -0.10364270118E+04  0.10439378096E+04  0.12500079851E+03 0.  0.
    9000005    1    3    3    0    0  0.35799996016E+02 -0.49080862860E+02 -0.39583439740E+03  0.40047027478E+03  0.10000000000E+01 0.  0.
    9000005    1    3    3    0    0 -0.35799996016E+02  0.49080862860E+02 -0.64059261438E+03  0.64346753485E+03  0.10000000000E+01 0.  0.
<mgrwt>
<rscale>  0 0.12500080E+03</rscale>
<asrwt>0</asrwt>
<pdfrwt beam="1">  1        4 0.57775451E-03 0.12500080E+03</pdfrwt>
<pdfrwt beam="2">  1       -4 0.16002783E+00 0.12500080E+03</pdfrwt>
<totfact> 0.29184347E+03</totfact>
</mgrwt>
</event>
<event>
 5    1  0.3246948E-002  0.1250026E+03  0.7818608E-02  0.1235065E+00
          4   -1    0    0  501    0  0.00000000000E+00  0.00000000000E+00  0.10431234647E+03  0.10432007729E+03  0.12700000000E+01 0. -1.
         -4   -1    0    0    0  501 -0.00000000000E+00 -0.00000000000E+00 -0.37429307920E+02  0.37450847672E+02  0.12700000000E+01 0. -1.
         25    2    1    2    0    0  0.00000000000E+00  0.00000000000E+00  0.66883038548E+02  0.14177092496E+03  0.12500261725E+03 0.  0.
    9000005    1    3    3    0    0 -0.10260579765E+02 -0.51001152140E+02  0.72713305758E+02  0.89412649279E+02  0.10000000000E+01 0.  0.
    9000005    1    3    3    0    0  0.10260579765E+02  0.51001152140E+02 -0.58302672101E+01  0.52358275683E+02  0.10000000000E+01 0.  0.
<mgrwt>
<rscale>  0 0.12500262E+03</rscale>
<asrwt>0</asrwt>
<pdfrwt beam="1">  1        4 0.16050305E-01 0.12500262E+03</pdfrwt>
<pdfrwt beam="2">  1       -4 0.57606066E-02 0.12500262E+03</pdfrwt>
<totfact> 0.10096418E+04</totfact>
</mgrwt>
</event>
<event>
 5    1  0.3246948E-002  0.1249979E+03  0.7818608E-02  0.1235073E+00
         -4   -1    0    0    0  501 -0.00000000000E+00  0.00000000000E+00  0.29722224727E+03  0.29722496055E+03  0.12700000000E+01 0. -1.
          4   -1    0    0  501    0  0.00000000000E+00 -0.00000000000E+00 -0.13108609019E+02  0.13169985968E+02  0.12700000000E+01 0. -1.
         25    2    1    2    0    0  0.00000000000E+00  0.00000000000E+00  0.28411363825E+03  0.31039494652E+03  0.12499785351E+03 0.  0.
    9000005    1    3    3    0    0 -0.19587666634E+02  0.50150402338E+02  0.63281115958E+02  0.83091751550E+02  0.10000000000E+01 0.  0.
    9000005    1    3    3    0    0  0.19587666634E+02 -0.50150402338E+02  0.22083252229E+03  0.22730319497E+03  0.10000000000E+01 0.  0.
<mgrwt>
<rscale>  0 0.12499785E+03</rscale>
<asrwt>0</asrwt>
<pdfrwt beam="2">  1        4 0.20216391E-02 0.12499785E+03</pdfrwt>
<pdfrwt beam="1">  1       -4 0.45731430E-01 0.12499785E+03</pdfrwt>
<totfact> 0.74316682E+03</totfact>
</mgrwt>
</event>
<event>
 5    1  0.3246948E-002  0.1250058E+03  0.7818608E-02  0.1235060E+00
         -4   -1    0    0    0  501 -0.00000000000E+00  0.00000000000E+00  0.81054632125E+03  0.81054731619E+03  0.12700000000E+01 0.  1.
          4   -1    0    0  501    0  0.00000000000E+00 -0.00000000000E+00 -0.47350473902E+01  0.49024048983E+01  0.12700000000E+01 0.  1.
         25    2    1    2    0    0  0.00000000000E+00  0.00000000000E+00  0.80581127386E+03  0.81544972109E+03  0.12500575408E+03 0.  0.
    9000005    1    3    3    0    0  0.33875658989E+02  0.18963896115E+02  0.83435841464E+02  0.92031132062E+02  0.10000000000E+01 0.  0.
    9000005    1    3    3    0    0 -0.33875658989E+02 -0.18963896115E+02  0.72237543239E+03  0.72341858903E+03  0.10000000000E+01 0.  0.
<mgrwt>
<rscale>  0 0.12500575E+03</rscale>
<asrwt>0</asrwt>
<pdfrwt beam="2">  1        4 0.74141918E-03 0.12500575E+03</pdfrwt>
<pdfrwt beam="1">  1       -4 0.12471236E+00 0.12500575E+03</pdfrwt>
<totfact> 0.37579533E+03</totfact>
</mgrwt>
</event>
<event>
 5    1  0.3246948E-002  0.1249984E+03  0.7818608E-02  0.1235072E+00
         -4   -1    0    0    0  501 -0.00000000000E+00  0.00000000000E+00  0.17113267301E+02  0.17160326853E+02  0.12700000000E+01 0. -1.
          4   -1    0    0  501    0  0.00000000000E+00 -0.00000000000E+00 -0.22789046782E+03  0.22789400656E+03  0.12700000000E+01 0. -1.
         25    2    1    2    0    0  0.00000000000E+00  0.00000000000E+00 -0.21077720052E+03  0.24505433341E+03  0.12499839224E+03 0.  0.
    9000005    1    3    3    0    0  0.36591494326E+02 -0.23970978086E+02 -0.19287881529E+03  0.19777963149E+03  0.10000000000E+01 0.  0.
    9000005    1    3    3    0    0 -0.36591494326E+02  0.23970978086E+02 -0.17898385238E+02  0.47274701919E+02  0.10000000000E+01 0.  0.
<mgrwt>
<rscale>  0 0.12499839E+03</rscale>
<asrwt>0</asrwt>
<pdfrwt beam="2">  1        4 0.35063962E-01 0.12499839E+03</pdfrwt>
<pdfrwt beam="1">  1       -4 0.26367027E-02 0.12499839E+03</pdfrwt>
<totfact> 0.83053303E+03</totfact>
</mgrwt>
</event>
<event>
 5    1  0.3246948E-002  0.1250044E+03  0.7818608E-02  0.1235062E+00
          4   -1    0    0  501    0  0.00000000000E+00  0.00000000000E+00  0.54828791644E+02  0.54843498184E+02  0.12700000000E+01 0. -1.
         -4   -1    0    0    0  501 -0.00000000000E+00 -0.00000000000E+00 -0.71219571318E+02  0.71230893851E+02  0.12700000000E+01 0. -1.
         25    2    1    2    0    0  0.00000000000E+00  0.00000000000E+00 -0.16390779675E+02  0.12607439204E+03  0.12500437860E+03 0.  0.
    9000005    1    3    3    0    0  0.40379247327E+02  0.33020898237E+02  0.26518124270E+02  0.58524133910E+02  0.10000000000E+01 0.  0.
    9000005    1    3    3    0    0 -0.40379247327E+02 -0.33020898237E+02 -0.42908903945E+02  0.67550258126E+02  0.10000000000E+01 0.  0.
<mgrwt>
<rscale>  0 0.12500438E+03</rscale>
<asrwt>0</asrwt>
<pdfrwt beam="1">  1        4 0.84372009E-02 0.12500438E+03</pdfrwt>
<pdfrwt beam="2">  1       -4 0.10958859E-01 0.12500438E+03</pdfrwt>
<totfact> 0.10428297E+04</totfact>
</mgrwt>
</event>
<event>
 5    1  0.3246948E-002  0.1249977E+03  0.7818608E-02  0.1235073E+00
         -4   -1    0    0    0  501 -0.00000000000E+00  0.00000000000E+00  0.25231004838E+02  0.25262947277E+02  0.12700000000E+01 0.  1.
          4   -1    0    0  501    0  0.00000000000E+00 -0.00000000000E+00 -0.15468119481E+03  0.15468640835E+03  0.12700000000E+01 0.  1.
         25    2    1    2    0    0  0.00000000000E+00  0.00000000000E+00 -0.12945018997E+03  0.17994935562E+03  0.12499767560E+03 0.  0.
    9000005    1    3    3    0    0  0.34207937599E+02 -0.22181261743E+02 -0.13290471988E+03  0.13902106291E+03  0.10000000000E+01 0.  0.
    9000005    1    3    3    0    0 -0.34207937599E+02  0.22181261743E+02  0.34545299099E+01  0.40928292710E+02  0.10000000000E+01 0.  0.
<mgrwt>
<rscale>  0 0.12499768E+03</rscale>
<asrwt>0</asrwt>
<pdfrwt beam="2">  1        4 0.23799964E-01 0.12499768E+03</pdfrwt>
<pdfrwt beam="1">  1       -4 0.38845513E-02 0.12499768E+03</pdfrwt>
<totfact> 0.93631000E+03</totfact>
</mgrwt>
</event>
<event>
 5    1  0.3246948E-002  0.1250012E+03  0.7818608E-02  0.1235067E+00
          4   -1    0    0  501    0  0.00000000000E+00  0.00000000000E+00  0.20226334885E+02  0.20266166951E+02  0.12700000000E+01 0. -1.
         -4   -1    0    0    0  501 -0.00000000000E+00 -0.00000000000E+00 -0.19289872697E+03  0.19290290762E+03  0.12700000000E+01 0. -1.
         25    2    1    2    0    0  0.00000000000E+00  0.00000000000E+00 -0.17267239209E+03  0.21316907457E+03  0.12500119745E+03 0.  0.
    9000005    1    3    3    0    0 -0.20647639774E+02 -0.58978850673E+02 -0.85136402797E+02  0.10561267413E+03  0.10000000000E+01 0.  0.
    9000005    1    3    3    0    0  0.20647639774E+02  0.58978850673E+02 -0.87535989290E+02  0.10755640044E+03  0.10000000000E+01 0.  0.
<mgrwt>
<rscale>  0 0.12500120E+03</rscale>
<asrwt>0</asrwt>
<pdfrwt beam="1">  1        4 0.31151295E-02 0.12500120E+03</pdfrwt>
<pdfrwt beam="2">  1       -4 0.29680112E-01 0.12500120E+03</pdfrwt>
<totfact> 0.87958577E+03</totfact>
</mgrwt>
</event>
<event>
 5    1  0.3246948E-002  0.1249975E+03  0.7818608E-02  0.1235073E+00
         -4   -1    0    0    0  501 -0.00000000000E+00  0.00000000000E+00  0.34226876886E+03  0.34227112504E+03  0.12700000000E+01 0. -1.
          4   -1    0    0  501    0  0.00000000000E+00 -0.00000000000E+00 -0.11374627992E+02  0.11445307421E+02  0.12700000000E+01 0. -1.
         25    2    1    2    0    0  0.00000000000E+00  0.00000000000E+00  0.33089414087E+03  0.35371643247E+03  0.12499752851E+03 0.  0.
    9000005    1    3    3    0    0  0.44955669044E+02  0.29342138441E+02  0.25596144984E+03  0.26153247805E+03  0.10000000000E+01 0.  0.
    9000005    1    3    3    0    0 -0.44955669044E+02 -0.29342138441E+02  0.74932691028E+02  0.92183954419E+02  0.10000000000E+01 0.  0.
<mgrwt>
<rscale>  0 0.12499753E+03</rscale>
<asrwt>0</asrwt>
<pdfrwt beam="2">  1        4 0.17555608E-02 0.12499753E+03</pdfrwt>
<pdfrwt beam="1">  1       -4 0.52662354E-01 0.12499753E+03</pdfrwt>
<totfact> 0.69321416E+03</totfact>
</mgrwt>
</event>
<event>
 5    1  0.3246948E-002  0.1250055E+03  0.7818608E-02  0.1235061E+00
          4   -1    0    0  501    0  0.00000000000E+00  0.00000000000E+00  0.17015037871E+03  0.17015511828E+03  0.12700000000E+01 0.  1.
         -4   -1    0    0    0  501 -0.00000000000E+00 -0.00000000000E+00 -0.22937037631E+02  0.22972170016E+02  0.12700000000E+01 0.  1.
         25    2    1    2    0    0  0.00000000000E+00  0.00000000000E+00  0.14721334108E+03  0.19312728829E+03  0.12500552664E+03 0.  0.
    9000005    1    3    3    0    0  0.37289257899E+02  0.32190837411E+02  0.13301912146E+03  0.14185142030E+03  0.10000000000E+01 0.  0.
    9000005    1    3    3    0    0 -0.37289257899E+02 -0.32190837411E+02  0.14194219626E+02  0.51275867995E+02  0.10000000000E+01 0.  0.
<mgrwt>
<rscale>  0 0.12500553E+03</rscale>
<asrwt>0</asrwt>
<pdfrwt beam="1">  1        4 0.26180049E-01 0.12500553E+03</pdfrwt>
<pdfrwt beam="2">  1       -4 0.35318420E-02 0.12500553E+03</pdfrwt>
<totfact> 0.91294706E+03</totfact>
</mgrwt>
</event>
<event>
 5    1  0.3246948E-002  0.1250032E+03  0.7818608E-02  0.1235064E+00
          4   -1    0    0  501    0  0.00000000000E+00  0.00000000000E+00  0.19392129329E+02  0.19433671292E+02  0.12700000000E+01 0.  1.
         -4   -1    0    0    0  501 -0.00000000000E+00 -0.00000000000E+00 -0.20118593301E+03  0.20118994145E+03  0.12700000000E+01 0.  1.
         25    2    1    2    0    0  0.00000000000E+00  0.00000000000E+00 -0.18179380368E+03  0.22062361275E+03  0.12500316573E+03 0.  0.
    9000005    1    3    3    0    0 -0.19610887999E+02 -0.25915373130E+01  0.13729384527E+02  0.24099771643E+02  0.10000000000E+01 0.  0.
    9000005    1    3    3    0    0  0.19610887999E+02  0.25915373130E+01 -0.19552318821E+03  0.19652384110E+03  0.10000000000E+01 0.  0.
<mgrwt>
<rscale>  0 0.12500317E+03</rscale>
<asrwt>0</asrwt>
<pdfrwt beam="1">  1        4 0.29869085E-02 0.12500317E+03</pdfrwt>
<pdfrwt beam="2">  1       -4 0.30955184E-01 0.12500317E+03</pdfrwt>
<totfact> 0.86763633E+03</totfact>
</mgrwt>
</event>
<event>
 5    1  0.3246948E-002  0.1249907E+03  0.7818608E-02  0.1235084E+00
         -4   -1    0    0    0  501 -0.00000000000E+00  0.00000000000E+00  0.27382045613E+02  0.27411481572E+02  0.12700000000E+01 0.  1.
          4   -1    0    0  501    0  0.00000000000E+00 -0.00000000000E+00 -0.14252717256E+03  0.14253283066E+03  0.12700000000E+01 0.  1.
         25    2    1    2    0    0  0.00000000000E+00  0.00000000000E+00 -0.11514512694E+03  0.16994431223E+03  0.12499067566E+03 0.  0.
    9000005    1    3    3    0    0  0.28017548415E+02 -0.55604563240E+02 -0.50401518713E+02  0.80113441823E+02  0.10000000000E+01 0.  0.
    9000005    1    3    3    0    0 -0.28017548415E+02  0.55604563240E+02 -0.64743608230E+02  0.89830870411E+02  0.10000000000E+01 0.  0.
<mgrwt>
<rscale>  0 0.12499068E+03</rscale>
<asrwt>0</asrwt>
<pdfrwt beam="2">  1        4 0.21929956E-01 0.12499068E+03</pdfrwt>
<pdfrwt beam="1">  1       -4 0.42153220E-02 0.12499068E+03</pdfrwt>
<totfact> 0.95478998E+03</totfact>
</mgrwt>
</event>
<event>
 5    1  0.3246948E-002  0.1249960E+03  0.7818608E-02  0.1235076E+00
         -4   -1    0    0    0  501 -0.00000000000E+00  0.00000000000E+00  0.67377734106E+02  0.67389702131E+02  0.12700000000E+01 0.  1.
          4   -1    0    0  501    0  0.00000000000E+00 -0.00000000000E+00 -0.57947554310E+02  0.57961469534E+02  0.12700000000E+01 0.  1.
         25    2    1    2    0    0  0.00000000000E+00  0.00000000000E+00  0.94301797959E+01  0.12535117167E+03  0.12499595172E+03 0.  0.
    9000005    1    3    3    0    0 -0.89453738661E+01  0.59203857904E+02 -0.13220940082E+02  0.61326256702E+02  0.10000000000E+01 0.  0.
    9000005    1    3    3    0    0  0.89453738661E+01 -0.59203857904E+02  0.22651119878E+02  0.64024914964E+02  0.10000000000E+01 0.  0.
<mgrwt>
<rscale>  0 0.12499595E+03</rscale>
<asrwt>0</asrwt>
<pdfrwt beam="2">  1        4 0.89169994E-02 0.12499595E+03</pdfrwt>
<pdfrwt beam="1">  1       -4 0.10367796E-01 0.12499595E+03</pdfrwt>
<totfact> 0.10446195E+04</totfact>
</mgrwt>
</event>
<event>
 5    1  0.3246948E-002  0.1249939E+03  0.7818608E-02  0.1235079E+00
          4   -1    0    0  501    0  0.00000000000E+00  0.00000000000E+00  0.38297679634E+02  0.38318731259E+02  0.12700000000E+01 0.  1.
         -4   -1    0    0    0  501 -0.00000000000E+00 -0.00000000000E+00 -0.10193406417E+03  0.10194197535E+03  0.12700000000E+01 0.  1.
         25    2    1    2    0    0  0.00000000000E+00  0.00000000000E+00 -0.63636384535E+02  0.14026070661E+03  0.12499390538E+03 0.  0.
    9000005    1    3    3    0    0  0.24884847072E+01 -0.28906013759E+02  0.30287171930E+02  0.41953104427E+02  0.10000000000E+01 0.  0.
    9000005    1    3    3    0    0 -0.24884847072E+01  0.28906013759E+02 -0.93923556465E+02  0.98307602181E+02  0.10000000000E+01 0.  0.
<mgrwt>
<rscale>  0 0.12499391E+03</rscale>
<asrwt>0</asrwt>
<pdfrwt beam="1">  1        4 0.58941787E-02 0.12499391E+03</pdfrwt>
<pdfrwt beam="2">  1       -4 0.15684391E-01 0.12499391E+03</pdfrwt>
<totfact> 0.10129576E+04</totfact>
</mgrwt>
</event>
<event>
 5    1  0.3246948E-002  0.1249982E+03  0.7818608E-02  0.1235072E+00
          4   -1    0    0  501    0  0.00000000000E+00  0.00000000000E+00  0.58222199165E+01  0.59591228177E+01  0.12700000000E+01 0. -1.
         -4   -1    0    0    0  501 -0.00000000000E+00 -0.00000000000E+00 -0.66296792377E+03  0.66296914019E+03  0.12700000000E+01 0. -1.
         25    2    1    2    0    0  0.00000000000E+00  0.00000000000E+00 -0.65714570385E+03  0.66892826301E+03  0.12499817983E+03 0.  0.
    9000005    1    3    3    0    0 -0.11207427918E+02  0.24898702452E+02 -0.27763843351E+02  0.38953598319E+02  0.10000000000E+01 0.  0.
    9000005    1    3    3    0    0  0.11207427918E+02 -0.24898702452E+02 -0.62938186050E+03  0.62997466469E+03  0.10000000000E+01 0.  0.
<mgrwt>
<rscale>  0 0.12499818E+03</rscale>
<asrwt>0</asrwt>
<pdfrwt beam="1">  1        4 0.90635123E-03 0.12499818E+03</pdfrwt>
<pdfrwt beam="2">  1       -4 0.10200563E+00 0.12499818E+03</pdfrwt>
<totfact> 0.44780242E+03</totfact>
</mgrwt>
</event>
<event>
 5    1  0.3246948E-002  0.1250005E+03  0.7818608E-02  0.1235069E+00
          4   -1    0    0  501    0  0.00000000000E+00  0.00000000000E+00  0.20142021071E+03  0.20142421449E+03  0.12700000000E+01 0.  1.
         -4   -1    0    0    0  501 -0.00000000000E+00 -0.00000000000E+00 -0.19368692237E+02  0.19410284361E+02  0.12700000000E+01 0.  1.
         25    2    1    2    0    0  0.00000000000E+00  0.00000000000E+00  0.18205151847E+03  0.22083449885E+03  0.12500048201E+03 0.  0.
    9000005    1    3    3    0    0  0.32663132576E+02  0.52424315471E+02  0.10779432975E+03  0.12424092163E+03  0.10000000000E+01 0.  0.
    9000005    1    3    3    0    0 -0.32663132576E+02 -0.52424315471E+02  0.74257188727E+02  0.96593577219E+02  0.10000000000E+01 0.  0.
<mgrwt>
<rscale>  0 0.12500048E+03</rscale>
<asrwt>0</asrwt>
<pdfrwt beam="1">  1        4 0.30991234E-01 0.12500048E+03</pdfrwt>
<pdfrwt beam="2">  1       -4 0.29833060E-02 0.12500048E+03</pdfrwt>
<totfact> 0.86735537E+03</totfact>
</mgrwt>
</event>
<event>
 5    1  0.3246948E-002  0.1250027E+03  0.7818608E-02  0.1235065E+00
         -4   -1    0    0    0  501 -0.00000000000E+00  0.00000000000E+00  0.19448318915E+03  0.19448733574E+03  0.12700000000E+01 0. -1.
          4   -1    0    0  501    0  0.00000000000E+00 -0.00000000000E+00 -0.20061712685E+02  0.20101870954E+02  0.12700000000E+01 0. -1.
         25    2    1    2    0    0  0.00000000000E+00  0.00000000000E+00  0.17442147647E+03  0.21458920669E+03  0.12500270467E+03 0.  0.
    9000005    1    3    3    0    0  0.44489663910E+02 -0.13710484520E+02  0.15641354723E+02  0.49121884717E+02  0.10000000000E+01 0.  0.
    9000005    1    3    3    0    0 -0.44489663910E+02  0.13710484520E+02  0.15878012174E+03  0.16546732197E+03  0.10000000000E+01 0.  0.
<mgrwt>
<rscale>  0 0.12500270E+03</rscale>
<asrwt>0</asrwt>
<pdfrwt beam="2">  1        4 0.30898256E-02 0.12500270E+03</pdfrwt>
<pdfrwt beam="1">  1       -4 0.29923897E-01 0.12500270E+03</pdfrwt>
<totfact> 0.87726544E+03</totfact>
</mgrwt>
</event>
<event>
 5    1  0.3246948E-002  0.1250011E+03  0.7818608E-02  0.1235068E+00
          4   -1    0    0  501    0  0.00000000000E+00  0.00000000000E+00  0.64936577116E+01  0.66166827395E+01  0.12700000000E+01 0.  1.
         -4   -1    0    0    0  501 -0.00000000000E+00 -0.00000000000E+00 -0.59579008132E+03  0.59579143490E+03  0.12700000000E+01 0.  1.
         25    2    1    2    0    0  0.00000000000E+00  0.00000000000E+00 -0.58929642361E+03  0.60240811764E+03  0.12500106127E+03 0.  0.
    9000005    1    3    3    0    0  0.30769840952E+01  0.11759491843E+01 -0.59539503852E+03  0.59540499039E+03  0.10000000000E+01 0.  0.
    9000005    1    3    3    0    0 -0.30769840952E+01 -0.11759491843E+01  0.60986149044E+01  0.70031272556E+01  0.10000000000E+01 0.  0.
<mgrwt>
<rscale>  0 0.12500106E+03</rscale>
<asrwt>0</asrwt>
<pdfrwt beam="1">  1        4 0.10085923E-02 0.12500106E+03</pdfrwt>
<pdfrwt beam="2">  1       -4 0.91669538E-01 0.12500106E+03</pdfrwt>
<totfact> 0.48714838E+03</totfact>
</mgrwt>
</event>
<event>
 5    1  0.3246948E-002  0.1249992E+03  0.7818608E-02  0.1235071E+00
          4   -1    0    0  501    0  0.00000000000E+00  0.00000000000E+00  0.14298872935E+03  0.14299436919E+03  0.12700000000E+01 0.  1.
         -4   -1    0    0    0  501 -0.00000000000E+00 -0.00000000000E+00 -0.27297277344E+02  0.27326804614E+02  0.12700000000E+01 0.  1.
         25    2    1    2    0    0  0.00000000000E+00  0.00000000000E+00  0.11569145200E+03  0.17032117380E+03  0.12499916071E+03 0.  0.
    9000005    1    3    3    0    0 -0.34092296613E+02  0.18063736978E+02  0.12482882117E+03  0.13065916683E+03  0.10000000000E+01 0.  0.
    9000005    1    3    3    0    0  0.34092296613E+02 -0.18063736978E+02 -0.91373691670E+01  0.39662006975E+02  0.10000000000E+01 0.  0.
<mgrwt>
<rscale>  0 0.12499916E+03</rscale>
<asrwt>0</asrwt>
<pdfrwt beam="1">  1        4 0.22000971E-01 0.12499916E+03</pdfrwt>
<pdfrwt beam="2">  1       -4 0.42022863E-02 0.12499916E+03</pdfrwt>
<totfact> 0.95390604E+03</totfact>
</mgrwt>
</event>
<event>
 5    1  0.3246948E-002  0.1249994E+03  0.7818608E-02  0.1235070E+00
          4   -1    0    0  501    0  0.00000000000E+00  0.00000000000E+00  0.30968813351E+02  0.30994843126E+02  0.12700000000E+01 0. -1.
         -4   -1    0    0    0  501 -0.00000000000E+00 -0.00000000000E+00 -0.12605155480E+03  0.12605795242E+03  0.12700000000E+01 0. -1.
         25    2    1    2    0    0  0.00000000000E+00  0.00000000000E+00 -0.95082741448E+02  0.15705279554E+03  0.12499941146E+03 0.  0.
    9000005    1    3    3    0    0 -0.40277993331E+02  0.35443530812E+02 -0.72836245498E+01  0.54153594615E+02  0.10000000000E+01 0.  0.
    9000005    1    3    3    0    0  0.40277993331E+02 -0.35443530812E+02 -0.87799116898E+02  0.10289920093E+03  0.10000000000E+01 0.  0.
<mgrwt>
<rscale>  0 0.12499941E+03</rscale>
<asrwt>0</asrwt>
<pdfrwt beam="1">  1        4 0.47669273E-02 0.12499941E+03</pdfrwt>
<pdfrwt beam="2">  1       -4 0.19395041E-01 0.12499941E+03</pdfrwt>
<totfact> 0.97915306E+03</totfact>
</mgrwt>
</event>
<event>
 5    1  0.3246948E-002  0.1249979E+03  0.7818608E-02  0.1235073E+00
         -4   -1    0    0    0  501 -0.00000000000E+00  0.00000000000E+00  0.21155755505E+02  0.21193840873E+02  0.12700000000E+01 0.  1.
          4   -1    0    0  501    0  0.00000000000E+00 -0.00000000000E+00 -0.18442984132E+03  0.18443421393E+03  0.12700000000E+01 0.  1.
         25    2    1    2    0    0  0.00000000000E+00  0.00000000000E+00 -0.16327408581E+03  0.20562805480E+03  0.12499787928E+03 0.  0.
    9000005    1    3    3    0    0 -0.22490474947E+02 -0.58044162930E+02 -0.90673029975E+02  0.10998883888E+03  0.10000000000E+01 0.  0.
    9000005    1    3    3    0    0  0.22490474947E+02  0.58044162930E+02 -0.72601055836E+02  0.95639215922E+02  0.10000000000E+01 0.  0.
<mgrwt>
<rscale>  0 0.12499788E+03</rscale>
<asrwt>0</asrwt>
<pdfrwt beam="2">  1        4 0.28377087E-01 0.12499788E+03</pdfrwt>
<pdfrwt beam="1">  1       -4 0.32579977E-02 0.12499788E+03</pdfrwt>
<totfact> 0.89199123E+03</totfact>
</mgrwt>
</event>
<event>
 5    1  0.3246948E-002  0.1249976E+03  0.7818608E-02  0.1235073E+00
         -4   -1    0    0    0  501 -0.00000000000E+00  0.00000000000E+00  0.85082517239E+03  0.85082612023E+03  0.12700000000E+01 0. -1.
          4   -1    0    0  501    0  0.00000000000E+00 -0.00000000000E+00 -0.45021586126E+01  0.46778555101E+01  0.12700000000E+01 0. -1.
         25    2    1    2    0    0  0.00000000000E+00  0.00000000000E+00  0.84632301378E+03  0.85550397574E+03  0.12499763544E+03 0.  0.
    9000005    1    3    3    0    0  0.26228699501E+02 -0.38564088565E+02  0.13849305058E+03  0.14613849138E+03  0.10000000000E+01 0.  0.
    9000005    1    3    3    0    0 -0.26228699501E+02  0.38564088565E+02  0.70782996320E+03  0.70936548436E+03  0.10000000000E+01 0.  0.
<mgrwt>
<rscale>  0 0.12499764E+03</rscale>
<asrwt>0</asrwt>
<pdfrwt beam="2">  1        4 0.70622810E-03 0.12499764E+03</pdfrwt>
<pdfrwt beam="1">  1       -4 0.13090972E+00 0.12499764E+03</pdfrwt>
<totfact> 0.35905013E+03</totfact>
</mgrwt>
</event>
<event>
 5    1  0.3246948E-002  0.1249994E+03  0.7818608E-02  0.1235070E+00
          4   -1    0    0  501    0  0.00000000000E+00  0.00000000000E+00  0.24274992182E+02  0.24308190913E+02  0.12700000000E+01 0. -1.
         -4   -1    0    0    0  501 -0.00000000000E+00 -0.00000000000E+00 -0.16076935519E+03  0.16077437131E+03  0.12700000000E+01 0. -1.
         25    2    1    2    0    0  0.00000000000E+00  0.00000000000E+00 -0.13649436301E+03  0.18508256222E+03  0.12499937482E+03 0.  0.
    9000005    1    3    3    0    0  0.39493813347E+02 -0.39731458368E+02 -0.10925021097E+03  0.12278012329E+03  0.10000000000E+01 0.  0.
    9000005    1    3    3    0    0 -0.39493813347E+02  0.39731458368E+02 -0.27244152036E+02  0.62302438932E+02  0.10000000000E+01 0.  0.
<mgrwt>
<rscale>  0 0.12499937E+03</rscale>
<asrwt>0</asrwt>
<pdfrwt beam="1">  1        4 0.37375539E-02 0.12499937E+03</pdfrwt>
<pdfrwt beam="2">  1       -4 0.24736686E-01 0.12499937E+03</pdfrwt>
<totfact> 0.92711343E+03</totfact>
</mgrwt>
</event>
<event>
 5    1  0.3246948E-002  0.1249976E+03  0.7818608E-02  0.1235073E+00
         -4   -1    0    0    0  501 -0.00000000000E+00  0.00000000000E+00  0.41100244756E+03  0.41100440971E+03  0.12700000000E+01 0.  1.
          4   -1    0    0  501    0  0.00000000000E+00 -0.00000000000E+00 -0.94594138108E+01  0.95442867541E+01  0.12700000000E+01 0.  1.
         25    2    1    2    0    0  0.00000000000E+00  0.00000000000E+00  0.40154303375E+03  0.42054869646E+03  0.12499759255E+03 0.  0.
    9000005    1    3    3    0    0 -0.42263029030E+02  0.42033374709E+02  0.26390604987E+03  0.27055567148E+03  0.10000000000E+01 0.  0.
    9000005    1    3    3    0    0  0.42263029030E+02 -0.42033374709E+02  0.13763698388E+03  0.14999302498E+03  0.10000000000E+01 0.  0.
<mgrwt>
<rscale>  0 0.12499759E+03</rscale>
<asrwt>0</asrwt>
<pdfrwt beam="2">  1        4 0.14619744E-02 0.12499759E+03</pdfrwt>
<pdfrwt beam="1">  1       -4 0.63237811E-01 0.12499759E+03</pdfrwt>
<totfact> 0.62605470E+03</totfact>
</mgrwt>
</event>
<event>
 5    1  0.3246948E-002  0.1250030E+03  0.7818608E-02  0.1235065E+00
         -4   -1    0    0    0  501 -0.00000000000E+00  0.00000000000E+00  0.45225181558E+02  0.45243009923E+02  0.12700000000E+01 0. -1.
          4   -1    0    0  501    0  0.00000000000E+00 -0.00000000000E+00 -0.86337901561E+02  0.86347241681E+02  0.12700000000E+01 0. -1.
         25    2    1    2    0    0  0.00000000000E+00  0.00000000000E+00 -0.41112720003E+02  0.13159025160E+03  0.12500295425E+03 0.  0.
    9000005    1    3    3    0    0 -0.58542270700E+02 -0.19257608389E+02 -0.31464949129E+02  0.69203294454E+02  0.10000000000E+01 0.  0.
    9000005    1    3    3    0    0  0.58542270700E+02  0.19257608389E+02 -0.96477708741E+01  0.62386957150E+02  0.10000000000E+01 0.  0.
<mgrwt>
<rscale>  0 0.12500295E+03</rscale>
<asrwt>0</asrwt>
<pdfrwt beam="2">  1        4 0.13284844E-01 0.12500295E+03</pdfrwt>
<pdfrwt beam="1">  1       -4 0.69598101E-02 0.12500295E+03</pdfrwt>
<totfact> 0.10309765E+04</totfact>
</mgrwt>
</event>
<event>
 5    1  0.3246948E-002  0.1249995E+03  0.7818608E-02  0.1235070E+00
          4   -1    0    0  501    0  0.00000000000E+00  0.00000000000E+00  0.78551523992E+03  0.78551626657E+03  0.12700000000E+01 0. -1.
         -4   -1    0    0    0  501 -0.00000000000E+00 -0.00000000000E+00 -0.48906807925E+01  0.50528861667E+01  0.12700000000E+01 0. -1.
         25    2    1    2    0    0  0.00000000000E+00  0.00000000000E+00  0.78062455913E+03  0.79056915273E+03  0.12499953178E+03 0.  0.
    9000005    1    3    3    0    0 -0.19804430838E+01  0.24701322158E+02  0.75314368598E+03  0.75355191539E+03  0.10000000000E+01 0.  0.
    9000005    1    3    3    0    0  0.19804430838E+01 -0.24701322158E+02  0.27480873150E+02  0.37017237340E+02  0.10000000000E+01 0.  0.
<mgrwt>
<rscale>  0 0.12499953E+03</rscale>
<asrwt>0</asrwt>
<pdfrwt beam="1">  1        4 0.12086105E+00 0.12499953E+03</pdfrwt>
<pdfrwt beam="2">  1       -4 0.76496878E-03 0.12499953E+03</pdfrwt>
<totfact> 0.38689625E+03</totfact>
</mgrwt>
</event>
<event>
 5    1  0.3246948E-002  0.1249996E+03  0.7818608E-02  0.1235070E+00
          4   -1    0    0  501    0  0.00000000000E+00  0.00000000000E+00  0.20178766251E+03  0.20179165900E+03  0.12700000000E+01 0.  1.
         -4   -1    0    0    0  501 -0.00000000000E+00 -0.00000000000E+00 -0.19333081778E+02  0.19374750348E+02  0.12700000000E+01 0.  1.
         25    2    1    2    0    0  0.00000000000E+00  0.00000000000E+00  0.18245458073E+03  0.22116640934E+03  0.12499962637E+03 0.  0.
    9000005    1    3    3    0    0 -0.60990952601E+02 -0.81468273068E+01  0.71929387520E+02  0.94663107298E+02  0.10000000000E+01 0.  0.
    9000005    1    3    3    0    0  0.60990952601E+02  0.81468273068E+01  0.11052519321E+03  0.12650330204E+03  0.10000000000E+01 0.  0.
<mgrwt>
<rscale>  0 0.12499963E+03</rscale>
<asrwt>0</asrwt>
<pdfrwt beam="1">  1        4 0.31047767E-01 0.12499963E+03</pdfrwt>
<pdfrwt beam="2">  1       -4 0.29778331E-02 0.12499963E+03</pdfrwt>
<totfact> 0.86684841E+03</totfact>
</mgrwt>
</event>
<event>
 5    1  0.3246948E-002  0.1249993E+03  0.7818608E-02  0.1235070E+00
          4   -1    0    0  501    0  0.00000000000E+00  0.00000000000E+00  0.12302526531E+02  0.12367904392E+02  0.12700000000E+01 0.  1.
         -4   -1    0    0    0  501 -0.00000000000E+00 -0.00000000000E+00 -0.31660469802E+03  0.31660724519E+03  0.12700000000E+01 0.  1.
         25    2    1    2    0    0  0.00000000000E+00  0.00000000000E+00 -0.30430217149E+03  0.32897514958E+03  0.12499934988E+03 0.  0.
    9000005    1    3    3    0    0  0.57911017457E+02 -0.23061567415E+02 -0.14047355582E+03  0.15368585399E+03  0.10000000000E+01 0.  0.
    9000005    1    3    3    0    0 -0.57911017457E+02  0.23061567415E+02 -0.16382861567E+03  0.17528929559E+03  0.10000000000E+01 0.  0.
<mgrwt>
<rscale>  0 0.12499935E+03</rscale>
<asrwt>0</asrwt>
<pdfrwt beam="1">  1        4 0.18979216E-02 0.12499935E+03</pdfrwt>
<pdfrwt beam="2">  1       -4 0.48713634E-01 0.12499935E+03</pdfrwt>
<totfact> 0.72102255E+03</totfact>
</mgrwt>
</event>
<event>
 5    1  0.3246948E-002  0.1249968E+03  0.7818608E-02  0.1235074E+00
         -4   -1    0    0    0  501 -0.00000000000E+00  0.00000000000E+00  0.42179694460E+02  0.42198809518E+02  0.12700000000E+01 0.  1.
          4   -1    0    0  501    0  0.00000000000E+00 -0.00000000000E+00 -0.92560493883E+02  0.92569206153E+02  0.12700000000E+01 0.  1.
         25    2    1    2    0    0  0.00000000000E+00  0.00000000000E+00 -0.50380799423E+02  0.13476801567E+03  0.12499677235E+03 0.  0.
    9000005    1    3    3    0    0 -0.26261300968E+02 -0.56228912588E+02 -0.17289397309E+02  0.64430348429E+02  0.10000000000E+01 0.  0.
    9000005    1    3    3    0    0  0.26261300968E+02  0.56228912588E+02 -0.33091402113E+02  0.70337667243E+02  0.10000000000E+01 0.  0.
<mgrwt>
<rscale>  0 0.12499677E+03</rscale>
<asrwt>0</asrwt>
<pdfrwt beam="2">  1        4 0.14242216E-01 0.12499677E+03</pdfrwt>
<pdfrwt beam="1">  1       -4 0.64913244E-02 0.12499677E+03</pdfrwt>
<totfact> 0.10243708E+04</totfact>
</mgrwt>
</event>
<event>
 5    1  0.3246948E-002  0.1250024E+03  0.7818608E-02  0.1235066E+00
          4   -1    0    0  501    0  0.00000000000E+00  0.00000000000E+00  0.46724968961E+01  0.48420168571E+01  0.12700000000E+01 0.  1.
         -4   -1    0    0    0  501 -0.00000000000E+00 -0.00000000000E+00 -0.82097566689E+03  0.82097664920E+03  0.12700000000E+01 0.  1.
         25    2    1    2    0    0  0.00000000000E+00  0.00000000000E+00 -0.81630316999E+03  0.82581866605E+03  0.12500241542E+03 0.  0.
    9000005    1    3    3    0    0  0.44540449777E+02 -0.29347548490E+01 -0.11920566368E+03  0.12729279126E+03  0.10000000000E+01 0.  0.
    9000005    1    3    3    0    0 -0.44540449777E+02  0.29347548490E+01 -0.69709750631E+03  0.69852587480E+03  0.10000000000E+01 0.  0.
<mgrwt>
<rscale>  0 0.12500242E+03</rscale>
<asrwt>0</asrwt>
<pdfrwt beam="1">  1        4 0.73196189E-03 0.12500242E+03</pdfrwt>
<pdfrwt beam="2">  1       -4 0.12631695E+00 0.12500242E+03</pdfrwt>
<totfact> 0.37135842E+03</totfact>
</mgrwt>
</event>
<event>
 5    1  0.3246948E-002  0.1250065E+03  0.7818608E-02  0.1235059E+00
         -4   -1    0    0    0  501 -0.00000000000E+00  0.00000000000E+00  0.74857354298E+03  0.74857462030E+03  0.12700000000E+01 0. -1.
          4   -1    0    0  501    0  0.00000000000E+00 -0.00000000000E+00 -0.51404373402E+01  0.52949972661E+01  0.12700000000E+01 0. -1.
         25    2    1    2    0    0  0.00000000000E+00  0.00000000000E+00  0.74343310564E+03  0.75386961756E+03  0.12500647071E+03 0.  0.
    9000005    1    3    3    0    0  0.15571403694E+02  0.31319775602E+02  0.68404675243E+03  0.68494113358E+03  0.10000000000E+01 0.  0.
    9000005    1    3    3    0    0 -0.15571403694E+02 -0.31319775602E+02  0.59386353213E+02  0.68928483986E+02  0.10000000000E+01 0.  0.
<mgrwt>
<rscale>  0 0.12500647E+03</rscale>
<asrwt>0</asrwt>
<pdfrwt beam="2">  1        4 0.80280850E-03 0.12500647E+03</pdfrwt>
<pdfrwt beam="1">  1       -4 0.11517715E+00 0.12500647E+03</pdfrwt>
<totfact> 0.40384014E+03</totfact>
</mgrwt>
</event>
<event>
 5    1  0.3246948E-002  0.1250136E+03  0.7818608E-02  0.1235048E+00
         -4   -1    0    0    0  501 -0.00000000000E+00  0.00000000000E+00  0.41276526456E+03  0.41276721833E+03  0.12700000000E+01 0. -1.
          4   -1    0    0  501    0  0.00000000000E+00 -0.00000000000E+00 -0.94210941988E+01  0.95063092682E+01  0.12700000000E+01 0. -1.
         25    2    1    2    0    0  0.00000000000E+00  0.00000000000E+00  0.40334417036E+03  0.42227352760E+03  0.12501364864E+03 0.  0.
    9000005    1    3    3    0    0 -0.38535661839E+02  0.31920795593E+02  0.75187804904E+02  0.90322424851E+02  0.10000000000E+01 0.  0.
    9000005    1    3    3    0    0  0.38535661839E+02 -0.31920795593E+02  0.32815636546E+03  0.33195110275E+03  0.10000000000E+01 0.  0.
<mgrwt>
<rscale>  0 0.12501365E+03</rscale>
<asrwt>0</asrwt>
<pdfrwt beam="2">  1        4 0.14561046E-02 0.12501365E+03</pdfrwt>
<pdfrwt beam="1">  1       -4 0.63509045E-01 0.12501365E+03</pdfrwt>
<totfact> 0.62423858E+03</totfact>
</mgrwt>
</event>
<event>
 5    1  0.3246948E-002  0.1250027E+03  0.7818608E-02  0.1235065E+00
          4   -1    0    0  501    0  0.00000000000E+00  0.00000000000E+00  0.10685974611E+03  0.10686729265E+03  0.12700000000E+01 0.  1.
         -4   -1    0    0    0  501 -0.00000000000E+00 -0.00000000000E+00 -0.36536639517E+02  0.36558705217E+02  0.12700000000E+01 0.  1.
         25    2    1    2    0    0  0.00000000000E+00  0.00000000000E+00  0.70323106591E+02  0.14342599787E+03  0.12500271014E+03 0.  0.
    9000005    1    3    3    0    0  0.15787750240E+02  0.59473509197E+02  0.47681602595E+02  0.77851696063E+02  0.10000000000E+01 0.  0.
    9000005    1    3    3    0    0 -0.15787750240E+02 -0.59473509197E+02  0.22641503996E+02  0.65574301804E+02  0.10000000000E+01 0.  0.
<mgrwt>
<rscale>  0 0.12500271E+03</rscale>
<asrwt>0</asrwt>
<pdfrwt beam="1">  1        4 0.16442239E-01 0.12500271E+03</pdfrwt>
<pdfrwt beam="2">  1       -4 0.56232994E-02 0.12500271E+03</pdfrwt>
<totfact> 0.10062453E+04</totfact>
</mgrwt>
</event>
<event>
 5    1  0.3246948E-002  0.1250016E+03  0.7818608E-02  0.1235067E+00
          4   -1    0    0  501    0  0.00000000000E+00  0.00000000000E+00  0.20543821177E+02  0.20583038856E+02  0.12700000000E+01 0. -1.
         -4   -1    0    0    0  501 -0.00000000000E+00 -0.00000000000E+00 -0.18992445475E+03  0.18992870087E+03  0.12700000000E+01 0. -1.
         25    2    1    2    0    0  0.00000000000E+00  0.00000000000E+00 -0.16938063358E+03  0.21051173973E+03  0.12500157411E+03 0.  0.
    9000005    1    3    3    0    0 -0.21006121847E+01  0.29461318591E+02  0.80555675037E+01  0.30631259075E+02  0.10000000000E+01 0.  0.
    9000005    1    3    3    0    0  0.21006121847E+01 -0.29461318591E+02 -0.17743620108E+03  0.17988048065E+03  0.10000000000E+01 0.  0.
<mgrwt>
<rscale>  0 0.12500157E+03</rscale>
<asrwt>0</asrwt>
<pdfrwt beam="1">  1        4 0.31639314E-02 0.12500157E+03</pdfrwt>
<pdfrwt beam="2">  1       -4 0.29222489E-01 0.12500157E+03</pdfrwt>
<totfact> 0.88389265E+03</totfact>
</mgrwt>
</event>
<event>
 5    1  0.3246948E-002  0.1249969E+03  0.7818608E-02  0.1235074E+00
          4   -1    0    0  501    0  0.00000000000E+00  0.00000000000E+00  0.10885925897E+03  0.10886666690E+03  0.12700000000E+01 0.  1.
         -4   -1    0    0    0  501 -0.00000000000E+00 -0.00000000000E+00 -0.35861822479E+02  0.35884303135E+02  0.12700000000E+01 0.  1.
         25    2    1    2    0    0  0.00000000000E+00  0.00000000000E+00  0.72997436486E+02  0.14475097004E+03  0.12499687033E+03 0.  0.
    9000005    1    3    3    0    0 -0.42489976682E+02  0.36356874897E+02  0.68795986049E+02  0.88662890587E+02  0.10000000000E+01 0.  0.
    9000005    1    3    3    0    0  0.42489976682E+02 -0.36356874897E+02  0.42014504373E+01  0.56088079451E+02  0.10000000000E+01 0.  0.
<mgrwt>
<rscale>  0 0.12499687E+03</rscale>
<asrwt>0</asrwt>
<pdfrwt beam="1">  1        4 0.16749877E-01 0.12499687E+03</pdfrwt>
<pdfrwt beam="2">  1       -4 0.55195026E-02 0.12499687E+03</pdfrwt>
<totfact> 0.10036758E+04</totfact>
</mgrwt>
</event>
<event>
 5    1  0.3246948E-002  0.1249994E+03  0.7818608E-02  0.1235070E+00
          4   -1    0    0  501    0  0.00000000000E+00  0.00000000000E+00  0.17137513026E+03  0.17137983595E+03  0.12700000000E+01 0.  1.
         -4   -1    0    0    0  501 -0.00000000000E+00 -0.00000000000E+00 -0.22770623561E+02  0.22806012307E+02  0.12700000000E+01 0.  1.
         25    2    1    2    0    0  0.00000000000E+00  0.00000000000E+00  0.14860450670E+03  0.19418584826E+03  0.12499937701E+03 0.  0.
    9000005    1    3    3    0    0 -0.62470847525E+02 -0.30517324459E+00  0.76764011427E+02  0.98976832499E+02  0.10000000000E+01 0.  0.
    9000005    1    3    3    0    0  0.62470847525E+02  0.30517324459E+00  0.71840495270E+02  0.95209015760E+02  0.10000000000E+01 0.  0.
<mgrwt>
<rscale>  0 0.12499938E+03</rscale>
<asrwt>0</asrwt>
<pdfrwt beam="1">  1        4 0.26368490E-01 0.12499938E+03</pdfrwt>
<pdfrwt beam="2">  1       -4 0.35062569E-02 0.12499938E+03</pdfrwt>
<totfact> 0.91125318E+03</totfact>
</mgrwt>
</event>
<event>
 5    1  0.3246948E-002  0.1249894E+03  0.7818608E-02  0.1235086E+00
         -4   -1    0    0    0  501 -0.00000000000E+00  0.00000000000E+00  0.99229499385E+02  0.99237626172E+02  0.12700000000E+01 0. -1.
          4   -1    0    0  501    0  0.00000000000E+00 -0.00000000000E+00 -0.39339144748E+02  0.39359639346E+02  0.12700000000E+01 0. -1.
         25    2    1    2    0    0  0.00000000000E+00  0.00000000000E+00  0.59890354637E+02  0.13859726552E+03  0.12498938927E+03 0.  0.
    9000005    1    3    3    0    0  0.21528384122E+02  0.37521363014E+02 -0.20055775340E+02  0.47692327788E+02  0.10000000000E+01 0.  0.
    9000005    1    3    3    0    0 -0.21528384122E+02 -0.37521363014E+02  0.79946129977E+02  0.90904937730E+02  0.10000000000E+01 0.  0.
<mgrwt>
<rscale>  0 0.12498939E+03</rscale>
<asrwt>0</asrwt>
<pdfrwt beam="2">  1        4 0.60543778E-02 0.12498939E+03</pdfrwt>
<pdfrwt beam="1">  1       -4 0.15268278E-01 0.12498939E+03</pdfrwt>
<totfact> 0.10165171E+04</totfact>
</mgrwt>
</event>
<event>
 5    1  0.3246948E-002  0.1250256E+03  0.7818608E-02  0.1235029E+00
          4   -1    0    0  501    0  0.00000000000E+00  0.00000000000E+00  0.11048871196E+02  0.11121621047E+02  0.12700000000E+01 0. -1.
         -4   -1    0    0    0  501 -0.00000000000E+00 -0.00000000000E+00 -0.35245306378E+03  0.35245535188E+03  0.12700000000E+01 0. -1.
         25    2    1    2    0    0  0.00000000000E+00  0.00000000000E+00 -0.34140419259E+03  0.36357697293E+03  0.12502556750E+03 0.  0.
    9000005    1    3    3    0    0 -0.25052624423E+02 -0.32778972559E+02 -0.34156557372E+02  0.53570191748E+02  0.10000000000E+01 0.  0.
    9000005    1    3    3    0    0  0.25052624423E+02  0.32778972559E+02 -0.30724763522E+03  0.31000678118E+03  0.10000000000E+01 0.  0.
<mgrwt>
<rscale>  0 0.12502557E+03</rscale>
<asrwt>0</asrwt>
<pdfrwt beam="1">  1        4 0.17055988E-02 0.12502557E+03</pdfrwt>
<pdfrwt beam="2">  1       -4 0.54229312E-01 0.12502557E+03</pdfrwt>
<totfact> 0.68217727E+03</totfact>
</mgrwt>
</event>
<event>
 5    1  0.3246948E-002  0.1250534E+03  0.7818608E-02  0.1234986E+00
          4   -1    0    0  501    0  0.00000000000E+00  0.00000000000E+00  0.44384325262E+02  0.44402491248E+02  0.12700000000E+01 0.  1.
         -4   -1    0    0    0  501 -0.00000000000E+00 -0.00000000000E+00 -0.88044077689E+02  0.88053236829E+02  0.12700000000E+01 0.  1.
         25    2    1    2    0    0  0.00000000000E+00  0.00000000000E+00 -0.43659752427E+02  0.13245572808E+03  0.12505337228E+03 0.  0.
    9000005    1    3    3    0    0  0.52289324248E+02 -0.24503660549E+02  0.35462370738E+01  0.57863447944E+02  0.10000000000E+01 0.  0.
    9000005    1    3    3    0    0 -0.52289324248E+02  0.24503660549E+02 -0.47205989500E+02  0.74592280132E+02  0.10000000000E+01 0.  0.
<mgrwt>
<rscale>  0 0.12505337E+03</rscale>
<asrwt>0</asrwt>
<pdfrwt beam="1">  1        4 0.68304597E-02 0.12505337E+03</pdfrwt>
<pdfrwt beam="2">  1       -4 0.13547345E-01 0.12505337E+03</pdfrwt>
<totfact> 0.10279599E+04</totfact>
</mgrwt>
</event>
<event>
 5    1  0.3246948E-002  0.1249975E+03  0.7818608E-02  0.1235073E+00
         -4   -1    0    0    0  501 -0.00000000000E+00  0.00000000000E+00  0.46255412478E+03  0.46255586824E+03  0.12700000000E+01 0.  1.
          4   -1    0    0  501    0  0.00000000000E+00 -0.00000000000E+00 -0.83951024830E+01  0.84906210432E+01  0.12700000000E+01 0.  1.
         25    2    1    2    0    0  0.00000000000E+00  0.00000000000E+00  0.45415902229E+03  0.47104648929E+03  0.12499751014E+03 0.  0.
    9000005    1    3    3    0    0  0.26305015686E+02 -0.12605381364E+01  0.44063948536E+03  0.44142688960E+03  0.10000000000E+01 0.  0.
    9000005    1    3    3    0    0 -0.26305015686E+02  0.12605381364E+01  0.13519536935E+02  0.29619599687E+02  0.10000000000E+01 0.  0.
<mgrwt>
<rscale>  0 0.12499751E+03</rscale>
<asrwt>0</asrwt>
<pdfrwt beam="2">  1        4 0.12990352E-02 0.12499751E+03</pdfrwt>
<pdfrwt beam="1">  1       -4 0.71169694E-01 0.12499751E+03</pdfrwt>
<totfact> 0.58186098E+03</totfact>
</mgrwt>
</event>
<event>
 5    1  0.3246948E-002  0.1250000E+03  0.7818608E-02  0.1235069E+00
         -4   -1    0    0    0  501 -0.00000000000E+00  0.00000000000E+00  0.14313171118E+02  0.14369403866E+02  0.12700000000E+01 0. -1.
          4   -1    0    0  501    0  0.00000000000E+00 -0.00000000000E+00 -0.27232040138E+03  0.27232336276E+03  0.12700000000E+01 0. -1.
         25    2    1    2    0    0  0.00000000000E+00  0.00000000000E+00 -0.25800723026E+03  0.28669276663E+03  0.12500004628E+03 0.  0.
    9000005    1    3    3    0    0 -0.30906007091E+02  0.35796479700E+02 -0.35313544051E+02  0.59030632951E+02  0.10000000000E+01 0.  0.
    9000005    1    3    3    0    0  0.30906007091E+02 -0.35796479700E+02 -0.22269368621E+03  0.22766213368E+03  0.10000000000E+01 0.  0.
<mgrwt>
<rscale>  0 0.12500005E+03</rscale>
<asrwt>0</asrwt>
<pdfrwt beam="2">  1        4 0.41899996E-01 0.12500005E+03</pdfrwt>
<pdfrwt beam="1">  1       -4 0.22065799E-02 0.12500005E+03</pdfrwt>
<totfact> 0.77298903E+03</totfact>
</mgrwt>
</event>
<event>
 5    1  0.3246948E-002  0.1250016E+03  0.7818608E-02  0.1235067E+00
         -4   -1    0    0    0  501 -0.00000000000E+00  0.00000000000E+00  0.12319164772E+04  0.12319171319E+04  0.12700000000E+01 0. -1.
          4   -1    0    0  501    0  0.00000000000E+00 -0.00000000000E+00 -0.30431119803E+01  0.32974885178E+01  0.12700000000E+01 0. -1.
         25    2    1    2    0    0  0.00000000000E+00  0.00000000000E+00  0.12288733652E+04  0.12352146204E+04  0.12500164229E+03 0.  0.
    9000005    1    3    3    0    0  0.99309882715E+01  0.61041085354E+02  0.70321382859E+03  0.70592869849E+03  0.10000000000E+01 0.  0.
    9000005    1    3    3    0    0 -0.99309882715E+01 -0.61041085354E+02  0.52565953665E+03  0.52928592188E+03  0.10000000000E+01 0.  0.
<mgrwt>
<rscale>  0 0.12500164E+03</rscale>
<asrwt>0</asrwt>
<pdfrwt beam="2">  1        4 0.48778833E-03 0.12500164E+03</pdfrwt>
<pdfrwt beam="1">  1       -4 0.18954544E+00 0.12500164E+03</pdfrwt>
<totfact> 0.23808285E+03</totfact>
</mgrwt>
</event>
<event>
 5    1  0.3246948E-002  0.1249999E+03  0.7818608E-02  0.1235069E+00
         -4   -1    0    0    0  501 -0.00000000000E+00  0.00000000000E+00  0.28931362109E+02  0.28959223289E+02  0.12700000000E+01 0.  1.
          4   -1    0    0  501    0  0.00000000000E+00 -0.00000000000E+00 -0.13492172449E+03  0.13492770153E+03  0.12700000000E+01 0.  1.
         25    2    1    2    0    0  0.00000000000E+00  0.00000000000E+00 -0.10599036238E+03  0.16388692481E+03  0.12499986883E+03 0.  0.
    9000005    1    3    3    0    0 -0.36903945482E+02  0.99248943635E+01 -0.11782274643E+03  0.12386930329E+03  0.10000000000E+01 0.  0.
    9000005    1    3    3    0    0  0.36903945482E+02 -0.99248943635E+01  0.11832384053E+02  0.40017621526E+02  0.10000000000E+01 0.  0.
<mgrwt>
<rscale>  0 0.12499987E+03</rscale>
<asrwt>0</asrwt>
<pdfrwt beam="2">  1        4 0.20759791E-01 0.12499987E+03</pdfrwt>
<pdfrwt beam="1">  1       -4 0.44535818E-02 0.12499987E+03</pdfrwt>
<totfact> 0.96598892E+03</totfact>
</mgrwt>
</event>
<event>
 5    1  0.3246948E-002  0.1250078E+03  0.7818608E-02  0.1235057E+00
          4   -1    0    0  501    0  0.00000000000E+00  0.00000000000E+00  0.23752503703E+02  0.23786431682E+02  0.12700000000E+01 0.  1.
         -4   -1    0    0    0  501 -0.00000000000E+00 -0.00000000000E+00 -0.16432318847E+03  0.16432809611E+03  0.12700000000E+01 0.  1.
         25    2    1    2    0    0  0.00000000000E+00  0.00000000000E+00 -0.14057068477E+03  0.18811452779E+03  0.12500783235E+03 0.  0.
    9000005    1    3    3    0    0 -0.47017449904E+02 -0.34338635301E+02 -0.10446690361E+03  0.11959981781E+03  0.10000000000E+01 0.  0.
    9000005    1    3    3    0    0  0.47017449904E+02  0.34338635301E+02 -0.36103781163E+02  0.68514709983E+02  0.10000000000E+01 0.  0.
<mgrwt>
<rscale>  0 0.12500783E+03</rscale>
<asrwt>0</asrwt>
<pdfrwt beam="1">  1        4 0.36572188E-02 0.12500783E+03</pdfrwt>
<pdfrwt beam="2">  1       -4 0.25283477E-01 0.12500783E+03</pdfrwt>
<totfact> 0.92160247E+03</totfact>
</mgrwt>
</event>
<event>
 5    1  0.3246948E-002  0.1249974E+03  0.7818608E-02  0.1235073E+00
          4   -1    0    0  501    0  0.00000000000E+00  0.00000000000E+00  0.51960204209E+03  0.51960359414E+03  0.12700000000E+01 0. -1.
         -4   -1    0    0    0  501 -0.00000000000E+00 -0.00000000000E+00 -0.74622419614E+01  0.75695412735E+01  0.12700000000E+01 0. -1.
         25    2    1    2    0    0  0.00000000000E+00  0.00000000000E+00  0.51213980012E+03  0.52717313541E+03  0.12499735928E+03 0.  0.
    9000005    1    3    3    0    0  0.64189898255E+01  0.61778717727E+02  0.28506685611E+03  0.29175662092E+03  0.10000000000E+01 0.  0.
    9000005    1    3    3    0    0 -0.64189898255E+01 -0.61778717727E+02  0.22707294401E+03  0.23541651449E+03  0.10000000000E+01 0.  0.
<mgrwt>
<rscale>  0 0.12499736E+03</rscale>
<asrwt>0</asrwt>
<pdfrwt beam="1">  1        4 0.79947147E-01 0.12499736E+03</pdfrwt>
<pdfrwt beam="2">  1       -4 0.11564104E-02 0.12499736E+03</pdfrwt>
<totfact> 0.53819150E+03</totfact>
</mgrwt>
</event>
<event>
 5    1  0.3246948E-002  0.1250013E+03  0.7818608E-02  0.1235067E+00
          4   -1    0    0  501    0  0.00000000000E+00  0.00000000000E+00  0.72867163696E+02  0.72878230255E+02  0.12700000000E+01 0. -1.
         -4   -1    0    0    0  501 -0.00000000000E+00 -0.00000000000E+00 -0.53586241185E+02  0.53601288645E+02  0.12700000000E+01 0. -1.
         25    2    1    2    0    0  0.00000000000E+00  0.00000000000E+00  0.19280922510E+02  0.12647951890E+03  0.12500125891E+03 0.  0.
    9000005    1    3    3    0    0 -0.32539181969E+02  0.15379332182E+02 -0.42051928387E+02  0.55359614366E+02  0.10000000000E+01 0.  0.
    9000005    1    3    3    0    0  0.32539181969E+02 -0.15379332182E+02  0.61332850898E+02  0.71119904534E+02  0.10000000000E+01 0.  0.
<mgrwt>
<rscale>  0 0.12500126E+03</rscale>
<asrwt>0</asrwt>
<pdfrwt beam="1">  1        4 0.11212342E-01 0.12500126E+03</pdfrwt>
<pdfrwt beam="2">  1       -4 0.82460459E-02 0.12500126E+03</pdfrwt>
<totfact> 0.10420179E+04</totfact>
</mgrwt>
</event>
<event>
 5    1  0.3246948E-002  0.1249969E+03  0.7818608E-02  0.1235074E+00
          4   -1    0    0  501    0  0.00000000000E+00  0.00000000000E+00  0.18011079364E+02  0.18055799064E+02  0.12700000000E+01 0.  1.
         -4   -1    0    0    0  501 -0.00000000000E+00 -0.00000000000E+00 -0.21655398564E+03  0.21655770962E+03  0.12700000000E+01 0.  1.
         25    2    1    2    0    0  0.00000000000E+00  0.00000000000E+00 -0.19854290628E+03  0.23461350869E+03  0.12499685126E+03 0.  0.
    9000005    1    3    3    0    0  0.48478624348E+02 -0.23496694119E+02 -0.39834421839E+02  0.67007856378E+02  0.10000000000E+01 0.  0.
    9000005    1    3    3    0    0 -0.48478624348E+02  0.23496694119E+02 -0.15870848444E+03  0.16760565231E+03  0.10000000000E+01 0.  0.
<mgrwt>
<rscale>  0 0.12499685E+03</rscale>
<asrwt>0</asrwt>
<pdfrwt beam="1">  1        4 0.27746619E-02 0.12499685E+03</pdfrwt>
<pdfrwt beam="2">  1       -4 0.33319722E-01 0.12499685E+03</pdfrwt>
<totfact> 0.84612129E+03</totfact>
</mgrwt>
</event>
<event>
 5    1  0.3246948E-002  0.1249987E+03  0.7818608E-02  0.1235071E+00
          4   -1    0    0  501    0  0.00000000000E+00  0.00000000000E+00  0.32899132910E+03  0.32899378037E+03  0.12700000000E+01 0.  1.
         -4   -1    0    0    0  501 -0.00000000000E+00 -0.00000000000E+00 -0.11836708478E+02  0.11904644791E+02  0.12700000000E+01 0.  1.
         25    2    1    2    0    0  0.00000000000E+00  0.00000000000E+00  0.31715462062E+03  0.34089842516E+03  0.12499873158E+03 0.  0.
    9000005    1    3    3    0    0  0.75406609945E+01  0.50963845124E+02  0.62117303562E+02  0.80707710164E+02  0.10000000000E+01 0.  0.
    9000005    1    3    3    0    0 -0.75406609945E+01 -0.50963845124E+02  0.25503731706E+03  0.26019071499E+03  0.10000000000E+01 0.  0.
<mgrwt>
<rscale>  0 0.12499873E+03</rscale>
<asrwt>0</asrwt>
<pdfrwt beam="1">  1        4 0.50619463E-01 0.12499873E+03</pdfrwt>
<pdfrwt beam="2">  1       -4 0.18264466E-02 0.12499873E+03</pdfrwt>
<totfact> 0.70739570E+03</totfact>
</mgrwt>
</event>
<event>
 5    1  0.3246948E-002  0.1249989E+03  0.7818608E-02  0.1235071E+00
          4   -1    0    0  501    0  0.00000000000E+00  0.00000000000E+00  0.71149246004E+03  0.71149359351E+03  0.12700000000E+01 0. -1.
         -4   -1    0    0    0  501 -0.00000000000E+00 -0.00000000000E+00 -0.54155237696E+01  0.55624452985E+01  0.12700000000E+01 0. -1.
         25    2    1    2    0    0  0.00000000000E+00  0.00000000000E+00  0.70607693628E+03  0.71705603880E+03  0.12499889138E+03 0.  0.
    9000005    1    3    3    0    0 -0.50703520424E+01  0.10235976478E+02  0.59620124869E+00  0.11482122636E+02  0.10000000000E+01 0.  0.
    9000005    1    3    3    0    0  0.50703520424E+01 -0.10235976478E+02  0.70548073503E+03  0.70557391617E+03  0.10000000000E+01 0.  0.
<mgrwt>
<rscale>  0 0.12499889E+03</rscale>
<asrwt>0</asrwt>
<pdfrwt beam="1">  1        4 0.10947168E+00 0.12499889E+03</pdfrwt>
<pdfrwt beam="2">  1       -4 0.84454701E-03 0.12499889E+03</pdfrwt>
<totfact> 0.42202539E+03</totfact>
</mgrwt>
</event>
<event>
 5    1  0.3246948E-002  0.1250001E+03  0.7818608E-02  0.1235069E+00
          4   -1    0    0  501    0  0.00000000000E+00  0.00000000000E+00  0.47540890032E+01  0.49207989443E+01  0.12700000000E+01 0. -1.
         -4   -1    0    0    0  501 -0.00000000000E+00 -0.00000000000E+00 -0.80733754092E+03  0.80733853982E+03  0.12700000000E+01 0. -1.
         25    2    1    2    0    0  0.00000000000E+00  0.00000000000E+00 -0.80258345192E+03  0.81225933877E+03  0.12500014448E+03 0.  0.
    9000005    1    3    3    0    0 -0.14387798193E+02  0.53344740653E+02 -0.59102960648E+03  0.59360733303E+03  0.10000000000E+01 0.  0.
    9000005    1    3    3    0    0  0.14387798193E+02 -0.53344740653E+02 -0.21155384544E+03  0.21865200574E+03  0.10000000000E+01 0.  0.
<mgrwt>
<rscale>  0 0.12500014E+03</rscale>
<asrwt>0</asrwt>
<pdfrwt beam="1">  1        4 0.74429963E-03 0.12500014E+03</pdfrwt>
<pdfrwt beam="2">  1       -4 0.12421857E+00 0.12500014E+03</pdfrwt>
<totfact> 0.37723174E+03</totfact>
</mgrwt>
</event>
<event>
 5    1  0.3246948E-002  0.1250007E+03  0.7818608E-02  0.1235068E+00
          4   -1    0    0  501    0  0.00000000000E+00  0.00000000000E+00  0.24365514884E+04  0.24365518194E+04  0.12700000000E+01 0.  1.
         -4   -1    0    0    0  501 -0.00000000000E+00 -0.00000000000E+00 -0.13513118390E+01  0.18544389142E+01  0.12700000000E+01 0.  1.
         25    2    1    2    0    0  0.00000000000E+00  0.00000000000E+00  0.24352001766E+04  0.24384062583E+04  0.12500072226E+03 0.  0.
    9000005    1    3    3    0    0 -0.17663983011E+02  0.50057556456E+02  0.18608980061E+04  0.18616552217E+04  0.10000000000E+01 0.  0.
    9000005    1    3    3    0    0  0.17663983011E+02 -0.50057556456E+02  0.57430217049E+03  0.57675103665E+03  0.10000000000E+01 0.  0.
<mgrwt>
<rscale>  0 0.12500072E+03</rscale>
<asrwt>0</asrwt>
<pdfrwt beam="1">  1        4 0.37489069E+00 0.12500072E+03</pdfrwt>
<pdfrwt beam="2">  1       -4 0.24662306E-03 0.12500072E+03</pdfrwt>
<totfact> 0.51715414E+02</totfact>
</mgrwt>
</event>
<event>
 5    1  0.3246948E-002  0.1249997E+03  0.7818608E-02  0.1235070E+00
          4   -1    0    0  501    0  0.00000000000E+00  0.00000000000E+00  0.77630431554E+02  0.77640819182E+02  0.12700000000E+01 0. -1.
         -4   -1    0    0    0  501 -0.00000000000E+00 -0.00000000000E+00 -0.50296542632E+02  0.50312573982E+02  0.12700000000E+01 0. -1.
         25    2    1    2    0    0  0.00000000000E+00  0.00000000000E+00  0.27333888922E+02  0.12795339316E+03  0.12499971735E+03 0.  0.
    9000005    1    3    3    0    0 -0.10284696607E+02 -0.45953077673E+02 -0.28386315273E+02  0.54993119812E+02  0.10000000000E+01 0.  0.
    9000005    1    3    3    0    0  0.10284696607E+02  0.45953077673E+02  0.55720204196E+02  0.72960273351E+02  0.10000000000E+01 0.  0.
<mgrwt>
<rscale>  0 0.12499972E+03</rscale>
<asrwt>0</asrwt>
<pdfrwt beam="1">  1        4 0.11945175E-01 0.12499972E+03</pdfrwt>
<pdfrwt beam="2">  1       -4 0.77399619E-02 0.12499972E+03</pdfrwt>
<totfact> 0.10388560E+04</totfact>
</mgrwt>
</event>
<event>
 5    1  0.3246948E-002  0.1250021E+03  0.7818608E-02  0.1235066E+00
          4   -1    0    0  501    0  0.00000000000E+00  0.00000000000E+00  0.55739443420E+02  0.55753909753E+02  0.12700000000E+01 0. -1.
         -4   -1    0    0    0  501 -0.00000000000E+00 -0.00000000000E+00 -0.70053525510E+02  0.70065036476E+02  0.12700000000E+01 0. -1.
         25    2    1    2    0    0  0.00000000000E+00  0.00000000000E+00 -0.14314082091E+02  0.12581894623E+03  0.12500205712E+03 0.  0.
    9000005    1    3    3    0    0  0.45295153642E+02  0.43053972807E+02 -0.74471136925E+01  0.62942473897E+02  0.10000000000E+01 0.  0.
    9000005    1    3    3    0    0 -0.45295153642E+02 -0.43053972807E+02 -0.68669683980E+01  0.62876472332E+02  0.10000000000E+01 0.  0.
<mgrwt>
<rscale>  0 0.12500206E+03</rscale>
<asrwt>0</asrwt>
<pdfrwt beam="1">  1        4 0.85772973E-02 0.12500206E+03</pdfrwt>
<pdfrwt beam="2">  1       -4 0.10779464E-01 0.12500206E+03</pdfrwt>
<totfact> 0.10434445E+04</totfact>
</mgrwt>
</event>
<event>
 5    1  0.3246948E-002  0.1249995E+03  0.7818608E-02  0.1235070E+00
          4   -1    0    0  501    0  0.00000000000E+00  0.00000000000E+00  0.76618927962E+02  0.76629452707E+02  0.12700000000E+01 0.  1.
         -4   -1    0    0    0  501 -0.00000000000E+00 -0.00000000000E+00 -0.50960512069E+02  0.50976334611E+02  0.12700000000E+01 0.  1.
         25    2    1    2    0    0  0.00000000000E+00  0.00000000000E+00  0.25658415893E+02  0.12760578732E+03  0.12499953060E+03 0.  0.
    9000005    1    3    3    0    0  0.61727621068E+02 -0.39976500709E+01  0.37591252112E+01  0.61979120929E+02  0.10000000000E+01 0.  0.
    9000005    1    3    3    0    0 -0.61727621068E+02  0.39976500709E+01  0.21899290682E+02  0.65626666388E+02  0.10000000000E+01 0.  0.
<mgrwt>
<rscale>  0 0.12499953E+03</rscale>
<asrwt>0</asrwt>
<pdfrwt beam="1">  1        4 0.11789554E-01 0.12499953E+03</pdfrwt>
<pdfrwt beam="2">  1       -4 0.78421055E-02 0.12499953E+03</pdfrwt>
<totfact> 0.10396120E+04</totfact>
</mgrwt>
</event>
<event>
 5    1  0.3246948E-002  0.1249986E+03  0.7818608E-02  0.1235071E+00
          4   -1    0    0  501    0  0.00000000000E+00  0.00000000000E+00  0.42433590784E+01  0.44293336145E+01  0.12700000000E+01 0. -1.
         -4   -1    0    0    0  501 -0.00000000000E+00 -0.00000000000E+00 -0.90060956254E+03  0.90061045799E+03  0.12700000000E+01 0. -1.
         25    2    1    2    0    0  0.00000000000E+00  0.00000000000E+00 -0.89636620347E+03  0.90503979161E+03  0.12499861470E+03 0.  0.
    9000005    1    3    3    0    0 -0.18106688462E+02 -0.38672530211E+02 -0.77853470004E+03  0.77970551872E+03  0.10000000000E+01 0.  0.
    9000005    1    3    3    0    0  0.18106688462E+02  0.38672530211E+02 -0.11783150342E+03  0.12533427288E+03  0.10000000000E+01 0.  0.
<mgrwt>
<rscale>  0 0.12499861E+03</rscale>
<asrwt>0</asrwt>
<pdfrwt beam="1">  1        4 0.66719980E-03 0.12499861E+03</pdfrwt>
<pdfrwt beam="2">  1       -4 0.13856954E+00 0.12499861E+03</pdfrwt>
<totfact> 0.33968735E+03</totfact>
</mgrwt>
</event>
<event>
 5    1  0.3246948E-002  0.1250006E+03  0.7818608E-02  0.1235068E+00
         -4   -1    0    0    0  501 -0.00000000000E+00  0.00000000000E+00  0.26247850254E+02  0.26278556713E+02  0.12700000000E+01 0. -1.
          4   -1    0    0  501    0  0.00000000000E+00 -0.00000000000E+00 -0.14870262527E+03  0.14870804841E+03  0.12700000000E+01 0. -1.
         25    2    1    2    0    0  0.00000000000E+00  0.00000000000E+00 -0.12245477502E+03  0.17498660512E+03  0.12500056019E+03 0.  0.
    9000005    1    3    3    0    0  0.21592118288E+02 -0.23341607365E+02 -0.13653861518E+03  0.14019573333E+03  0.10000000000E+01 0.  0.
    9000005    1    3    3    0    0 -0.21592118288E+02  0.23341607365E+02  0.14083840169E+02  0.34790871797E+02  0.10000000000E+01 0.  0.
<mgrwt>
<rscale>  0 0.12500056E+03</rscale>
<asrwt>0</asrwt>
<pdfrwt beam="2">  1        4 0.22880106E-01 0.12500056E+03</pdfrwt>
<pdfrwt beam="1">  1       -4 0.40409101E-02 0.12500056E+03</pdfrwt>
<totfact> 0.94526106E+03</totfact>
</mgrwt>
</event>
<event>
 5    1  0.3246948E-002  0.1249993E+03  0.7818608E-02  0.1235070E+00
         -4   -1    0    0    0  501 -0.00000000000E+00  0.00000000000E+00  0.61883105300E+01  0.63172847977E+01  0.12700000000E+01 0.  1.
          4   -1    0    0  501    0  0.00000000000E+00 -0.00000000000E+00 -0.62458355180E+03  0.62458484298E+03  0.12700000000E+01 0.  1.
         25    2    1    2    0    0  0.00000000000E+00  0.00000000000E+00 -0.61839524127E+03  0.63090212778E+03  0.12499928163E+03 0.  0.
    9000005    1    3    3    0    0  0.40935693535E+02  0.63084224197E+01 -0.73016818703E+02  0.83952266271E+02  0.10000000000E+01 0.  0.
    9000005    1    3    3    0    0 -0.40935693535E+02 -0.63084224197E+01 -0.54537842257E+03  0.54694986151E+03  0.10000000000E+01 0.  0.
<mgrwt>
<rscale>  0 0.12499928E+03</rscale>
<asrwt>0</asrwt>
<pdfrwt beam="2">  1        4 0.96099748E-01 0.12499928E+03</pdfrwt>
<pdfrwt beam="1">  1       -4 0.96206869E-03 0.12499928E+03</pdfrwt>
<totfact> 0.46974084E+03</totfact>
</mgrwt>
</event>
<event>
 5    1  0.3246948E-002  0.1250068E+03  0.7818608E-02  0.1235059E+00
         -4   -1    0    0    0  501 -0.00000000000E+00  0.00000000000E+00  0.19394073498E+03  0.19394489317E+03  0.12700000000E+01 0. -1.
          4   -1    0    0  501    0  0.00000000000E+00 -0.00000000000E+00 -0.20119244884E+02  0.20159288546E+02  0.12700000000E+01 0. -1.
         25    2    1    2    0    0  0.00000000000E+00  0.00000000000E+00  0.17382149010E+03  0.21410418172E+03  0.12500676065E+03 0.  0.
    9000005    1    3    3    0    0 -0.19219119462E+02 -0.15893063921E+02 -0.11235558641E+02  0.27371551137E+02  0.10000000000E+01 0.  0.
    9000005    1    3    3    0    0  0.19219119462E+02  0.15893063921E+02  0.18505704874E+03  0.18673263058E+03  0.10000000000E+01 0.  0.
<mgrwt>
<rscale>  0 0.12500676E+03</rscale>
<asrwt>0</asrwt>
<pdfrwt beam="2">  1        4 0.30986684E-02 0.12500676E+03</pdfrwt>
<pdfrwt beam="1">  1       -4 0.29840438E-01 0.12500676E+03</pdfrwt>
<totfact> 0.87796702E+03</totfact>
</mgrwt>
</event>
<event>
 5    1  0.3246948E-002  0.1249990E+03  0.7818608E-02  0.1235071E+00
          4   -1    0    0  501    0  0.00000000000E+00  0.00000000000E+00  0.64601017894E+02  0.64613500238E+02  0.12700000000E+01 0. -1.
         -4   -1    0    0    0  501 -0.00000000000E+00 -0.00000000000E+00 -0.60441310087E+02  0.60454651311E+02  0.12700000000E+01 0. -1.
         25    2    1    2    0    0  0.00000000000E+00  0.00000000000E+00  0.41597078070E+01  0.12506815155E+03  0.12499895745E+03 0.  0.
    9000005    1    3    3    0    0  0.34085762178E+01  0.16243672008E+01 -0.60331978119E+02  0.60458287640E+02  0.10000000000E+01 0.  0.
    9000005    1    3    3    0    0 -0.34085762178E+01 -0.16243672008E+01  0.64491685926E+02  0.64609863908E+02  0.10000000000E+01 0.  0.
<mgrwt>
<rscale>  0 0.12499896E+03</rscale>
<asrwt>0</asrwt>
<pdfrwt beam="1">  1        4 0.99406045E-02 0.12499896E+03</pdfrwt>
<pdfrwt beam="2">  1       -4 0.93006496E-02 0.12499896E+03</pdfrwt>
<totfact> 0.10451629E+04</totfact>
</mgrwt>
</event>
<event>
 5    1  0.3246948E-002  0.1250021E+03  0.7818608E-02  0.1235066E+00
          4   -1    0    0  501    0  0.00000000000E+00  0.00000000000E+00  0.19520293985E+01  0.23288020037E+01  0.12700000000E+01 0.  1.
         -4   -1    0    0    0  501 -0.00000000000E+00 -0.00000000000E+00 -0.18246808323E+04  0.18246812742E+04  0.12700000000E+01 0.  1.
         25    2    1    2    0    0  0.00000000000E+00  0.00000000000E+00 -0.18227288029E+04  0.18270100762E+04  0.12500211946E+03 0.  0.
    9000005    1    3    3    0    0 -0.43522393411E+02 -0.39888339249E+02 -0.61179183362E+03  0.61463446537E+03  0.10000000000E+01 0.  0.
    9000005    1    3    3    0    0  0.43522393411E+02  0.39888339249E+02 -0.12109369693E+04  0.12123756109E+04  0.10000000000E+01 0.  0.
<mgrwt>
<rscale>  0 0.12500212E+03</rscale>
<asrwt>0</asrwt>
<pdfrwt beam="1">  1        4 0.32933018E-03 0.12500212E+03</pdfrwt>
<pdfrwt beam="2">  1       -4 0.28074790E+00 0.12500212E+03</pdfrwt>
<totfact> 0.12291497E+03</totfact>
</mgrwt>
</event>
<event>
 5    1  0.3246948E-002  0.1250064E+03  0.7818608E-02  0.1235059E+00
         -4   -1    0    0    0  501 -0.00000000000E+00  0.00000000000E+00  0.16124102085E+04  0.16124107087E+04  0.12700000000E+01 0. -1.
          4   -1    0    0  501    0  0.00000000000E+00 -0.00000000000E+00 -0.22559046019E+01  0.25888232023E+01  0.12700000000E+01 0. -1.
         25    2    1    2    0    0  0.00000000000E+00  0.00000000000E+00  0.16101543039E+04  0.16149995319E+04  0.12500642195E+03 0.  0.
    9000005    1    3    3    0    0  0.35669660329E+02  0.11590586263E+02  0.14509126364E+04  0.14513976522E+04  0.10000000000E+01 0.  0.
    9000005    1    3    3    0    0 -0.35669660329E+02 -0.11590586263E+02  0.15924166754E+03  0.16360187970E+03  0.10000000000E+01 0.  0.
<mgrwt>
<rscale>  0 0.12500642E+03</rscale>
<asrwt>0</asrwt>
<pdfrwt beam="2">  1        4 0.37270905E-03 0.12500642E+03</pdfrwt>
<pdfrwt beam="1">  1       -4 0.24808928E+00 0.12500642E+03</pdfrwt>
<totfact> 0.15774270E+03</totfact>
</mgrwt>
</event>
<event>
 5    1  0.3246948E-002  0.1250061E+03  0.7818608E-02  0.1235060E+00
          4   -1    0    0  501    0  0.00000000000E+00  0.00000000000E+00  0.25498491677E+03  0.25498807948E+03  0.12700000000E+01 0. -1.
         -4   -1    0    0    0  501 -0.00000000000E+00 -0.00000000000E+00 -0.15291450479E+02  0.15344098466E+02  0.12700000000E+01 0. -1.
         25    2    1    2    0    0  0.00000000000E+00  0.00000000000E+00  0.23969346629E+03  0.27033217795E+03  0.12500611447E+03 0.  0.
    9000005    1    3    3    0    0 -0.15992873120E+02 -0.73038197068E+01 -0.98435350050E+01  0.20174562061E+02  0.10000000000E+01 0.  0.
    9000005    1    3    3    0    0  0.15992873120E+02  0.73038197068E+01  0.24953700129E+03  0.25015761589E+03  0.10000000000E+01 0.  0.
<mgrwt>
<rscale>  0 0.12500611E+03</rscale>
<asrwt>0</asrwt>
<pdfrwt beam="1">  1        4 0.39232738E-01 0.12500611E+03</pdfrwt>
<pdfrwt beam="2">  1       -4 0.23568242E-02 0.12500611E+03</pdfrwt>
<totfact> 0.79466795E+03</totfact>
</mgrwt>
</event>
<event>
 5    1  0.3246948E-002  0.1250023E+03  0.7818608E-02  0.1235066E+00
         -4   -1    0    0    0  501 -0.00000000000E+00  0.00000000000E+00  0.23521037659E+03  0.23521380519E+03  0.12700000000E+01 0.  1.
          4   -1    0    0  501    0  0.00000000000E+00 -0.00000000000E+00 -0.16580257948E+02  0.16628825985E+02  0.12700000000E+01 0.  1.
         25    2    1    2    0    0  0.00000000000E+00  0.00000000000E+00  0.21863011864E+03  0.25184263118E+03  0.12500232839E+03 0.  0.
    9000005    1    3    3    0    0 -0.27419910868E+02  0.30569259733E+02  0.14408529084E+02  0.43530872527E+02  0.10000000000E+01 0.  0.
    9000005    1    3    3    0    0  0.27419910868E+02 -0.30569259733E+02  0.20422158956E+03  0.20831175865E+03  0.10000000000E+01 0.  0.
<mgrwt>
<rscale>  0 0.12500233E+03</rscale>
<asrwt>0</asrwt>
<pdfrwt beam="2">  1        4 0.25548090E-02 0.12500233E+03</pdfrwt>
<pdfrwt beam="1">  1       -4 0.36190206E-01 0.12500233E+03</pdfrwt>
<totfact> 0.82060386E+03</totfact>
</mgrwt>
</event>
<event>
 5    1  0.3246948E-002  0.1250018E+03  0.7818608E-02  0.1235067E+00
         -4   -1    0    0    0  501 -0.00000000000E+00  0.00000000000E+00  0.21928899550E+03  0.21929267304E+03  0.12700000000E+01 0.  1.
          4   -1    0    0  501    0  0.00000000000E+00 -0.00000000000E+00 -0.17787282586E+02  0.17832563523E+02  0.12700000000E+01 0.  1.
         25    2    1    2    0    0  0.00000000000E+00  0.00000000000E+00  0.20150171292E+03  0.23712523656E+03  0.12500175001E+03 0.  0.
    9000005    1    3    3    0    0  0.56568976734E+02  0.20173535145E+02  0.67985379023E+02  0.90719526067E+02  0.10000000000E+01 0.  0.
    9000005    1    3    3    0    0 -0.56568976734E+02 -0.20173535145E+02  0.13351633390E+03  0.14640571050E+03  0.10000000000E+01 0.  0.
<mgrwt>
<rscale>  0 0.12500175E+03</rscale>
<asrwt>0</asrwt>
<pdfrwt beam="2">  1        4 0.27402712E-02 0.12500175E+03</pdfrwt>
<pdfrwt beam="1">  1       -4 0.33740533E-01 0.12500175E+03</pdfrwt>
<totfact> 0.84224097E+03</totfact>
</mgrwt>
</event>
<event>
 5    1  0.3246948E-002  0.1250045E+03  0.7818608E-02  0.1235062E+00
         -4   -1    0    0    0  501 -0.00000000000E+00  0.00000000000E+00  0.81286226773E+01  0.82272356615E+01  0.12700000000E+01 0. -1.
          4   -1    0    0  501    0  0.00000000000E+00 -0.00000000000E+00 -0.47759273856E+03  0.47759442713E+03  0.12700000000E+01 0. -1.
         25    2    1    2    0    0  0.00000000000E+00  0.00000000000E+00 -0.46946411588E+03  0.48582166279E+03  0.12500452766E+03 0.  0.
    9000005    1    3    3    0    0 -0.24401764871E+02 -0.54278591327E+02 -0.30887245664E+03  0.31455493332E+03  0.10000000000E+01 0.  0.
    9000005    1    3    3    0    0  0.24401764871E+02  0.54278591327E+02 -0.16059165924E+03  0.17126672947E+03  0.10000000000E+01 0.  0.
<mgrwt>
<rscale>  0 0.12500453E+03</rscale>
<asrwt>0</asrwt>
<pdfrwt beam="2">  1        4 0.73483500E-01 0.12500453E+03</pdfrwt>
<pdfrwt beam="1">  1       -4 0.12582732E-02 0.12500453E+03</pdfrwt>
<totfact> 0.56975794E+03</totfact>
</mgrwt>
</event>
<event>
 5    1  0.3246948E-002  0.1250039E+03  0.7818608E-02  0.1235063E+00
         -4   -1    0    0    0  501 -0.00000000000E+00  0.00000000000E+00  0.36506044383E+02  0.36528128565E+02  0.12700000000E+01 0.  1.
          4   -1    0    0  501    0  0.00000000000E+00 -0.00000000000E+00 -0.10695121832E+03  0.10695875841E+03  0.12700000000E+01 0.  1.
         25    2    1    2    0    0  0.00000000000E+00  0.00000000000E+00 -0.70445173942E+02  0.14348688698E+03  0.12500385675E+03 0.  0.
    9000005    1    3    3    0    0  0.20787140076E+02 -0.23030081199E+02 -0.97493326271E+02  0.10231538741E+03  0.10000000000E+01 0.  0.
    9000005    1    3    3    0    0 -0.20787140076E+02  0.23030081199E+02  0.27048152329E+02  0.41171499572E+02  0.10000000000E+01 0.  0.
<mgrwt>
<rscale>  0 0.12500386E+03</rscale>
<asrwt>0</asrwt>
<pdfrwt beam="2">  1        4 0.16456312E-01 0.12500386E+03</pdfrwt>
<pdfrwt beam="1">  1       -4 0.56185934E-02 0.12500386E+03</pdfrwt>
<totfact> 0.10060949E+04</totfact>
</mgrwt>
</event>
<event>
 5    1  0.3246948E-002  0.1250007E+03  0.7818608E-02  0.1235068E+00
         -4   -1    0    0    0  501 -0.00000000000E+00  0.00000000000E+00  0.41739342468E+01  0.43628691359E+01  0.12700000000E+01 0.  1.
          4   -1    0    0  501    0  0.00000000000E+00 -0.00000000000E+00 -0.91497660557E+03  0.91497748696E+03  0.12700000000E+01 0.  1.
         25    2    1    2    0    0  0.00000000000E+00  0.00000000000E+00 -0.91080267133E+03  0.91934035610E+03  0.12500073701E+03 0.  0.
    9000005    1    3    3    0    0  0.90227630011E+01 -0.47367750211E+02 -0.16304176647E+03  0.17002567931E+03  0.10000000000E+01 0.  0.
    9000005    1    3    3    0    0 -0.90227630011E+01  0.47367750211E+02 -0.74776090486E+03  0.74931467679E+03  0.10000000000E+01 0.  0.
<mgrwt>
<rscale>  0 0.12500074E+03</rscale>
<asrwt>0</asrwt>
<pdfrwt beam="2">  1        4 0.14078008E+00 0.12500074E+03</pdfrwt>
<pdfrwt beam="1">  1       -4 0.65674571E-03 0.12500074E+03</pdfrwt>
<totfact> 0.33429596E+03</totfact>
</mgrwt>
</event>
<event>
 5    1  0.3246948E-002  0.1250021E+03  0.7818608E-02  0.1235066E+00
         -4   -1    0    0    0  501 -0.00000000000E+00  0.00000000000E+00  0.62951538939E+03  0.62951667045E+03  0.12700000000E+01 0.  1.
          4   -1    0    0  501    0  0.00000000000E+00 -0.00000000000E+00 -0.61390950467E+01  0.62690819098E+01  0.12700000000E+01 0.  1.
         25    2    1    2    0    0  0.00000000000E+00  0.00000000000E+00  0.62337629434E+03  0.63578575236E+03  0.12500207422E+03 0.  0.
    9000005    1    3    3    0    0  0.24493570712E+02  0.40421036166E+02  0.10373871658E+03  0.11400226528E+03  0.10000000000E+01 0.  0.
    9000005    1    3    3    0    0 -0.24493570712E+02 -0.40421036166E+02  0.51963757776E+03  0.52178348708E+03  0.10000000000E+01 0.  0.
<mgrwt>
<rscale>  0 0.12500207E+03</rscale>
<asrwt>0</asrwt>
<pdfrwt beam="2">  1        4 0.95457358E-03 0.12500207E+03</pdfrwt>
<pdfrwt beam="1">  1       -4 0.96858631E-01 0.12500207E+03</pdfrwt>
<totfact> 0.46681790E+03</totfact>
</mgrwt>
</event>
<event>
 5    1  0.3246948E-002  0.1250049E+03  0.7818608E-02  0.1235062E+00
         -4   -1    0    0    0  501 -0.00000000000E+00  0.00000000000E+00  0.74597892053E+02  0.74608701897E+02  0.12700000000E+01 0. -1.
          4   -1    0    0  501    0  0.00000000000E+00 -0.00000000000E+00 -0.52345896396E+02  0.52361300304E+02  0.12700000000E+01 0. -1.
         25    2    1    2    0    0  0.00000000000E+00  0.00000000000E+00  0.22251995657E+02  0.12697000220E+03  0.12500492050E+03 0.  0.
    9000005    1    3    3    0    0 -0.22245225494E+02  0.43390330828E+02  0.50829955731E+02  0.70443276941E+02  0.10000000000E+01 0.  0.
    9000005    1    3    3    0    0  0.22245225494E+02 -0.43390330828E+02 -0.28577960074E+02  0.56526725260E+02  0.10000000000E+01 0.  0.
<mgrwt>
<rscale>  0 0.12500492E+03</rscale>
<asrwt>0</asrwt>
<pdfrwt beam="2">  1        4 0.80552312E-02 0.12500492E+03</pdfrwt>
<pdfrwt beam="1">  1       -4 0.11478615E-01 0.12500492E+03</pdfrwt>
<totfact> 0.10408641E+04</totfact>
</mgrwt>
</event>
<event>
 5    1  0.3246948E-002  0.1250000E+03  0.7818608E-02  0.1235069E+00
         -4   -1    0    0    0  501 -0.00000000000E+00  0.00000000000E+00  0.22546288079E+01  0.25877115491E+01  0.12700000000E+01 0. -1.
          4   -1    0    0  501    0  0.00000000000E+00 -0.00000000000E+00 -0.16130399639E+04  0.16130404638E+04  0.12700000000E+01 0. -1.
         25    2    1    2    0    0  0.00000000000E+00  0.00000000000E+00 -0.16107853350E+04  0.16156281754E+04  0.12500002167E+03 0.  0.
    9000005    1    3    3    0    0 -0.90531280554E+01 -0.61804140307E+02 -0.82971255899E+03  0.83206108035E+03  0.10000000000E+01 0.  0.
    9000005    1    3    3    0    0  0.90531280554E+01  0.61804140307E+02 -0.78107277606E+03  0.78356709502E+03  0.10000000000E+01 0.  0.
<mgrwt>
<rscale>  0 0.12500002E+03</rscale>
<asrwt>0</asrwt>
<pdfrwt beam="2">  1        4 0.24818480E+00 0.12500002E+03</pdfrwt>
<pdfrwt beam="1">  1       -4 0.37252747E-03 0.12500002E+03</pdfrwt>
<totfact> 0.15765400E+03</totfact>
</mgrwt>
</event>
<event>
 5    1  0.3246948E-002  0.1249971E+03  0.7818608E-02  0.1235074E+00
          4   -1    0    0  501    0  0.00000000000E+00  0.00000000000E+00  0.43189769497E+01  0.45018287276E+01  0.12700000000E+01 0. -1.
         -4   -1    0    0    0  501 -0.00000000000E+00 -0.00000000000E+00 -0.88546561405E+03  0.88546652482E+03  0.12700000000E+01 0. -1.
         25    2    1    2    0    0  0.00000000000E+00  0.00000000000E+00 -0.88114663710E+03  0.88996835355E+03  0.12499709689E+03 0.  0.
    9000005    1    3    3    0    0 -0.20998797812E+02 -0.13091761173E+02 -0.84913003756E+03  0.84949112085E+03  0.10000000000E+01 0.  0.
    9000005    1    3    3    0    0  0.20998797812E+02  0.13091761173E+02 -0.32016599549E+02  0.40477232697E+02  0.10000000000E+01 0.  0.
<mgrwt>
<rscale>  0 0.12499710E+03</rscale>
<asrwt>0</asrwt>
<pdfrwt beam="1">  1        4 0.67859428E-03 0.12499710E+03</pdfrwt>
<pdfrwt beam="2">  1       -4 0.13623947E+00 0.12499710E+03</pdfrwt>
<totfact> 0.34547391E+03</totfact>
</mgrwt>
</event>
<event>
 5    1  0.3246948E-002  0.1250001E+03  0.7818608E-02  0.1235069E+00
          4   -1    0    0  501    0  0.00000000000E+00  0.00000000000E+00  0.15158760669E+03  0.15159292662E+03  0.12700000000E+01 0. -1.
         -4   -1    0    0    0  501 -0.00000000000E+00 -0.00000000000E+00 -0.25747528656E+02  0.25778831081E+02  0.12700000000E+01 0. -1.
         25    2    1    2    0    0  0.00000000000E+00  0.00000000000E+00  0.12584007804E+03  0.17737175771E+03  0.12500006077E+03 0.  0.
    9000005    1    3    3    0    0 -0.36481060347E+02  0.47155163471E+02  0.36344043142E+02  0.69830986517E+02  0.10000000000E+01 0.  0.
    9000005    1    3    3    0    0  0.36481060347E+02 -0.47155163471E+02  0.89496034894E+02  0.10754077119E+03  0.10000000000E+01 0.  0.
<mgrwt>
<rscale>  0 0.12500006E+03</rscale>
<asrwt>0</asrwt>
<pdfrwt beam="1">  1        4 0.23323987E-01 0.12500006E+03</pdfrwt>
<pdfrwt beam="2">  1       -4 0.39639754E-02 0.12500006E+03</pdfrwt>
<totfact> 0.94092118E+03</totfact>
</mgrwt>
</event>
<event>
 4    1  0.3246948E-002  0.1332474E+03  0.7818608E-02  0.1222715E+00
          4   -1    0    0  501    0  0.00000000000E+00  0.00000000000E+00  0.14421177111E+03  0.14421736312E+03  0.12700000000E+01 0.  1.
         -4   -1    0    0    0  501 -0.00000000000E+00 -0.00000000000E+00 -0.30759860336E+02  0.30786066782E+02  0.12700000000E+01 0.  1.
    9000005    1    1    2    0    0 -0.24241033112E+02  0.44833842959E+02  0.11306358309E+03  0.12402449348E+03  0.10000000000E+01 0.  0.
    9000005    1    1    2    0    0  0.24241033112E+02 -0.44833842959E+02  0.38832767963E+00  0.50978936427E+02  0.10000000000E+01 0.  0.
<mgrwt>
<rscale>  0 0.13324738E+03</rscale>
<asrwt>0</asrwt>
<pdfrwt beam="1">  1        4 0.22188872E-01 0.13324738E+03</pdfrwt>
<pdfrwt beam="2">  1       -4 0.47347324E-02 0.13324738E+03</pdfrwt>
<totfact> 0.78957882E+03</totfact>
</mgrwt>
</event>
<event>
 5    1  0.3246948E-002  0.1250025E+03  0.7818608E-02  0.1235065E+00
         -4   -1    0    0    0  501 -0.00000000000E+00  0.00000000000E+00  0.13694612451E+03  0.13695201320E+03  0.12700000000E+01 0. -1.
          4   -1    0    0  501    0  0.00000000000E+00 -0.00000000000E+00 -0.28504473681E+02  0.28532751704E+02  0.12700000000E+01 0. -1.
         25    2    1    2    0    0  0.00000000000E+00  0.00000000000E+00  0.10844165083E+03  0.16548476490E+03  0.12500246309E+03 0.  0.
    9000005    1    3    3    0    0 -0.49754192218E+01  0.57470996022E+02  0.86041055945E+02  0.10359408037E+03  0.10000000000E+01 0.  0.
    9000005    1    3    3    0    0  0.49754192218E+01 -0.57470996022E+02  0.22400594885E+02  0.61890684528E+02  0.10000000000E+01 0.  0.
<mgrwt>
<rscale>  0 0.12500246E+03</rscale>
<asrwt>0</asrwt>
<pdfrwt beam="2">  1        4 0.43879318E-02 0.12500246E+03</pdfrwt>
<pdfrwt beam="1">  1       -4 0.21071263E-01 0.12500246E+03</pdfrwt>
<totfact> 0.96290336E+03</totfact>
</mgrwt>
</event>
<event>
 5    1  0.3246948E-002  0.1249974E+03  0.7818608E-02  0.1235073E+00
         -4   -1    0    0    0  501 -0.00000000000E+00  0.00000000000E+00  0.40767117161E+02  0.40786894238E+02  0.12700000000E+01 0. -1.
          4   -1    0    0  501    0  0.00000000000E+00 -0.00000000000E+00 -0.95767484300E+02  0.95775904847E+02  0.12700000000E+01 0. -1.
         25    2    1    2    0    0  0.00000000000E+00  0.00000000000E+00 -0.55000367140E+02  0.13656279909E+03  0.12499743081E+03 0.  0.
    9000005    1    3    3    0    0 -0.12480950799E+02  0.57009600922E+02 -0.30896307838E+01  0.58450103067E+02  0.10000000000E+01 0.  0.
    9000005    1    3    3    0    0  0.12480950799E+02 -0.57009600922E+02 -0.51910736356E+02  0.78112696018E+02  0.10000000000E+01 0.  0.
<mgrwt>
<rscale>  0 0.12499743E+03</rscale>
<asrwt>0</asrwt>
<pdfrwt beam="2">  1        4 0.14735628E-01 0.12499743E+03</pdfrwt>
<pdfrwt beam="1">  1       -4 0.62740333E-02 0.12499743E+03</pdfrwt>
<totfact> 0.10205826E+04</totfact>
</mgrwt>
</event>
<event>
 5    1  0.3246948E-002  0.1249983E+03  0.7818608E-02  0.1235072E+00
         -4   -1    0    0    0  501 -0.00000000000E+00  0.00000000000E+00  0.51726803733E+02  0.51742391948E+02  0.12700000000E+01 0. -1.
          4   -1    0    0  501    0  0.00000000000E+00 -0.00000000000E+00 -0.75482606303E+02  0.75493289466E+02  0.12700000000E+01 0. -1.
         25    2    1    2    0    0  0.00000000000E+00  0.00000000000E+00 -0.23755802570E+02  0.12723568141E+03  0.12499832186E+03 0.  0.
    9000005    1    3    3    0    0  0.16255680789E+02 -0.49438058496E+02  0.23335764118E+02  0.57043200057E+02  0.10000000000E+01 0.  0.
    9000005    1    3    3    0    0 -0.16255680789E+02  0.49438058496E+02 -0.47091566688E+02  0.70192481356E+02  0.10000000000E+01 0.  0.
<mgrwt>
<rscale>  0 0.12499832E+03</rscale>
<asrwt>0</asrwt>
<pdfrwt beam="2">  1        4 0.11614729E-01 0.12499832E+03</pdfrwt>
<pdfrwt beam="1">  1       -4 0.79599907E-02 0.12499832E+03</pdfrwt>
<totfact> 0.10404423E+04</totfact>
</mgrwt>
</event>
<event>
 5    1  0.3246948E-002  0.1250161E+03  0.7818608E-02  0.1235044E+00
         -4   -1    0    0    0  501 -0.00000000000E+00  0.00000000000E+00  0.41428450584E+02  0.41447912104E+02  0.12700000000E+01 0.  1.
          4   -1    0    0  501    0  0.00000000000E+00 -0.00000000000E+00 -0.94267545551E+02  0.94276100069E+02  0.12700000000E+01 0.  1.
         25    2    1    2    0    0  0.00000000000E+00  0.00000000000E+00 -0.52839094967E+02  0.13572401217E+03  0.12501614905E+03 0.  0.
    9000005    1    3    3    0    0 -0.18648003989E+02  0.35389481788E+02  0.25715437766E+02  0.47565189093E+02  0.10000000000E+01 0.  0.
    9000005    1    3    3    0    0  0.18648003989E+02 -0.35389481788E+02 -0.78554532733E+02  0.88158823080E+02  0.10000000000E+01 0.  0.
<mgrwt>
<rscale>  0 0.12501615E+03</rscale>
<asrwt>0</asrwt>
<pdfrwt beam="2">  1        4 0.14504854E-01 0.12501615E+03</pdfrwt>
<pdfrwt beam="1">  1       -4 0.63757629E-02 0.12501615E+03</pdfrwt>
<totfact> 0.10219111E+04</totfact>
</mgrwt>
</event>
<event>
 5    1  0.3246948E-002  0.1250013E+03  0.7818608E-02  0.1235067E+00
          4   -1    0    0  501    0  0.00000000000E+00  0.00000000000E+00  0.92537590979E+03  0.92537678127E+03  0.12700000000E+01 0. -1.
         -4   -1    0    0    0  501 -0.00000000000E+00 -0.00000000000E+00 -0.41249313538E+01  0.43160118945E+01  0.12700000000E+01 0. -1.
         25    2    1    2    0    0  0.00000000000E+00  0.00000000000E+00  0.92125097844E+03  0.92969279317E+03  0.12500129759E+03 0.  0.
    9000005    1    3    3    0    0 -0.56899216959E+00  0.33408823309E+02  0.85339533135E+03  0.85404980229E+03  0.10000000000E+01 0.  0.
    9000005    1    3    3    0    0  0.56899216959E+00 -0.33408823309E+02  0.67855647087E+02  0.75642990876E+02  0.10000000000E+01 0.  0.
<mgrwt>
<rscale>  0 0.12500130E+03</rscale>
<asrwt>0</asrwt>
<pdfrwt beam="1">  1        4 0.14238013E+00 0.12500130E+03</pdfrwt>
<pdfrwt beam="2">  1       -4 0.64937111E-03 0.12500130E+03</pdfrwt>
<totfact> 0.33047208E+03</totfact>
</mgrwt>
</event>
<event>
 5    1  0.3246948E-002  0.1249919E+03  0.7818608E-02  0.1235082E+00
          4   -1    0    0  501    0  0.00000000000E+00  0.00000000000E+00  0.21220279903E+04  0.21220283704E+04  0.12700000000E+01 0.  1.
         -4   -1    0    0    0  501 -0.00000000000E+00 -0.00000000000E+00 -0.16210703715E+01  0.20593127857E+01  0.12700000000E+01 0.  1.
         25    2    1    2    0    0  0.00000000000E+00  0.00000000000E+00  0.21204069200E+04  0.21240876831E+04  0.12499191780E+03 0.  0.
    9000005    1    3    3    0    0 -0.56065871013E+02  0.13832365732E+02  0.65447184567E+03  0.65701530653E+03  0.10000000000E+01 0.  0.
    9000005    1    3    3    0    0  0.56065871013E+02 -0.13832365732E+02  0.14659350743E+04  0.14670723766E+04  0.10000000000E+01 0.  0.
<mgrwt>
<rscale>  0 0.12499192E+03</rscale>
<asrwt>0</asrwt>
<pdfrwt beam="1">  1        4 0.32649968E+00 0.12499192E+03</pdfrwt>
<pdfrwt beam="2">  1       -4 0.28313555E-03 0.12499192E+03</pdfrwt>
<totfact> 0.83288039E+02</totfact>
</mgrwt>
</event>
<event>
 5    1  0.3246948E-002  0.1250046E+03  0.7818608E-02  0.1235062E+00
          4   -1    0    0  501    0  0.00000000000E+00  0.00000000000E+00  0.42312525388E+01  0.44177367562E+01  0.12700000000E+01 0. -1.
         -4   -1    0    0    0  501 -0.00000000000E+00 -0.00000000000E+00 -0.90316468230E+03  0.90316557522E+03  0.12700000000E+01 0. -1.
         25    2    1    2    0    0  0.00000000000E+00  0.00000000000E+00 -0.89893342976E+03  0.90758331197E+03  0.12500462802E+03 0.  0.
    9000005    1    3    3    0    0  0.53724022627E+02 -0.21297863410E+02 -0.62214664091E+03  0.62482582564E+03  0.10000000000E+01 0.  0.
    9000005    1    3    3    0    0 -0.53724022627E+02  0.21297863410E+02 -0.27678678885E+03  0.28275748633E+03  0.10000000000E+01 0.  0.
<mgrwt>
<rscale>  0 0.12500463E+03</rscale>
<asrwt>0</asrwt>
<pdfrwt beam="1">  1        4 0.66537627E-03 0.12500463E+03</pdfrwt>
<pdfrwt beam="2">  1       -4 0.13896268E+00 0.12500463E+03</pdfrwt>
<totfact> 0.33867819E+03</totfact>
</mgrwt>
</event>
<event>
 5    1  0.3246948E-002  0.1249973E+03  0.7818608E-02  0.1235074E+00
          4   -1    0    0  501    0  0.00000000000E+00  0.00000000000E+00  0.17706540395E+03  0.17706995842E+03  0.12700000000E+01 0.  1.
         -4   -1    0    0    0  501 -0.00000000000E+00 -0.00000000000E+00 -0.22036981627E+02  0.22073546594E+02  0.12700000000E+01 0.  1.
         25    2    1    2    0    0  0.00000000000E+00  0.00000000000E+00  0.15502842232E+03  0.19914350501E+03  0.12499729542E+03 0.  0.
    9000005    1    3    3    0    0 -0.38875233702E+02  0.41157378036E+02  0.35366556430E+02  0.66760818418E+02  0.10000000000E+01 0.  0.
    9000005    1    3    3    0    0  0.38875233702E+02 -0.41157378036E+02  0.11966186589E+03  0.13238268660E+03  0.10000000000E+01 0.  0.
<mgrwt>
<rscale>  0 0.12499730E+03</rscale>
<asrwt>0</asrwt>
<pdfrwt beam="1">  1        4 0.27243994E-01 0.12499730E+03</pdfrwt>
<pdfrwt beam="2">  1       -4 0.33934680E-02 0.12499730E+03</pdfrwt>
<totfact> 0.90285627E+03</totfact>
</mgrwt>
</event>
<event>
 5    1  0.3246948E-002  0.1249932E+03  0.7818608E-02  0.1235080E+00
          4   -1    0    0  501    0  0.00000000000E+00  0.00000000000E+00  0.46293422348E+01  0.48003863935E+01  0.12700000000E+01 0. -1.
         -4   -1    0    0    0  501 -0.00000000000E+00 -0.00000000000E+00 -0.82823472002E+03  0.82823569372E+03  0.12700000000E+01 0. -1.
         25    2    1    2    0    0  0.00000000000E+00  0.00000000000E+00 -0.82360537779E+03  0.83303608011E+03  0.12499316961E+03 0.  0.
    9000005    1    3    3    0    0 -0.18909321332E+02 -0.58300584218E+02 -0.49296452302E+03  0.49676105072E+03  0.10000000000E+01 0.  0.
    9000005    1    3    3    0    0  0.18909321332E+02  0.58300584218E+02 -0.33064085477E+03  0.33627502939E+03  0.10000000000E+01 0.  0.
<mgrwt>
<rscale>  0 0.12499317E+03</rscale>
<asrwt>0</asrwt>
<pdfrwt beam="1">  1        4 0.72543930E-03 0.12499317E+03</pdfrwt>
<pdfrwt beam="2">  1       -4 0.12743384E+00 0.12499317E+03</pdfrwt>
<totfact> 0.36837259E+03</totfact>
</mgrwt>
</event>
<event>
 5    1  0.3246948E-002  0.1249975E+03  0.7818608E-02  0.1235073E+00
         -4   -1    0    0    0  501 -0.00000000000E+00  0.00000000000E+00  0.23911660766E+02  0.23945363238E+02  0.12700000000E+01 0. -1.
          4   -1    0    0  501    0  0.00000000000E+00 -0.00000000000E+00 -0.16320405180E+03  0.16320899308E+03  0.12700000000E+01 0. -1.
         25    2    1    2    0    0  0.00000000000E+00  0.00000000000E+00 -0.13929239103E+03  0.18715435632E+03  0.12499753154E+03 0.  0.
    9000005    1    3    3    0    0 -0.32190981411E+02  0.83325803479E+01 -0.14886555659E+03  0.15253735647E+03  0.10000000000E+01 0.  0.
    9000005    1    3    3    0    0  0.32190981411E+02 -0.83325803479E+01  0.95731655638E+01  0.34616999847E+02  0.10000000000E+01 0.  0.
<mgrwt>
<rscale>  0 0.12499753E+03</rscale>
<asrwt>0</asrwt>
<pdfrwt beam="2">  1        4 0.25111288E-01 0.12499753E+03</pdfrwt>
<pdfrwt beam="1">  1       -4 0.36816897E-02 0.12499753E+03</pdfrwt>
<totfact> 0.92349926E+03</totfact>
</mgrwt>
</event>
<event>
 5    1  0.3246948E-002  0.1249962E+03  0.7818608E-02  0.1235075E+00
          4   -1    0    0  501    0  0.00000000000E+00  0.00000000000E+00  0.30169874740E+03  0.30170142042E+03  0.12700000000E+01 0. -1.
         -4   -1    0    0    0  501 -0.00000000000E+00 -0.00000000000E+00 -0.12912848489E+02  0.12975151487E+02  0.12700000000E+01 0. -1.
         25    2    1    2    0    0  0.00000000000E+00  0.00000000000E+00  0.28878589891E+03  0.31467657191E+03  0.12499619793E+03 0.  0.
    9000005    1    3    3    0    0 -0.19672600627E+02 -0.48594450537E+02  0.58776828564E+02  0.78766410446E+02  0.10000000000E+01 0.  0.
    9000005    1    3    3    0    0  0.19672600627E+02  0.48594450537E+02  0.23000907035E+03  0.23591016146E+03  0.10000000000E+01 0.  0.
<mgrwt>
<rscale>  0 0.12499620E+03</rscale>
<asrwt>0</asrwt>
<pdfrwt beam="1">  1        4 0.46420194E-01 0.12499620E+03</pdfrwt>
<pdfrwt beam="2">  1       -4 0.19915901E-02 0.12499620E+03</pdfrwt>
<totfact> 0.73799999E+03</totfact>
</mgrwt>
</event>
<event>
 5    1  0.3246948E-002  0.1249993E+03  0.7818608E-02  0.1235070E+00
         -4   -1    0    0    0  501 -0.00000000000E+00  0.00000000000E+00  0.41685175650E+02  0.41704517369E+02  0.12700000000E+01 0.  1.
          4   -1    0    0  501    0  0.00000000000E+00 -0.00000000000E+00 -0.93661970308E+02  0.93670580131E+02  0.12700000000E+01 0.  1.
         25    2    1    2    0    0  0.00000000000E+00  0.00000000000E+00 -0.51976794658E+02  0.13537509750E+03  0.12499931936E+03 0.  0.
    9000005    1    3    3    0    0 -0.26026546375E+02 -0.49847600967E+02 -0.55509876508E+02  0.79022217309E+02  0.10000000000E+01 0.  0.
    9000005    1    3    3    0    0  0.26026546375E+02  0.49847600967E+02  0.35330818499E+01  0.56352880190E+02  0.10000000000E+01 0.  0.
<mgrwt>
<rscale>  0 0.12499932E+03</rscale>
<asrwt>0</asrwt>
<pdfrwt beam="2">  1        4 0.14411684E-01 0.12499932E+03</pdfrwt>
<pdfrwt beam="1">  1       -4 0.64152541E-02 0.12499932E+03</pdfrwt>
<totfact> 0.10230328E+04</totfact>
</mgrwt>
</event>
<event>
 5    1  0.3246948E-002  0.1250031E+03  0.7818608E-02  0.1235064E+00
         -4   -1    0    0    0  501 -0.00000000000E+00  0.00000000000E+00  0.93898633880E+02  0.93907222004E+02  0.12700000000E+01 0. -1.
          4   -1    0    0  501    0  0.00000000000E+00 -0.00000000000E+00 -0.41582617442E+02  0.41602006843E+02  0.12700000000E+01 0. -1.
         25    2    1    2    0    0  0.00000000000E+00  0.00000000000E+00  0.52316016438E+02  0.13550922885E+03  0.12500314207E+03 0.  0.
    9000005    1    3    3    0    0  0.60592035099E+01  0.45536512254E+02 -0.19772298172E+02  0.50022311726E+02  0.10000000000E+01 0.  0.
    9000005    1    3    3    0    0 -0.60592035099E+01 -0.45536512254E+02  0.72088314610E+02  0.85486917121E+02  0.10000000000E+01 0.  0.
<mgrwt>
<rscale>  0 0.12500314E+03</rscale>
<asrwt>0</asrwt>
<pdfrwt beam="2">  1        4 0.63994779E-02 0.12500314E+03</pdfrwt>
<pdfrwt beam="1">  1       -4 0.14448096E-01 0.12500314E+03</pdfrwt>
<totfact> 0.10226624E+04</totfact>
</mgrwt>
</event>
<event>
 4    1  0.3246948E-002  0.1248816E+03  0.7818608E-02  0.1235254E+00
          4   -1    0    0  501    0  0.00000000000E+00  0.00000000000E+00  0.12560909796E+03  0.12561551811E+03  0.12700000000E+01 0.  1.
         -4   -1    0    0    0  501 -0.00000000000E+00 -0.00000000000E+00 -0.31019363239E+02  0.31045350630E+02  0.12700000000E+01 0.  1.
    9000005    1    1    2    0    0  0.34390123800E+02  0.26452417909E+02  0.10361286769E+03  0.11233448882E+03  0.10000000000E+01 0.  0.
    9000005    1    1    2    0    0 -0.34390123800E+02 -0.26452417909E+02 -0.90231329668E+01  0.44326379920E+02  0.10000000000E+01 0.  0.
<mgrwt>
<rscale>  0 0.12488158E+03</rscale>
<asrwt>0</asrwt>
<pdfrwt beam="1">  1        4 0.19326970E-01 0.12488158E+03</pdfrwt>
<pdfrwt beam="2">  1       -4 0.47747026E-02 0.12488158E+03</pdfrwt>
<totfact> 0.98251806E+03</totfact>
</mgrwt>
</event>
<event>
 5    1  0.3246948E-002  0.1249927E+03  0.7818608E-02  0.1235081E+00
         -4   -1    0    0    0  501 -0.00000000000E+00  0.00000000000E+00  0.72480707805E+02  0.72491833360E+02  0.12700000000E+01 0. -1.
          4   -1    0    0  501    0  0.00000000000E+00 -0.00000000000E+00 -0.53864614270E+02  0.53879583985E+02  0.12700000000E+01 0. -1.
         25    2    1    2    0    0  0.00000000000E+00  0.00000000000E+00  0.18616093536E+02  0.12637141735E+03  0.12499270452E+03 0.  0.
    9000005    1    3    3    0    0  0.43778372081E+02  0.44474575962E+02  0.60695480464E+01  0.62708637224E+02  0.10000000000E+01 0.  0.
    9000005    1    3    3    0    0 -0.43778372081E+02 -0.44474575962E+02  0.12546545489E+02  0.63662780121E+02  0.10000000000E+01 0.  0.
<mgrwt>
<rscale>  0 0.12499270E+03</rscale>
<asrwt>0</asrwt>
<pdfrwt beam="2">  1        4 0.82888712E-02 0.12499270E+03</pdfrwt>
<pdfrwt beam="1">  1       -4 0.11152885E-01 0.12499270E+03</pdfrwt>
<totfact> 0.10424550E+04</totfact>
</mgrwt>
</event>
<event>
 5    1  0.3246948E-002  0.1250021E+03  0.7818608E-02  0.1235066E+00
         -4   -1    0    0    0  501 -0.00000000000E+00  0.00000000000E+00  0.77999111068E+02  0.78009449603E+02  0.12700000000E+01 0.  1.
          4   -1    0    0  501    0  0.00000000000E+00 -0.00000000000E+00 -0.50060664257E+02  0.50076771121E+02  0.12700000000E+01 0.  1.
         25    2    1    2    0    0  0.00000000000E+00  0.00000000000E+00  0.27938446810E+02  0.12808622072E+03  0.12500209250E+03 0.  0.
    9000005    1    3    3    0    0  0.52872054706E+02 -0.15471989065E+02  0.44202173960E+02  0.70637587709E+02  0.10000000000E+01 0.  0.
    9000005    1    3    3    0    0 -0.52872054706E+02  0.15471989065E+02 -0.16263727150E+02  0.57448633015E+02  0.10000000000E+01 0.  0.
<mgrwt>
<rscale>  0 0.12500209E+03</rscale>
<asrwt>0</asrwt>
<pdfrwt beam="2">  1        4 0.77036749E-02 0.12500209E+03</pdfrwt>
<pdfrwt beam="1">  1       -4 0.12001898E-01 0.12500209E+03</pdfrwt>
<totfact> 0.10385135E+04</totfact>
</mgrwt>
</event>
<event>
 5    1  0.3246948E-002  0.1249974E+03  0.7818608E-02  0.1235073E+00
         -4   -1    0    0    0  501 -0.00000000000E+00  0.00000000000E+00  0.77977049497E+01  0.79004495114E+01  0.12700000000E+01 0. -1.
          4   -1    0    0  501    0  0.00000000000E+00 -0.00000000000E+00 -0.49754589446E+03  0.49754751531E+03  0.12700000000E+01 0. -1.
         25    2    1    2    0    0  0.00000000000E+00  0.00000000000E+00 -0.48974818951E+03  0.50544796482E+03  0.12499742404E+03 0.  0.
    9000005    1    3    3    0    0  0.31403680201E+02 -0.38838229258E+02 -0.93008160069E+02  0.10557517237E+03  0.10000000000E+01 0.  0.
    9000005    1    3    3    0    0 -0.31403680201E+02  0.38838229258E+02 -0.39674002944E+03  0.39987279245E+03  0.10000000000E+01 0.  0.
<mgrwt>
<rscale>  0 0.12499742E+03</rscale>
<asrwt>0</asrwt>
<pdfrwt beam="2">  1        4 0.76553525E-01 0.12499742E+03</pdfrwt>
<pdfrwt beam="1">  1       -4 0.12076754E-02 0.12499742E+03</pdfrwt>
<totfact> 0.55447286E+03</totfact>
</mgrwt>
</event>
<event>
 5    1  0.3246948E-002  0.1250108E+03  0.7818608E-02  0.1235052E+00
         -4   -1    0    0    0  501 -0.00000000000E+00  0.00000000000E+00  0.99849697013E+02  0.99857773326E+02  0.12700000000E+01 0.  1.
          4   -1    0    0  501    0  0.00000000000E+00 -0.00000000000E+00 -0.39108087891E+02  0.39128703511E+02  0.12700000000E+01 0.  1.
         25    2    1    2    0    0  0.00000000000E+00  0.00000000000E+00  0.60741609122E+02  0.13898647684E+03  0.12501079019E+03 0.  0.
    9000005    1    3    3    0    0  0.20239176792E+02 -0.13403413161E+02  0.94399518605E+02  0.97475868165E+02  0.10000000000E+01 0.  0.
    9000005    1    3    3    0    0 -0.20239176792E+02  0.13403413161E+02 -0.33657909483E+02  0.41510608672E+02  0.10000000000E+01 0.  0.
<mgrwt>
<rscale>  0 0.12501079E+03</rscale>
<asrwt>0</asrwt>
<pdfrwt beam="2">  1        4 0.60188360E-02 0.12501079E+03</pdfrwt>
<pdfrwt beam="1">  1       -4 0.15363699E-01 0.12501079E+03</pdfrwt>
<totfact> 0.10152166E+04</totfact>
</mgrwt>
</event>
<event>
 5    1  0.3246948E-002  0.1249999E+03  0.7818608E-02  0.1235069E+00
         -4   -1    0    0    0  501 -0.00000000000E+00  0.00000000000E+00  0.39191212421E+02  0.39211784339E+02  0.12700000000E+01 0. -1.
          4   -1    0    0  501    0  0.00000000000E+00 -0.00000000000E+00 -0.99620596971E+02  0.99628691856E+02  0.12700000000E+01 0. -1.
         25    2    1    2    0    0  0.00000000000E+00  0.00000000000E+00 -0.60429384550E+02  0.13884047619E+03  0.12499986925E+03 0.  0.
    9000005    1    3    3    0    0 -0.39683914637E+02 -0.48210911453E+02 -0.27463149591E+02  0.68222647629E+02  0.10000000000E+01 0.  0.
    9000005    1    3    3    0    0  0.39683914637E+02  0.48210911453E+02 -0.32966234959E+02  0.70617828566E+02  0.10000000000E+01 0.  0.
<mgrwt>
<rscale>  0 0.12499987E+03</rscale>
<asrwt>0</asrwt>
<pdfrwt beam="2">  1        4 0.15328451E-01 0.12499987E+03</pdfrwt>
<pdfrwt beam="1">  1       -4 0.60316225E-02 0.12499987E+03</pdfrwt>
<totfact> 0.10157704E+04</totfact>
</mgrwt>
</event>
<event>
 5    1  0.3246948E-002  0.1250042E+03  0.7818608E-02  0.1235063E+00
         -4   -1    0    0    0  501 -0.00000000000E+00  0.00000000000E+00  0.12610698779E+03  0.12611338260E+03  0.12700000000E+01 0.  1.
          4   -1    0    0  501    0  0.00000000000E+00 -0.00000000000E+00 -0.30957569127E+02  0.30983608348E+02  0.12700000000E+01 0.  1.
         25    2    1    2    0    0  0.00000000000E+00  0.00000000000E+00  0.95149418666E+02  0.15709699095E+03  0.12500421070E+03 0.  0.
    9000005    1    3    3    0    0  0.33071934792E+02 -0.51122230972E+02  0.65270919721E+02  0.89266613757E+02  0.10000000000E+01 0.  0.
    9000005    1    3    3    0    0 -0.33071934792E+02  0.51122230972E+02  0.29878498945E+02  0.67830377189E+02  0.10000000000E+01 0.  0.
<mgrwt>
<rscale>  0 0.12500421E+03</rscale>
<asrwt>0</asrwt>
<pdfrwt beam="2">  1        4 0.47651979E-02 0.12500421E+03</pdfrwt>
<pdfrwt beam="1">  1       -4 0.19403570E-01 0.12500421E+03</pdfrwt>
<totfact> 0.97896131E+03</totfact>
</mgrwt>
</event>
<event>
 5    1  0.3246948E-002  0.1250014E+03  0.7818608E-02  0.1235067E+00
         -4   -1    0    0    0  501 -0.00000000000E+00  0.00000000000E+00  0.21741648806E+03  0.21742019727E+03  0.12700000000E+01 0. -1.
          4   -1    0    0  501    0  0.00000000000E+00 -0.00000000000E+00 -0.17940766703E+02  0.17985661230E+02  0.12700000000E+01 0. -1.
         25    2    1    2    0    0  0.00000000000E+00  0.00000000000E+00  0.19947572136E+03  0.23540585850E+03  0.12500141921E+03 0.  0.
    9000005    1    3    3    0    0 -0.55483539904E+02 -0.10543283586E+02  0.49354814821E+02  0.75009877850E+02  0.10000000000E+01 0.  0.
    9000005    1    3    3    0    0  0.55483539904E+02  0.10543283586E+02  0.15012090654E+03  0.16039598065E+03  0.10000000000E+01 0.  0.
<mgrwt>
<rscale>  0 0.12500142E+03</rscale>
<asrwt>0</asrwt>
<pdfrwt beam="2">  1        4 0.27638568E-02 0.12500142E+03</pdfrwt>
<pdfrwt beam="1">  1       -4 0.33452428E-01 0.12500142E+03</pdfrwt>
<totfact> 0.84483702E+03</totfact>
</mgrwt>
</event>
<event>
 5    1  0.3246948E-002  0.1249996E+03  0.7818608E-02  0.1235070E+00
          4   -1    0    0  501    0  0.00000000000E+00  0.00000000000E+00  0.28081789073E+02  0.28110492304E+02  0.12700000000E+01 0. -1.
         -4   -1    0    0    0  501 -0.00000000000E+00 -0.00000000000E+00 -0.13899908919E+03  0.13900489090E+03  0.12700000000E+01 0. -1.
         25    2    1    2    0    0  0.00000000000E+00  0.00000000000E+00 -0.11091730011E+03  0.16711538320E+03  0.12499961536E+03 0.  0.
    9000005    1    3    3    0    0 -0.46946675770E+02  0.40583559946E+02 -0.65302125952E+02  0.90090972676E+02  0.10000000000E+01 0.  0.
    9000005    1    3    3    0    0  0.46946675770E+02 -0.40583559946E+02 -0.45615174160E+02  0.77024410529E+02  0.10000000000E+01 0.  0.
<mgrwt>
<rscale>  0 0.12499962E+03</rscale>
<asrwt>0</asrwt>
<pdfrwt beam="1">  1        4 0.43229295E-02 0.12499962E+03</pdfrwt>
<pdfrwt beam="2">  1       -4 0.21387129E-01 0.12499962E+03</pdfrwt>
<totfact> 0.95989095E+03</totfact>
</mgrwt>
</event>
<event>
 5    1  0.3246948E-002  0.1250008E+03  0.7818608E-02  0.1235068E+00
          4   -1    0    0  501    0  0.00000000000E+00  0.00000000000E+00  0.61731942040E+02  0.61745004397E+02  0.12700000000E+01 0.  1.
         -4   -1    0    0    0  501 -0.00000000000E+00 -0.00000000000E+00 -0.63252284619E+02  0.63265033071E+02  0.12700000000E+01 0.  1.
         25    2    1    2    0    0  0.00000000000E+00  0.00000000000E+00 -0.15203425788E+01  0.12501003747E+03  0.12500079210E+03 0.  0.
    9000005    1    3    3    0    0  0.60841920497E+02 -0.63335995504E+01  0.12025363980E+02  0.62349524071E+02  0.10000000000E+01 0.  0.
    9000005    1    3    3    0    0 -0.60841920497E+02  0.63335995504E+01 -0.13545706558E+02  0.62660513397E+02  0.10000000000E+01 0.  0.
<mgrwt>
<rscale>  0 0.12500079E+03</rscale>
<asrwt>0</asrwt>
<pdfrwt beam="1">  1        4 0.94992073E-02 0.12500079E+03</pdfrwt>
<pdfrwt beam="2">  1       -4 0.97331061E-02 0.12500079E+03</pdfrwt>
<totfact> 0.10452457E+04</totfact>
</mgrwt>
</event>
<event>
 5    1  0.3246948E-002  0.1249943E+03  0.7818608E-02  0.1235078E+00
         -4   -1    0    0    0  501 -0.00000000000E+00  0.00000000000E+00  0.46539746178E+02  0.46557071153E+02  0.12700000000E+01 0.  1.
          4   -1    0    0  501    0  0.00000000000E+00 -0.00000000000E+00 -0.83888265610E+02  0.83897878442E+02  0.12700000000E+01 0.  1.
         25    2    1    2    0    0  0.00000000000E+00  0.00000000000E+00 -0.37348519432E+02  0.13045494960E+03  0.12499432775E+03 0.  0.
    9000005    1    3    3    0    0 -0.16149331530E+02 -0.44499323931E+02 -0.61247282519E+02  0.77415892135E+02  0.10000000000E+01 0.  0.
    9000005    1    3    3    0    0  0.16149331530E+02  0.44499323931E+02  0.23898763087E+02  0.53039057460E+02  0.10000000000E+01 0.  0.
<mgrwt>
<rscale>  0 0.12499433E+03</rscale>
<asrwt>0</asrwt>
<pdfrwt beam="2">  1        4 0.12907959E-01 0.12499433E+03</pdfrwt>
<pdfrwt beam="1">  1       -4 0.71620331E-02 0.12499433E+03</pdfrwt>
<totfact> 0.10336108E+04</totfact>
</mgrwt>
</event>
<event>
 5    1  0.3246948E-002  0.1249985E+03  0.7818608E-02  0.1235072E+00
          4   -1    0    0  501    0  0.00000000000E+00  0.00000000000E+00  0.18978644612E+02  0.19021089646E+02  0.12700000000E+01 0.  1.
         -4   -1    0    0    0  501 -0.00000000000E+00 -0.00000000000E+00 -0.20554423885E+03  0.20554816230E+03  0.12700000000E+01 0.  1.
         25    2    1    2    0    0  0.00000000000E+00  0.00000000000E+00 -0.18656559424E+03  0.22456925195E+03  0.12499851185E+03 0.  0.
    9000005    1    3    3    0    0  0.49532860336E+01 -0.49643875078E+02 -0.25675499160E+02  0.56118451800E+02  0.10000000000E+01 0.  0.
    9000005    1    3    3    0    0 -0.49532860336E+01  0.49643875078E+02 -0.16089009508E+03  0.16845080015E+03  0.10000000000E+01 0.  0.
<mgrwt>
<rscale>  0 0.12499851E+03</rscale>
<asrwt>0</asrwt>
<pdfrwt beam="1">  1        4 0.29233584E-02 0.12499851E+03</pdfrwt>
<pdfrwt beam="2">  1       -4 0.31625756E-01 0.12499851E+03</pdfrwt>
<totfact> 0.86153313E+03</totfact>
</mgrwt>
</event>
<event>
 5    1  0.3246948E-002  0.1249983E+03  0.7818608E-02  0.1235072E+00
         -4   -1    0    0    0  501 -0.00000000000E+00  0.00000000000E+00  0.10063084813E+04  0.10063092826E+04  0.12700000000E+01 0. -1.
          4   -1    0    0  501    0  0.00000000000E+00 -0.00000000000E+00 -0.37769549803E+01  0.39847570720E+01  0.12700000000E+01 0. -1.
         25    2    1    2    0    0  0.00000000000E+00  0.00000000000E+00  0.10025315263E+04  0.10102940397E+04  0.12499834207E+03 0.  0.
    9000005    1    3    3    0    0 -0.12073777830E+02 -0.78817525610E+01  0.98117974275E+01  0.17469101388E+02  0.10000000000E+01 0.  0.
    9000005    1    3    3    0    0  0.12073777830E+02  0.78817525610E+01  0.99271972884E+03  0.99282493833E+03  0.10000000000E+01 0.  0.
<mgrwt>
<rscale>  0 0.12499834E+03</rscale>
<asrwt>0</asrwt>
<pdfrwt beam="2">  1        4 0.59711676E-03 0.12499834E+03</pdfrwt>
<pdfrwt beam="1">  1       -4 0.15483265E+00 0.12499834E+03</pdfrwt>
<totfact> 0.30268096E+03</totfact>
</mgrwt>
</event>
<event>
 5    1  0.3246948E-002  0.1250005E+03  0.7818608E-02  0.1235069E+00
          4   -1    0    0  501    0  0.00000000000E+00  0.00000000000E+00  0.15048557926E+03  0.15049093815E+03  0.12700000000E+01 0. -1.
         -4   -1    0    0    0  501 -0.00000000000E+00 -0.00000000000E+00 -0.25936485543E+02  0.25967560192E+02  0.12700000000E+01 0. -1.
         25    2    1    2    0    0  0.00000000000E+00  0.00000000000E+00  0.12454909372E+03  0.17645849834E+03  0.12500049957E+03 0.  0.
    9000005    1    3    3    0    0 -0.16442339655E+02 -0.34528477968E+02  0.13204430557E+03  0.13747459750E+03  0.10000000000E+01 0.  0.
    9000005    1    3    3    0    0  0.16442339655E+02  0.34528477968E+02 -0.74952118538E+01  0.38983900842E+02  0.10000000000E+01 0.  0.
<mgrwt>
<rscale>  0 0.12500050E+03</rscale>
<asrwt>0</asrwt>
<pdfrwt beam="1">  1        4 0.23154430E-01 0.12500050E+03</pdfrwt>
<pdfrwt beam="2">  1       -4 0.39930312E-02 0.12500050E+03</pdfrwt>
<totfact> 0.94257341E+03</totfact>
</mgrwt>
</event>
<event>
 5    1  0.3246948E-002  0.1250021E+03  0.7818608E-02  0.1235066E+00
         -4   -1    0    0    0  501 -0.00000000000E+00  0.00000000000E+00  0.58042223474E+03  0.58042362416E+03  0.12700000000E+01 0. -1.
          4   -1    0    0  501    0  0.00000000000E+00 -0.00000000000E+00 -0.66689150280E+01  0.67887648104E+01  0.12700000000E+01 0. -1.
         25    2    1    2    0    0  0.00000000000E+00  0.00000000000E+00  0.57375331971E+03  0.58721238897E+03  0.12500207149E+03 0.  0.
    9000005    1    3    3    0    0 -0.56540446592E+02  0.12188218584E+01  0.41179027309E+03  0.41565675339E+03  0.10000000000E+01 0.  0.
    9000005    1    3    3    0    0  0.56540446592E+02 -0.12188218584E+01  0.16196304663E+03  0.17155563558E+03  0.10000000000E+01 0.  0.
<mgrwt>
<rscale>  0 0.12500207E+03</rscale>
<asrwt>0</asrwt>
<pdfrwt beam="2">  1        4 0.10353131E-02 0.12500207E+03</pdfrwt>
<pdfrwt beam="1">  1       -4 0.89305049E-01 0.12500207E+03</pdfrwt>
<totfact> 0.49682624E+03</totfact>
</mgrwt>
</event>
<event>
 5    1  0.3246948E-002  0.1250032E+03  0.7818608E-02  0.1235064E+00
          4   -1    0    0  501    0  0.00000000000E+00  0.00000000000E+00  0.26426511750E+02  0.26457010853E+02  0.12700000000E+01 0.  1.
         -4   -1    0    0    0  501 -0.00000000000E+00 -0.00000000000E+00 -0.14770474417E+03  0.14771020395E+03  0.12700000000E+01 0.  1.
         25    2    1    2    0    0  0.00000000000E+00  0.00000000000E+00 -0.12127823242E+03  0.17416721480E+03  0.12500323617E+03 0.  0.
    9000005    1    3    3    0    0 -0.20387276430E+01  0.62436819911E+02 -0.63027875707E+02  0.88746977454E+02  0.10000000000E+01 0.  0.
    9000005    1    3    3    0    0  0.20387276430E+01 -0.62436819911E+02 -0.58250356712E+02  0.85420237345E+02  0.10000000000E+01 0.  0.
<mgrwt>
<rscale>  0 0.12500324E+03</rscale>
<asrwt>0</asrwt>
<pdfrwt beam="1">  1        4 0.40683833E-02 0.12500324E+03</pdfrwt>
<pdfrwt beam="2">  1       -4 0.22726572E-01 0.12500324E+03</pdfrwt>
<totfact> 0.94670711E+03</totfact>
</mgrwt>
</event>
<event>
 5    1  0.3246948E-002  0.1250007E+03  0.7818608E-02  0.1235068E+00
         -4   -1    0    0    0  501 -0.00000000000E+00  0.00000000000E+00  0.14557650449E+02  0.14612942435E+02  0.12700000000E+01 0. -1.
          4   -1    0    0  501    0  0.00000000000E+00 -0.00000000000E+00 -0.26776729317E+03  0.26777030491E+03  0.12700000000E+01 0. -1.
         25    2    1    2    0    0  0.00000000000E+00  0.00000000000E+00 -0.25320964272E+03  0.28238324735E+03  0.12500070086E+03 0.  0.
    9000005    1    3    3    0    0 -0.22532433250E+02 -0.54612396382E+02 -0.17262908488E+03  0.18246102415E+03  0.10000000000E+01 0.  0.
    9000005    1    3    3    0    0  0.22532433250E+02  0.54612396382E+02 -0.80580557844E+02  0.99922223200E+02  0.10000000000E+01 0.  0.
<mgrwt>
<rscale>  0 0.12500070E+03</rscale>
<asrwt>0</asrwt>
<pdfrwt beam="2">  1        4 0.41199450E-01 0.12500070E+03</pdfrwt>
<pdfrwt beam="1">  1       -4 0.22441236E-02 0.12500070E+03</pdfrwt>
<totfact> 0.77861950E+03</totfact>
</mgrwt>
</event>
<event>
 5    1  0.3246948E-002  0.1249838E+03  0.7818608E-02  0.1235095E+00
          4   -1    0    0  501    0  0.00000000000E+00  0.00000000000E+00  0.80030542249E+01  0.81031954763E+01  0.12700000000E+01 0. -1.
         -4   -1    0    0    0  501 -0.00000000000E+00 -0.00000000000E+00 -0.48483333258E+03  0.48483499593E+03  0.12700000000E+01 0. -1.
         25    2    1    2    0    0  0.00000000000E+00  0.00000000000E+00 -0.47683027835E+03  0.49293819140E+03  0.12498378372E+03 0.  0.
    9000005    1    3    3    0    0 -0.23120531343E+02  0.44984684371E+02 -0.38311573620E+03  0.38644126089E+03  0.10000000000E+01 0.  0.
    9000005    1    3    3    0    0  0.23120531343E+02 -0.44984684371E+02 -0.93714542154E+02  0.10649693051E+03  0.10000000000E+01 0.  0.
<mgrwt>
<rscale>  0 0.12498378E+03</rscale>
<asrwt>0</asrwt>
<pdfrwt beam="1">  1        4 0.12390706E-02 0.12498378E+03</pdfrwt>
<pdfrwt beam="2">  1       -4 0.74597552E-01 0.12498378E+03</pdfrwt>
<totfact> 0.56436604E+03</totfact>
</mgrwt>
</event>
<event>
 5    1  0.3246948E-002  0.1250018E+03  0.7818608E-02  0.1235066E+00
         -4   -1    0    0    0  501 -0.00000000000E+00  0.00000000000E+00  0.48834773061E+02  0.48851284118E+02  0.12700000000E+01 0.  1.
          4   -1    0    0  501    0  0.00000000000E+00 -0.00000000000E+00 -0.79956389216E+02  0.79966474703E+02  0.12700000000E+01 0.  1.
         25    2    1    2    0    0  0.00000000000E+00  0.00000000000E+00 -0.31121616155E+02  0.12881775882E+03  0.12500183997E+03 0.  0.
    9000005    1    3    3    0    0 -0.56131353663E+01 -0.55726579623E+02  0.13005539529E+02  0.57507417118E+02  0.10000000000E+01 0.  0.
    9000005    1    3    3    0    0  0.56131353663E+01  0.55726579623E+02 -0.44127155684E+02  0.71310341703E+02  0.10000000000E+01 0.  0.
<mgrwt>
<rscale>  0 0.12500184E+03</rscale>
<asrwt>0</asrwt>
<pdfrwt beam="2">  1        4 0.12303029E-01 0.12500184E+03</pdfrwt>
<pdfrwt beam="1">  1       -4 0.75150879E-02 0.12500184E+03</pdfrwt>
<totfact> 0.10369434E+04</totfact>
</mgrwt>
</event>
<event>
 5    1  0.3246948E-002  0.1249995E+03  0.7818608E-02  0.1235070E+00
         -4   -1    0    0    0  501 -0.00000000000E+00  0.00000000000E+00  0.47160296913E+02  0.47177394003E+02  0.12700000000E+01 0.  1.
          4   -1    0    0  501    0  0.00000000000E+00 -0.00000000000E+00 -0.82791536353E+02  0.82801276510E+02  0.12700000000E+01 0.  1.
         25    2    1    2    0    0  0.00000000000E+00  0.00000000000E+00 -0.35631239440E+02  0.12997867051E+03  0.12499947826E+03 0.  0.
    9000005    1    3    3    0    0  0.61963587153E+02  0.12288413264E+01 -0.26148653129E+02  0.67273681661E+02  0.10000000000E+01 0.  0.
    9000005    1    3    3    0    0 -0.61963587153E+02 -0.12288413264E+01 -0.94825863105E+01  0.62704988852E+02  0.10000000000E+01 0.  0.
<mgrwt>
<rscale>  0 0.12499948E+03</rscale>
<asrwt>0</asrwt>
<pdfrwt beam="2">  1        4 0.12739224E-01 0.12499948E+03</pdfrwt>
<pdfrwt beam="1">  1       -4 0.72574947E-02 0.12499948E+03</pdfrwt>
<totfact> 0.10345086E+04</totfact>
</mgrwt>
</event>
<event>
 5    1  0.3246948E-002  0.1249975E+03  0.7818608E-02  0.1235073E+00
          4   -1    0    0  501    0  0.00000000000E+00  0.00000000000E+00  0.28979400928E+02  0.29007215967E+02  0.12700000000E+01 0. -1.
         -4   -1    0    0    0  501 -0.00000000000E+00 -0.00000000000E+00 -0.13469317792E+03  0.13469916510E+03  0.12700000000E+01 0. -1.
         25    2    1    2    0    0  0.00000000000E+00  0.00000000000E+00 -0.10571377700E+03  0.16370638107E+03  0.12499750620E+03 0.  0.
    9000005    1    3    3    0    0  0.55750389823E+02 -0.45448137067E+01 -0.16365680627E+02  0.58288908030E+02  0.10000000000E+01 0.  0.
    9000005    1    3    3    0    0 -0.55750389823E+02  0.45448137067E+01 -0.89348096370E+02  0.10541747304E+03  0.10000000000E+01 0.  0.
<mgrwt>
<rscale>  0 0.12499751E+03</rscale>
<asrwt>0</asrwt>
<pdfrwt beam="1">  1        4 0.44609696E-02 0.12499751E+03</pdfrwt>
<pdfrwt beam="2">  1       -4 0.20724627E-01 0.12499751E+03</pdfrwt>
<totfact> 0.96638360E+03</totfact>
</mgrwt>
</event>
<event>
 5    1  0.3246948E-002  0.1250024E+03  0.7818608E-02  0.1235066E+00
         -4   -1    0    0    0  501 -0.00000000000E+00  0.00000000000E+00  0.98794072300E+02  0.98802234902E+02  0.12700000000E+01 0. -1.
          4   -1    0    0  501    0  0.00000000000E+00 -0.00000000000E+00 -0.39520819100E+02  0.39541219535E+02  0.12700000000E+01 0. -1.
         25    2    1    2    0    0  0.00000000000E+00  0.00000000000E+00  0.59273253201E+02  0.13834345444E+03  0.12500237134E+03 0.  0.
    9000005    1    3    3    0    0  0.33317034416E+02  0.42190839357E+02 -0.56279722365E+01  0.54062609810E+02  0.10000000000E+01 0.  0.
    9000005    1    3    3    0    0 -0.33317034416E+02 -0.42190839357E+02  0.64901225437E+02  0.84280844628E+02  0.10000000000E+01 0.  0.
<mgrwt>
<rscale>  0 0.12500237E+03</rscale>
<asrwt>0</asrwt>
<pdfrwt beam="2">  1        4 0.60823232E-02 0.12500237E+03</pdfrwt>
<pdfrwt beam="1">  1       -4 0.15201285E-01 0.12500237E+03</pdfrwt>
<totfact> 0.10167491E+04</totfact>
</mgrwt>
</event>
<event>
 5    1  0.3246948E-002  0.1250015E+03  0.7818608E-02  0.1235067E+00
         -4   -1    0    0    0  501 -0.00000000000E+00  0.00000000000E+00  0.36937417094E+03  0.36937635422E+03  0.12700000000E+01 0.  1.
          4   -1    0    0  501    0  0.00000000000E+00 -0.00000000000E+00 -0.10535225994E+02  0.10611497855E+02  0.12700000000E+01 0.  1.
         25    2    1    2    0    0  0.00000000000E+00  0.00000000000E+00  0.35883894495E+03  0.37998785208E+03  0.12500151725E+03 0.  0.
    9000005    1    3    3    0    0  0.28317974488E+02  0.79477772881E+01  0.34703355507E+03  0.34827914550E+03  0.10000000000E+01 0.  0.
    9000005    1    3    3    0    0 -0.28317974488E+02 -0.79477772881E+01  0.11805389877E+02  0.31708706581E+02  0.10000000000E+01 0.  0.
<mgrwt>
<rscale>  0 0.12500152E+03</rscale>
<asrwt>0</asrwt>
<pdfrwt beam="2">  1        4 0.16268388E-02 0.12500152E+03</pdfrwt>
<pdfrwt beam="1">  1       -4 0.56832838E-01 0.12500152E+03</pdfrwt>
<totfact> 0.66544568E+03</totfact>
</mgrwt>
</event>
<event>
 5    1  0.3246948E-002  0.1250001E+03  0.7818608E-02  0.1235069E+00
          4   -1    0    0  501    0  0.00000000000E+00  0.00000000000E+00  0.80243462896E+01  0.81242250938E+01  0.12700000000E+01 0. -1.
         -4   -1    0    0    0  501 -0.00000000000E+00 -0.00000000000E+00 -0.48368861110E+03  0.48369027839E+03  0.12700000000E+01 0. -1.
         25    2    1    2    0    0  0.00000000000E+00  0.00000000000E+00 -0.47566426481E+03  0.49181450349E+03  0.12500005207E+03 0.  0.
    9000005    1    3    3    0    0 -0.61773972908E+02  0.50344464753E+01 -0.20638458637E+03  0.21549238239E+03  0.10000000000E+01 0.  0.
    9000005    1    3    3    0    0  0.61773972908E+02 -0.50344464753E+01 -0.26927967845E+03  0.27632212109E+03  0.10000000000E+01 0.  0.
<mgrwt>
<rscale>  0 0.12500005E+03</rscale>
<asrwt>0</asrwt>
<pdfrwt beam="1">  1        4 0.12423264E-02 0.12500005E+03</pdfrwt>
<pdfrwt beam="2">  1       -4 0.74421421E-01 0.12500005E+03</pdfrwt>
<totfact> 0.56505046E+03</totfact>
</mgrwt>
</event>
<event>
 5    1  0.3246948E-002  0.1250075E+03  0.7818608E-02  0.1235058E+00
          4   -1    0    0  501    0  0.00000000000E+00  0.00000000000E+00  0.13986491304E+02  0.14044032149E+02  0.12700000000E+01 0.  1.
         -4   -1    0    0    0  501 -0.00000000000E+00 -0.00000000000E+00 -0.27868858633E+03  0.27869148005E+03  0.12700000000E+01 0.  1.
         25    2    1    2    0    0  0.00000000000E+00  0.00000000000E+00 -0.26470209503E+03  0.29273551220E+03  0.12500752373E+03 0.  0.
    9000005    1    3    3    0    0  0.13481572993E+02  0.60442231840E+02 -0.11266033665E+03  0.12856269931E+03  0.10000000000E+01 0.  0.
    9000005    1    3    3    0    0 -0.13481572993E+02 -0.60442231840E+02 -0.15204175838E+03  0.16417281289E+03  0.10000000000E+01 0.  0.
<mgrwt>
<rscale>  0 0.12500752E+03</rscale>
<asrwt>0</asrwt>
<pdfrwt beam="1">  1        4 0.21564169E-02 0.12500752E+03</pdfrwt>
<pdfrwt beam="2">  1       -4 0.42879812E-01 0.12500752E+03</pdfrwt>
<totfact> 0.76506430E+03</totfact>
</mgrwt>
</event>
<event>
 5    1  0.3246948E-002  0.1249985E+03  0.7818608E-02  0.1235072E+00
         -4   -1    0    0    0  501 -0.00000000000E+00  0.00000000000E+00  0.30138233738E+03  0.30138501320E+03  0.12700000000E+01 0.  1.
          4   -1    0    0  501    0  0.00000000000E+00 -0.00000000000E+00 -0.12926949664E+02  0.12989185025E+02  0.12700000000E+01 0.  1.
         25    2    1    2    0    0  0.00000000000E+00  0.00000000000E+00  0.28845538772E+03  0.31437419823E+03  0.12499850323E+03 0.  0.
    9000005    1    3    3    0    0  0.43597303105E+02 -0.37756106685E+02  0.83714947170E+02  0.10166337005E+03  0.10000000000E+01 0.  0.
    9000005    1    3    3    0    0 -0.43597303105E+02  0.37756106685E+02  0.20474044055E+03  0.21271082818E+03  0.10000000000E+01 0.  0.
<mgrwt>
<rscale>  0 0.12499850E+03</rscale>
<asrwt>0</asrwt>
<pdfrwt beam="2">  1        4 0.19937548E-02 0.12499850E+03</pdfrwt>
<pdfrwt beam="1">  1       -4 0.46371504E-01 0.12499850E+03</pdfrwt>
<totfact> 0.73832725E+03</totfact>
</mgrwt>
</event>
<event>
 5    1  0.3246948E-002  0.1249987E+03  0.7818608E-02  0.1235071E+00
          4   -1    0    0  501    0  0.00000000000E+00  0.00000000000E+00  0.21682522337E+02  0.21719684042E+02  0.12700000000E+01 0.  1.
         -4   -1    0    0    0  501 -0.00000000000E+00 -0.00000000000E+00 -0.17995919377E+03  0.17996367501E+03  0.12700000000E+01 0.  1.
         25    2    1    2    0    0  0.00000000000E+00  0.00000000000E+00 -0.15827667143E+03  0.20168335905E+03  0.12499869038E+03 0.  0.
    9000005    1    3    3    0    0 -0.55861917147E+01  0.61360230072E+02 -0.95974695052E+02  0.11405448462E+03  0.10000000000E+01 0.  0.
    9000005    1    3    3    0    0  0.55861917147E+01 -0.61360230072E+02 -0.62301976382E+02  0.87628874428E+02  0.10000000000E+01 0.  0.
<mgrwt>
<rscale>  0 0.12499869E+03</rscale>
<asrwt>0</asrwt>
<pdfrwt beam="1">  1        4 0.33389761E-02 0.12499869E+03</pdfrwt>
<pdfrwt beam="2">  1       -4 0.27689232E-01 0.12499869E+03</pdfrwt>
<totfact> 0.89855002E+03</totfact>
</mgrwt>
</event>
<event>
 5    1  0.3246948E-002  0.1249975E+03  0.7818608E-02  0.1235073E+00
          4   -1    0    0  501    0  0.00000000000E+00  0.00000000000E+00  0.98646641374E+02  0.98654816175E+02  0.12700000000E+01 0.  1.
         -4   -1    0    0    0  501 -0.00000000000E+00 -0.00000000000E+00 -0.39576805423E+02  0.39597177014E+02  0.12700000000E+01 0.  1.
         25    2    1    2    0    0  0.00000000000E+00  0.00000000000E+00  0.59069835951E+02  0.13825199319E+03  0.12499747238E+03 0.  0.
    9000005    1    3    3    0    0  0.18509279957E+02 -0.27639369149E+02  0.88045952984E+02  0.94125543867E+02  0.10000000000E+01 0.  0.
    9000005    1    3    3    0    0 -0.18509279957E+02  0.27639369149E+02 -0.28976117032E+02  0.44126449322E+02  0.10000000000E+01 0.  0.
<mgrwt>
<rscale>  0 0.12499747E+03</rscale>
<asrwt>0</asrwt>
<pdfrwt beam="1">  1        4 0.15178602E-01 0.12499747E+03</pdfrwt>
<pdfrwt beam="2">  1       -4 0.60909352E-02 0.12499747E+03</pdfrwt>
<totfact> 0.10170523E+04</totfact>
</mgrwt>
</event>
<event>
 5    1  0.3246948E-002  0.1250005E+03  0.7818608E-02  0.1235069E+00
         -4   -1    0    0    0  501 -0.00000000000E+00  0.00000000000E+00  0.20452307581E+02  0.20491700402E+02  0.12700000000E+01 0. -1.
          4   -1    0    0  501    0  0.00000000000E+00 -0.00000000000E+00 -0.19076934610E+03  0.19077357341E+03  0.12700000000E+01 0. -1.
         25    2    1    2    0    0  0.00000000000E+00  0.00000000000E+00 -0.17031703852E+03  0.21126527381E+03  0.12500048924E+03 0.  0.
    9000005    1    3    3    0    0  0.12205069496E+02  0.51237834854E+02 -0.28319323470E+02  0.59810229257E+02  0.10000000000E+01 0.  0.
    9000005    1    3    3    0    0 -0.12205069496E+02 -0.51237834854E+02 -0.14199771505E+03  0.15145504456E+03  0.10000000000E+01 0.  0.
<mgrwt>
<rscale>  0 0.12500049E+03</rscale>
<asrwt>0</asrwt>
<pdfrwt beam="2">  1        4 0.29352484E-01 0.12500049E+03</pdfrwt>
<pdfrwt beam="1">  1       -4 0.31498644E-02 0.12500049E+03</pdfrwt>
<totfact> 0.88268696E+03</totfact>
</mgrwt>
</event>
<event>
 5    1  0.3246948E-002  0.1250056E+03  0.7818608E-02  0.1235061E+00
          4   -1    0    0  501    0  0.00000000000E+00  0.00000000000E+00  0.21588714255E+02  0.21626037159E+02  0.12700000000E+01 0. -1.
         -4   -1    0    0    0  501 -0.00000000000E+00 -0.00000000000E+00 -0.18075980389E+03  0.18076426528E+03  0.12700000000E+01 0. -1.
         25    2    1    2    0    0  0.00000000000E+00  0.00000000000E+00 -0.15917108964E+03  0.20239030244E+03  0.12500559486E+03 0.  0.
    9000005    1    3    3    0    0 -0.27340128577E+02  0.12261281680E+02  0.92083568199E+01  0.31362644888E+02  0.10000000000E+01 0.  0.
    9000005    1    3    3    0    0  0.27340128577E+02 -0.12261281680E+02 -0.16837944646E+03  0.17102765755E+03  0.10000000000E+01 0.  0.
<mgrwt>
<rscale>  0 0.12500559E+03</rscale>
<asrwt>0</asrwt>
<pdfrwt beam="1">  1        4 0.33245549E-02 0.12500559E+03</pdfrwt>
<pdfrwt beam="2">  1       -4 0.27812414E-01 0.12500559E+03</pdfrwt>
<totfact> 0.89722692E+03</totfact>
</mgrwt>
</event>
<event>
 5    1  0.3246948E-002  0.1249976E+03  0.7818608E-02  0.1235073E+00
         -4   -1    0    0    0  501 -0.00000000000E+00  0.00000000000E+00  0.30487387572E+02  0.30513828028E+02  0.12700000000E+01 0. -1.
          4   -1    0    0  501    0  0.00000000000E+00 -0.00000000000E+00 -0.12803677701E+03  0.12804307544E+03  0.12700000000E+01 0. -1.
         25    2    1    2    0    0  0.00000000000E+00  0.00000000000E+00 -0.97549389442E+02  0.15855690347E+03  0.12499763300E+03 0.  0.
    9000005    1    3    3    0    0 -0.56283435278E+02 -0.27075741620E+02 -0.46180912645E+02  0.77682672223E+02  0.10000000000E+01 0.  0.
    9000005    1    3    3    0    0  0.56283435278E+02  0.27075741620E+02 -0.51368476797E+02  0.80874231245E+02  0.10000000000E+01 0.  0.
<mgrwt>
<rscale>  0 0.12499763E+03</rscale>
<asrwt>0</asrwt>
<pdfrwt beam="2">  1        4 0.19700484E-01 0.12499763E+03</pdfrwt>
<pdfrwt beam="1">  1       -4 0.46928858E-02 0.12499763E+03</pdfrwt>
<totfact> 0.97626921E+03</totfact>
</mgrwt>
</event>
<event>
 5    1  0.3246948E-002  0.1249683E+03  0.7818608E-02  0.1235119E+00
         -4   -1    0    0    0  501 -0.00000000000E+00  0.00000000000E+00  0.16825494427E+03  0.16825973723E+03  0.12700000000E+01 0.  1.
          4   -1    0    0  501    0  0.00000000000E+00 -0.00000000000E+00 -0.23181971311E+02  0.23216733057E+02  0.12700000000E+01 0.  1.
         25    2    1    2    0    0  0.00000000000E+00  0.00000000000E+00  0.14507297296E+03  0.19147647029E+03  0.12496828073E+03 0.  0.
    9000005    1    3    3    0    0  0.57799930662E+02  0.46470721559E+01  0.36903663188E+02  0.68740873000E+02  0.10000000000E+01 0.  0.
    9000005    1    3    3    0    0 -0.57799930662E+02 -0.46470721559E+01  0.10816930978E+03  0.12273559729E+03  0.10000000000E+01 0.  0.
<mgrwt>
<rscale>  0 0.12496828E+03</rscale>
<asrwt>0</asrwt>
<pdfrwt beam="2">  1        4 0.35694997E-02 0.12496828E+03</pdfrwt>
<pdfrwt beam="1">  1       -4 0.25888419E-01 0.12496828E+03</pdfrwt>
<totfact> 0.91656143E+03</totfact>
</mgrwt>
</event>
<event>
 5    1  0.3246948E-002  0.1249967E+03  0.7818608E-02  0.1235074E+00
          4   -1    0    0  501    0  0.00000000000E+00  0.00000000000E+00  0.22208591637E+02  0.22244874522E+02  0.12700000000E+01 0. -1.
         -4   -1    0    0    0  501 -0.00000000000E+00 -0.00000000000E+00 -0.17569782013E+03  0.17570241006E+03  0.12700000000E+01 0. -1.
         25    2    1    2    0    0  0.00000000000E+00  0.00000000000E+00 -0.15348922850E+03  0.19794728458E+03  0.12499673679E+03 0.  0.
    9000005    1    3    3    0    0 -0.18507454623E+02  0.53173387231E+01 -0.17089004914E+03  0.17197444247E+03  0.10000000000E+01 0.  0.
    9000005    1    3    3    0    0  0.18507454623E+02 -0.53173387231E+01  0.17400820648E+02  0.25972842104E+02  0.10000000000E+01 0.  0.
<mgrwt>
<rscale>  0 0.12499674E+03</rscale>
<asrwt>0</asrwt>
<pdfrwt beam="1">  1        4 0.34198506E-02 0.12499674E+03</pdfrwt>
<pdfrwt beam="2">  1       -4 0.27033577E-01 0.12499674E+03</pdfrwt>
<totfact> 0.90489215E+03</totfact>
</mgrwt>
</event>
<event>
 5    1  0.3246948E-002  0.1250008E+03  0.7818608E-02  0.1235068E+00
          4   -1    0    0  501    0  0.00000000000E+00  0.00000000000E+00  0.48347007435E+02  0.48363685012E+02  0.12700000000E+01 0. -1.
         -4   -1    0    0    0  501 -0.00000000000E+00 -0.00000000000E+00 -0.80761556295E+02  0.80771541245E+02  0.12700000000E+01 0. -1.
         25    2    1    2    0    0  0.00000000000E+00  0.00000000000E+00 -0.32414548860E+02  0.12913522626E+03  0.12500081473E+03 0.  0.
    9000005    1    3    3    0    0 -0.57708757048E+02 -0.50475976235E+01  0.80099541803E+01  0.58488787367E+02  0.10000000000E+01 0.  0.
    9000005    1    3    3    0    0  0.57708757048E+02  0.50475976235E+01 -0.40424503040E+02  0.70646438890E+02  0.10000000000E+01 0.  0.
<mgrwt>
<rscale>  0 0.12500081E+03</rscale>
<asrwt>0</asrwt>
<pdfrwt beam="1">  1        4 0.74400521E-02 0.12500081E+03</pdfrwt>
<pdfrwt beam="2">  1       -4 0.12426906E-01 0.12500081E+03</pdfrwt>
<totfact> 0.10362851E+04</totfact>
</mgrwt>
</event>
<event>
 5    1  0.3246948E-002  0.1250008E+03  0.7818608E-02  0.1235068E+00
          4   -1    0    0  501    0  0.00000000000E+00  0.00000000000E+00  0.17152546140E+03  0.17153016297E+03  0.12700000000E+01 0.  1.
         -4   -1    0    0    0  501 -0.00000000000E+00 -0.00000000000E+00 -0.22751149363E+02  0.22786568354E+02  0.12700000000E+01 0.  1.
         25    2    1    2    0    0  0.00000000000E+00  0.00000000000E+00  0.14877431204E+03  0.19431673133E+03  0.12500078460E+03 0.  0.
    9000005    1    3    3    0    0  0.45081037671E+02  0.36164772656E+02  0.37432998981E+02  0.68865231804E+02  0.10000000000E+01 0.  0.
    9000005    1    3    3    0    0 -0.45081037671E+02 -0.36164772656E+02  0.11134131306E+03  0.12545149952E+03  0.10000000000E+01 0.  0.
<mgrwt>
<rscale>  0 0.12500078E+03</rscale>
<asrwt>0</asrwt>
<pdfrwt beam="1">  1        4 0.26391620E-01 0.12500078E+03</pdfrwt>
<pdfrwt beam="2">  1       -4 0.35032629E-02 0.12500078E+03</pdfrwt>
<totfact> 0.91099994E+03</totfact>
</mgrwt>
</event>
<event>
 5    1  0.3246948E-002  0.1250019E+03  0.7818608E-02  0.1235066E+00
          4   -1    0    0  501    0  0.00000000000E+00  0.00000000000E+00  0.44691683261E+03  0.44691863708E+03  0.12700000000E+01 0. -1.
         -4   -1    0    0    0  501 -0.00000000000E+00 -0.00000000000E+00 -0.86927477807E+01  0.87850306760E+01  0.12700000000E+01 0. -1.
         25    2    1    2    0    0  0.00000000000E+00  0.00000000000E+00  0.43822408483E+03  0.45570366775E+03  0.12500193711E+03 0.  0.
    9000005    1    3    3    0    0  0.11183328438E+02 -0.10897866192E+02 -0.14839999604E+01  0.15717270067E+02  0.10000000000E+01 0.  0.
    9000005    1    3    3    0    0 -0.11183328438E+02  0.10897866192E+02  0.43970808479E+03  0.43998639769E+03  0.10000000000E+01 0.  0.
<mgrwt>
<rscale>  0 0.12500194E+03</rscale>
<asrwt>0</asrwt>
<pdfrwt beam="1">  1        4 0.68763654E-01 0.12500194E+03</pdfrwt>
<pdfrwt beam="2">  1       -4 0.13445837E-02 0.12500194E+03</pdfrwt>
<totfact> 0.59470323E+03</totfact>
</mgrwt>
</event>
<event>
 5    1  0.3246948E-002  0.1249992E+03  0.7818608E-02  0.1235071E+00
         -4   -1    0    0    0  501 -0.00000000000E+00  0.00000000000E+00  0.16992798089E+02  0.17040190342E+02  0.12700000000E+01 0.  1.
          4   -1    0    0  501    0  0.00000000000E+00 -0.00000000000E+00 -0.22950451599E+03  0.22950802984E+03  0.12700000000E+01 0.  1.
         25    2    1    2    0    0  0.00000000000E+00  0.00000000000E+00 -0.21251171790E+03  0.24654822018E+03  0.12499917851E+03 0.  0.
    9000005    1    3    3    0    0  0.36642158062E+02  0.37722741460E+02 -0.17283843344E+03  0.18066481961E+03  0.10000000000E+01 0.  0.
    9000005    1    3    3    0    0 -0.36642158062E+02 -0.37722741460E+02 -0.39673284462E+02  0.65883400570E+02  0.10000000000E+01 0.  0.
<mgrwt>
<rscale>  0 0.12499918E+03</rscale>
<asrwt>0</asrwt>
<pdfrwt beam="2">  1        4 0.35312301E-01 0.12499918E+03</pdfrwt>
<pdfrwt beam="1">  1       -4 0.26181926E-02 0.12499918E+03</pdfrwt>
<totfact> 0.82833208E+03</totfact>
</mgrwt>
</event>
<event>
 5    1  0.3246948E-002  0.1250029E+03  0.7818608E-02  0.1235065E+00
         -4   -1    0    0    0  501 -0.00000000000E+00  0.00000000000E+00  0.20358384482E+04  0.20358388443E+04  0.12700000000E+01 0. -1.
          4   -1    0    0  501    0  0.00000000000E+00 -0.00000000000E+00 -0.17082499913E+01  0.21286188087E+01  0.12700000000E+01 0. -1.
         25    2    1    2    0    0  0.00000000000E+00  0.00000000000E+00  0.20341301982E+04  0.20379674631E+04  0.12500287010E+03 0.  0.
    9000005    1    3    3    0    0 -0.53299079518E+02 -0.11427569877E+02  0.15153318344E+04  0.15163122863E+04  0.10000000000E+01 0.  0.
    9000005    1    3    3    0    0  0.53299079518E+02  0.11427569877E+02  0.51879836375E+03  0.52165517678E+03  0.10000000000E+01 0.  0.
<mgrwt>
<rscale>  0 0.12500287E+03</rscale>
<asrwt>0</asrwt>
<pdfrwt beam="2">  1        4 0.29517602E-03 0.12500287E+03</pdfrwt>
<pdfrwt beam="1">  1       -4 0.31323637E+00 0.12500287E+03</pdfrwt>
<totfact> 0.93733082E+02</totfact>
</mgrwt>
</event>
<event>
 5    1  0.3246948E-002  0.1249882E+03  0.7818608E-02  0.1235088E+00
          4   -1    0    0  501    0  0.00000000000E+00  0.00000000000E+00  0.20160536160E+04  0.20160540160E+04  0.12700000000E+01 0.  1.
         -4   -1    0    0    0  501 -0.00000000000E+00 -0.00000000000E+00 -0.17286146541E+01  0.21449961824E+01  0.12700000000E+01 0.  1.
         25    2    1    2    0    0  0.00000000000E+00  0.00000000000E+00  0.20143250013E+04  0.20181990122E+04  0.12498816657E+03 0.  0.
    9000005    1    3    3    0    0 -0.80325182594E+01  0.44409393730E+02  0.30931636498E+03  0.31259291298E+03  0.10000000000E+01 0.  0.
    9000005    1    3    3    0    0  0.80325182594E+01 -0.44409393730E+02  0.17050086364E+04  0.17056060992E+04  0.10000000000E+01 0.  0.
<mgrwt>
<rscale>  0 0.12498817E+03</rscale>
<asrwt>0</asrwt>
<pdfrwt beam="1">  1        4 0.31019427E+00 0.12498817E+03</pdfrwt>
<pdfrwt beam="2">  1       -4 0.29800072E-03 0.12498817E+03</pdfrwt>
<totfact> 0.96280101E+02</totfact>
</mgrwt>
</event>
<event>
 5    1  0.3246948E-002  0.1250023E+03  0.7818608E-02  0.1235066E+00
          4   -1    0    0  501    0  0.00000000000E+00  0.00000000000E+00  0.22595388193E+02  0.22631050961E+02  0.12700000000E+01 0. -1.
         -4   -1    0    0    0  501 -0.00000000000E+00 -0.00000000000E+00 -0.17271014802E+03  0.17271481734E+03  0.12700000000E+01 0. -1.
         25    2    1    2    0    0  0.00000000000E+00  0.00000000000E+00 -0.15011475982E+03  0.19534586830E+03  0.12500226856E+03 0.  0.
    9000005    1    3    3    0    0  0.28161678435E+02 -0.35214693080E+02 -0.74386899689E+01  0.45710927024E+02  0.10000000000E+01 0.  0.
    9000005    1    3    3    0    0 -0.28161678435E+02  0.35214693080E+02 -0.14267606985E+03  0.14963494127E+03  0.10000000000E+01 0.  0.
<mgrwt>
<rscale>  0 0.12500227E+03</rscale>
<asrwt>0</asrwt>
<pdfrwt beam="1">  1        4 0.34793161E-02 0.12500227E+03</pdfrwt>
<pdfrwt beam="2">  1       -4 0.26573894E-01 0.12500227E+03</pdfrwt>
<totfact> 0.90920764E+03</totfact>
</mgrwt>
</event>
<event>
 5    1  0.3246948E-002  0.1250226E+03  0.7818608E-02  0.1235034E+00
          4   -1    0    0  501    0  0.00000000000E+00  0.00000000000E+00  0.10106045416E+03  0.10106843372E+03  0.12700000000E+01 0.  1.
         -4   -1    0    0    0  501 -0.00000000000E+00 -0.00000000000E+00 -0.38646640597E+02  0.38667502239E+02  0.12700000000E+01 0.  1.
         25    2    1    2    0    0  0.00000000000E+00  0.00000000000E+00  0.62413813561E+02  0.13973593596E+03  0.12502258866E+03 0.  0.
    9000005    1    3    3    0    0 -0.29075979377E+02 -0.27451988299E+02  0.84898146535E+02  0.93849451374E+02  0.10000000000E+01 0.  0.
    9000005    1    3    3    0    0  0.29075979377E+02  0.27451988299E+02 -0.22484332974E+02  0.45886484584E+02  0.10000000000E+01 0.  0.
<mgrwt>
<rscale>  0 0.12502259E+03</rscale>
<asrwt>0</asrwt>
<pdfrwt beam="1">  1        4 0.15549981E-01 0.12502259E+03</pdfrwt>
<pdfrwt beam="2">  1       -4 0.59478556E-02 0.12502259E+03</pdfrwt>
<totfact> 0.10133903E+04</totfact>
</mgrwt>
</event>
<event>
 5    1  0.3246948E-002  0.1249968E+03  0.7818608E-02  0.1235074E+00
          4   -1    0    0  501    0  0.00000000000E+00  0.00000000000E+00  0.14346655934E+03  0.14347218040E+03  0.12700000000E+01 0.  1.
         -4   -1    0    0    0  501 -0.00000000000E+00 -0.00000000000E+00 -0.27205252815E+02  0.27234879855E+02  0.12700000000E+01 0.  1.
         25    2    1    2    0    0  0.00000000000E+00  0.00000000000E+00  0.11626130652E+03  0.17070706025E+03  0.12499683606E+03 0.  0.
    9000005    1    3    3    0    0  0.79221215319E+01  0.45488337475E+02  0.62381448100E+00  0.46188072056E+02  0.10000000000E+01 0.  0.
    9000005    1    3    3    0    0 -0.79221215319E+01 -0.45488337475E+02  0.11563749204E+03  0.12451898820E+03  0.10000000000E+01 0.  0.
<mgrwt>
<rscale>  0 0.12499684E+03</rscale>
<asrwt>0</asrwt>
<pdfrwt beam="1">  1        4 0.22074490E-01 0.12499684E+03</pdfrwt>
<pdfrwt beam="2">  1       -4 0.41881349E-02 0.12499684E+03</pdfrwt>
<totfact> 0.95323783E+03</totfact>
</mgrwt>
</event>
<event>
 5    1  0.3246948E-002  0.1250022E+03  0.7818608E-02  0.1235066E+00
          4   -1    0    0  501    0  0.00000000000E+00  0.00000000000E+00  0.27713903920E+03  0.27714194910E+03  0.12700000000E+01 0. -1.
         -4   -1    0    0    0  501 -0.00000000000E+00 -0.00000000000E+00 -0.14063818063E+02  0.14121043818E+02  0.12700000000E+01 0. -1.
         25    2    1    2    0    0  0.00000000000E+00  0.00000000000E+00  0.26307522114E+03  0.29126299291E+03  0.12500223624E+03 0.  0.
    9000005    1    3    3    0    0  0.32203154907E+02 -0.12982631768E+02  0.10468556499E+02  0.36279230818E+02  0.10000000000E+01 0.  0.
    9000005    1    3    3    0    0 -0.32203154907E+02  0.12982631768E+02  0.25260666464E+03  0.25498376210E+03  0.10000000000E+01 0.  0.
<mgrwt>
<rscale>  0 0.12500224E+03</rscale>
<asrwt>0</asrwt>
<pdfrwt beam="1">  1        4 0.42641399E-01 0.12500224E+03</pdfrwt>
<pdfrwt beam="2">  1       -4 0.21682902E-02 0.12500224E+03</pdfrwt>
<totfact> 0.76704217E+03</totfact>
</mgrwt>
</event>
<event>
 5    1  0.3246948E-002  0.1250035E+03  0.7818608E-02  0.1235064E+00
          4   -1    0    0  501    0  0.00000000000E+00  0.00000000000E+00  0.17637047688E+04  0.17637052261E+04  0.12700000000E+01 0.  1.
         -4   -1    0    0    0  501 -0.00000000000E+00 -0.00000000000E+00 -0.20323765669E+01  0.23965505439E+01  0.12700000000E+01 0.  1.
         25    2    1    2    0    0  0.00000000000E+00  0.00000000000E+00  0.17616723922E+04  0.17661017766E+04  0.12500347085E+03 0.  0.
    9000005    1    3    3    0    0 -0.21652004242E+02  0.25014817409E+02  0.16298979655E+04  0.16302340103E+04  0.10000000000E+01 0.  0.
    9000005    1    3    3    0    0  0.21652004242E+02 -0.25014817409E+02  0.13177442671E+03  0.13586776628E+03  0.10000000000E+01 0.  0.
<mgrwt>
<rscale>  0 0.12500347E+03</rscale>
<asrwt>0</asrwt>
<pdfrwt beam="1">  1        4 0.27136807E+00 0.12500347E+03</pdfrwt>
<pdfrwt beam="2">  1       -4 0.34072084E-03 0.12500347E+03</pdfrwt>
<totfact> 0.13231956E+03</totfact>
</mgrwt>
</event>
<event>
 5    1  0.3246948E-002  0.1249977E+03  0.7818608E-02  0.1235073E+00
          4   -1    0    0  501    0  0.00000000000E+00  0.00000000000E+00  0.48550166070E+02  0.48566773884E+02  0.12700000000E+01 0. -1.
         -4   -1    0    0    0  501 -0.00000000000E+00 -0.00000000000E+00 -0.80419679430E+02  0.80429706823E+02  0.12700000000E+01 0. -1.
         25    2    1    2    0    0  0.00000000000E+00  0.00000000000E+00 -0.31869513360E+02  0.12899648071E+03  0.12499770459E+03 0.  0.
    9000005    1    3    3    0    0  0.54093638673E+02  0.15096609870E+02  0.12347763321E+02  0.57510839270E+02  0.10000000000E+01 0.  0.
    9000005    1    3    3    0    0 -0.54093638673E+02 -0.15096609870E+02 -0.44217276681E+02  0.71485641437E+02  0.10000000000E+01 0.  0.
<mgrwt>
<rscale>  0 0.12499770E+03</rscale>
<asrwt>0</asrwt>
<pdfrwt beam="1">  1        4 0.74713051E-02 0.12499770E+03</pdfrwt>
<pdfrwt beam="2">  1       -4 0.12374307E-01 0.12499770E+03</pdfrwt>
<totfact> 0.10366560E+04</totfact>
</mgrwt>
</event>
<event>
 5    1  0.3246948E-002  0.1250007E+03  0.7818608E-02  0.1235068E+00
          4   -1    0    0  501    0  0.00000000000E+00  0.00000000000E+00  0.15272446028E+02  0.15325159303E+02  0.12700000000E+01 0.  1.
         -4   -1    0    0    0  501 -0.00000000000E+00 -0.00000000000E+00 -0.25527907324E+03  0.25528223231E+03  0.12700000000E+01 0.  1.
         25    2    1    2    0    0  0.00000000000E+00  0.00000000000E+00 -0.24000662721E+03  0.27060739161E+03  0.12500071716E+03 0.  0.
    9000005    1    3    3    0    0  0.56773737648E+02  0.21127369040E+02 -0.15323718787E+03  0.16477942455E+03  0.10000000000E+01 0.  0.
    9000005    1    3    3    0    0 -0.56773737648E+02 -0.21127369040E+02 -0.86769439341E+02  0.10582796706E+03  0.10000000000E+01 0.  0.
<mgrwt>
<rscale>  0 0.12500072E+03</rscale>
<asrwt>0</asrwt>
<pdfrwt beam="1">  1        4 0.23539051E-02 0.12500072E+03</pdfrwt>
<pdfrwt beam="2">  1       -4 0.39277998E-01 0.12500072E+03</pdfrwt>
<totfact> 0.79438865E+03</totfact>
</mgrwt>
</event>
<event>
 5    1  0.3246948E-002  0.1249969E+03  0.7818608E-02  0.1235074E+00
          4   -1    0    0  501    0  0.00000000000E+00  0.00000000000E+00  0.15045581863E+04  0.15045587223E+04  0.12700000000E+01 0.  1.
         -4   -1    0    0    0  501 -0.00000000000E+00 -0.00000000000E+00 -0.24402641542E+01  0.27509614941E+01  0.12700000000E+01 0.  1.
         25    2    1    2    0    0  0.00000000000E+00  0.00000000000E+00  0.15021179222E+04  0.15073096838E+04  0.12499692333E+03 0.  0.
    9000005    1    3    3    0    0 -0.43228105840E+02 -0.41502448244E+02  0.96471899224E+03  0.96657894470E+03  0.10000000000E+01 0.  0.
    9000005    1    3    3    0    0  0.43228105840E+02  0.41502448244E+02  0.53739892994E+03  0.54073073914E+03  0.10000000000E+01 0.  0.
<mgrwt>
<rscale>  0 0.12499692E+03</rscale>
<asrwt>0</asrwt>
<pdfrwt beam="1">  1        4 0.23149456E+00 0.12499692E+03</pdfrwt>
<pdfrwt beam="2">  1       -4 0.39936607E-03 0.12499692E+03</pdfrwt>
<totfact> 0.17788354E+03</totfact>
</mgrwt>
</event>
<event>
 5    1  0.3246948E-002  0.1249996E+03  0.7818608E-02  0.1235070E+00
         -4   -1    0    0    0  501 -0.00000000000E+00  0.00000000000E+00  0.10606215178E+03  0.10606975507E+03  0.12700000000E+01 0. -1.
          4   -1    0    0  501    0  0.00000000000E+00 -0.00000000000E+00 -0.36809708353E+02  0.36831610459E+02  0.12700000000E+01 0. -1.
         25    2    1    2    0    0  0.00000000000E+00  0.00000000000E+00  0.69252443430E+02  0.14290136553E+03  0.12499959740E+03 0.  0.
    9000005    1    3    3    0    0  0.49807112783E+01  0.91169834673E+01 -0.35821199960E+02  0.37310658517E+02  0.10000000000E+01 0.  0.
    9000005    1    3    3    0    0 -0.49807112783E+01 -0.91169834673E+01  0.10507364339E+03  0.10559070701E+03  0.10000000000E+01 0.  0.
<mgrwt>
<rscale>  0 0.12499960E+03</rscale>
<asrwt>0</asrwt>
<pdfrwt beam="2">  1        4 0.56653018E-02 0.12499960E+03</pdfrwt>
<pdfrwt beam="1">  1       -4 0.16319523E-01 0.12499960E+03</pdfrwt>
<totfact> 0.10073895E+04</totfact>
</mgrwt>
</event>
<event>
 5    1  0.3246948E-002  0.1250161E+03  0.7818608E-02  0.1235044E+00
          4   -1    0    0  501    0  0.00000000000E+00  0.00000000000E+00  0.53636211393E+02  0.53651244837E+02  0.12700000000E+01 0. -1.
         -4   -1    0    0    0  501 -0.00000000000E+00 -0.00000000000E+00 -0.72816632416E+02  0.72827706653E+02  0.12700000000E+01 0. -1.
         25    2    1    2    0    0  0.00000000000E+00  0.00000000000E+00 -0.19180421023E+02  0.12647895149E+03  0.12501614544E+03 0.  0.
    9000005    1    3    3    0    0  0.92515386831E+01  0.92442226022E+01  0.52241293630E+02  0.53862782881E+02  0.10000000000E+01 0.  0.
    9000005    1    3    3    0    0 -0.92515386831E+01 -0.92442226022E+01 -0.71421714653E+02  0.72616168610E+02  0.10000000000E+01 0.  0.
<mgrwt>
<rscale>  0 0.12501615E+03</rscale>
<asrwt>0</asrwt>
<pdfrwt beam="1">  1        4 0.82537331E-02 0.12501615E+03</pdfrwt>
<pdfrwt beam="2">  1       -4 0.11204567E-01 0.12501615E+03</pdfrwt>
<totfact> 0.10416691E+04</totfact>
</mgrwt>
</event>
<event>
 5    1  0.3246948E-002  0.1250029E+03  0.7818608E-02  0.1235065E+00
         -4   -1    0    0    0  501 -0.00000000000E+00  0.00000000000E+00  0.59312719982E+02  0.59326315001E+02  0.12700000000E+01 0.  1.
          4   -1    0    0  501    0  0.00000000000E+00 -0.00000000000E+00 -0.65834304740E+02  0.65846553293E+02  0.12700000000E+01 0.  1.
         25    2    1    2    0    0  0.00000000000E+00  0.00000000000E+00 -0.65215847583E+01  0.12517286829E+03  0.12500286352E+03 0.  0.
    9000005    1    3    3    0    0  0.56294318239E+02 -0.11062558122E+02  0.21551900630E+02  0.61293677317E+02  0.10000000000E+01 0.  0.
    9000005    1    3    3    0    0 -0.56294318239E+02  0.11062558122E+02 -0.28073485388E+02  0.63879190978E+02  0.10000000000E+01 0.  0.
<mgrwt>
<rscale>  0 0.12500286E+03</rscale>
<asrwt>0</asrwt>
<pdfrwt beam="2">  1        4 0.10130342E-01 0.12500286E+03</pdfrwt>
<pdfrwt beam="1">  1       -4 0.91270219E-02 0.12500286E+03</pdfrwt>
<totfact> 0.10448433E+04</totfact>
</mgrwt>
</event>
<event>
 5    1  0.3246948E-002  0.1250018E+03  0.7818608E-02  0.1235066E+00
          4   -1    0    0  501    0  0.00000000000E+00  0.00000000000E+00  0.16476991607E+02  0.16525863137E+02  0.12700000000E+01 0.  1.
         -4   -1    0    0    0  501 -0.00000000000E+00 -0.00000000000E+00 -0.23667827274E+03  0.23668168008E+03  0.12700000000E+01 0.  1.
         25    2    1    2    0    0  0.00000000000E+00  0.00000000000E+00 -0.22020128113E+03  0.25320754322E+03  0.12500182291E+03 0.  0.
    9000005    1    3    3    0    0  0.32657749023E+02 -0.42762803066E+02 -0.45719412923E+02  0.70614804505E+02  0.10000000000E+01 0.  0.
    9000005    1    3    3    0    0 -0.32657749023E+02  0.42762803066E+02 -0.17448186821E+03  0.18259273872E+03  0.10000000000E+01 0.  0.
<mgrwt>
<rscale>  0 0.12500182E+03</rscale>
<asrwt>0</asrwt>
<pdfrwt beam="1">  1        4 0.25389434E-02 0.12500182E+03</pdfrwt>
<pdfrwt beam="2">  1       -4 0.36416061E-01 0.12500182E+03</pdfrwt>
<totfact> 0.81865515E+03</totfact>
</mgrwt>
</event>
<event>
 5    1  0.3246948E-002  0.1250008E+03  0.7818608E-02  0.1235068E+00
          4   -1    0    0  501    0  0.00000000000E+00  0.00000000000E+00  0.33615285448E+02  0.33639267468E+02  0.12700000000E+01 0. -1.
         -4   -1    0    0    0  501 -0.00000000000E+00 -0.00000000000E+00 -0.11613721886E+03  0.11614416260E+03  0.12700000000E+01 0. -1.
         25    2    1    2    0    0  0.00000000000E+00  0.00000000000E+00 -0.82521933413E+02  0.14978343006E+03  0.12500082571E+03 0.  0.
    9000005    1    3    3    0    0 -0.10587880884E+02 -0.33735511428E+02 -0.10300463784E+03  0.10890887645E+03  0.10000000000E+01 0.  0.
    9000005    1    3    3    0    0  0.10587880884E+02  0.33735511428E+02  0.20482704423E+02  0.40874553617E+02  0.10000000000E+01 0.  0.
<mgrwt>
<rscale>  0 0.12500083E+03</rscale>
<asrwt>0</asrwt>
<pdfrwt beam="1">  1        4 0.51739614E-02 0.12500083E+03</pdfrwt>
<pdfrwt beam="2">  1       -4 0.17869643E-01 0.12500083E+03</pdfrwt>
<totfact> 0.99345039E+03</totfact>
</mgrwt>
</event>
<event>
 5    1  0.3246948E-002  0.1249999E+03  0.7818608E-02  0.1235070E+00
          4   -1    0    0  501    0  0.00000000000E+00  0.00000000000E+00  0.48360002348E+01  0.49999798271E+01  0.12700000000E+01 0.  1.
         -4   -1    0    0    0  501 -0.00000000000E+00 -0.00000000000E+00 -0.79411143944E+03  0.79411245498E+03  0.12700000000E+01 0.  1.
         25    2    1    2    0    0  0.00000000000E+00  0.00000000000E+00 -0.78927543921E+03  0.79911243481E+03  0.12499985810E+03 0.  0.
    9000005    1    3    3    0    0  0.76475326453E+01  0.59755055593E+01  0.20066598705E-01  0.97566297930E+01  0.10000000000E+01 0.  0.
    9000005    1    3    3    0    0 -0.76475326453E+01 -0.59755055593E+01 -0.78929550581E+03  0.78935580502E+03  0.10000000000E+01 0.  0.
<mgrwt>
<rscale>  0 0.12499986E+03</rscale>
<asrwt>0</asrwt>
<pdfrwt beam="1">  1        4 0.75669260E-03 0.12499986E+03</pdfrwt>
<pdfrwt beam="2">  1       -4 0.12218358E+00 0.12499986E+03</pdfrwt>
<totfact> 0.38304526E+03</totfact>
</mgrwt>
</event>
<event>
 5    1  0.3246948E-002  0.1249966E+03  0.7818608E-02  0.1235075E+00
          4   -1    0    0  501    0  0.00000000000E+00  0.00000000000E+00  0.10077470278E+03  0.10078270496E+03  0.12700000000E+01 0. -1.
         -4   -1    0    0    0  501 -0.00000000000E+00 -0.00000000000E+00 -0.38740138348E+02  0.38760949669E+02  0.12700000000E+01 0. -1.
         25    2    1    2    0    0  0.00000000000E+00  0.00000000000E+00  0.62034564429E+02  0.13954365463E+03  0.12499657741E+03 0.  0.
    9000005    1    3    3    0    0 -0.40736447730E+01 -0.12752449275E+02  0.99160510580E+02  0.10006511082E+03  0.10000000000E+01 0.  0.
    9000005    1    3    3    0    0  0.40736447730E+01  0.12752449275E+02 -0.37125946151E+02  0.39478543816E+02  0.10000000000E+01 0.  0.
<mgrwt>
<rscale>  0 0.12499658E+03</rscale>
<asrwt>0</asrwt>
<pdfrwt beam="1">  1        4 0.15506016E-01 0.12499658E+03</pdfrwt>
<pdfrwt beam="2">  1       -4 0.59622379E-02 0.12499658E+03</pdfrwt>
<totfact> 0.10143835E+04</totfact>
</mgrwt>
</event>
<event>
 5    1  0.3246948E-002  0.1250009E+03  0.7818608E-02  0.1235068E+00
          4   -1    0    0  501    0  0.00000000000E+00  0.00000000000E+00  0.22851395724E+02  0.22886659575E+02  0.12700000000E+01 0. -1.
         -4   -1    0    0    0  501 -0.00000000000E+00 -0.00000000000E+00 -0.17077438761E+03  0.17077910985E+03  0.12700000000E+01 0. -1.
         25    2    1    2    0    0  0.00000000000E+00  0.00000000000E+00 -0.14792299188E+03  0.19366576943E+03  0.12500087488E+03 0.  0.
    9000005    1    3    3    0    0 -0.20498491437E+02 -0.54585866706E+02 -0.39127743776E+02  0.70226671061E+02  0.10000000000E+01 0.  0.
    9000005    1    3    3    0    0  0.20498491437E+02  0.54585866706E+02 -0.10879524811E+03  0.12343909837E+03  0.10000000000E+01 0.  0.
<mgrwt>
<rscale>  0 0.12500087E+03</rscale>
<asrwt>0</asrwt>
<pdfrwt beam="1">  1        4 0.35186753E-02 0.12500087E+03</pdfrwt>
<pdfrwt beam="2">  1       -4 0.26276058E-01 0.12500087E+03</pdfrwt>
<totfact> 0.91211580E+03</totfact>
</mgrwt>
</event>
<event>
 5    1  0.3246948E-002  0.1250004E+03  0.7818608E-02  0.1235069E+00
         -4   -1    0    0    0  501 -0.00000000000E+00  0.00000000000E+00  0.31739179139E+03  0.31739433224E+03  0.12700000000E+01 0. -1.
          4   -1    0    0  501    0  0.00000000000E+00 -0.00000000000E+00 -0.12272071507E+02  0.12337610752E+02  0.12700000000E+01 0. -1.
         25    2    1    2    0    0  0.00000000000E+00  0.00000000000E+00  0.30511971988E+03  0.32973194299E+03  0.12500044309E+03 0.  0.
    9000005    1    3    3    0    0  0.17623517311E+02 -0.31702634418E+02  0.28679571115E+03  0.28908203909E+03  0.10000000000E+01 0.  0.
    9000005    1    3    3    0    0 -0.17623517311E+02  0.31702634418E+02  0.18324008731E+02  0.40649903905E+02  0.10000000000E+01 0.  0.
<mgrwt>
<rscale>  0 0.12500044E+03</rscale>
<asrwt>0</asrwt>
<pdfrwt beam="2">  1        4 0.18932479E-02 0.12500044E+03</pdfrwt>
<pdfrwt beam="1">  1       -4 0.48834744E-01 0.12500044E+03</pdfrwt>
<totfact> 0.72012688E+03</totfact>
</mgrwt>
</event>
<event>
 5    1  0.3246948E-002  0.1249969E+03  0.7818608E-02  0.1235074E+00
          4   -1    0    0  501    0  0.00000000000E+00  0.00000000000E+00  0.97444954806E+02  0.97453230409E+02  0.12700000000E+01 0.  1.
         -4   -1    0    0    0  501 -0.00000000000E+00 -0.00000000000E+00 -0.40064684808E+02  0.40084808454E+02  0.12700000000E+01 0.  1.
         25    2    1    2    0    0  0.00000000000E+00  0.00000000000E+00  0.57380269998E+02  0.13753803886E+03  0.12499686696E+03 0.  0.
    9000005    1    3    3    0    0  0.28942869594E+02  0.54213093524E+02  0.41153790962E+02  0.73968802344E+02  0.10000000000E+01 0.  0.
    9000005    1    3    3    0    0 -0.28942869594E+02 -0.54213093524E+02  0.16226479036E+02  0.63569236519E+02  0.10000000000E+01 0.  0.
<mgrwt>
<rscale>  0 0.12499687E+03</rscale>
<asrwt>0</asrwt>
<pdfrwt beam="1">  1        4 0.14993716E-01 0.12499687E+03</pdfrwt>
<pdfrwt beam="2">  1       -4 0.61659822E-02 0.12499687E+03</pdfrwt>
<totfact> 0.10185567E+04</totfact>
</mgrwt>
</event>
<event>
 5    1  0.3246948E-002  0.1250175E+03  0.7818608E-02  0.1235042E+00
         -4   -1    0    0    0  501 -0.00000000000E+00  0.00000000000E+00  0.17355568909E+02  0.17401973225E+02  0.12700000000E+01 0.  1.
          4   -1    0    0  501    0  0.00000000000E+00 -0.00000000000E+00 -0.22478598475E+03  0.22478957235E+03  0.12700000000E+01 0.  1.
         25    2    1    2    0    0  0.00000000000E+00  0.00000000000E+00 -0.20743041584E+03  0.24219154558E+03  0.12501746812E+03 0.  0.
    9000005    1    3    3    0    0  0.13946379150E+02 -0.60162809554E+02 -0.85105726079E+02  0.10515726202E+03  0.10000000000E+01 0.  0.
    9000005    1    3    3    0    0 -0.13946379150E+02  0.60162809554E+02 -0.12232468976E+03  0.13703428356E+03  0.10000000000E+01 0.  0.
<mgrwt>
<rscale>  0 0.12501747E+03</rscale>
<asrwt>0</asrwt>
<pdfrwt beam="2">  1        4 0.34586303E-01 0.12501747E+03</pdfrwt>
<pdfrwt beam="1">  1       -4 0.26739332E-02 0.12501747E+03</pdfrwt>
<totfact> 0.83439563E+03</totfact>
</mgrwt>
</event>
<event>
 5    1  0.3246948E-002  0.1249982E+03  0.7818608E-02  0.1235072E+00
          4   -1    0    0  501    0  0.00000000000E+00  0.00000000000E+00  0.24035136947E+03  0.24035472474E+03  0.12700000000E+01 0.  1.
         -4   -1    0    0    0  501 -0.00000000000E+00 -0.00000000000E+00 -0.16223496595E+02  0.16273129440E+02  0.12700000000E+01 0.  1.
         25    2    1    2    0    0  0.00000000000E+00  0.00000000000E+00  0.22412787287E+03  0.25662785418E+03  0.12499820856E+03 0.  0.
    9000005    1    3    3    0    0  0.39665786080E+02  0.43709340587E+02  0.15420190229E+03  0.16511543753E+03  0.10000000000E+01 0.  0.
    9000005    1    3    3    0    0 -0.39665786080E+02 -0.43709340587E+02  0.69925970581E+02  0.91512416653E+02  0.10000000000E+01 0.  0.
<mgrwt>
<rscale>  0 0.12499821E+03</rscale>
<asrwt>0</asrwt>
<pdfrwt beam="1">  1        4 0.36981211E-01 0.12499821E+03</pdfrwt>
<pdfrwt beam="2">  1       -4 0.24999985E-02 0.12499821E+03</pdfrwt>
<totfact> 0.81384879E+03</totfact>
</mgrwt>
</event>
<event>
 5    1  0.3246948E-002  0.1249986E+03  0.7818608E-02  0.1235071E+00
          4   -1    0    0  501    0  0.00000000000E+00  0.00000000000E+00  0.11660728020E+03  0.11661419594E+03  0.12700000000E+01 0. -1.
         -4   -1    0    0    0  501 -0.00000000000E+00 -0.00000000000E+00 -0.33478504408E+02  0.33502584339E+02  0.12700000000E+01 0. -1.
         25    2    1    2    0    0  0.00000000000E+00  0.00000000000E+00  0.83128775789E+02  0.15011678028E+03  0.12499861742E+03 0.  0.
    9000005    1    3    3    0    0  0.41895214957E+02 -0.77988100181E+00 -0.14112792371E+02  0.44226554910E+02  0.10000000000E+01 0.  0.
    9000005    1    3    3    0    0 -0.41895214957E+02  0.77988100181E+00  0.97241568160E+02  0.10589022537E+03  0.10000000000E+01 0.  0.
<mgrwt>
<rscale>  0 0.12499862E+03</rscale>
<asrwt>0</asrwt>
<pdfrwt beam="1">  1        4 0.17941966E-01 0.12499862E+03</pdfrwt>
<pdfrwt beam="2">  1       -4 0.51529234E-02 0.12499862E+03</pdfrwt>
<totfact> 0.99283514E+03</totfact>
</mgrwt>
</event>
<event>
 5    1  0.3246948E-002  0.1250071E+03  0.7818608E-02  0.1235058E+00
          4   -1    0    0  501    0  0.00000000000E+00  0.00000000000E+00  0.14400197322E+02  0.14456091550E+02  0.12700000000E+01 0.  1.
         -4   -1    0    0    0  501 -0.00000000000E+00 -0.00000000000E+00 -0.27071159721E+03  0.27071457619E+03  0.12700000000E+01 0.  1.
         25    2    1    2    0    0  0.00000000000E+00  0.00000000000E+00 -0.25631139989E+03  0.28517066774E+03  0.12500710391E+03 0.  0.
    9000005    1    3    3    0    0  0.13102678983E+02  0.68585611049E+00  0.11234025117E+02  0.17301847169E+02  0.10000000000E+01 0.  0.
    9000005    1    3    3    0    0 -0.13102678983E+02 -0.68585611049E+00 -0.26754542500E+03  0.26786882057E+03  0.10000000000E+01 0.  0.
<mgrwt>
<rscale>  0 0.12500710E+03</rscale>
<asrwt>0</asrwt>
<pdfrwt beam="1">  1        4 0.22199439E-02 0.12500710E+03</pdfrwt>
<pdfrwt beam="2">  1       -4 0.41652463E-01 0.12500710E+03</pdfrwt>
<totfact> 0.77485240E+03</totfact>
</mgrwt>
</event>
<event>
 5    1  0.3246948E-002  0.1249792E+03  0.7818608E-02  0.1235102E+00
         -4   -1    0    0    0  501 -0.00000000000E+00  0.00000000000E+00  0.14113445985E+02  0.14170471325E+02  0.12700000000E+01 0. -1.
          4   -1    0    0  501    0  0.00000000000E+00 -0.00000000000E+00 -0.27606662407E+03  0.27606954527E+03  0.12700000000E+01 0. -1.
         25    2    1    2    0    0  0.00000000000E+00  0.00000000000E+00 -0.26195317808E+03  0.29024001659E+03  0.12497919717E+03 0.  0.
    9000005    1    3    3    0    0  0.44462418955E+02  0.30098259201E+02 -0.56766699705E+02  0.78142626663E+02  0.10000000000E+01 0.  0.
    9000005    1    3    3    0    0 -0.44462418955E+02 -0.30098259201E+02 -0.20518647838E+03  0.21209738993E+03  0.10000000000E+01 0.  0.
<mgrwt>
<rscale>  0 0.12497920E+03</rscale>
<asrwt>0</asrwt>
<pdfrwt beam="2">  1        4 0.42476396E-01 0.12497920E+03</pdfrwt>
<pdfrwt beam="1">  1       -4 0.21759109E-02 0.12497920E+03</pdfrwt>
<totfact> 0.76875173E+03</totfact>
</mgrwt>
</event>
<event>
 5    1  0.3246948E-002  0.1249995E+03  0.7818608E-02  0.1235070E+00
          4   -1    0    0  501    0  0.00000000000E+00  0.00000000000E+00  0.15803786460E+02  0.15854733251E+02  0.12700000000E+01 0. -1.
         -4   -1    0    0    0  501 -0.00000000000E+00 -0.00000000000E+00 -0.24671946752E+03  0.24672273619E+03  0.12700000000E+01 0. -1.
         25    2    1    2    0    0  0.00000000000E+00  0.00000000000E+00 -0.23091568106E+03  0.26257746944E+03  0.12499950279E+03 0.  0.
    9000005    1    3    3    0    0 -0.12142648403E+02 -0.60619221188E+02 -0.13460527456E+03  0.14812735678E+03  0.10000000000E+01 0.  0.
    9000005    1    3    3    0    0  0.12142648403E+02  0.60619221188E+02 -0.96310406499E+02  0.11445011266E+03  0.10000000000E+01 0.  0.
<mgrwt>
<rscale>  0 0.12499950E+03</rscale>
<asrwt>0</asrwt>
<pdfrwt beam="1">  1        4 0.24355224E-02 0.12499950E+03</pdfrwt>
<pdfrwt beam="2">  1       -4 0.37961009E-01 0.12499950E+03</pdfrwt>
<totfact> 0.80546598E+03</totfact>
</mgrwt>
</event>
<event>
 5    1  0.3246948E-002  0.1250002E+03  0.7818608E-02  0.1235069E+00
         -4   -1    0    0    0  501 -0.00000000000E+00  0.00000000000E+00  0.17076364723E+02  0.17123525693E+02  0.12700000000E+01 0. -1.
          4   -1    0    0  501    0  0.00000000000E+00 -0.00000000000E+00 -0.22838809497E+03  0.22839162599E+03  0.12700000000E+01 0. -1.
         25    2    1    2    0    0  0.00000000000E+00  0.00000000000E+00 -0.21131173024E+03  0.24551515168E+03  0.12500016947E+03 0.  0.
    9000005    1    3    3    0    0 -0.27366475851E+02  0.17826892697E+02 -0.21030004799E+03  0.21282347683E+03  0.10000000000E+01 0.  0.
    9000005    1    3    3    0    0  0.27366475851E+02 -0.17826892697E+02 -0.10116822490E+01  0.32691674853E+02  0.10000000000E+01 0.  0.
<mgrwt>
<rscale>  0 0.12500017E+03</rscale>
<asrwt>0</asrwt>
<pdfrwt beam="2">  1        4 0.35140527E-01 0.12500017E+03</pdfrwt>
<pdfrwt beam="1">  1       -4 0.26310326E-02 0.12500017E+03</pdfrwt>
<totfact> 0.82982467E+03</totfact>
</mgrwt>
</event>
<event>
 5    1  0.3246948E-002  0.1250225E+03  0.7818608E-02  0.1235034E+00
         -4   -1    0    0    0  501 -0.00000000000E+00  0.00000000000E+00  0.18694657037E+03  0.18695088412E+03  0.12700000000E+01 0.  1.
          4   -1    0    0  501    0  0.00000000000E+00 -0.00000000000E+00 -0.20878683052E+02  0.20917272910E+02  0.12700000000E+01 0.  1.
         25    2    1    2    0    0  0.00000000000E+00  0.00000000000E+00  0.16606788732E+03  0.20786815703E+03  0.12502250801E+03 0.  0.
    9000005    1    3    3    0    0 -0.39809845900E+02  0.76904234353E+01  0.16212225981E+03  0.16711850158E+03  0.10000000000E+01 0.  0.
    9000005    1    3    3    0    0  0.39809845900E+02 -0.76904234353E+01  0.39456275089E+01  0.40749655455E+02  0.10000000000E+01 0.  0.
<mgrwt>
<rscale>  0 0.12502251E+03</rscale>
<asrwt>0</asrwt>
<pdfrwt beam="2">  1        4 0.32154053E-02 0.12502251E+03</pdfrwt>
<pdfrwt beam="1">  1       -4 0.28764312E-01 0.12502251E+03</pdfrwt>
<totfact> 0.88780534E+03</totfact>
</mgrwt>
</event>
<event>
 5    1  0.3246948E-002  0.1250054E+03  0.7818608E-02  0.1235061E+00
         -4   -1    0    0    0  501 -0.00000000000E+00  0.00000000000E+00  0.69576576919E+02  0.69588166780E+02  0.12700000000E+01 0.  1.
          4   -1    0    0  501    0  0.00000000000E+00 -0.00000000000E+00 -0.56124559626E+02  0.56138926720E+02  0.12700000000E+01 0.  1.
         25    2    1    2    0    0  0.00000000000E+00  0.00000000000E+00  0.13452017293E+02  0.12572709350E+03  0.12500538097E+03 0.  0.
    9000005    1    3    3    0    0  0.26629057068E+02  0.12321443082E+02  0.62223031801E+02  0.68801383173E+02  0.10000000000E+01 0.  0.
    9000005    1    3    3    0    0 -0.26629057068E+02 -0.12321443082E+02 -0.48771014509E+02  0.56925710326E+02  0.10000000000E+01 0.  0.
<mgrwt>
<rscale>  0 0.12500538E+03</rscale>
<asrwt>0</asrwt>
<pdfrwt beam="2">  1        4 0.86365444E-02 0.12500538E+03</pdfrwt>
<pdfrwt beam="1">  1       -4 0.10706085E-01 0.12500538E+03</pdfrwt>
<totfact> 0.10435681E+04</totfact>
</mgrwt>
</event>
<event>
 5    1  0.3246948E-002  0.1249469E+03  0.7818608E-02  0.1235152E+00
          4   -1    0    0  501    0  0.00000000000E+00  0.00000000000E+00  0.11192277959E+02  0.11264101647E+02  0.12700000000E+01 0. -1.
         -4   -1    0    0    0  501 -0.00000000000E+00 -0.00000000000E+00 -0.34752830905E+03  0.34753062958E+03  0.12700000000E+01 0. -1.
         25    2    1    2    0    0  0.00000000000E+00  0.00000000000E+00 -0.33633603110E+03  0.35879473122E+03  0.12494692209E+03 0.  0.
    9000005    1    3    3    0    0  0.10307402029E+01  0.16883054881E+02 -0.34084112063E+03  0.34126202467E+03  0.10000000000E+01 0.  0.
    9000005    1    3    3    0    0 -0.10307402029E+01 -0.16883054881E+02  0.45050895345E+01  0.17532706557E+02  0.10000000000E+01 0.  0.
<mgrwt>
<rscale>  0 0.12494692E+03</rscale>
<asrwt>0</asrwt>
<pdfrwt beam="1">  1        4 0.17275926E-02 0.12494692E+03</pdfrwt>
<pdfrwt beam="2">  1       -4 0.53471589E-01 0.12494692E+03</pdfrwt>
<totfact> 0.68848549E+03</totfact>
</mgrwt>
</event>
<event>
 5    1  0.3246948E-002  0.1249948E+03  0.7818608E-02  0.1235077E+00
          4   -1    0    0  501    0  0.00000000000E+00  0.00000000000E+00  0.32709028922E+02  0.32733674909E+02  0.12700000000E+01 0. -1.
         -4   -1    0    0    0  501 -0.00000000000E+00 -0.00000000000E+00 -0.11934132990E+03  0.11934808722E+03  0.12700000000E+01 0. -1.
         25    2    1    2    0    0  0.00000000000E+00  0.00000000000E+00 -0.86632300981E+02  0.15208176213E+03  0.12499482709E+03 0.  0.
    9000005    1    3    3    0    0 -0.47055592350E+00  0.62487116167E+02 -0.43627754986E+02  0.76218384363E+02  0.10000000000E+01 0.  0.
    9000005    1    3    3    0    0  0.47055592350E+00 -0.62487116167E+02 -0.43004545995E+02  0.75863377766E+02  0.10000000000E+01 0.  0.
<mgrwt>
<rscale>  0 0.12499483E+03</rscale>
<asrwt>0</asrwt>
<pdfrwt beam="1">  1        4 0.50345740E-02 0.12499483E+03</pdfrwt>
<pdfrwt beam="2">  1       -4 0.18362620E-01 0.12499483E+03</pdfrwt>
<totfact> 0.98901849E+03</totfact>
</mgrwt>
</event>
<event>
 5    1  0.3246948E-002  0.1250034E+03  0.7818608E-02  0.1235064E+00
          4   -1    0    0  501    0  0.00000000000E+00  0.00000000000E+00  0.10355203604E+03  0.10355982362E+03  0.12700000000E+01 0. -1.
         -4   -1    0    0    0  501 -0.00000000000E+00 -0.00000000000E+00 -0.37704712842E+02  0.37726095352E+02  0.12700000000E+01 0. -1.
         25    2    1    2    0    0  0.00000000000E+00  0.00000000000E+00  0.65847323201E+02  0.14128591897E+03  0.12500336366E+03 0.  0.
    9000005    1    3    3    0    0 -0.23773559678E+02 -0.39999789808E+02  0.80074411689E+02  0.92617907187E+02  0.10000000000E+01 0.  0.
    9000005    1    3    3    0    0  0.23773559678E+02  0.39999789808E+02 -0.14227088488E+02  0.48668011786E+02  0.10000000000E+01 0.  0.
<mgrwt>
<rscale>  0 0.12500336E+03</rscale>
<asrwt>0</asrwt>
<pdfrwt beam="1">  1        4 0.15933326E-01 0.12500336E+03</pdfrwt>
<pdfrwt beam="2">  1       -4 0.58029690E-02 0.12500336E+03</pdfrwt>
<totfact> 0.10106238E+04</totfact>
</mgrwt>
</event>
<event>
 5    1  0.3246948E-002  0.1250007E+03  0.7818608E-02  0.1235068E+00
         -4   -1    0    0    0  501 -0.00000000000E+00  0.00000000000E+00  0.70524661095E+03  0.70524775445E+03  0.12700000000E+01 0.  1.
          4   -1    0    0  501    0  0.00000000000E+00 -0.00000000000E+00 -0.54649404992E+01  0.56105681227E+01  0.12700000000E+01 0.  1.
         25    2    1    2    0    0  0.00000000000E+00  0.00000000000E+00  0.69978167045E+03  0.71085832257E+03  0.12500067388E+03 0.  0.
    9000005    1    3    3    0    0 -0.27594316422E+02 -0.55005411643E+02  0.28805044698E+03  0.29455237499E+03  0.10000000000E+01 0.  0.
    9000005    1    3    3    0    0  0.27594316422E+02  0.55005411643E+02  0.41173122347E+03  0.41630594757E+03  0.10000000000E+01 0.  0.
<mgrwt>
<rscale>  0 0.12500067E+03</rscale>
<asrwt>0</asrwt>
<pdfrwt beam="2">  1        4 0.85205026E-03 0.12500067E+03</pdfrwt>
<pdfrwt beam="1">  1       -4 0.10851076E+00 0.12500067E+03</pdfrwt>
<totfact> 0.42519044E+03</totfact>
</mgrwt>
</event>
<event>
 5    1  0.3246948E-002  0.1250009E+03  0.7818608E-02  0.1235068E+00
          4   -1    0    0  501    0  0.00000000000E+00  0.00000000000E+00  0.94961834512E+02  0.94970326492E+02  0.12700000000E+01 0. -1.
         -4   -1    0    0    0  501 -0.00000000000E+00 -0.00000000000E+00 -0.41115391967E+02  0.41135001600E+02  0.12700000000E+01 0. -1.
         25    2    1    2    0    0  0.00000000000E+00  0.00000000000E+00  0.53846442545E+02  0.13610532809E+03  0.12500088384E+03 0.  0.
    9000005    1    3    3    0    0  0.83459879567E+01  0.54798946838E+01 -0.40246690952E+02  0.41478679985E+02  0.10000000000E+01 0.  0.
    9000005    1    3    3    0    0 -0.83459879567E+01 -0.54798946838E+01  0.94093133497E+02  0.94626648107E+02  0.10000000000E+01 0.  0.
<mgrwt>
<rscale>  0 0.12500088E+03</rscale>
<asrwt>0</asrwt>
<pdfrwt beam="1">  1        4 0.14611675E-01 0.12500088E+03</pdfrwt>
<pdfrwt beam="2">  1       -4 0.63276066E-02 0.12500088E+03</pdfrwt>
<totfact> 0.10214622E+04</totfact>
</mgrwt>
</event>
<event>
 5    1  0.3246948E-002  0.1250010E+03  0.7818608E-02  0.1235068E+00
         -4   -1    0    0    0  501 -0.00000000000E+00  0.00000000000E+00  0.34339446842E+01  0.36612670066E+01  0.12700000000E+01 0.  1.
          4   -1    0    0  501    0  0.00000000000E+00 -0.00000000000E+00 -0.11008843343E+04  0.11008850669E+04  0.12700000000E+01 0.  1.
         25    2    1    2    0    0  0.00000000000E+00  0.00000000000E+00 -0.10974503897E+04  0.11045463339E+04  0.12500098385E+03 0.  0.
    9000005    1    3    3    0    0 -0.75017607623E+01  0.33842730066E+02 -0.89262627318E+02  0.95762327815E+02  0.10000000000E+01 0.  0.
    9000005    1    3    3    0    0  0.75017607623E+01 -0.33842730066E+02 -0.10081877623E+04  0.10087840061E+04  0.10000000000E+01 0.  0.
<mgrwt>
<rscale>  0 0.12500098E+03</rscale>
<asrwt>0</asrwt>
<pdfrwt beam="2">  1        4 0.16938409E+00 0.12500098E+03</pdfrwt>
<pdfrwt beam="1">  1       -4 0.54584274E-03 0.12500098E+03</pdfrwt>
<totfact> 0.27350177E+03</totfact>
</mgrwt>
</event>
<event>
 5    1  0.3246948E-002  0.1250022E+03  0.7818608E-02  0.1235066E+00
          4   -1    0    0  501    0  0.00000000000E+00  0.00000000000E+00  0.68859265129E+02  0.68870975702E+02  0.12700000000E+01 0.  1.
         -4   -1    0    0    0  501 -0.00000000000E+00 -0.00000000000E+00 -0.56706407268E+02  0.56720626982E+02  0.12700000000E+01 0.  1.
         25    2    1    2    0    0  0.00000000000E+00  0.00000000000E+00  0.12152857861E+02  0.12559160268E+03  0.12500223482E+03 0.  0.
    9000005    1    3    3    0    0  0.27306979938E+02  0.55428529068E+02 -0.33162681540E+01  0.61886918024E+02  0.10000000000E+01 0.  0.
    9000005    1    3    3    0    0 -0.27306979938E+02 -0.55428529068E+02  0.15469126015E+02  0.63704684660E+02  0.10000000000E+01 0.  0.
<mgrwt>
<rscale>  0 0.12500223E+03</rscale>
<asrwt>0</asrwt>
<pdfrwt beam="1">  1        4 0.10595728E-01 0.12500223E+03</pdfrwt>
<pdfrwt beam="2">  1       -4 0.87260574E-02 0.12500223E+03</pdfrwt>
<totfact> 0.10439406E+04</totfact>
</mgrwt>
</event>
<event>
 5    1  0.3246948E-002  0.1249986E+03  0.7818608E-02  0.1235071E+00
         -4   -1    0    0    0  501 -0.00000000000E+00  0.00000000000E+00  0.13593989038E+03  0.13594582266E+03  0.12700000000E+01 0.  1.
          4   -1    0    0  501    0  0.00000000000E+00 -0.00000000000E+00 -0.28713879865E+02  0.28741951863E+02  0.12700000000E+01 0.  1.
         25    2    1    2    0    0  0.00000000000E+00  0.00000000000E+00  0.10722601052E+03  0.16468777452E+03  0.12499858297E+03 0.  0.
    9000005    1    3    3    0    0 -0.32501137443E+02  0.49110442585E+02  0.26070848315E+02  0.64411556710E+02  0.10000000000E+01 0.  0.
    9000005    1    3    3    0    0  0.32501137443E+02 -0.49110442585E+02  0.81155162204E+02  0.10027621781E+03  0.10000000000E+01 0.  0.
<mgrwt>
<rscale>  0 0.12499858E+03</rscale>
<asrwt>0</asrwt>
<pdfrwt beam="2">  1        4 0.44201357E-02 0.12499858E+03</pdfrwt>
<pdfrwt beam="1">  1       -4 0.20916445E-01 0.12499858E+03</pdfrwt>
<totfact> 0.96449626E+03</totfact>
</mgrwt>
</event>
<event>
 4    1  0.3246948E-002  0.1248951E+03  0.7818608E-02  0.1235233E+00
         -4   -1    0    0    0  501 -0.00000000000E+00  0.00000000000E+00  0.11154784777E+03  0.11155507717E+03  0.12700000000E+01 0. -1.
          4   -1    0    0  501    0  0.00000000000E+00 -0.00000000000E+00 -0.34939928412E+02  0.34963001836E+02  0.12700000000E+01 0. -1.
    9000005    1    1    2    0    0 -0.48067866620E+02 -0.28848963231E+02  0.70557792519E+02  0.90123163316E+02  0.10000000000E+01 0.  0.
    9000005    1    1    2    0    0  0.48067866620E+02  0.28848963231E+02  0.60501268394E+01  0.56394915690E+02  0.10000000000E+01 0.  0.
<mgrwt>
<rscale>  0 0.12489505E+03</rscale>
<asrwt>0</asrwt>
<pdfrwt beam="2">  1        4 0.53777047E-02 0.12489505E+03</pdfrwt>
<pdfrwt beam="1">  1       -4 0.17163538E-01 0.12489505E+03</pdfrwt>
<totfact> 0.10023900E+04</totfact>
</mgrwt>
</event>
<event>
 5    1  0.3246948E-002  0.1249967E+03  0.7818608E-02  0.1235074E+00
         -4   -1    0    0    0  501 -0.00000000000E+00  0.00000000000E+00  0.10433298932E+02  0.10510310490E+02  0.12700000000E+01 0. -1.
          4   -1    0    0  501    0  0.00000000000E+00 -0.00000000000E+00 -0.37292762237E+03  0.37292978485E+03  0.12700000000E+01 0. -1.
         25    2    1    2    0    0  0.00000000000E+00  0.00000000000E+00 -0.36249432344E+03  0.38344009534E+03  0.12499668871E+03 0.  0.
    9000005    1    3    3    0    0 -0.29203815004E+02  0.20231832360E+02 -0.33894855692E+03  0.34080685745E+03  0.10000000000E+01 0.  0.
    9000005    1    3    3    0    0  0.29203815004E+02 -0.20231832360E+02 -0.23545766521E+02  0.42633237884E+02  0.10000000000E+01 0.  0.
<mgrwt>
<rscale>  0 0.12499669E+03</rscale>
<asrwt>0</asrwt>
<pdfrwt beam="2">  1        4 0.57379560E-01 0.12499669E+03</pdfrwt>
<pdfrwt beam="1">  1       -4 0.16112135E-02 0.12499669E+03</pdfrwt>
<totfact> 0.66200743E+03</totfact>
</mgrwt>
</event>
<event>
 5    1  0.3246948E-002  0.1249929E+03  0.7818608E-02  0.1235080E+00
          4   -1    0    0  501    0  0.00000000000E+00  0.00000000000E+00  0.15192452053E+03  0.15192982867E+03  0.12700000000E+01 0.  1.
         -4   -1    0    0    0  501 -0.00000000000E+00 -0.00000000000E+00 -0.25687401502E+02  0.25718777108E+02  0.12700000000E+01 0.  1.
         25    2    1    2    0    0  0.00000000000E+00  0.00000000000E+00  0.12623711903E+03  0.17764860578E+03  0.12499286745E+03 0.  0.
    9000005    1    3    3    0    0  0.12393225879E+02  0.43261159011E+02  0.14989375912E+01  0.45037392693E+02  0.10000000000E+01 0.  0.
    9000005    1    3    3    0    0 -0.12393225879E+02 -0.43261159011E+02  0.12473818144E+03  0.13261121308E+03  0.10000000000E+01 0.  0.
<mgrwt>
<rscale>  0 0.12499287E+03</rscale>
<asrwt>0</asrwt>
<pdfrwt beam="1">  1        4 0.23375825E-01 0.12499287E+03</pdfrwt>
<pdfrwt beam="2">  1       -4 0.39547297E-02 0.12499287E+03</pdfrwt>
<totfact> 0.94057027E+03</totfact>
</mgrwt>
</event>
<event>
 5    1  0.3246948E-002  0.1250019E+03  0.7818608E-02  0.1235066E+00
          4   -1    0    0  501    0  0.00000000000E+00  0.00000000000E+00  0.57152293935E+02  0.57166402738E+02  0.12700000000E+01 0.  1.
         -4   -1    0    0    0  501 -0.00000000000E+00 -0.00000000000E+00 -0.68321702732E+02  0.68333505429E+02  0.12700000000E+01 0.  1.
         25    2    1    2    0    0  0.00000000000E+00  0.00000000000E+00 -0.11169408797E+02  0.12549990817E+03  0.12500188501E+03 0.  0.
    9000005    1    3    3    0    0  0.10743390354E+02  0.55753920773E+02 -0.31793261378E+02  0.65082498316E+02  0.10000000000E+01 0.  0.
    9000005    1    3    3    0    0 -0.10743390354E+02 -0.55753920773E+02  0.20623852581E+02  0.60417409852E+02  0.10000000000E+01 0.  0.
<mgrwt>
<rscale>  0 0.12500189E+03</rscale>
<asrwt>0</asrwt>
<pdfrwt beam="1">  1        4 0.87946538E-02 0.12500189E+03</pdfrwt>
<pdfrwt beam="2">  1       -4 0.10513024E-01 0.12500189E+03</pdfrwt>
<totfact> 0.10441512E+04</totfact>
</mgrwt>
</event>
<event>
 4    1  0.3246948E-002  0.1249099E+03  0.7818608E-02  0.1235210E+00
         -4   -1    0    0    0  501 -0.00000000000E+00  0.00000000000E+00  0.37714750957E+02  0.37736127779E+02  0.12700000000E+01 0.  1.
          4   -1    0    0  501    0  0.00000000000E+00 -0.00000000000E+00 -0.10336965681E+03  0.10337745813E+03  0.12700000000E+01 0.  1.
    9000005    1    1    2    0    0 -0.88254533994E+01 -0.31719945273E+02 -0.92772824806E+02  0.98447146116E+02  0.10000000000E+01 0.  0.
    9000005    1    1    2    0    0  0.88254533994E+01  0.31719945273E+02  0.27117918955E+02  0.42666439789E+02  0.10000000000E+01 0.  0.
<mgrwt>
<rscale>  0 0.12490988E+03</rscale>
<asrwt>0</asrwt>
<pdfrwt beam="2">  1        4 0.15905268E-01 0.12490988E+03</pdfrwt>
<pdfrwt beam="1">  1       -4 0.58045139E-02 0.12490988E+03</pdfrwt>
<totfact> 0.10131112E+04</totfact>
</mgrwt>
</event>
<event>
 5    1  0.3246948E-002  0.1250000E+03  0.7818608E-02  0.1235069E+00
         -4   -1    0    0    0  501 -0.00000000000E+00  0.00000000000E+00  0.43279743379E+01  0.45104613810E+01  0.12700000000E+01 0. -1.
          4   -1    0    0  501    0  0.00000000000E+00 -0.00000000000E+00 -0.88373973068E+03  0.88374064322E+03  0.12700000000E+01 0. -1.
         25    2    1    2    0    0  0.00000000000E+00  0.00000000000E+00 -0.87941175634E+03  0.88825110460E+03  0.12499995054E+03 0.  0.
    9000005    1    3    3    0    0  0.42587777394E+02 -0.36678337975E+02 -0.63382198976E+03  0.63630993546E+03  0.10000000000E+01 0.  0.
    9000005    1    3    3    0    0 -0.42587777394E+02  0.36678337975E+02 -0.24558976658E+03  0.25194116914E+03  0.10000000000E+01 0.  0.
<mgrwt>
<rscale>  0 0.12499995E+03</rscale>
<asrwt>0</asrwt>
<pdfrwt beam="2">  1        4 0.13597393E+00 0.12499995E+03</pdfrwt>
<pdfrwt beam="1">  1       -4 0.67995057E-03 0.12499995E+03</pdfrwt>
<totfact> 0.34611127E+03</totfact>
</mgrwt>
</event>
<event>
 5    1  0.3246948E-002  0.1250309E+03  0.7818608E-02  0.1235021E+00
          4   -1    0    0  501    0  0.00000000000E+00  0.00000000000E+00  0.16733637724E+02  0.16781761870E+02  0.12700000000E+01 0. -1.
         -4   -1    0    0    0  501 -0.00000000000E+00 -0.00000000000E+00 -0.23316708394E+03  0.23317054259E+03  0.12700000000E+01 0. -1.
         25    2    1    2    0    0  0.00000000000E+00  0.00000000000E+00 -0.21643344622E+03  0.24995230446E+03  0.12503086765E+03 0.  0.
    9000005    1    3    3    0    0  0.13278083508E+02  0.60887202322E+02 -0.98500779682E+02  0.11656312670E+03  0.10000000000E+01 0.  0.
    9000005    1    3    3    0    0 -0.13278083508E+02 -0.60887202322E+02 -0.11793266653E+03  0.13338917776E+03  0.10000000000E+01 0.  0.
<mgrwt>
<rscale>  0 0.12503087E+03</rscale>
<asrwt>0</asrwt>
<pdfrwt beam="1">  1        4 0.25783739E-02 0.12503087E+03</pdfrwt>
<pdfrwt beam="2">  1       -4 0.35875825E-01 0.12503087E+03</pdfrwt>
<totfact> 0.82280532E+03</totfact>
</mgrwt>
</event>
<event>
 5    1  0.3246948E-002  0.1249961E+03  0.7818608E-02  0.1235075E+00
         -4   -1    0    0    0  501 -0.00000000000E+00  0.00000000000E+00  0.58716989341E+02  0.58730722261E+02  0.12700000000E+01 0. -1.
          4   -1    0    0  501    0  0.00000000000E+00 -0.00000000000E+00 -0.66495054364E+02  0.66507181227E+02  0.12700000000E+01 0. -1.
         25    2    1    2    0    0  0.00000000000E+00  0.00000000000E+00 -0.77780650223E+01  0.12523790349E+03  0.12499613664E+03 0.  0.
    9000005    1    3    3    0    0 -0.37347504986E+02  0.30638350840E+02  0.35829335854E+02  0.60152190140E+02  0.10000000000E+01 0.  0.
    9000005    1    3    3    0    0  0.37347504986E+02 -0.30638350840E+02 -0.43607400876E+02  0.65085713349E+02  0.10000000000E+01 0.  0.
<mgrwt>
<rscale>  0 0.12499614E+03</rscale>
<asrwt>0</asrwt>
<pdfrwt beam="2">  1        4 0.10231998E-01 0.12499614E+03</pdfrwt>
<pdfrwt beam="1">  1       -4 0.90353722E-02 0.12499614E+03</pdfrwt>
<totfact> 0.10448610E+04</totfact>
</mgrwt>
</event>
<event>
 5    1  0.3246948E-002  0.1249991E+03  0.7818608E-02  0.1235071E+00
         -4   -1    0    0    0  501 -0.00000000000E+00  0.00000000000E+00  0.44919729747E+02  0.44937679296E+02  0.12700000000E+01 0. -1.
          4   -1    0    0  501    0  0.00000000000E+00 -0.00000000000E+00 -0.86919450113E+02  0.86928727749E+02  0.12700000000E+01 0. -1.
         25    2    1    2    0    0  0.00000000000E+00  0.00000000000E+00 -0.41999720366E+02  0.13186640704E+03  0.12499909118E+03 0.  0.
    9000005    1    3    3    0    0 -0.56737603059E+02  0.23592039181E+01 -0.48518842511E+02  0.74698055682E+02  0.10000000000E+01 0.  0.
    9000005    1    3    3    0    0  0.56737603059E+02 -0.23592039181E+01  0.65191221444E+01  0.57168351363E+02  0.10000000000E+01 0.  0.
<mgrwt>
<rscale>  0 0.12499909E+03</rscale>
<asrwt>0</asrwt>
<pdfrwt beam="2">  1        4 0.13374317E-01 0.12499909E+03</pdfrwt>
<pdfrwt beam="1">  1       -4 0.69128221E-02 0.12499909E+03</pdfrwt>
<totfact> 0.10304762E+04</totfact>
</mgrwt>
</event>
<event>
 5    1  0.3246948E-002  0.1250199E+03  0.7818608E-02  0.1235038E+00
         -4   -1    0    0    0  501 -0.00000000000E+00  0.00000000000E+00  0.76521555119E+02  0.76532093254E+02  0.12700000000E+01 0.  1.
          4   -1    0    0  501    0  0.00000000000E+00 -0.00000000000E+00 -0.51042018890E+02  0.51057816173E+02  0.12700000000E+01 0.  1.
         25    2    1    2    0    0  0.00000000000E+00  0.00000000000E+00  0.25479536229E+02  0.12758990943E+03  0.12501991130E+03 0.  0.
    9000005    1    3    3    0    0 -0.54711094603E+02  0.26825078967E+02 -0.14604935857E+01  0.60959181226E+02  0.10000000000E+01 0.  0.
    9000005    1    3    3    0    0  0.54711094603E+02 -0.26825078967E+02  0.26940029815E+02  0.66630728201E+02  0.10000000000E+01 0.  0.
<mgrwt>
<rscale>  0 0.12501991E+03</rscale>
<asrwt>0</asrwt>
<pdfrwt beam="2">  1        4 0.78546441E-02 0.12501991E+03</pdfrwt>
<pdfrwt beam="1">  1       -4 0.11774573E-01 0.12501991E+03</pdfrwt>
<totfact> 0.10391682E+04</totfact>
</mgrwt>
</event>
<event>
 5    1  0.3246948E-002  0.1249961E+03  0.7818608E-02  0.1235075E+00
          4   -1    0    0  501    0  0.00000000000E+00  0.00000000000E+00  0.19771596367E+02  0.19812342690E+02  0.12700000000E+01 0.  1.
         -4   -1    0    0    0  501 -0.00000000000E+00 -0.00000000000E+00 -0.19731041813E+03  0.19731450530E+03  0.12700000000E+01 0.  1.
         25    2    1    2    0    0  0.00000000000E+00  0.00000000000E+00 -0.17753882176E+03  0.21712684799E+03  0.12499613948E+03 0.  0.
    9000005    1    3    3    0    0  0.42004539604E+02  0.35351609090E+02 -0.14061708039E+03  0.15095787793E+03  0.10000000000E+01 0.  0.
    9000005    1    3    3    0    0 -0.42004539604E+02 -0.35351609090E+02 -0.36921741371E+02  0.66168970057E+02  0.10000000000E+01 0.  0.
<mgrwt>
<rscale>  0 0.12499614E+03</rscale>
<asrwt>0</asrwt>
<pdfrwt beam="1">  1        4 0.30452329E-02 0.12499614E+03</pdfrwt>
<pdfrwt beam="2">  1       -4 0.30358896E-01 0.12499614E+03</pdfrwt>
<totfact> 0.87332573E+03</totfact>
</mgrwt>
</event>
<event>
 5    1  0.3246948E-002  0.1249954E+03  0.7818608E-02  0.1235076E+00
         -4   -1    0    0    0  501 -0.00000000000E+00  0.00000000000E+00  0.69597135806E+02  0.69608722244E+02  0.12700000000E+01 0. -1.
          4   -1    0    0  501    0  0.00000000000E+00 -0.00000000000E+00 -0.56099016563E+02  0.56113390197E+02  0.12700000000E+01 0. -1.
         25    2    1    2    0    0  0.00000000000E+00  0.00000000000E+00  0.13498119243E+02  0.12572211244E+03  0.12499540125E+03 0.  0.
    9000005    1    3    3    0    0 -0.12120232488E+02  0.59108735598E+02 -0.96002875550E+01  0.61105713159E+02  0.10000000000E+01 0.  0.
    9000005    1    3    3    0    0  0.12120232488E+02 -0.59108735598E+02  0.23098406798E+02  0.64616399281E+02  0.10000000000E+01 0.  0.
<mgrwt>
<rscale>  0 0.12499540E+03</rscale>
<asrwt>0</asrwt>
<pdfrwt beam="2">  1        4 0.86326148E-02 0.12499540E+03</pdfrwt>
<pdfrwt beam="1">  1       -4 0.10709249E-01 0.12499540E+03</pdfrwt>
<totfact> 0.10438141E+04</totfact>
</mgrwt>
</event>
<event>
 5    1  0.3246948E-002  0.1249984E+03  0.7818608E-02  0.1235072E+00
         -4   -1    0    0    0  501 -0.00000000000E+00  0.00000000000E+00  0.58180519386E+02  0.58194378904E+02  0.12700000000E+01 0.  1.
          4   -1    0    0  501    0  0.00000000000E+00 -0.00000000000E+00 -0.67110608679E+02  0.67122624333E+02  0.12700000000E+01 0.  1.
         25    2    1    2    0    0  0.00000000000E+00  0.00000000000E+00 -0.89300892932E+01  0.12531700324E+03  0.12499841921E+03 0.  0.
    9000005    1    3    3    0    0  0.59423218515E+02  0.17634597137E+02  0.34958035754E+01  0.62091211597E+02  0.10000000000E+01 0.  0.
    9000005    1    3    3    0    0 -0.59423218515E+02 -0.17634597137E+02 -0.12425892869E+02  0.63225791640E+02  0.10000000000E+01 0.  0.
<mgrwt>
<rscale>  0 0.12499842E+03</rscale>
<asrwt>0</asrwt>
<pdfrwt beam="2">  1        4 0.10326699E-01 0.12499842E+03</pdfrwt>
<pdfrwt beam="1">  1       -4 0.89528396E-02 0.12499842E+03</pdfrwt>
<totfact> 0.10446354E+04</totfact>
</mgrwt>
</event>
<event>
 5    1  0.3246948E-002  0.1249981E+03  0.7818608E-02  0.1235072E+00
         -4   -1    0    0    0  501 -0.00000000000E+00  0.00000000000E+00  0.78861721496E+01  0.79877788635E+01  0.12700000000E+01 0. -1.
          4   -1    0    0  501    0  0.00000000000E+00 -0.00000000000E+00 -0.49204105789E+03  0.49204269688E+03  0.12700000000E+01 0. -1.
         25    2    1    2    0    0  0.00000000000E+00  0.00000000000E+00 -0.48415488574E+03  0.50003047574E+03  0.12499809312E+03 0.  0.
    9000005    1    3    3    0    0  0.50744945629E+02 -0.35984578013E+02 -0.26580820699E+03  0.27299256815E+03  0.10000000000E+01 0.  0.
    9000005    1    3    3    0    0 -0.50744945629E+02  0.35984578013E+02 -0.21834667875E+03  0.22703790759E+03  0.10000000000E+01 0.  0.
<mgrwt>
<rscale>  0 0.12499809E+03</rscale>
<asrwt>0</asrwt>
<pdfrwt beam="2">  1        4 0.75706542E-01 0.12499809E+03</pdfrwt>
<pdfrwt beam="1">  1       -4 0.12211996E-02 0.12499809E+03</pdfrwt>
<totfact> 0.55864355E+03</totfact>
</mgrwt>
</event>
<event>
 5    1  0.3246948E-002  0.1250015E+03  0.7818608E-02  0.1235067E+00
          4   -1    0    0  501    0  0.00000000000E+00  0.00000000000E+00  0.41890753139E+02  0.41909999983E+02  0.12700000000E+01 0. -1.
         -4   -1    0    0    0  501 -0.00000000000E+00 -0.00000000000E+00 -0.93205784565E+02  0.93214436524E+02  0.12700000000E+01 0. -1.
         25    2    1    2    0    0  0.00000000000E+00  0.00000000000E+00 -0.51315031426E+02  0.13512443651E+03  0.12500152355E+03 0.  0.
    9000005    1    3    3    0    0  0.18067097580E+02  0.73666192686E+01 -0.89834172489E+02  0.91934028745E+02  0.10000000000E+01 0.  0.
    9000005    1    3    3    0    0 -0.18067097580E+02 -0.73666192686E+01  0.38519141063E+02  0.43190407762E+02  0.10000000000E+01 0.  0.
<mgrwt>
<rscale>  0 0.12500152E+03</rscale>
<asrwt>0</asrwt>
<pdfrwt beam="1">  1        4 0.64468773E-02 0.12500152E+03</pdfrwt>
<pdfrwt beam="2">  1       -4 0.14341497E-01 0.12500152E+03</pdfrwt>
<totfact> 0.10235097E+04</totfact>
</mgrwt>
</event>
<event>
 5    1  0.3246948E-002  0.1250014E+03  0.7818608E-02  0.1235067E+00
          4   -1    0    0  501    0  0.00000000000E+00  0.00000000000E+00  0.52778090650E+02  0.52793368454E+02  0.12700000000E+01 0. -1.
         -4   -1    0    0    0  501 -0.00000000000E+00 -0.00000000000E+00 -0.73982943589E+02  0.73993843272E+02  0.12700000000E+01 0. -1.
         25    2    1    2    0    0  0.00000000000E+00  0.00000000000E+00 -0.21204852939E+02  0.12678721173E+03  0.12500140507E+03 0.  0.
    9000005    1    3    3    0    0  0.43833882180E+02 -0.41973426213E+02 -0.25720399634E+02  0.65922050122E+02  0.10000000000E+01 0.  0.
    9000005    1    3    3    0    0 -0.43833882180E+02  0.41973426213E+02  0.45155466955E+01  0.60865161603E+02  0.10000000000E+01 0.  0.
<mgrwt>
<rscale>  0 0.12500141E+03</rscale>
<asrwt>0</asrwt>
<pdfrwt beam="1">  1        4 0.81217199E-02 0.12500141E+03</pdfrwt>
<pdfrwt beam="2">  1       -4 0.11384005E-01 0.12500141E+03</pdfrwt>
<totfact> 0.10413442E+04</totfact>
</mgrwt>
</event>
<event>
 5    1  0.3246948E-002  0.1250076E+03  0.7818608E-02  0.1235057E+00
         -4   -1    0    0    0  501 -0.00000000000E+00  0.00000000000E+00  0.56065355497E+02  0.56079737758E+02  0.12700000000E+01 0.  1.
          4   -1    0    0  501    0  0.00000000000E+00 -0.00000000000E+00 -0.69652491493E+02  0.69664068724E+02  0.12700000000E+01 0.  1.
         25    2    1    2    0    0  0.00000000000E+00  0.00000000000E+00 -0.13587135996E+02  0.12574380648E+03  0.12500757819E+03 0.  0.
    9000005    1    3    3    0    0  0.42259417185E+02 -0.20167362803E+02 -0.48427463004E+02  0.67370617009E+02  0.10000000000E+01 0.  0.
    9000005    1    3    3    0    0 -0.42259417185E+02  0.20167362803E+02  0.34840327008E+02  0.58373189473E+02  0.10000000000E+01 0.  0.
<mgrwt>
<rscale>  0 0.12500758E+03</rscale>
<asrwt>0</asrwt>
<pdfrwt beam="2">  1        4 0.10717765E-01 0.12500758E+03</pdfrwt>
<pdfrwt beam="1">  1       -4 0.86274361E-02 0.12500758E+03</pdfrwt>
<totfact> 0.10434796E+04</totfact>
</mgrwt>
</event>
<event>
 5    1  0.3246948E-002  0.1250049E+03  0.7818608E-02  0.1235062E+00
         -4   -1    0    0    0  501 -0.00000000000E+00  0.00000000000E+00  0.77013013045E+01  0.78053149701E+01  0.12700000000E+01 0. -1.
          4   -1    0    0  501    0  0.00000000000E+00 -0.00000000000E+00 -0.50375212969E+03  0.50375373058E+03  0.12700000000E+01 0. -1.
         25    2    1    2    0    0  0.00000000000E+00  0.00000000000E+00 -0.49605082839E+03  0.51155904555E+03  0.12500493085E+03 0.  0.
    9000005    1    3    3    0    0 -0.43289769413E+02  0.22871333263E+02 -0.40696605918E+03  0.40990178744E+03  0.10000000000E+01 0.  0.
    9000005    1    3    3    0    0  0.43289769413E+02 -0.22871333263E+02 -0.89084769203E+02  0.10165725810E+03  0.10000000000E+01 0.  0.
<mgrwt>
<rscale>  0 0.12500493E+03</rscale>
<asrwt>0</asrwt>
<pdfrwt beam="2">  1        4 0.77508426E-01 0.12500493E+03</pdfrwt>
<pdfrwt beam="1">  1       -4 0.11929402E-02 0.12500493E+03</pdfrwt>
<totfact> 0.54972602E+03</totfact>
</mgrwt>
</event>
<event>
 5    1  0.3246948E-002  0.1250037E+03  0.7818608E-02  0.1235064E+00
          4   -1    0    0  501    0  0.00000000000E+00  0.00000000000E+00  0.47421817338E+02  0.47438820175E+02  0.12700000000E+01 0. -1.
         -4   -1    0    0    0  501 -0.00000000000E+00 -0.00000000000E+00 -0.82340598969E+02  0.82350392462E+02  0.12700000000E+01 0. -1.
         25    2    1    2    0    0  0.00000000000E+00  0.00000000000E+00 -0.34918781631E+02  0.12978921264E+03  0.12500367357E+03 0.  0.
    9000005    1    3    3    0    0 -0.39998176967E+02 -0.47642189299E+02 -0.11242923113E+02  0.63222113869E+02  0.10000000000E+01 0.  0.
    9000005    1    3    3    0    0  0.39998176967E+02  0.47642189299E+02 -0.23675858518E+02  0.66567098769E+02  0.10000000000E+01 0.  0.
<mgrwt>
<rscale>  0 0.12500367E+03</rscale>
<asrwt>0</asrwt>
<pdfrwt beam="1">  1        4 0.72977255E-02 0.12500367E+03</pdfrwt>
<pdfrwt beam="2">  1       -4 0.12669846E-01 0.12500367E+03</pdfrwt>
<totfact> 0.10348161E+04</totfact>
</mgrwt>
</event>
<event>
 5    1  0.3246948E-002  0.1250266E+03  0.7818608E-02  0.1235028E+00
          4   -1    0    0  501    0  0.00000000000E+00  0.00000000000E+00  0.45951664568E+03  0.45951840067E+03  0.12700000000E+01 0. -1.
         -4   -1    0    0    0  501 -0.00000000000E+00 -0.00000000000E+00 -0.84551977759E+01  0.85500449958E+01  0.12700000000E+01 0. -1.
         25    2    1    2    0    0  0.00000000000E+00  0.00000000000E+00  0.45106144790E+03  0.46806844567E+03  0.12502655736E+03 0.  0.
    9000005    1    3    3    0    0 -0.61680134302E+02 -0.47479823361E+01  0.19206071951E+03  0.20178033175E+03  0.10000000000E+01 0.  0.
    9000005    1    3    3    0    0  0.61680134302E+02  0.47479823361E+01  0.25900072840E+03  0.26628811392E+03  0.10000000000E+01 0.  0.
<mgrwt>
<rscale>  0 0.12502656E+03</rscale>
<asrwt>0</asrwt>
<pdfrwt beam="1">  1        4 0.70702298E-01 0.12502656E+03</pdfrwt>
<pdfrwt beam="2">  1       -4 0.13082306E-02 0.12502656E+03</pdfrwt>
<totfact> 0.58395726E+03</totfact>
</mgrwt>
</event>
<event>
 5    1  0.3246948E-002  0.1249930E+03  0.7818608E-02  0.1235080E+00
          4   -1    0    0  501    0  0.00000000000E+00  0.00000000000E+00  0.73568302544E+02  0.73579263649E+02  0.12700000000E+01 0.  1.
         -4   -1    0    0    0  501 -0.00000000000E+00 -0.00000000000E+00 -0.53068465102E+02  0.53083659334E+02  0.12700000000E+01 0.  1.
         25    2    1    2    0    0  0.00000000000E+00  0.00000000000E+00  0.20499837442E+02  0.12666292298E+03  0.12499301070E+03 0.  0.
    9000005    1    3    3    0    0 -0.30670033831E+02 -0.49398070971E+02  0.33446630832E+02  0.67085747405E+02  0.10000000000E+01 0.  0.
    9000005    1    3    3    0    0  0.30670033831E+02  0.49398070971E+02 -0.12946793390E+02  0.59577175579E+02  0.10000000000E+01 0.  0.
<mgrwt>
<rscale>  0 0.12499301E+03</rscale>
<asrwt>0</asrwt>
<pdfrwt beam="1">  1        4 0.11320212E-01 0.12499301E+03</pdfrwt>
<pdfrwt beam="2">  1       -4 0.81663912E-02 0.12499301E+03</pdfrwt>
<totfact> 0.10418121E+04</totfact>
</mgrwt>
</event>
<event>
 5    1  0.3246948E-002  0.1250090E+03  0.7818608E-02  0.1235055E+00
         -4   -1    0    0    0  501 -0.00000000000E+00  0.00000000000E+00  0.23630821207E+01  0.26827331416E+01  0.12700000000E+01 0. -1.
          4   -1    0    0  501    0  0.00000000000E+00 -0.00000000000E+00 -0.15482149551E+04  0.15482154760E+04  0.12700000000E+01 0. -1.
         25    2    1    2    0    0  0.00000000000E+00  0.00000000000E+00 -0.15458518730E+04  0.15508982091E+04  0.12500896726E+03 0.  0.
    9000005    1    3    3    0    0 -0.57705558853E+02 -0.22244522911E+02 -0.88462404861E+03  0.88678377167E+03  0.10000000000E+01 0.  0.
    9000005    1    3    3    0    0  0.57705558853E+02  0.22244522911E+02 -0.66122782437E+03  0.66411443746E+03  0.10000000000E+01 0.  0.
<mgrwt>
<rscale>  0 0.12500897E+03</rscale>
<asrwt>0</asrwt>
<pdfrwt beam="2">  1        4 0.23821079E+00 0.12500897E+03</pdfrwt>
<pdfrwt beam="1">  1       -4 0.38818094E-03 0.12500897E+03</pdfrwt>
<totfact> 0.16948090E+03</totfact>
</mgrwt>
</event>
<event>
 5    1  0.3246948E-002  0.1249743E+03  0.7818608E-02  0.1235109E+00
          4   -1    0    0  501    0  0.00000000000E+00  0.00000000000E+00  0.86759600266E+02  0.86768894993E+02  0.12700000000E+01 0.  1.
         -4   -1    0    0    0  501 -0.00000000000E+00 -0.00000000000E+00 -0.44984678329E+02  0.45002601973E+02  0.12700000000E+01 0.  1.
         25    2    1    2    0    0  0.00000000000E+00  0.00000000000E+00  0.41774921937E+02  0.13177149697E+03  0.12497433060E+03 0.  0.
    9000005    1    3    3    0    0  0.16590431177E+02 -0.24377330744E+02 -0.37191538277E+02  0.47473225931E+02  0.10000000000E+01 0.  0.
    9000005    1    3    3    0    0 -0.16590431177E+02  0.24377330744E+02  0.78966460214E+02  0.84298271036E+02  0.10000000000E+01 0.  0.
<mgrwt>
<rscale>  0 0.12497433E+03</rscale>
<asrwt>0</asrwt>
<pdfrwt beam="1">  1        4 0.13349724E-01 0.12497433E+03</pdfrwt>
<pdfrwt beam="2">  1       -4 0.69228135E-02 0.12497433E+03</pdfrwt>
<totfact> 0.10312549E+04</totfact>
</mgrwt>
</event>
<event>
 5    1  0.3246948E-002  0.1249989E+03  0.7818608E-02  0.1235071E+00
         -4   -1    0    0    0  501 -0.00000000000E+00  0.00000000000E+00  0.74131558239E+02  0.74142436074E+02  0.12700000000E+01 0. -1.
          4   -1    0    0  501    0  0.00000000000E+00 -0.00000000000E+00 -0.52670189966E+02  0.52685499059E+02  0.12700000000E+01 0. -1.
         25    2    1    2    0    0  0.00000000000E+00  0.00000000000E+00  0.21461368273E+02  0.12682793513E+03  0.12499893920E+03 0.  0.
    9000005    1    3    3    0    0  0.12768881561E+02 -0.56594791204E+02  0.34290453817E+02  0.67400667287E+02  0.10000000000E+01 0.  0.
    9000005    1    3    3    0    0 -0.12768881561E+02  0.56594791204E+02 -0.12829085545E+02  0.59427267846E+02  0.10000000000E+01 0.  0.
<mgrwt>
<rscale>  0 0.12499894E+03</rscale>
<asrwt>0</asrwt>
<pdfrwt beam="2">  1        4 0.81051205E-02 0.12499894E+03</pdfrwt>
<pdfrwt beam="1">  1       -4 0.11406870E-01 0.12499894E+03</pdfrwt>
<totfact> 0.10413135E+04</totfact>
</mgrwt>
</event>
<event>
 5    1  0.3246948E-002  0.1249998E+03  0.7818608E-02  0.1235070E+00
          4   -1    0    0  501    0  0.00000000000E+00  0.00000000000E+00  0.70536329783E+02  0.70547761972E+02  0.12700000000E+01 0.  1.
         -4   -1    0    0    0  501 -0.00000000000E+00 -0.00000000000E+00 -0.55355888695E+02  0.55370455238E+02  0.12700000000E+01 0.  1.
         25    2    1    2    0    0  0.00000000000E+00  0.00000000000E+00  0.15180441087E+02  0.12591821721E+03  0.12499980653E+03 0.  0.
    9000005    1    3    3    0    0  0.46416274464E+02 -0.20013319122E+02 -0.29425296020E+02  0.58496594117E+02  0.10000000000E+01 0.  0.
    9000005    1    3    3    0    0 -0.46416274464E+02  0.20013319122E+02  0.44605737108E+02  0.67421623092E+02  0.10000000000E+01 0.  0.
<mgrwt>
<rscale>  0 0.12499981E+03</rscale>
<asrwt>0</asrwt>
<pdfrwt beam="1">  1        4 0.10853743E-01 0.12499981E+03</pdfrwt>
<pdfrwt beam="2">  1       -4 0.85182905E-02 0.12499981E+03</pdfrwt>
<totfact> 0.10432796E+04</totfact>
</mgrwt>
</event>
<event>
 5    1  0.3246948E-002  0.1250070E+03  0.7818608E-02  0.1235058E+00
          4   -1    0    0  501    0  0.00000000000E+00  0.00000000000E+00  0.32047769789E+03  0.32048021428E+03  0.12700000000E+01 0. -1.
         -4   -1    0    0    0  501 -0.00000000000E+00 -0.00000000000E+00 -0.12154555407E+02  0.12220724902E+02  0.12700000000E+01 0. -1.
         25    2    1    2    0    0  0.00000000000E+00  0.00000000000E+00  0.30832314248E+03  0.33270093918E+03  0.12500701877E+03 0.  0.
    9000005    1    3    3    0    0 -0.84320896901E+01 -0.40313013502E+02  0.29060315878E+02  0.50415683602E+02  0.10000000000E+01 0.  0.
    9000005    1    3    3    0    0  0.84320896901E+01  0.40313013502E+02  0.27926282660E+03  0.28228525558E+03  0.10000000000E+01 0.  0.
<mgrwt>
<rscale>  0 0.12500702E+03</rscale>
<asrwt>0</asrwt>
<pdfrwt beam="1">  1        4 0.49309544E-01 0.12500702E+03</pdfrwt>
<pdfrwt beam="2">  1       -4 0.18752152E-02 0.12500702E+03</pdfrwt>
<totfact> 0.71659410E+03</totfact>
</mgrwt>
</event>
<event>
 5    1  0.3246948E-002  0.1250012E+03  0.7818608E-02  0.1235067E+00
         -4   -1    0    0    0  501 -0.00000000000E+00  0.00000000000E+00  0.38547102111E+02  0.38568017594E+02  0.12700000000E+01 0. -1.
          4   -1    0    0  501    0  0.00000000000E+00 -0.00000000000E+00 -0.10128666614E+03  0.10129462789E+03  0.12700000000E+01 0. -1.
         25    2    1    2    0    0  0.00000000000E+00  0.00000000000E+00 -0.62739564034E+02  0.13986264548E+03  0.12500122682E+03 0.  0.
    9000005    1    3    3    0    0 -0.56868367146E+02 -0.25991757025E+01 -0.25258482173E+01  0.56992515345E+02  0.10000000000E+01 0.  0.
    9000005    1    3    3    0    0  0.56868367146E+02  0.25991757025E+01 -0.60213715817E+02  0.82870130135E+02  0.10000000000E+01 0.  0.
<mgrwt>
<rscale>  0 0.12500123E+03</rscale>
<asrwt>0</asrwt>
<pdfrwt beam="2">  1        4 0.15584785E-01 0.12500123E+03</pdfrwt>
<pdfrwt beam="1">  1       -4 0.59325448E-02 0.12500123E+03</pdfrwt>
<totfact> 0.10136153E+04</totfact>
</mgrwt>
</event>
<event>
 5    1  0.3246948E-002  0.1249880E+03  0.7818608E-02  0.1235088E+00
          4   -1    0    0  501    0  0.00000000000E+00  0.00000000000E+00  0.35134664095E+03  0.35134893626E+03  0.12700000000E+01 0. -1.
         -4   -1    0    0    0  501 -0.00000000000E+00 -0.00000000000E+00 -0.11077193509E+02  0.11149758564E+02  0.12700000000E+01 0. -1.
         25    2    1    2    0    0  0.00000000000E+00  0.00000000000E+00  0.34026944745E+03  0.36249869482E+03  0.12498802696E+03 0.  0.
    9000005    1    3    3    0    0 -0.46233151867E+02 -0.58903095647E+01  0.29084654246E+03  0.29455884190E+03  0.10000000000E+01 0.  0.
    9000005    1    3    3    0    0  0.46233151867E+02  0.58903095647E+01  0.49422904983E+02  0.67939852924E+02  0.10000000000E+01 0.  0.
<mgrwt>
<rscale>  0 0.12498803E+03</rscale>
<asrwt>0</asrwt>
<pdfrwt beam="1">  1        4 0.54059087E-01 0.12498803E+03</pdfrwt>
<pdfrwt beam="2">  1       -4 0.17099421E-02 0.12498803E+03</pdfrwt>
<totfact> 0.68389191E+03</totfact>
</mgrwt>
</event>
<event>
 5    1  0.3246948E-002  0.1249989E+03  0.7818608E-02  0.1235071E+00
          4   -1    0    0  501    0  0.00000000000E+00  0.00000000000E+00  0.63097242887E+02  0.63110022659E+02  0.12700000000E+01 0. -1.
         -4   -1    0    0    0  501 -0.00000000000E+00 -0.00000000000E+00 -0.61881759487E+02  0.61894790227E+02  0.12700000000E+01 0. -1.
         25    2    1    2    0    0  0.00000000000E+00  0.00000000000E+00  0.12154834005E+01  0.12500481289E+03  0.12499890337E+03 0.  0.
    9000005    1    3    3    0    0  0.98282432015E+01 -0.54839849071E+02  0.28914168642E+02  0.62777643782E+02  0.10000000000E+01 0.  0.
    9000005    1    3    3    0    0 -0.98282432015E+01  0.54839849071E+02 -0.27698685242E+02  0.62227169104E+02  0.10000000000E+01 0.  0.
<mgrwt>
<rscale>  0 0.12499890E+03</rscale>
<asrwt>0</asrwt>
<pdfrwt beam="1">  1        4 0.97092536E-02 0.12499890E+03</pdfrwt>
<pdfrwt beam="2">  1       -4 0.95222561E-02 0.12499890E+03</pdfrwt>
<totfact> 0.10453017E+04</totfact>
</mgrwt>
</event>
<event>
 5    1  0.3246948E-002  0.1250183E+03  0.7818608E-02  0.1235041E+00
          4   -1    0    0  501    0  0.00000000000E+00  0.00000000000E+00  0.18796422760E+03  0.18796851799E+03  0.12700000000E+01 0. -1.
         -4   -1    0    0    0  501 -0.00000000000E+00 -0.00000000000E+00 -0.20764037120E+02  0.20802839651E+02  0.12700000000E+01 0. -1.
         25    2    1    2    0    0  0.00000000000E+00  0.00000000000E+00  0.16720019048E+03  0.20877135764E+03  0.12501830297E+03 0.  0.
    9000005    1    3    3    0    0 -0.28493797234E+02 -0.19672320237E+02 -0.32922134893E+01  0.34795622340E+02  0.10000000000E+01 0.  0.
    9000005    1    3    3    0    0  0.28493797234E+02  0.19672320237E+02  0.17049240397E+03  0.17397573530E+03  0.10000000000E+01 0.  0.
<mgrwt>
<rscale>  0 0.12501830E+03</rscale>
<asrwt>0</asrwt>
<pdfrwt beam="1">  1        4 0.28920888E-01 0.12501830E+03</pdfrwt>
<pdfrwt beam="2">  1       -4 0.31977821E-02 0.12501830E+03</pdfrwt>
<totfact> 0.88640647E+03</totfact>
</mgrwt>
</event>
<event>
 5    1  0.3246948E-002  0.1250022E+03  0.7818608E-02  0.1235066E+00
          4   -1    0    0  501    0  0.00000000000E+00  0.00000000000E+00  0.10311690382E+04  0.10311698203E+04  0.12700000000E+01 0.  1.
         -4   -1    0    0    0  501 -0.00000000000E+00 -0.00000000000E+00 -0.36810617812E+01  0.38939845707E+01  0.12700000000E+01 0.  1.
         25    2    1    2    0    0  0.00000000000E+00  0.00000000000E+00  0.10274879764E+04  0.10350638048E+04  0.12500215363E+03 0.  0.
    9000005    1    3    3    0    0 -0.35552037318E+02  0.45053651151E+02  0.71852298514E+03  0.72081208301E+03  0.10000000000E+01 0.  0.
    9000005    1    3    3    0    0  0.35552037318E+02 -0.45053651151E+02  0.30896499128E+03  0.31425172184E+03  0.10000000000E+01 0.  0.
<mgrwt>
<rscale>  0 0.12500215E+03</rscale>
<asrwt>0</asrwt>
<pdfrwt beam="1">  1        4 0.15865797E+00 0.12500215E+03</pdfrwt>
<pdfrwt beam="2">  1       -4 0.58275551E-03 0.12500215E+03</pdfrwt>
<totfact> 0.29464340E+03</totfact>
</mgrwt>
</event>
<event>
 5    1  0.3246948E-002  0.1250011E+03  0.7818608E-02  0.1235068E+00
          4   -1    0    0  501    0  0.00000000000E+00  0.00000000000E+00  0.79320754786E+02  0.79330921083E+02  0.12700000000E+01 0.  1.
         -4   -1    0    0    0  501 -0.00000000000E+00 -0.00000000000E+00 -0.49225610654E+02  0.49241990661E+02  0.12700000000E+01 0.  1.
         25    2    1    2    0    0  0.00000000000E+00  0.00000000000E+00  0.30095144132E+02  0.12857291174E+03  0.12500110373E+03 0.  0.
    9000005    1    3    3    0    0 -0.37856327104E+02 -0.32244910385E+02  0.53977213685E+02  0.73398742120E+02  0.10000000000E+01 0.  0.
    9000005    1    3    3    0    0  0.37856327104E+02  0.32244910385E+02 -0.23882069553E+02  0.55174169624E+02  0.10000000000E+01 0.  0.
<mgrwt>
<rscale>  0 0.12500110E+03</rscale>
<asrwt>0</asrwt>
<pdfrwt beam="1">  1        4 0.12205235E-01 0.12500110E+03</pdfrwt>
<pdfrwt beam="2">  1       -4 0.75752130E-02 0.12500110E+03</pdfrwt>
<totfact> 0.10374875E+04</totfact>
</mgrwt>
</event>
<event>
 5    1  0.3246948E-002  0.1250006E+03  0.7818608E-02  0.1235068E+00
          4   -1    0    0  501    0  0.00000000000E+00  0.00000000000E+00  0.32065500469E+02  0.32090640697E+02  0.12700000000E+01 0. -1.
         -4   -1    0    0    0  501 -0.00000000000E+00 -0.00000000000E+00 -0.12174584279E+03  0.12175246666E+03  0.12700000000E+01 0. -1.
         25    2    1    2    0    0  0.00000000000E+00  0.00000000000E+00 -0.89680342323E+02  0.15384310736E+03  0.12500055152E+03 0.  0.
    9000005    1    3    3    0    0  0.57022364588E+02 -0.22082860667E+02 -0.60701039796E+02  0.86167389602E+02  0.10000000000E+01 0.  0.
    9000005    1    3    3    0    0 -0.57022364588E+02  0.22082860667E+02 -0.28979302527E+02  0.67675717753E+02  0.10000000000E+01 0.  0.
<mgrwt>
<rscale>  0 0.12500055E+03</rscale>
<asrwt>0</asrwt>
<pdfrwt beam="1">  1        4 0.49355974E-02 0.12500055E+03</pdfrwt>
<pdfrwt beam="2">  1       -4 0.18732573E-01 0.12500055E+03</pdfrwt>
<totfact> 0.98541852E+03</totfact>
</mgrwt>
</event>
<event>
 5    1  0.3246948E-002  0.1250037E+03  0.7818608E-02  0.1235064E+00
         -4   -1    0    0    0  501 -0.00000000000E+00  0.00000000000E+00  0.30472867306E+03  0.30473131950E+03  0.12700000000E+01 0.  1.
          4   -1    0    0  501    0  0.00000000000E+00 -0.00000000000E+00 -0.12785374594E+02  0.12848295743E+02  0.12700000000E+01 0.  1.
         25    2    1    2    0    0  0.00000000000E+00  0.00000000000E+00  0.29194329847E+03  0.31757961524E+03  0.12500368994E+03 0.  0.
    9000005    1    3    3    0    0 -0.32180823107E+02  0.38326205556E+02  0.50879355864E+02  0.71373750507E+02  0.10000000000E+01 0.  0.
    9000005    1    3    3    0    0  0.32180823107E+02 -0.38326205556E+02  0.24106394260E+03  0.24620586474E+03  0.10000000000E+01 0.  0.
<mgrwt>
<rscale>  0 0.12500369E+03</rscale>
<asrwt>0</asrwt>
<pdfrwt beam="2">  1        4 0.19720242E-02 0.12500369E+03</pdfrwt>
<pdfrwt beam="1">  1       -4 0.46886381E-01 0.12500369E+03</pdfrwt>
<totfact> 0.73438913E+03</totfact>
</mgrwt>
</event>
<event>
 5    1  0.3246948E-002  0.1250011E+03  0.7818608E-02  0.1235067E+00
         -4   -1    0    0    0  501 -0.00000000000E+00  0.00000000000E+00  0.50675225608E+02  0.50691137198E+02  0.12700000000E+01 0.  1.
          4   -1    0    0  501    0  0.00000000000E+00 -0.00000000000E+00 -0.77052184160E+02  0.77062649733E+02  0.12700000000E+01 0.  1.
         25    2    1    2    0    0  0.00000000000E+00  0.00000000000E+00 -0.26376958552E+02  0.12775378693E+03  0.12500114453E+03 0.  0.
    9000005    1    3    3    0    0 -0.31942098392E+02  0.34975271582E+02  0.28473816098E+02  0.55274998644E+02  0.10000000000E+01 0.  0.
    9000005    1    3    3    0    0  0.31942098392E+02 -0.34975271582E+02 -0.54850774650E+02  0.72478788287E+02  0.10000000000E+01 0.  0.
<mgrwt>
<rscale>  0 0.12500114E+03</rscale>
<asrwt>0</asrwt>
<pdfrwt beam="2">  1        4 0.11856211E-01 0.12500114E+03</pdfrwt>
<pdfrwt beam="1">  1       -4 0.77982176E-02 0.12500114E+03</pdfrwt>
<totfact> 0.10392540E+04</totfact>
</mgrwt>
</event>
<event>
 5    1  0.3246948E-002  0.1249645E+03  0.7818608E-02  0.1235125E+00
         -4   -1    0    0    0  501 -0.00000000000E+00  0.00000000000E+00  0.29292879372E+03  0.29293154676E+03  0.12700000000E+01 0.  1.
          4   -1    0    0  501    0  0.00000000000E+00 -0.00000000000E+00 -0.13294502952E+02  0.13355025599E+02  0.12700000000E+01 0.  1.
         25    2    1    2    0    0  0.00000000000E+00  0.00000000000E+00  0.27963429077E+03  0.30628657236E+03  0.12496450631E+03 0.  0.
    9000005    1    3    3    0    0 -0.53781297732E+02  0.30648307627E+02  0.11912330921E+03  0.13425017521E+03  0.10000000000E+01 0.  0.
    9000005    1    3    3    0    0  0.53781297732E+02 -0.30648307627E+02  0.16051098155E+03  0.17203639715E+03  0.10000000000E+01 0.  0.
<mgrwt>
<rscale>  0 0.12496451E+03</rscale>
<asrwt>0</asrwt>
<pdfrwt beam="2">  1        4 0.20501756E-02 0.12496451E+03</pdfrwt>
<pdfrwt beam="1">  1       -4 0.45070834E-01 0.12496451E+03</pdfrwt>
<totfact> 0.74875926E+03</totfact>
</mgrwt>
</event>
<event>
 5    1  0.3246948E-002  0.1250021E+03  0.7818608E-02  0.1235066E+00
         -4   -1    0    0    0  501 -0.00000000000E+00  0.00000000000E+00  0.48490403735E+02  0.48507032010E+02  0.12700000000E+01 0. -1.
          4   -1    0    0  501    0  0.00000000000E+00 -0.00000000000E+00 -0.80524495977E+02  0.80534510319E+02  0.12700000000E+01 0. -1.
         25    2    1    2    0    0  0.00000000000E+00  0.00000000000E+00 -0.32034092242E+02  0.12904154233E+03  0.12500214631E+03 0.  0.
    9000005    1    3    3    0    0  0.37379132379E+02  0.43783288847E+02  0.90834502074E+01  0.58289664498E+02  0.10000000000E+01 0.  0.
    9000005    1    3    3    0    0 -0.37379132379E+02 -0.43783288847E+02 -0.41117542449E+02  0.70751877831E+02  0.10000000000E+01 0.  0.
<mgrwt>
<rscale>  0 0.12500215E+03</rscale>
<asrwt>0</asrwt>
<pdfrwt beam="2">  1        4 0.12390433E-01 0.12500215E+03</pdfrwt>
<pdfrwt beam="1">  1       -4 0.74621115E-02 0.12500215E+03</pdfrwt>
<totfact> 0.10364552E+04</totfact>
</mgrwt>
</event>
<event>
 5    1  0.3246948E-002  0.1249979E+03  0.7818608E-02  0.1235073E+00
         -4   -1    0    0    0  501 -0.00000000000E+00  0.00000000000E+00  0.35058546645E+01  0.37287956405E+01  0.12700000000E+01 0. -1.
          4   -1    0    0  501    0  0.00000000000E+00 -0.00000000000E+00 -0.10796129731E+04  0.10796137200E+04  0.12700000000E+01 0. -1.
         25    2    1    2    0    0  0.00000000000E+00  0.00000000000E+00 -0.10761071184E+04  0.10833425157E+04  0.12499790406E+03 0.  0.
    9000005    1    3    3    0    0 -0.62166515743E+02  0.23974021008E+00 -0.59313149697E+03  0.59638134265E+03  0.10000000000E+01 0.  0.
    9000005    1    3    3    0    0  0.62166515743E+02 -0.23974021008E+00 -0.48297562143E+03  0.48696117304E+03  0.10000000000E+01 0.  0.
<mgrwt>
<rscale>  0 0.12499790E+03</rscale>
<asrwt>0</asrwt>
<pdfrwt beam="2">  1        4 0.16611125E+00 0.12499790E+03</pdfrwt>
<pdfrwt beam="1">  1       -4 0.55656988E-03 0.12499790E+03</pdfrwt>
<totfact> 0.27977418E+03</totfact>
</mgrwt>
</event>
<event>
 5    1  0.3246948E-002  0.1250023E+03  0.7818608E-02  0.1235066E+00
          4   -1    0    0  501    0  0.00000000000E+00  0.00000000000E+00  0.34738414054E+03  0.34738646203E+03  0.12700000000E+01 0.  1.
         -4   -1    0    0    0  501 -0.00000000000E+00 -0.00000000000E+00 -0.11206952159E+02  0.11278682400E+02  0.12700000000E+01 0.  1.
         25    2    1    2    0    0  0.00000000000E+00  0.00000000000E+00  0.33617718838E+03  0.35866514443E+03  0.12500233533E+03 0.  0.
    9000005    1    3    3    0    0  0.15476298930E+02 -0.15658923365E+02  0.27499200150E+00  0.22040719819E+02  0.10000000000E+01 0.  0.
    9000005    1    3    3    0    0 -0.15476298930E+02  0.15658923365E+02  0.33590219638E+03  0.33662442461E+03  0.10000000000E+01 0.  0.
<mgrwt>
<rscale>  0 0.12500234E+03</rscale>
<asrwt>0</asrwt>
<pdfrwt beam="1">  1        4 0.53449409E-01 0.12500234E+03</pdfrwt>
<pdfrwt beam="2">  1       -4 0.17298428E-02 0.12500234E+03</pdfrwt>
<totfact> 0.68778133E+03</totfact>
</mgrwt>
</event>
<event>
 5    1  0.3246948E-002  0.1250029E+03  0.7818608E-02  0.1235065E+00
         -4   -1    0    0    0  501 -0.00000000000E+00  0.00000000000E+00  0.29543987778E+02  0.29571271766E+02  0.12700000000E+01 0.  1.
          4   -1    0    0  501    0  0.00000000000E+00 -0.00000000000E+00 -0.13213287589E+03  0.13213897907E+03  0.12700000000E+01 0.  1.
         25    2    1    2    0    0  0.00000000000E+00  0.00000000000E+00 -0.10258888811E+03  0.16171025084E+03  0.12500290102E+03 0.  0.
    9000005    1    3    3    0    0  0.26975592215E+02 -0.38371847655E+02  0.21280583858E+01  0.46963921262E+02  0.10000000000E+01 0.  0.
    9000005    1    3    3    0    0 -0.26975592215E+02  0.38371847655E+02 -0.10471694649E+03  0.11474632958E+03  0.10000000000E+01 0.  0.
<mgrwt>
<rscale>  0 0.12500290E+03</rscale>
<asrwt>0</asrwt>
<pdfrwt beam="2">  1        4 0.20330703E-01 0.12500290E+03</pdfrwt>
<pdfrwt beam="1">  1       -4 0.45477972E-02 0.12500290E+03</pdfrwt>
<totfact> 0.97007748E+03</totfact>
</mgrwt>
</event>
<event>
 5    1  0.3246948E-002  0.1249974E+03  0.7818608E-02  0.1235073E+00
          4   -1    0    0  501    0  0.00000000000E+00  0.00000000000E+00  0.48041878962E+02  0.48058662427E+02  0.12700000000E+01 0. -1.
         -4   -1    0    0    0  501 -0.00000000000E+00 -0.00000000000E+00 -0.81269922159E+02  0.81279844659E+02  0.12700000000E+01 0. -1.
         25    2    1    2    0    0  0.00000000000E+00  0.00000000000E+00 -0.33228043197E+02  0.12933850709E+03  0.12499738621E+03 0.  0.
    9000005    1    3    3    0    0  0.31897832945E+02  0.45578131439E+02 -0.46067467871E+02  0.72236067225E+02  0.10000000000E+01 0.  0.
    9000005    1    3    3    0    0 -0.31897832945E+02 -0.45578131439E+02  0.12839424674E+02  0.57102439861E+02  0.10000000000E+01 0.  0.
<mgrwt>
<rscale>  0 0.12499739E+03</rscale>
<asrwt>0</asrwt>
<pdfrwt beam="1">  1        4 0.73931126E-02 0.12499739E+03</pdfrwt>
<pdfrwt beam="2">  1       -4 0.12505119E-01 0.12499739E+03</pdfrwt>
<totfact> 0.10359290E+04</totfact>
</mgrwt>
</event>
<event>
 5    1  0.3246948E-002  0.1249993E+03  0.7818608E-02  0.1235070E+00
         -4   -1    0    0    0  501 -0.00000000000E+00  0.00000000000E+00  0.26580156337E+02  0.26610479344E+02  0.12700000000E+01 0. -1.
          4   -1    0    0  501    0  0.00000000000E+00 -0.00000000000E+00 -0.14684259792E+03  0.14684808975E+03  0.12700000000E+01 0. -1.
         25    2    1    2    0    0  0.00000000000E+00  0.00000000000E+00 -0.12026244158E+03  0.17345856909E+03  0.12499928135E+03 0.  0.
    9000005    1    3    3    0    0 -0.41251973265E+02 -0.96585727425E+01  0.36142311615E+01  0.42533233977E+02  0.10000000000E+01 0.  0.
    9000005    1    3    3    0    0  0.41251973265E+02  0.96585727425E+01 -0.12387667274E+03  0.13092533511E+03  0.10000000000E+01 0.  0.
<mgrwt>
<rscale>  0 0.12499928E+03</rscale>
<asrwt>0</asrwt>
<pdfrwt beam="2">  1        4 0.22593923E-01 0.12499928E+03</pdfrwt>
<pdfrwt beam="1">  1       -4 0.40920099E-02 0.12499928E+03</pdfrwt>
<totfact> 0.94809440E+03</totfact>
</mgrwt>
</event>
<event>
 5    1  0.3246948E-002  0.1249999E+03  0.7818608E-02  0.1235069E+00
         -4   -1    0    0    0  501 -0.00000000000E+00  0.00000000000E+00  0.11758019449E+04  0.11758026307E+04  0.12700000000E+01 0. -1.
          4   -1    0    0  501    0  0.00000000000E+00 -0.00000000000E+00 -0.32001114541E+01  0.34429076837E+01  0.12700000000E+01 0. -1.
         25    2    1    2    0    0  0.00000000000E+00  0.00000000000E+00  0.11726018334E+04  0.11792455384E+04  0.12499992067E+03 0.  0.
    9000005    1    3    3    0    0  0.36813319964E+02  0.39701469308E+02  0.29190392369E+03  0.29688436782E+03  0.10000000000E+01 0.  0.
    9000005    1    3    3    0    0 -0.36813319964E+02 -0.39701469308E+02  0.88069790973E+03  0.88236117060E+03  0.10000000000E+01 0.  0.
<mgrwt>
<rscale>  0 0.12499992E+03</rscale>
<asrwt>0</asrwt>
<pdfrwt beam="2">  1        4 0.51105295E-03 0.12499992E+03</pdfrwt>
<pdfrwt beam="1">  1       -4 0.18091179E+00 0.12499992E+03</pdfrwt>
<totfact> 0.25262515E+03</totfact>
</mgrwt>
</event>
<event>
 5    1  0.3246948E-002  0.1250034E+03  0.7818608E-02  0.1235064E+00
         -4   -1    0    0    0  501 -0.00000000000E+00  0.00000000000E+00  0.80338482230E+00  0.15027731608E+01  0.12700000000E+01 0.  1.
          4   -1    0    0  501    0  0.00000000000E+00 -0.00000000000E+00 -0.33871535427E+04  0.33871537808E+04  0.12700000000E+01 0.  1.
         25    2    1    2    0    0  0.00000000000E+00  0.00000000000E+00 -0.33863501578E+04  0.33886565539E+04  0.12500339547E+03 0.  0.
    9000005    1    3    3    0    0 -0.17605645003E+02  0.13528635358E+02 -0.10959229804E+03  0.11182331823E+03  0.10000000000E+01 0.  0.
    9000005    1    3    3    0    0  0.17605645003E+02 -0.13528635358E+02 -0.32767578598E+04  0.32768332357E+04  0.10000000000E+01 0.  0.
<mgrwt>
<rscale>  0 0.12500340E+03</rscale>
<asrwt>0</asrwt>
<pdfrwt beam="2">  1        4 0.52114640E+00 0.12500340E+03</pdfrwt>
<pdfrwt beam="1">  1       -4 0.17741779E-03 0.12500340E+03</pdfrwt>
<totfact> 0.75819870E+01</totfact>
</mgrwt>
</event>
<event>
 5    1  0.3246948E-002  0.1250000E+03  0.7818608E-02  0.1235069E+00
         -4   -1    0    0    0  501 -0.00000000000E+00  0.00000000000E+00  0.31127943577E+02  0.31153840395E+02  0.12700000000E+01 0.  1.
          4   -1    0    0  501    0  0.00000000000E+00 -0.00000000000E+00 -0.12540878088E+03  0.12541521128E+03  0.12700000000E+01 0.  1.
         25    2    1    2    0    0  0.00000000000E+00  0.00000000000E+00 -0.94280837300E+02  0.15656905168E+03  0.12499996664E+03 0.  0.
    9000005    1    3    3    0    0 -0.41470707726E+02 -0.45600765408E+02 -0.60036147847E+02  0.86049918381E+02  0.10000000000E+01 0.  0.
    9000005    1    3    3    0    0  0.41470707726E+02  0.45600765408E+02 -0.34244689454E+02  0.70519133297E+02  0.10000000000E+01 0.  0.
<mgrwt>
<rscale>  0 0.12499997E+03</rscale>
<asrwt>0</asrwt>
<pdfrwt beam="2">  1        4 0.19296145E-01 0.12499997E+03</pdfrwt>
<pdfrwt beam="1">  1       -4 0.47914012E-02 0.12499997E+03</pdfrwt>
<totfact> 0.98008426E+03</totfact>
</mgrwt>
</event>
<event>
 5    1  0.3246948E-002  0.1249991E+03  0.7818608E-02  0.1235071E+00
         -4   -1    0    0    0  501 -0.00000000000E+00  0.00000000000E+00  0.11468542331E+02  0.11538646507E+02  0.12700000000E+01 0.  1.
          4   -1    0    0  501    0  0.00000000000E+00 -0.00000000000E+00 -0.33949174463E+03  0.33949412008E+03  0.12700000000E+01 0.  1.
         25    2    1    2    0    0  0.00000000000E+00  0.00000000000E+00 -0.32802320230E+03  0.35103276659E+03  0.12499912789E+03 0.  0.
    9000005    1    3    3    0    0 -0.56523766843E+02  0.16626232052E+02 -0.22250398275E+03  0.23017469486E+03  0.10000000000E+01 0.  0.
    9000005    1    3    3    0    0  0.56523766843E+02 -0.16626232052E+02 -0.10551921954E+03  0.12085807173E+03  0.10000000000E+01 0.  0.
<mgrwt>
<rscale>  0 0.12499913E+03</rscale>
<asrwt>0</asrwt>
<pdfrwt beam="2">  1        4 0.52235067E-01 0.12499913E+03</pdfrwt>
<pdfrwt beam="1">  1       -4 0.17699667E-02 0.12499913E+03</pdfrwt>
<totfact> 0.69612435E+03</totfact>
</mgrwt>
</event>
<event>
 5    1  0.3246948E-002  0.1249930E+03  0.7818608E-02  0.1235080E+00
          4   -1    0    0  501    0  0.00000000000E+00  0.00000000000E+00  0.49107253355E+02  0.49123672828E+02  0.12700000000E+01 0. -1.
         -4   -1    0    0    0  501 -0.00000000000E+00 -0.00000000000E+00 -0.79501541967E+02  0.79511685148E+02  0.12700000000E+01 0. -1.
         25    2    1    2    0    0  0.00000000000E+00  0.00000000000E+00 -0.30394288612E+02  0.12863535798E+03  0.12499296997E+03 0.  0.
    9000005    1    3    3    0    0  0.39846759529E+02 -0.37237687274E+01  0.34192819319E+02  0.52647693126E+02  0.10000000000E+01 0.  0.
    9000005    1    3    3    0    0 -0.39846759529E+02  0.37237687274E+01 -0.64587107931E+02  0.75987664850E+02  0.10000000000E+01 0.  0.
<mgrwt>
<rscale>  0 0.12499297E+03</rscale>
<asrwt>0</asrwt>
<pdfrwt beam="1">  1        4 0.75570054E-02 0.12499297E+03</pdfrwt>
<pdfrwt beam="2">  1       -4 0.12233050E-01 0.12499297E+03</pdfrwt>
<totfact> 0.10375436E+04</totfact>
</mgrwt>
</event>
<event>
 5    1  0.3246948E-002  0.1249957E+03  0.7818608E-02  0.1235076E+00
          4   -1    0    0  501    0  0.00000000000E+00  0.00000000000E+00  0.13516127629E+02  0.13575662270E+02  0.12700000000E+01 0. -1.
         -4   -1    0    0    0  501 -0.00000000000E+00 -0.00000000000E+00 -0.28829082030E+03  0.28829361764E+03  0.12700000000E+01 0. -1.
         25    2    1    2    0    0  0.00000000000E+00  0.00000000000E+00 -0.27477469267E+03  0.30186927991E+03  0.12499572160E+03 0.  0.
    9000005    1    3    3    0    0  0.12621619124E+02  0.19977938191E+02 -0.27709591220E+03  0.27810352000E+03  0.10000000000E+01 0.  0.
    9000005    1    3    3    0    0 -0.12621619124E+02 -0.19977938191E+02  0.23212195224E+01  0.23765759903E+02  0.10000000000E+01 0.  0.
<mgrwt>
<rscale>  0 0.12499572E+03</rscale>
<asrwt>0</asrwt>
<pdfrwt beam="1">  1        4 0.20841992E-02 0.12499572E+03</pdfrwt>
<pdfrwt beam="2">  1       -4 0.44357224E-01 0.12499572E+03</pdfrwt>
<totfact> 0.75372116E+03</totfact>
</mgrwt>
</event>
<event>
 5    1  0.3246948E-002  0.1250005E+03  0.7818608E-02  0.1235068E+00
          4   -1    0    0  501    0  0.00000000000E+00  0.00000000000E+00  0.43767138348E+01  0.45572496082E+01  0.12700000000E+01 0.  1.
         -4   -1    0    0    0  501 -0.00000000000E+00 -0.00000000000E+00 -0.87429824677E+03  0.87429916917E+03  0.12700000000E+01 0.  1.
         25    2    1    2    0    0  0.00000000000E+00  0.00000000000E+00 -0.86992153294E+03  0.87885641878E+03  0.12500052543E+03 0.  0.
    9000005    1    3    3    0    0  0.85253363676E+01  0.44605669168E+02 -0.73678992201E+03  0.73818882155E+03  0.10000000000E+01 0.  0.
    9000005    1    3    3    0    0 -0.85253363676E+01 -0.44605669168E+02 -0.13313161092E+03  0.14066759722E+03  0.10000000000E+01 0.  0.
<mgrwt>
<rscale>  0 0.12500053E+03</rscale>
<asrwt>0</asrwt>
<pdfrwt beam="1">  1        4 0.68729961E-03 0.12500053E+03</pdfrwt>
<pdfrwt beam="2">  1       -4 0.13452124E+00 0.12500053E+03</pdfrwt>
<totfact> 0.34974331E+03</totfact>
</mgrwt>
</event>
<event>
 5    1  0.3246948E-002  0.1250024E+03  0.7818608E-02  0.1235066E+00
          4   -1    0    0  501    0  0.00000000000E+00  0.00000000000E+00  0.29928539743E+01  0.32511651622E+01  0.12700000000E+01 0. -1.
         -4   -1    0    0    0  501 -0.00000000000E+00 -0.00000000000E+00 -0.12509864077E+04  0.12509870523E+04  0.12700000000E+01 0. -1.
         25    2    1    2    0    0  0.00000000000E+00  0.00000000000E+00 -0.12479935537E+04  0.12542382175E+04  0.12500238450E+03 0.  0.
    9000005    1    3    3    0    0 -0.82679256334E-01 -0.23626476260E+02 -0.43497899568E+02  0.49510448222E+02  0.10000000000E+01 0.  0.
    9000005    1    3    3    0    0  0.82679256334E-01  0.23626476260E+02 -0.12044956541E+04  0.12047277693E+04  0.10000000000E+01 0.  0.
<mgrwt>
<rscale>  0 0.12500238E+03</rscale>
<asrwt>0</asrwt>
<pdfrwt beam="1">  1        4 0.48035975E-03 0.12500238E+03</pdfrwt>
<pdfrwt beam="2">  1       -4 0.19247897E+00 0.12500238E+03</pdfrwt>
<totfact> 0.23333835E+03</totfact>
</mgrwt>
</event>
<event>
 5    1  0.3246948E-002  0.1249965E+03  0.7818608E-02  0.1235075E+00
          4   -1    0    0  501    0  0.00000000000E+00  0.00000000000E+00  0.57150009802E+02  0.57164119169E+02  0.12700000000E+01 0. -1.
         -4   -1    0    0    0  501 -0.00000000000E+00 -0.00000000000E+00 -0.68318558607E+02  0.68330361847E+02  0.12700000000E+01 0. -1.
         25    2    1    2    0    0  0.00000000000E+00  0.00000000000E+00 -0.11168548805E+02  0.12549448102E+03  0.12499651308E+03 0.  0.
    9000005    1    3    3    0    0 -0.45895420129E+02  0.30925148102E+02  0.23553366004E+02  0.60154097317E+02  0.10000000000E+01 0.  0.
    9000005    1    3    3    0    0  0.45895420129E+02 -0.30925148102E+02 -0.34721914809E+02  0.65340383699E+02  0.10000000000E+01 0.  0.
<mgrwt>
<rscale>  0 0.12499651E+03</rscale>
<asrwt>0</asrwt>
<pdfrwt beam="1">  1        4 0.87943025E-02 0.12499651E+03</pdfrwt>
<pdfrwt beam="2">  1       -4 0.10512541E-01 0.12499651E+03</pdfrwt>
<totfact> 0.10442897E+04</totfact>
</mgrwt>
</event>
<event>
 5    1  0.3246948E-002  0.1249996E+03  0.7818608E-02  0.1235070E+00
         -4   -1    0    0    0  501 -0.00000000000E+00  0.00000000000E+00  0.10149542536E+03  0.10150337072E+03  0.12700000000E+01 0.  1.
          4   -1    0    0  501    0  0.00000000000E+00 -0.00000000000E+00 -0.38466767537E+02  0.38487726677E+02  0.12700000000E+01 0.  1.
         25    2    1    2    0    0  0.00000000000E+00  0.00000000000E+00  0.63028657820E+02  0.13999109740E+03  0.12499958258E+03 0.  0.
    9000005    1    3    3    0    0 -0.60061402105E+02  0.17119415635E+02  0.33962219790E+02  0.71097670760E+02  0.10000000000E+01 0.  0.
    9000005    1    3    3    0    0  0.60061402105E+02 -0.17119415635E+02  0.29066438030E+02  0.68893426640E+02  0.10000000000E+01 0.  0.
<mgrwt>
<rscale>  0 0.12499958E+03</rscale>
<asrwt>0</asrwt>
<pdfrwt beam="2">  1        4 0.59201878E-02 0.12499958E+03</pdfrwt>
<pdfrwt beam="1">  1       -4 0.15616904E-01 0.12499958E+03</pdfrwt>
<totfact> 0.10133866E+04</totfact>
</mgrwt>
</event>
<event>
 5    1  0.3246948E-002  0.1249944E+03  0.7818608E-02  0.1235078E+00
          4   -1    0    0  501    0  0.00000000000E+00  0.00000000000E+00  0.82252974548E+01  0.83227650586E+01  0.12700000000E+01 0. -1.
         -4   -1    0    0    0  501 -0.00000000000E+00 -0.00000000000E+00 -0.47196864609E+03  0.47197035478E+03  0.12700000000E+01 0. -1.
         25    2    1    2    0    0  0.00000000000E+00  0.00000000000E+00 -0.46374334863E+03  0.48029311984E+03  0.12499435012E+03 0.  0.
    9000005    1    3    3    0    0 -0.20724136353E+02  0.15039301135E+02 -0.45090287043E+03  0.45163045620E+03  0.10000000000E+01 0.  0.
    9000005    1    3    3    0    0  0.20724136353E+02 -0.15039301135E+02 -0.12840478201E+02  0.28662663635E+02  0.10000000000E+01 0.  0.
<mgrwt>
<rscale>  0 0.12499435E+03</rscale>
<asrwt>0</asrwt>
<pdfrwt beam="1">  1        4 0.12730597E-02 0.12499435E+03</pdfrwt>
<pdfrwt beam="2">  1       -4 0.72618169E-01 0.12499435E+03</pdfrwt>
<totfact> 0.57433615E+03</totfact>
</mgrwt>
</event>
<event>
 5    1  0.3246948E-002  0.1250201E+03  0.7818608E-02  0.1235038E+00
          4   -1    0    0  501    0  0.00000000000E+00  0.00000000000E+00  0.51260593307E+02  0.51276323251E+02  0.12700000000E+01 0. -1.
         -4   -1    0    0    0  501 -0.00000000000E+00 -0.00000000000E+00 -0.76195519796E+02  0.76206103017E+02  0.12700000000E+01 0. -1.
         25    2    1    2    0    0  0.00000000000E+00  0.00000000000E+00 -0.24934926489E+02  0.12748242627E+03  0.12502007218E+03 0.  0.
    9000005    1    3    3    0    0  0.58232788696E+02  0.16141164447E+00  0.10682567853E+02  0.59213182561E+02  0.10000000000E+01 0.  0.
    9000005    1    3    3    0    0 -0.58232788696E+02 -0.16141164447E+00 -0.35617494342E+02  0.68269243707E+02  0.10000000000E+01 0.  0.
<mgrwt>
<rscale>  0 0.12502007E+03</rscale>
<asrwt>0</asrwt>
<pdfrwt beam="1">  1        4 0.78882692E-02 0.12502007E+03</pdfrwt>
<pdfrwt beam="2">  1       -4 0.11724412E-01 0.12502007E+03</pdfrwt>
<totfact> 0.10393971E+04</totfact>
</mgrwt>
</event>
<event>
 5    1  0.3246948E-002  0.1250027E+03  0.7818608E-02  0.1235065E+00
         -4   -1    0    0    0  501 -0.00000000000E+00  0.00000000000E+00  0.77762061011E+02  0.77772431058E+02  0.12700000000E+01 0. -1.
          4   -1    0    0  501    0  0.00000000000E+00 -0.00000000000E+00 -0.50213772049E+02  0.50229829816E+02  0.12700000000E+01 0. -1.
         25    2    1    2    0    0  0.00000000000E+00  0.00000000000E+00  0.27548288962E+02  0.12800226087E+03  0.12500268223E+03 0.  0.
    9000005    1    3    3    0    0  0.94119411235E+01  0.41418564625E+02  0.60714460427E+02  0.74103494089E+02  0.10000000000E+01 0.  0.
    9000005    1    3    3    0    0 -0.94119411235E+01 -0.41418564625E+02 -0.33166171465E+02  0.53898766785E+02  0.10000000000E+01 0.  0.
<mgrwt>
<rscale>  0 0.12500268E+03</rscale>
<asrwt>0</asrwt>
<pdfrwt beam="2">  1        4 0.77272287E-02 0.12500268E+03</pdfrwt>
<pdfrwt beam="1">  1       -4 0.11965427E-01 0.12500268E+03</pdfrwt>
<totfact> 0.10386810E+04</totfact>
</mgrwt>
</event>
<event>
 5    1  0.3246948E-002  0.1249978E+03  0.7818608E-02  0.1235073E+00
         -4   -1    0    0    0  501 -0.00000000000E+00  0.00000000000E+00  0.51410182741E+03  0.51410339606E+03  0.12700000000E+01 0. -1.
          4   -1    0    0  501    0  0.00000000000E+00 -0.00000000000E+00 -0.75432716842E+01  0.76494344694E+01  0.12700000000E+01 0. -1.
         25    2    1    2    0    0  0.00000000000E+00  0.00000000000E+00  0.50655855572E+03  0.52175283053E+03  0.12499778315E+03 0.  0.
    9000005    1    3    3    0    0 -0.82456220227E+01 -0.61940558666E+02  0.25619624490E+03  0.26370843557E+03  0.10000000000E+01 0.  0.
    9000005    1    3    3    0    0  0.82456220227E+01  0.61940558666E+02  0.25036231082E+03  0.25804439496E+03  0.10000000000E+01 0.  0.
<mgrwt>
<rscale>  0 0.12499778E+03</rscale>
<asrwt>0</asrwt>
<pdfrwt beam="2">  1        4 0.11687902E-02 0.12499778E+03</pdfrwt>
<pdfrwt beam="1">  1       -4 0.79100884E-01 0.12499778E+03</pdfrwt>
<totfact> 0.54217886E+03</totfact>
</mgrwt>
</event>
<event>
 5    1  0.3246948E-002  0.1249887E+03  0.7818608E-02  0.1235087E+00
          4   -1    0    0  501    0  0.00000000000E+00  0.00000000000E+00  0.20263384293E+02  0.20303143673E+02  0.12700000000E+01 0.  1.
         -4   -1    0    0    0  501 -0.00000000000E+00 -0.00000000000E+00 -0.19250829286E+03  0.19251248199E+03  0.12700000000E+01 0.  1.
         25    2    1    2    0    0  0.00000000000E+00  0.00000000000E+00 -0.17224490857E+03  0.21281562566E+03  0.12498872748E+03 0.  0.
    9000005    1    3    3    0    0  0.82704785711E+01  0.61662623159E+01 -0.19105666854E+03  0.19133759223E+03  0.10000000000E+01 0.  0.
    9000005    1    3    3    0    0 -0.82704785711E+01 -0.61662623159E+01  0.18811759972E+02  0.21478033429E+02  0.10000000000E+01 0.  0.
<mgrwt>
<rscale>  0 0.12498873E+03</rscale>
<asrwt>0</asrwt>
<pdfrwt beam="1">  1        4 0.31208245E-02 0.12498873E+03</pdfrwt>
<pdfrwt beam="2">  1       -4 0.29620040E-01 0.12498873E+03</pdfrwt>
<totfact> 0.88040288E+03</totfact>
</mgrwt>
</event>
<event>
 5    1  0.3246948E-002  0.1249984E+03  0.7818608E-02  0.1235072E+00
          4   -1    0    0  501    0  0.00000000000E+00  0.00000000000E+00  0.16139670043E+02  0.16189559879E+02  0.12700000000E+01 0.  1.
         -4   -1    0    0    0  501 -0.00000000000E+00 -0.00000000000E+00 -0.24159654525E+03  0.24159988323E+03  0.12700000000E+01 0.  1.
         25    2    1    2    0    0  0.00000000000E+00  0.00000000000E+00 -0.22545687520E+03  0.25778944311E+03  0.12499837759E+03 0.  0.
    9000005    1    3    3    0    0  0.75652727495E+01  0.32744517287E+02 -0.22138299344E+03  0.22392156339E+03  0.10000000000E+01 0.  0.
    9000005    1    3    3    0    0 -0.75652727495E+01 -0.32744517287E+02 -0.40738817621E+01  0.33867879720E+02  0.10000000000E+01 0.  0.
<mgrwt>
<rscale>  0 0.12499838E+03</rscale>
<asrwt>0</asrwt>
<pdfrwt beam="1">  1        4 0.24871208E-02 0.12499838E+03</pdfrwt>
<pdfrwt beam="2">  1       -4 0.37172791E-01 0.12499838E+03</pdfrwt>
<totfact> 0.81220220E+03</totfact>
</mgrwt>
</event>
<event>
 5    1  0.3246948E-002  0.1250006E+03  0.7818608E-02  0.1235068E+00
         -4   -1    0    0    0  501 -0.00000000000E+00  0.00000000000E+00  0.66167698381E+03  0.66167820261E+03  0.12700000000E+01 0.  1.
          4   -1    0    0  501    0  0.00000000000E+00 -0.00000000000E+00 -0.58340756123E+01  0.59707066793E+01  0.12700000000E+01 0.  1.
         25    2    1    2    0    0  0.00000000000E+00  0.00000000000E+00  0.65584290820E+03  0.66764890928E+03  0.12500058334E+03 0.  0.
    9000005    1    3    3    0    0  0.11558894092E+01  0.32266979670E+02  0.42141980435E+02  0.53098404612E+02  0.10000000000E+01 0.  0.
    9000005    1    3    3    0    0 -0.11558894092E+01 -0.32266979670E+02  0.61370092776E+03  0.61455050467E+03  0.10000000000E+01 0.  0.
<mgrwt>
<rscale>  0 0.12500058E+03</rscale>
<asrwt>0</asrwt>
<pdfrwt beam="2">  1        4 0.90815393E-03 0.12500058E+03</pdfrwt>
<pdfrwt beam="1">  1       -4 0.10180706E+00 0.12500058E+03</pdfrwt>
<totfact> 0.44849754E+03</totfact>
</mgrwt>
</event>
<event>
 5    1  0.3246948E-002  0.1250010E+03  0.7818608E-02  0.1235068E+00
         -4   -1    0    0    0  501 -0.00000000000E+00  0.00000000000E+00  0.82502375147E+03  0.82502472895E+03  0.12700000000E+01 0. -1.
          4   -1    0    0  501    0  0.00000000000E+00 -0.00000000000E+00 -0.46486253566E+01  0.48189851324E+01  0.12700000000E+01 0. -1.
         25    2    1    2    0    0  0.00000000000E+00  0.00000000000E+00  0.82037512611E+03  0.82984371409E+03  0.12500096906E+03 0.  0.
    9000005    1    3    3    0    0 -0.39995447332E+02 -0.31929780897E+02  0.64827203888E+03  0.65028976857E+03  0.10000000000E+01 0.  0.
    9000005    1    3    3    0    0  0.39995447332E+02  0.31929780897E+02  0.17210308723E+03  0.17955394552E+03  0.10000000000E+01 0.  0.
<mgrwt>
<rscale>  0 0.12500097E+03</rscale>
<asrwt>0</asrwt>
<pdfrwt beam="2">  1        4 0.72835238E-03 0.12500097E+03</pdfrwt>
<pdfrwt beam="1">  1       -4 0.12694000E+00 0.12500097E+03</pdfrwt>
<totfact> 0.36965815E+03</totfact>
</mgrwt>
</event>
<event>
 5    1  0.3246948E-002  0.1250001E+03  0.7818608E-02  0.1235069E+00
         -4   -1    0    0    0  501 -0.00000000000E+00  0.00000000000E+00  0.36779535796E+03  0.36779755061E+03  0.12700000000E+01 0.  1.
          4   -1    0    0  501    0  0.00000000000E+00 -0.00000000000E+00 -0.10580529286E+02  0.10656476902E+02  0.12700000000E+01 0.  1.
         25    2    1    2    0    0  0.00000000000E+00  0.00000000000E+00  0.35721482867E+03  0.37845402751E+03  0.12500006847E+03 0.  0.
    9000005    1    3    3    0    0 -0.26957612035E+02  0.14431244085E+02  0.13600698020E+02  0.33480630805E+02  0.10000000000E+01 0.  0.
    9000005    1    3    3    0    0  0.26957612035E+02 -0.14431244085E+02  0.34361413065E+03  0.34497339671E+03  0.10000000000E+01 0.  0.
<mgrwt>
<rscale>  0 0.12500007E+03</rscale>
<asrwt>0</asrwt>
<pdfrwt beam="2">  1        4 0.16337847E-02 0.12500007E+03</pdfrwt>
<pdfrwt beam="1">  1       -4 0.56589907E-01 0.12500007E+03</pdfrwt>
<totfact> 0.66703565E+03</totfact>
</mgrwt>
</event>
<event>
 5    1  0.3246948E-002  0.1249957E+03  0.7818608E-02  0.1235076E+00
          4   -1    0    0  501    0  0.00000000000E+00  0.00000000000E+00  0.45582297018E+02  0.45599985761E+02  0.12700000000E+01 0.  1.
         -4   -1    0    0    0  501 -0.00000000000E+00 -0.00000000000E+00 -0.85651760284E+02  0.85661175218E+02  0.12700000000E+01 0.  1.
         25    2    1    2    0    0  0.00000000000E+00  0.00000000000E+00 -0.40069463267E+02  0.13126116098E+03  0.12499572191E+03 0.  0.
    9000005    1    3    3    0    0 -0.40206852433E+02 -0.44697485798E+02 -0.21355202566E+01  0.60166574325E+02  0.10000000000E+01 0.  0.
    9000005    1    3    3    0    0  0.40206852433E+02  0.44697485798E+02 -0.37933943010E+02  0.71094586654E+02  0.10000000000E+01 0.  0.
<mgrwt>
<rscale>  0 0.12499572E+03</rscale>
<asrwt>0</asrwt>
<pdfrwt beam="1">  1        4 0.70147460E-02 0.12499572E+03</pdfrwt>
<pdfrwt beam="2">  1       -4 0.13179279E-01 0.12499572E+03</pdfrwt>
<totfact> 0.10318490E+04</totfact>
</mgrwt>
</event>
<event>
 5    1  0.3246948E-002  0.1250019E+03  0.7818608E-02  0.1235066E+00
          4   -1    0    0  501    0  0.00000000000E+00  0.00000000000E+00  0.21436791407E+03  0.21437167603E+03  0.12700000000E+01 0.  1.
         -4   -1    0    0    0  501 -0.00000000000E+00 -0.00000000000E+00 -0.18196684282E+02  0.18240948957E+02  0.12700000000E+01 0.  1.
         25    2    1    2    0    0  0.00000000000E+00  0.00000000000E+00  0.19617122979E+03  0.23261262498E+03  0.12500192761E+03 0.  0.
    9000005    1    3    3    0    0 -0.56189935833E+02  0.21681703608E+02  0.67060608717E+02  0.90141723978E+02  0.10000000000E+01 0.  0.
    9000005    1    3    3    0    0  0.56189935833E+02 -0.21681703608E+02  0.12911062107E+03  0.14247090101E+03  0.10000000000E+01 0.  0.
<mgrwt>
<rscale>  0 0.12500193E+03</rscale>
<asrwt>0</asrwt>
<pdfrwt beam="1">  1        4 0.32983372E-01 0.12500193E+03</pdfrwt>
<pdfrwt beam="2">  1       -4 0.28031844E-02 0.12500193E+03</pdfrwt>
<totfact> 0.84906383E+03</totfact>
</mgrwt>
</event>
<event>
 5    1  0.3246948E-002  0.1250046E+03  0.7818608E-02  0.1235062E+00
          4   -1    0    0  501    0  0.00000000000E+00  0.00000000000E+00  0.14813344755E+03  0.14813889153E+03  0.12700000000E+01 0. -1.
         -4   -1    0    0    0  501 -0.00000000000E+00 -0.00000000000E+00 -0.26350527661E+02  0.26381114609E+02  0.12700000000E+01 0. -1.
         25    2    1    2    0    0  0.00000000000E+00  0.00000000000E+00  0.12178291989E+03  0.17452000614E+03  0.12500461178E+03 0.  0.
    9000005    1    3    3    0    0  0.30389095856E+02 -0.52935688376E+02  0.79614623157E+02  0.10032533315E+03  0.10000000000E+01 0.  0.
    9000005    1    3    3    0    0 -0.30389095856E+02  0.52935688376E+02  0.42168296736E+02  0.74194672993E+02  0.10000000000E+01 0.  0.
<mgrwt>
<rscale>  0 0.12500461E+03</rscale>
<asrwt>0</asrwt>
<pdfrwt beam="1">  1        4 0.22792533E-01 0.12500461E+03</pdfrwt>
<pdfrwt beam="2">  1       -4 0.40566990E-02 0.12500461E+03</pdfrwt>
<totfact> 0.94603035E+03</totfact>
</mgrwt>
</event>
<event>
 5    1  0.3246948E-002  0.1249991E+03  0.7818608E-02  0.1235071E+00
         -4   -1    0    0    0  501 -0.00000000000E+00  0.00000000000E+00  0.21315760710E+02  0.21353560702E+02  0.12700000000E+01 0. -1.
          4   -1    0    0  501    0  0.00000000000E+00 -0.00000000000E+00 -0.18305149781E+03  0.18305590335E+03  0.12700000000E+01 0. -1.
         25    2    1    2    0    0  0.00000000000E+00  0.00000000000E+00 -0.16173573710E+03  0.20440946405E+03  0.12499912135E+03 0.  0.
    9000005    1    3    3    0    0  0.40771052908E+02  0.51233635484E+01 -0.15785964029E+03  0.16312324679E+03  0.10000000000E+01 0.  0.
    9000005    1    3    3    0    0 -0.40771052908E+02 -0.51233635484E+01 -0.38760968064E+01  0.41286217261E+02  0.10000000000E+01 0.  0.
<mgrwt>
<rscale>  0 0.12499912E+03</rscale>
<asrwt>0</asrwt>
<pdfrwt beam="2">  1        4 0.28165014E-01 0.12499912E+03</pdfrwt>
<pdfrwt beam="1">  1       -4 0.32825945E-02 0.12499912E+03</pdfrwt>
<totfact> 0.89398863E+03</totfact>
</mgrwt>
</event>
<event>
 5    1  0.3246948E-002  0.1250002E+03  0.7818608E-02  0.1235069E+00
         -4   -1    0    0    0  501 -0.00000000000E+00  0.00000000000E+00  0.62122953944E+01  0.63407818183E+01  0.12700000000E+01 0.  1.
          4   -1    0    0  501    0  0.00000000000E+00 -0.00000000000E+00 -0.62223037427E+03  0.62223167033E+03  0.12700000000E+01 0.  1.
         25    2    1    2    0    0  0.00000000000E+00  0.00000000000E+00 -0.61601807887E+03  0.62857245215E+03  0.12500021640E+03 0.  0.
    9000005    1    3    3    0    0  0.43169755962E+02 -0.45182134130E+02 -0.31031589225E+03  0.31654700450E+03  0.10000000000E+01 0.  0.
    9000005    1    3    3    0    0 -0.43169755962E+02  0.45182134130E+02 -0.30570218662E+03  0.31202544765E+03  0.10000000000E+01 0.  0.
<mgrwt>
<rscale>  0 0.12500022E+03</rscale>
<asrwt>0</asrwt>
<pdfrwt beam="2">  1        4 0.95737685E-01 0.12500022E+03</pdfrwt>
<pdfrwt beam="1">  1       -4 0.96572151E-03 0.12500022E+03</pdfrwt>
<totfact> 0.47112111E+03</totfact>
</mgrwt>
</event>
<event>
 5    1  0.3246948E-002  0.1249916E+03  0.7818608E-02  0.1235082E+00
          4   -1    0    0  501    0  0.00000000000E+00  0.00000000000E+00  0.16457639661E+03  0.16458129670E+03  0.12700000000E+01 0. -1.
         -4   -1    0    0    0  501 -0.00000000000E+00 -0.00000000000E+00 -0.23709752841E+02  0.23743741908E+02  0.12700000000E+01 0. -1.
         25    2    1    2    0    0  0.00000000000E+00  0.00000000000E+00  0.14086664377E+03  0.18832503861E+03  0.12499163507E+03 0.  0.
    9000005    1    3    3    0    0  0.60106570173E+02  0.93619380248E+01  0.91968163691E+02  0.11027052550E+03  0.10000000000E+01 0.  0.
    9000005    1    3    3    0    0 -0.60106570173E+02 -0.93619380248E+01  0.48898480083E+02  0.78054513104E+02  0.10000000000E+01 0.  0.
<mgrwt>
<rscale>  0 0.12499164E+03</rscale>
<asrwt>0</asrwt>
<pdfrwt beam="1">  1        4 0.25322437E-01 0.12499164E+03</pdfrwt>
<pdfrwt beam="2">  1       -4 0.36506457E-02 0.12499164E+03</pdfrwt>
<totfact> 0.92156840E+03</totfact>
</mgrwt>
</event>
<event>
 5    1  0.3246948E-002  0.1249991E+03  0.7818608E-02  0.1235071E+00
         -4   -1    0    0    0  501 -0.00000000000E+00  0.00000000000E+00  0.18301182851E+03  0.18301623500E+03  0.12700000000E+01 0. -1.
          4   -1    0    0  501    0  0.00000000000E+00 -0.00000000000E+00 -0.21320376359E+02  0.21358168182E+02  0.12700000000E+01 0. -1.
         25    2    1    2    0    0  0.00000000000E+00  0.00000000000E+00  0.16169145215E+03  0.20437440318E+03  0.12499908391E+03 0.  0.
    9000005    1    3    3    0    0  0.58889057543E+01 -0.31735125906E+02  0.16833611090E+03  0.17140549484E+03  0.10000000000E+01 0.  0.
    9000005    1    3    3    0    0 -0.58889057543E+01  0.31735125906E+02 -0.66446587564E+01  0.32968908342E+02  0.10000000000E+01 0.  0.
<mgrwt>
<rscale>  0 0.12499908E+03</rscale>
<asrwt>0</asrwt>
<pdfrwt beam="2">  1        4 0.32833039E-02 0.12499908E+03</pdfrwt>
<pdfrwt beam="1">  1       -4 0.28158912E-01 0.12499908E+03</pdfrwt>
<totfact> 0.89404767E+03</totfact>
</mgrwt>
</event>
<event>
 5    1  0.3246948E-002  0.1250007E+03  0.7818608E-02  0.1235068E+00
         -4   -1    0    0    0  501 -0.00000000000E+00  0.00000000000E+00  0.38447234276E+02  0.38468204058E+02  0.12700000000E+01 0.  1.
          4   -1    0    0  501    0  0.00000000000E+00 -0.00000000000E+00 -0.10154882178E+03  0.10155676297E+03  0.12700000000E+01 0.  1.
         25    2    1    2    0    0  0.00000000000E+00  0.00000000000E+00 -0.63101587507E+02  0.14002496703E+03  0.12500072418E+03 0.  0.
    9000005    1    3    3    0    0 -0.28794156205E+02 -0.46761804766E+02  0.18588725432E+01  0.54956575800E+02  0.10000000000E+01 0.  0.
    9000005    1    3    3    0    0  0.28794156205E+02  0.46761804766E+02 -0.64960460050E+02  0.85068391230E+02  0.10000000000E+01 0.  0.
<mgrwt>
<rscale>  0 0.12500072E+03</rscale>
<asrwt>0</asrwt>
<pdfrwt beam="2">  1        4 0.15625119E-01 0.12500072E+03</pdfrwt>
<pdfrwt beam="1">  1       -4 0.59171831E-02 0.12500072E+03</pdfrwt>
<totfact> 0.10132903E+04</totfact>
</mgrwt>
</event>
<event>
 5    1  0.3246948E-002  0.1249980E+03  0.7818608E-02  0.1235072E+00
          4   -1    0    0  501    0  0.00000000000E+00  0.00000000000E+00  0.94403571031E+01  0.95253998464E+01  0.12700000000E+01 0.  1.
         -4   -1    0    0    0  501 -0.00000000000E+00 -0.00000000000E+00 -0.41182770982E+03  0.41182966804E+03  0.12700000000E+01 0.  1.
         25    2    1    2    0    0  0.00000000000E+00  0.00000000000E+00 -0.40238735272E+03  0.42135506789E+03  0.12499804640E+03 0.  0.
    9000005    1    3    3    0    0 -0.38689222721E+02 -0.45175918216E+02 -0.26580661793E+03  0.27238186004E+03  0.10000000000E+01 0.  0.
    9000005    1    3    3    0    0  0.38689222721E+02  0.45175918216E+02 -0.13658073479E+03  0.14897320785E+03  0.10000000000E+01 0.  0.
<mgrwt>
<rscale>  0 0.12499805E+03</rscale>
<asrwt>0</asrwt>
<pdfrwt beam="1">  1        4 0.14590553E-02 0.12499805E+03</pdfrwt>
<pdfrwt beam="2">  1       -4 0.63364788E-01 0.12499805E+03</pdfrwt>
<totfact> 0.62530196E+03</totfact>
</mgrwt>
</event>
<event>
 5    1  0.3246948E-002  0.1250010E+03  0.7818608E-02  0.1235068E+00
         -4   -1    0    0    0  501 -0.00000000000E+00  0.00000000000E+00  0.59819569014E+03  0.59819703827E+03  0.12700000000E+01 0. -1.
          4   -1    0    0  501    0  0.00000000000E+00 -0.00000000000E+00 -0.64670430513E+01  0.65905649096E+01  0.12700000000E+01 0. -1.
         25    2    1    2    0    0  0.00000000000E+00  0.00000000000E+00  0.59172864708E+03  0.60478760318E+03  0.12500101272E+03 0.  0.
    9000005    1    3    3    0    0  0.24135426169E+02  0.25267343337E+02  0.54653838257E+03  0.54765514794E+03  0.10000000000E+01 0.  0.
    9000005    1    3    3    0    0 -0.24135426169E+02 -0.25267343337E+02  0.45190264510E+02  0.57132455244E+02  0.10000000000E+01 0.  0.
<mgrwt>
<rscale>  0 0.12500101E+03</rscale>
<asrwt>0</asrwt>
<pdfrwt beam="2">  1        4 0.10045353E-02 0.12500101E+03</pdfrwt>
<pdfrwt beam="1">  1       -4 0.92039694E-01 0.12500101E+03</pdfrwt>
<totfact> 0.48565719E+03</totfact>
</mgrwt>
</event>
<event>
 5    1  0.3246948E-002  0.1249979E+03  0.7818608E-02  0.1235073E+00
         -4   -1    0    0    0  501 -0.00000000000E+00  0.00000000000E+00  0.19255479580E+03  0.19255898392E+03  0.12700000000E+01 0.  1.
          4   -1    0    0  501    0  0.00000000000E+00 -0.00000000000E+00 -0.20261464196E+02  0.20301227336E+02  0.12700000000E+01 0.  1.
         25    2    1    2    0    0  0.00000000000E+00  0.00000000000E+00  0.17229333161E+03  0.21286021125E+03  0.12499790966E+03 0.  0.
    9000005    1    3    3    0    0  0.45389265959E+02  0.55272298689E+01  0.13610215844E+02  0.47717645684E+02  0.10000000000E+01 0.  0.
    9000005    1    3    3    0    0 -0.45389265959E+02 -0.55272298689E+01  0.15868311576E+03  0.16514256557E+03  0.10000000000E+01 0.  0.
<mgrwt>
<rscale>  0 0.12499791E+03</rscale>
<asrwt>0</asrwt>
<pdfrwt beam="2">  1        4 0.31205291E-02 0.12499791E+03</pdfrwt>
<pdfrwt beam="1">  1       -4 0.29627197E-01 0.12499791E+03</pdfrwt>
<totfact> 0.88015002E+03</totfact>
</mgrwt>
</event>
<event>
 5    1  0.3246948E-002  0.1249997E+03  0.7818608E-02  0.1235070E+00
         -4   -1    0    0    0  501 -0.00000000000E+00  0.00000000000E+00  0.81970303562E+02  0.81980141290E+02  0.12700000000E+01 0. -1.
          4   -1    0    0  501    0  0.00000000000E+00 -0.00000000000E+00 -0.47633036322E+02  0.47649963791E+02  0.12700000000E+01 0. -1.
         25    2    1    2    0    0  0.00000000000E+00  0.00000000000E+00  0.34337267239E+02  0.12963010508E+03  0.12499966489E+03 0.  0.
    9000005    1    3    3    0    0  0.11376482160E+02  0.13672603230E+02 -0.44957676898E+02  0.48358630435E+02  0.10000000000E+01 0.  0.
    9000005    1    3    3    0    0 -0.11376482160E+02 -0.13672603230E+02  0.79294944138E+02  0.81271474647E+02  0.10000000000E+01 0.  0.
<mgrwt>
<rscale>  0 0.12499966E+03</rscale>
<asrwt>0</asrwt>
<pdfrwt beam="2">  1        4 0.73302184E-02 0.12499966E+03</pdfrwt>
<pdfrwt beam="1">  1       -4 0.12612875E-01 0.12499966E+03</pdfrwt>
<totfact> 0.10352505E+04</totfact>
</mgrwt>
</event>
<event>
 5    1  0.3246948E-002  0.1250026E+03  0.7818608E-02  0.1235065E+00
         -4   -1    0    0    0  501 -0.00000000000E+00  0.00000000000E+00  0.11349555783E+03  0.11350266318E+03  0.12700000000E+01 0. -1.
          4   -1    0    0  501    0  0.00000000000E+00 -0.00000000000E+00 -0.34399195718E+02  0.34422631597E+02  0.12700000000E+01 0. -1.
         25    2    1    2    0    0  0.00000000000E+00  0.00000000000E+00  0.79096362115E+02  0.14792529477E+03  0.12500263331E+03 0.  0.
    9000005    1    3    3    0    0  0.31662500590E+02  0.27151807665E+02 -0.15522496823E+02  0.44516092716E+02  0.10000000000E+01 0.  0.
    9000005    1    3    3    0    0 -0.31662500590E+02 -0.27151807665E+02  0.94618858939E+02  0.10340920206E+03  0.10000000000E+01 0.  0.
<mgrwt>
<rscale>  0 0.12500263E+03</rscale>
<asrwt>0</asrwt>
<pdfrwt beam="2">  1        4 0.52945333E-02 0.12500263E+03</pdfrwt>
<pdfrwt beam="1">  1       -4 0.17463204E-01 0.12500263E+03</pdfrwt>
<totfact> 0.99712967E+03</totfact>
</mgrwt>
</event>
<event>
 5    1  0.3246948E-002  0.1250022E+03  0.7818608E-02  0.1235066E+00
          4   -1    0    0  501    0  0.00000000000E+00  0.00000000000E+00  0.23915180811E+03  0.23915518022E+03  0.12700000000E+01 0.  1.
         -4   -1    0    0    0  501 -0.00000000000E+00 -0.00000000000E+00 -0.16306162893E+02  0.16355544879E+02  0.12700000000E+01 0.  1.
         25    2    1    2    0    0  0.00000000000E+00  0.00000000000E+00  0.22284564522E+03  0.25551072509E+03  0.12500219616E+03 0.  0.
    9000005    1    3    3    0    0 -0.19590651143E+02 -0.35820171630E+02  0.20813271702E+03  0.21210164121E+03  0.10000000000E+01 0.  0.
    9000005    1    3    3    0    0  0.19590651143E+02  0.35820171630E+02  0.14712928200E+02  0.43409083889E+02  0.10000000000E+01 0.  0.
<mgrwt>
<rscale>  0 0.12500220E+03</rscale>
<asrwt>0</asrwt>
<pdfrwt beam="1">  1        4 0.36796642E-01 0.12500220E+03</pdfrwt>
<pdfrwt beam="2">  1       -4 0.25126986E-02 0.12500220E+03</pdfrwt>
<totfact> 0.81536237E+03</totfact>
</mgrwt>
</event>
<event>
 5    1  0.3246948E-002  0.1249943E+03  0.7818608E-02  0.1235078E+00
         -4   -1    0    0    0  501 -0.00000000000E+00  0.00000000000E+00  0.11393758696E+02  0.11464320182E+02  0.12700000000E+01 0.  1.
          4   -1    0    0  501    0  0.00000000000E+00 -0.00000000000E+00 -0.34168006211E+03  0.34168242235E+03  0.12700000000E+01 0.  1.
         25    2    1    2    0    0  0.00000000000E+00  0.00000000000E+00 -0.33028630342E+03  0.35314674254E+03  0.12499431803E+03 0.  0.
    9000005    1    3    3    0    0 -0.74188554894E+01  0.49859836740E+02 -0.26948261040E+03  0.27415856734E+03  0.10000000000E+01 0.  0.
    9000005    1    3    3    0    0  0.74188554894E+01 -0.49859836740E+02 -0.60803693012E+02  0.78988175194E+02  0.10000000000E+01 0.  0.
<mgrwt>
<rscale>  0 0.12499432E+03</rscale>
<asrwt>0</asrwt>
<pdfrwt beam="2">  1        4 0.52571765E-01 0.12499432E+03</pdfrwt>
<pdfrwt beam="1">  1       -4 0.17584956E-02 0.12499432E+03</pdfrwt>
<totfact> 0.69388484E+03</totfact>
</mgrwt>
</event>
<event>
 5    1  0.3246948E-002  0.1249932E+03  0.7818608E-02  0.1235080E+00
          4   -1    0    0  501    0  0.00000000000E+00  0.00000000000E+00  0.75481590960E+01  0.76542540942E+01  0.12700000000E+01 0. -1.
         -4   -1    0    0    0  501 -0.00000000000E+00 -0.00000000000E+00 -0.51373580168E+03  0.51373737145E+03  0.12700000000E+01 0. -1.
         25    2    1    2    0    0  0.00000000000E+00  0.00000000000E+00 -0.50618764258E+03  0.52139162554E+03  0.12499319056E+03 0.  0.
    9000005    1    3    3    0    0 -0.44553154306E+02  0.22345288546E+02 -0.95875649862E+02  0.10806218448E+03  0.10000000000E+01 0.  0.
    9000005    1    3    3    0    0  0.44553154306E+02 -0.22345288546E+02 -0.41031199272E+03  0.41332944106E+03  0.10000000000E+01 0.  0.
<mgrwt>
<rscale>  0 0.12499319E+03</rscale>
<asrwt>0</asrwt>
<pdfrwt beam="1">  1        4 0.11695376E-02 0.12499319E+03</pdfrwt>
<pdfrwt beam="2">  1       -4 0.79044532E-01 0.12499319E+03</pdfrwt>
<totfact> 0.54250145E+03</totfact>
</mgrwt>
</event>
<event>
 5    1  0.3246948E-002  0.1250511E+03  0.7818608E-02  0.1234989E+00
         -4   -1    0    0    0  501 -0.00000000000E+00  0.00000000000E+00  0.24819590435E+02  0.24852061672E+02  0.12700000000E+01 0.  1.
          4   -1    0    0  501    0  0.00000000000E+00 -0.00000000000E+00 -0.15737644375E+03  0.15738156801E+03  0.12700000000E+01 0.  1.
         25    2    1    2    0    0  0.00000000000E+00  0.00000000000E+00 -0.13255685332E+03  0.18223362968E+03  0.12505109525E+03 0.  0.
    9000005    1    3    3    0    0  0.20404086819E+02  0.32933129787E+02 -0.13778180253E+03  0.14312841403E+03  0.10000000000E+01 0.  0.
    9000005    1    3    3    0    0 -0.20404086819E+02 -0.32933129787E+02  0.52249492075E+01  0.39105215646E+02  0.10000000000E+01 0.  0.
<mgrwt>
<rscale>  0 0.12505110E+03</rscale>
<asrwt>0</asrwt>
<pdfrwt beam="2">  1        4 0.24214652E-01 0.12505110E+03</pdfrwt>
<pdfrwt beam="1">  1       -4 0.38212906E-02 0.12505110E+03</pdfrwt>
<totfact> 0.93109791E+03</totfact>
</mgrwt>
</event>
<event>
 5    1  0.3246948E-002  0.1249947E+03  0.7818608E-02  0.1235078E+00
          4   -1    0    0  501    0  0.00000000000E+00  0.00000000000E+00  0.43953468576E+02  0.43971812560E+02  0.12700000000E+01 0. -1.
         -4   -1    0    0    0  501 -0.00000000000E+00 -0.00000000000E+00 -0.88823381409E+02  0.88832460198E+02  0.12700000000E+01 0. -1.
         25    2    1    2    0    0  0.00000000000E+00  0.00000000000E+00 -0.44869912833E+02  0.13280427276E+03  0.12499466303E+03 0.  0.
    9000005    1    3    3    0    0  0.32263232694E+02  0.66538633758E+01  0.33983871607E+02  0.47340190231E+02  0.10000000000E+01 0.  0.
    9000005    1    3    3    0    0 -0.32263232694E+02 -0.66538633758E+01 -0.78853784440E+02  0.85464082528E+02  0.10000000000E+01 0.  0.
<mgrwt>
<rscale>  0 0.12499466E+03</rscale>
<asrwt>0</asrwt>
<pdfrwt beam="1">  1        4 0.67641815E-02 0.12499466E+03</pdfrwt>
<pdfrwt beam="2">  1       -4 0.13667245E-01 0.12499466E+03</pdfrwt>
<totfact> 0.10285800E+04</totfact>
</mgrwt>
</event>
<event>
 5    1  0.3246948E-002  0.1249972E+03  0.7818608E-02  0.1235074E+00
         -4   -1    0    0    0  501 -0.00000000000E+00  0.00000000000E+00  0.50521815812E+02  0.50537775702E+02  0.12700000000E+01 0.  1.
          4   -1    0    0  501    0  0.00000000000E+00 -0.00000000000E+00 -0.77281260167E+02  0.77291694722E+02  0.12700000000E+01 0.  1.
         25    2    1    2    0    0  0.00000000000E+00  0.00000000000E+00 -0.26759444355E+02  0.12782947042E+03  0.12499722256E+03 0.  0.
    9000005    1    3    3    0    0 -0.43494931883E+01 -0.15881557977E+02  0.48268303195E+02  0.51009519387E+02  0.10000000000E+01 0.  0.
    9000005    1    3    3    0    0  0.43494931883E+01  0.15881557977E+02 -0.75027747550E+02  0.76819951037E+02  0.10000000000E+01 0.  0.
<mgrwt>
<rscale>  0 0.12499722E+03</rscale>
<asrwt>0</asrwt>
<pdfrwt beam="2">  1        4 0.11891455E-01 0.12499722E+03</pdfrwt>
<pdfrwt beam="1">  1       -4 0.77746174E-02 0.12499722E+03</pdfrwt>
<totfact> 0.10391824E+04</totfact>
</mgrwt>
</event>
<event>
 5    1  0.3246948E-002  0.1250002E+03  0.7818608E-02  0.1235069E+00
         -4   -1    0    0    0  501 -0.00000000000E+00  0.00000000000E+00  0.49168438609E+03  0.49168602627E+03  0.12700000000E+01 0. -1.
          4   -1    0    0  501    0  0.00000000000E+00 -0.00000000000E+00 -0.78922409734E+01  0.79937705485E+01  0.12700000000E+01 0. -1.
         25    2    1    2    0    0  0.00000000000E+00  0.00000000000E+00  0.48379214512E+03  0.49967979682E+03  0.12500023867E+03 0.  0.
    9000005    1    3    3    0    0  0.55448608275E+02  0.28564117675E+02  0.22651352551E+03  0.23494644968E+03  0.10000000000E+01 0.  0.
    9000005    1    3    3    0    0 -0.55448608275E+02 -0.28564117675E+02  0.25727861961E+03  0.26473334714E+03  0.10000000000E+01 0.  0.
<mgrwt>
<rscale>  0 0.12500024E+03</rscale>
<asrwt>0</asrwt>
<pdfrwt beam="2">  1        4 0.12221269E-02 0.12500024E+03</pdfrwt>
<pdfrwt beam="1">  1       -4 0.75651699E-01 0.12500024E+03</pdfrwt>
<totfact> 0.55888919E+03</totfact>
</mgrwt>
</event>
<event>
 5    1  0.3246948E-002  0.1249967E+03  0.7818608E-02  0.1235074E+00
          4   -1    0    0  501    0  0.00000000000E+00  0.00000000000E+00  0.55682663252E+03  0.55682808082E+03  0.12700000000E+01 0.  1.
         -4   -1    0    0    0  501 -0.00000000000E+00 -0.00000000000E+00 -0.69558738393E+01  0.70708613951E+01  0.12700000000E+01 0.  1.
         25    2    1    2    0    0  0.00000000000E+00  0.00000000000E+00  0.54987075868E+03  0.56389894221E+03  0.12499666305E+03 0.  0.
    9000005    1    3    3    0    0 -0.47934938504E+02 -0.36199927047E+02  0.19720868213E+03  0.20615639053E+03  0.10000000000E+01 0.  0.
    9000005    1    3    3    0    0  0.47934938504E+02  0.36199927047E+02  0.35266207655E+03  0.35774255168E+03  0.10000000000E+01 0.  0.
<mgrwt>
<rscale>  0 0.12499666E+03</rscale>
<asrwt>0</asrwt>
<pdfrwt beam="1">  1        4 0.85674606E-01 0.12499666E+03</pdfrwt>
<pdfrwt beam="2">  1       -4 0.10790909E-02 0.12499666E+03</pdfrwt>
<totfact> 0.51232444E+03</totfact>
</mgrwt>
</event>
<event>
 5    1  0.3246948E-002  0.1249989E+03  0.7818608E-02  0.1235071E+00
          4   -1    0    0  501    0  0.00000000000E+00  0.00000000000E+00  0.58028460538E+01  0.59401954786E+01  0.12700000000E+01 0.  1.
         -4   -1    0    0    0  501 -0.00000000000E+00 -0.00000000000E+00 -0.66513753836E+03  0.66513875081E+03  0.12700000000E+01 0.  1.
         25    2    1    2    0    0  0.00000000000E+00  0.00000000000E+00 -0.65933469230E+03  0.67107894629E+03  0.12499886271E+03 0.  0.
    9000005    1    3    3    0    0  0.62486599422E+02 -0.26308861218E+00 -0.32574197406E+03  0.33168279725E+03  0.10000000000E+01 0.  0.
    9000005    1    3    3    0    0 -0.62486599422E+02  0.26308861218E+00 -0.33359271824E+03  0.33939614905E+03  0.10000000000E+01 0.  0.
<mgrwt>
<rscale>  0 0.12499886E+03</rscale>
<asrwt>0</asrwt>
<pdfrwt beam="1">  1        4 0.90340468E-03 0.12499886E+03</pdfrwt>
<pdfrwt beam="2">  1       -4 0.10233945E+00 0.12499886E+03</pdfrwt>
<totfact> 0.44659119E+03</totfact>
</mgrwt>
</event>
<event>
 5    1  0.3246948E-002  0.1250004E+03  0.7818608E-02  0.1235069E+00
          4   -1    0    0  501    0  0.00000000000E+00  0.00000000000E+00  0.60961657943E+01  0.62270488509E+01  0.12700000000E+01 0.  1.
         -4   -1    0    0    0  501 -0.00000000000E+00 -0.00000000000E+00 -0.63383821351E+03  0.63383948583E+03  0.12700000000E+01 0.  1.
         25    2    1    2    0    0  0.00000000000E+00  0.00000000000E+00 -0.62774204771E+03  0.64006653469E+03  0.12500036143E+03 0.  0.
    9000005    1    3    3    0    0 -0.24365605826E+02 -0.57541873904E+02 -0.31016938370E+03  0.31640290230E+03  0.10000000000E+01 0.  0.
    9000005    1    3    3    0    0  0.24365605826E+02  0.57541873904E+02 -0.31757266401E+03  0.32366363238E+03  0.10000000000E+01 0.  0.
<mgrwt>
<rscale>  0 0.12500036E+03</rscale>
<asrwt>0</asrwt>
<pdfrwt beam="1">  1        4 0.94803796E-03 0.12500036E+03</pdfrwt>
<pdfrwt beam="2">  1       -4 0.97523685E-01 0.12500036E+03</pdfrwt>
<totfact> 0.46431974E+03</totfact>
</mgrwt>
</event>
<event>
 5    1  0.3246948E-002  0.1250001E+03  0.7818608E-02  0.1235069E+00
          4   -1    0    0  501    0  0.00000000000E+00  0.00000000000E+00  0.11392359646E+04  0.11392366725E+04  0.12700000000E+01 0. -1.
         -4   -1    0    0    0  501 -0.00000000000E+00 -0.00000000000E+00 -0.33105064463E+01  0.35457513916E+01  0.12700000000E+01 0. -1.
         25    2    1    2    0    0  0.00000000000E+00  0.00000000000E+00  0.11359254581E+04  0.11427824238E+04  0.12500008737E+03 0.  0.
    9000005    1    3    3    0    0 -0.32584532994E+02 -0.31467509093E+02  0.17438905151E+03  0.18017906983E+03  0.10000000000E+01 0.  0.
    9000005    1    3    3    0    0  0.32584532994E+02  0.31467509093E+02  0.96153640661E+03  0.96260335401E+03  0.10000000000E+01 0.  0.
<mgrwt>
<rscale>  0 0.12500009E+03</rscale>
<asrwt>0</asrwt>
<pdfrwt beam="1">  1        4 0.17528542E+00 0.12500009E+03</pdfrwt>
<pdfrwt beam="2">  1       -4 0.52745830E-03 0.12500009E+03</pdfrwt>
<totfact> 0.26261258E+03</totfact>
</mgrwt>
</event>
<event>
 5    1  0.3246948E-002  0.1249934E+03  0.7818608E-02  0.1235080E+00
         -4   -1    0    0    0  501 -0.00000000000E+00  0.00000000000E+00  0.34822699647E+03  0.34822931234E+03  0.12700000000E+01 0. -1.
          4   -1    0    0  501    0  0.00000000000E+00 -0.00000000000E+00 -0.11178049705E+02  0.11249964232E+02  0.12700000000E+01 0. -1.
         25    2    1    2    0    0  0.00000000000E+00  0.00000000000E+00  0.33704894676E+03  0.35947927657E+03  0.12499343090E+03 0.  0.
    9000005    1    3    3    0    0  0.51912374634E+02 -0.16842700518E+02  0.25605409616E+03  0.26180769920E+03  0.10000000000E+01 0.  0.
    9000005    1    3    3    0    0 -0.51912374634E+02  0.16842700518E+02  0.80994850605E+02  0.97671577367E+02  0.10000000000E+01 0.  0.
<mgrwt>
<rscale>  0 0.12499343E+03</rscale>
<asrwt>0</asrwt>
<pdfrwt beam="2">  1        4 0.17254101E-02 0.12499343E+03</pdfrwt>
<pdfrwt beam="1">  1       -4 0.53579089E-01 0.12499343E+03</pdfrwt>
<totfact> 0.68704140E+03</totfact>
</mgrwt>
</event>
<event>
 5    1  0.3246948E-002  0.1249994E+03  0.7818608E-02  0.1235070E+00
         -4   -1    0    0    0  501 -0.00000000000E+00  0.00000000000E+00  0.14396818823E+02  0.14452726118E+02  0.12700000000E+01 0.  1.
          4   -1    0    0  501    0  0.00000000000E+00 -0.00000000000E+00 -0.27074143911E+03  0.27074441776E+03  0.12700000000E+01 0.  1.
         25    2    1    2    0    0  0.00000000000E+00  0.00000000000E+00 -0.25634462029E+03  0.28519714388E+03  0.12499938612E+03 0.  0.
    9000005    1    3    3    0    0  0.52169454677E+02 -0.30876302582E+02 -0.16279037216E+03  0.17371443040E+03  0.10000000000E+01 0.  0.
    9000005    1    3    3    0    0 -0.52169454677E+02  0.30876302582E+02 -0.93554248131E+02  0.11148271348E+03  0.10000000000E+01 0.  0.
<mgrwt>
<rscale>  0 0.12499939E+03</rscale>
<asrwt>0</asrwt>
<pdfrwt beam="2">  1        4 0.41657055E-01 0.12499939E+03</pdfrwt>
<pdfrwt beam="1">  1       -4 0.22194251E-02 0.12499939E+03</pdfrwt>
<totfact> 0.77495069E+03</totfact>
</mgrwt>
</event>
<event>
 5    1  0.3246948E-002  0.1250076E+03  0.7818608E-02  0.1235057E+00
         -4   -1    0    0    0  501 -0.00000000000E+00  0.00000000000E+00  0.11595443364E+03  0.11596138832E+03  0.12700000000E+01 0.  1.
          4   -1    0    0  501    0  0.00000000000E+00 -0.00000000000E+00 -0.33671976231E+02  0.33695917903E+02  0.12700000000E+01 0.  1.
         25    2    1    2    0    0  0.00000000000E+00  0.00000000000E+00  0.82282457408E+02  0.14965730622E+03  0.12500762580E+03 0.  0.
    9000005    1    3    3    0    0  0.41542732541E+02  0.40245452443E+02  0.69477663080E+02  0.90408189543E+02  0.10000000000E+01 0.  0.
    9000005    1    3    3    0    0 -0.41542732541E+02 -0.40245452443E+02  0.12804794328E+02  0.59249116678E+02  0.10000000000E+01 0.  0.
<mgrwt>
<rscale>  0 0.12500763E+03</rscale>
<asrwt>0</asrwt>
<pdfrwt beam="2">  1        4 0.51826807E-02 0.12500763E+03</pdfrwt>
<pdfrwt beam="1">  1       -4 0.17841520E-01 0.12500763E+03</pdfrwt>
<totfact> 0.99354999E+03</totfact>
</mgrwt>
</event>
<event>
 5    1  0.3246948E-002  0.1249980E+03  0.7818608E-02  0.1235072E+00
         -4   -1    0    0    0  501 -0.00000000000E+00  0.00000000000E+00  0.12174889706E+02  0.12240949283E+02  0.12700000000E+01 0. -1.
          4   -1    0    0  501    0  0.00000000000E+00 -0.00000000000E+00 -0.31989922287E+03  0.31990174381E+03  0.12700000000E+01 0. -1.
         25    2    1    2    0    0  0.00000000000E+00  0.00000000000E+00 -0.30772433317E+03  0.33214269310E+03  0.12499801340E+03 0.  0.
    9000005    1    3    3    0    0 -0.57078285129E+02 -0.22814047250E+02 -0.12395090925E+03  0.13835909543E+03  0.10000000000E+01 0.  0.
    9000005    1    3    3    0    0  0.57078285129E+02  0.22814047250E+02 -0.18377342392E+03  0.19378359766E+03  0.10000000000E+01 0.  0.
<mgrwt>
<rscale>  0 0.12499801E+03</rscale>
<asrwt>0</asrwt>
<pdfrwt beam="2">  1        4 0.49220534E-01 0.12499801E+03</pdfrwt>
<pdfrwt beam="1">  1       -4 0.18783356E-02 0.12499801E+03</pdfrwt>
<totfact> 0.71737973E+03</totfact>
</mgrwt>
</event>
<event>
 5    1  0.3246948E-002  0.1250036E+03  0.7818608E-02  0.1235064E+00
         -4   -1    0    0    0  501 -0.00000000000E+00  0.00000000000E+00  0.10817143520E+04  0.10817150976E+04  0.12700000000E+01 0.  1.
          4   -1    0    0  501    0  0.00000000000E+00 -0.00000000000E+00 -0.34989504266E+01  0.37223049428E+01  0.12700000000E+01 0.  1.
         25    2    1    2    0    0  0.00000000000E+00  0.00000000000E+00  0.10782154016E+04  0.10854374025E+04  0.12500360993E+03 0.  0.
    9000005    1    3    3    0    0  0.57290646396E+02  0.67460601861E+01  0.33039373878E+03  0.33539342587E+03  0.10000000000E+01 0.  0.
    9000005    1    3    3    0    0 -0.57290646396E+02 -0.67460601861E+01  0.74782166284E+03  0.75004397665E+03  0.10000000000E+01 0.  0.
<mgrwt>
<rscale>  0 0.12500361E+03</rscale>
<asrwt>0</asrwt>
<pdfrwt beam="2">  1        4 0.55553869E-03 0.12500361E+03</pdfrwt>
<pdfrwt beam="1">  1       -4 0.16643478E+00 0.12500361E+03</pdfrwt>
<totfact> 0.27911359E+03</totfact>
</mgrwt>
</event>
<event>
 5    1  0.3246948E-002  0.1249977E+03  0.7818608E-02  0.1235073E+00
         -4   -1    0    0    0  501 -0.00000000000E+00  0.00000000000E+00  0.39362692097E+02  0.39383174442E+02  0.12700000000E+01 0.  1.
          4   -1    0    0  501    0  0.00000000000E+00 -0.00000000000E+00 -0.99183348426E+02  0.99191478994E+02  0.12700000000E+01 0.  1.
         25    2    1    2    0    0  0.00000000000E+00  0.00000000000E+00 -0.59820656329E+02  0.13857465344E+03  0.12499769458E+03 0.  0.
    9000005    1    3    3    0    0  0.33021526268E+02 -0.18541383483E+01 -0.88690559612E+02  0.94661895134E+02  0.10000000000E+01 0.  0.
    9000005    1    3    3    0    0 -0.33021526268E+02  0.18541383483E+01  0.28869903283E+02  0.43912758302E+02  0.10000000000E+01 0.  0.
<mgrwt>
<rscale>  0 0.12499769E+03</rscale>
<asrwt>0</asrwt>
<pdfrwt beam="2">  1        4 0.15261178E-01 0.12499769E+03</pdfrwt>
<pdfrwt beam="1">  1       -4 0.60579998E-02 0.12499769E+03</pdfrwt>
<totfact> 0.10163740E+04</totfact>
</mgrwt>
</event>
<event>
 5    1  0.3246948E-002  0.1250004E+03  0.7818608E-02  0.1235069E+00
         -4   -1    0    0    0  501 -0.00000000000E+00  0.00000000000E+00  0.18325890548E+03  0.18326330603E+03  0.12700000000E+01 0.  1.
          4   -1    0    0  501    0  0.00000000000E+00 -0.00000000000E+00 -0.21292025064E+02  0.21329867119E+02  0.12700000000E+01 0.  1.
         25    2    1    2    0    0  0.00000000000E+00  0.00000000000E+00  0.16196688042E+03  0.20459317315E+03  0.12500038459E+03 0.  0.
    9000005    1    3    3    0    0  0.30206263440E+02 -0.37878381491E+02  0.14558979069E+03  0.15344242337E+03  0.10000000000E+01 0.  0.
    9000005    1    3    3    0    0 -0.30206263440E+02  0.37878381491E+02  0.16377089722E+02  0.51150749781E+02  0.10000000000E+01 0.  0.
<mgrwt>
<rscale>  0 0.12500038E+03</rscale>
<asrwt>0</asrwt>
<pdfrwt beam="2">  1        4 0.32789457E-02 0.12500038E+03</pdfrwt>
<pdfrwt beam="1">  1       -4 0.28196926E-01 0.12500038E+03</pdfrwt>
<totfact> 0.89365802E+03</totfact>
</mgrwt>
</event>
<event>
 5    1  0.3246948E-002  0.1250072E+03  0.7818608E-02  0.1235058E+00
         -4   -1    0    0    0  501 -0.00000000000E+00  0.00000000000E+00  0.24609265324E+03  0.24609593023E+03  0.12700000000E+01 0.  1.
          4   -1    0    0  501    0  0.00000000000E+00 -0.00000000000E+00 -0.15846139368E+02  0.15896950427E+02  0.12700000000E+01 0.  1.
         25    2    1    2    0    0  0.00000000000E+00  0.00000000000E+00  0.23024651387E+03  0.26199288066E+03  0.12500724926E+03 0.  0.
    9000005    1    3    3    0    0  0.30044224069E+01 -0.15799493438E+02  0.24169166027E+03  0.24222821717E+03  0.10000000000E+01 0.  0.
    9000005    1    3    3    0    0 -0.30044224069E+01  0.15799493438E+02 -0.11445146402E+02  0.19764663495E+02  0.10000000000E+01 0.  0.
<mgrwt>
<rscale>  0 0.12500725E+03</rscale>
<asrwt>0</asrwt>
<pdfrwt beam="2">  1        4 0.24420283E-02 0.12500725E+03</pdfrwt>
<pdfrwt beam="1">  1       -4 0.37864568E-01 0.12500725E+03</pdfrwt>
<totfact> 0.80614192E+03</totfact>
</mgrwt>
</event>
<event>
 5    1  0.3246948E-002  0.1249990E+03  0.7818608E-02  0.1235071E+00
          4   -1    0    0  501    0  0.00000000000E+00  0.00000000000E+00  0.20566470610E+03  0.20566862725E+03  0.12700000000E+01 0. -1.
         -4   -1    0    0    0  501 -0.00000000000E+00 -0.00000000000E+00 -0.18967649133E+02  0.19010118717E+02  0.12700000000E+01 0. -1.
         25    2    1    2    0    0  0.00000000000E+00  0.00000000000E+00  0.18669705696E+03  0.22467874596E+03  0.12499899123E+03 0.  0.
    9000005    1    3    3    0    0  0.37375042825E+01  0.37827457895E+02  0.18250433719E+03  0.18642349262E+03  0.10000000000E+01 0.  0.
    9000005    1    3    3    0    0 -0.37375042825E+01 -0.37827457895E+02  0.41927197756E+01  0.38255253341E+02  0.10000000000E+01 0.  0.
<mgrwt>
<rscale>  0 0.12499899E+03</rscale>
<asrwt>0</asrwt>
<pdfrwt beam="1">  1        4 0.31644292E-01 0.12499899E+03</pdfrwt>
<pdfrwt beam="2">  1       -4 0.29216685E-02 0.12499899E+03</pdfrwt>
<totfact> 0.86135311E+03</totfact>
</mgrwt>
</event>
<event>
 5    1  0.3246948E-002  0.1249974E+03  0.7818608E-02  0.1235073E+00
         -4   -1    0    0    0  501 -0.00000000000E+00  0.00000000000E+00  0.47289717409E+02  0.47306767725E+02  0.12700000000E+01 0. -1.
          4   -1    0    0  501    0  0.00000000000E+00 -0.00000000000E+00 -0.82562204509E+02  0.82571971718E+02  0.12700000000E+01 0. -1.
         25    2    1    2    0    0  0.00000000000E+00  0.00000000000E+00 -0.35272487100E+02  0.12987873944E+03  0.12499735442E+03 0.  0.
    9000005    1    3    3    0    0  0.38341789205E+01  0.25681459121E+02  0.41424022385E+02  0.48899774039E+02  0.10000000000E+01 0.  0.
    9000005    1    3    3    0    0 -0.38341789205E+01 -0.25681459121E+02 -0.76696509485E+02  0.80978965403E+02  0.10000000000E+01 0.  0.
<mgrwt>
<rscale>  0 0.12499735E+03</rscale>
<asrwt>0</asrwt>
<pdfrwt beam="2">  1        4 0.12703940E-01 0.12499735E+03</pdfrwt>
<pdfrwt beam="1">  1       -4 0.72774040E-02 0.12499735E+03</pdfrwt>
<totfact> 0.10347720E+04</totfact>
</mgrwt>
</event>
<event>
 5    1  0.3246948E-002  0.1250025E+03  0.7818608E-02  0.1235065E+00
         -4   -1    0    0    0  501 -0.00000000000E+00  0.00000000000E+00  0.60544177419E+01  0.61861841384E+01  0.12700000000E+01 0.  1.
          4   -1    0    0  501    0  0.00000000000E+00 -0.00000000000E+00 -0.63813831809E+03  0.63813958184E+03  0.12700000000E+01 0.  1.
         25    2    1    2    0    0  0.00000000000E+00  0.00000000000E+00 -0.63208390035E+03  0.64432576598E+03  0.12500254249E+03 0.  0.
    9000005    1    3    3    0    0 -0.65332500431E+01 -0.62095751319E+02 -0.30255800826E+03  0.30893512919E+03  0.10000000000E+01 0.  0.
    9000005    1    3    3    0    0  0.65332500431E+01  0.62095751319E+02 -0.32952589209E+03  0.33539063679E+03  0.10000000000E+01 0.  0.
<mgrwt>
<rscale>  0 0.12500254E+03</rscale>
<asrwt>0</asrwt>
<pdfrwt beam="2">  1        4 0.98185306E-01 0.12500254E+03</pdfrwt>
<pdfrwt beam="1">  1       -4 0.94168248E-03 0.12500254E+03</pdfrwt>
<totfact> 0.46181409E+03</totfact>
</mgrwt>
</event>
<event>
 5    1  0.3246948E-002  0.1250038E+03  0.7818608E-02  0.1235063E+00
         -4   -1    0    0    0  501 -0.00000000000E+00  0.00000000000E+00  0.16499616890E+02  0.16548421602E+02  0.12700000000E+01 0.  1.
          4   -1    0    0  501    0  0.00000000000E+00 -0.00000000000E+00 -0.23636219616E+03  0.23636560806E+03  0.12700000000E+01 0.  1.
         25    2    1    2    0    0  0.00000000000E+00  0.00000000000E+00 -0.21986257927E+03  0.25291402966E+03  0.12500381049E+03 0.  0.
    9000005    1    3    3    0    0  0.44831728008E+02  0.34962037987E+02 -0.57433484363E+02  0.80819756634E+02  0.10000000000E+01 0.  0.
    9000005    1    3    3    0    0 -0.44831728008E+02 -0.34962037987E+02 -0.16242909491E+03  0.17209427303E+03  0.10000000000E+01 0.  0.
<mgrwt>
<rscale>  0 0.12500381E+03</rscale>
<asrwt>0</asrwt>
<pdfrwt beam="2">  1        4 0.36367429E-01 0.12500381E+03</pdfrwt>
<pdfrwt beam="1">  1       -4 0.25424194E-02 0.12500381E+03</pdfrwt>
<totfact> 0.81903926E+03</totfact>
</mgrwt>
</event>
<event>
 5    1  0.3246948E-002  0.1249975E+03  0.7818608E-02  0.1235073E+00
          4   -1    0    0  501    0  0.00000000000E+00  0.00000000000E+00  0.57458678730E+02  0.57472712320E+02  0.12700000000E+01 0. -1.
         -4   -1    0    0    0  501 -0.00000000000E+00 -0.00000000000E+00 -0.67952657485E+02  0.67964524270E+02  0.12700000000E+01 0. -1.
         25    2    1    2    0    0  0.00000000000E+00  0.00000000000E+00 -0.10493978754E+02  0.12543723659E+03  0.12499750691E+03 0.  0.
    9000005    1    3    3    0    0  0.16694955548E-01 -0.51981865993E+02 -0.40052999515E+02  0.65630461228E+02  0.10000000000E+01 0.  0.
    9000005    1    3    3    0    0 -0.16694955548E-01  0.51981865993E+02  0.29559020760E+02  0.59806775362E+02  0.10000000000E+01 0.  0.
<mgrwt>
<rscale>  0 0.12499751E+03</rscale>
<asrwt>0</asrwt>
<pdfrwt beam="1">  1        4 0.88417891E-02 0.12499751E+03</pdfrwt>
<pdfrwt beam="2">  1       -4 0.10456247E-01 0.12499751E+03</pdfrwt>
<totfact> 0.10443929E+04</totfact>
</mgrwt>
</event>
<event>
 5    1  0.3246948E-002  0.1250011E+03  0.7818608E-02  0.1235068E+00
         -4   -1    0    0    0  501 -0.00000000000E+00  0.00000000000E+00  0.46313956407E+03  0.46314130533E+03  0.12700000000E+01 0. -1.
          4   -1    0    0  501    0  0.00000000000E+00 -0.00000000000E+00 -0.83848522432E+01  0.84804862562E+01  0.12700000000E+01 0. -1.
         25    2    1    2    0    0  0.00000000000E+00  0.00000000000E+00  0.45475471183E+03  0.47162179159E+03  0.12500106549E+03 0.  0.
    9000005    1    3    3    0    0  0.60757506093E+02 -0.12032894244E+02  0.25872946180E+03  0.26604172510E+03  0.10000000000E+01 0.  0.
    9000005    1    3    3    0    0 -0.60757506093E+02  0.12032894244E+02  0.19602525003E+03  0.20558006649E+03  0.10000000000E+01 0.  0.
<mgrwt>
<rscale>  0 0.12500107E+03</rscale>
<asrwt>0</asrwt>
<pdfrwt beam="2">  1        4 0.12974675E-02 0.12500107E+03</pdfrwt>
<pdfrwt beam="1">  1       -4 0.71259743E-01 0.12500107E+03</pdfrwt>
<totfact> 0.58134043E+03</totfact>
</mgrwt>
</event>
<event>
 5    1  0.3246948E-002  0.1250009E+03  0.7818608E-02  0.1235068E+00
         -4   -1    0    0    0  501 -0.00000000000E+00  0.00000000000E+00  0.10125976156E+03  0.10126772542E+03  0.12700000000E+01 0.  1.
          4   -1    0    0  501    0  0.00000000000E+00 -0.00000000000E+00 -0.38557123698E+02  0.38578033748E+02  0.12700000000E+01 0.  1.
         25    2    1    2    0    0  0.00000000000E+00  0.00000000000E+00  0.62702637866E+02  0.13984575917E+03  0.12500086225E+03 0.  0.
    9000005    1    3    3    0    0  0.52988358097E+02  0.31999793927E+02  0.40945999936E+02  0.74224846352E+02  0.10000000000E+01 0.  0.
    9000005    1    3    3    0    0 -0.52988358097E+02 -0.31999793927E+02  0.21756637931E+02  0.65620912819E+02  0.10000000000E+01 0.  0.
<mgrwt>
<rscale>  0 0.12500086E+03</rscale>
<asrwt>0</asrwt>
<pdfrwt beam="2">  1        4 0.59340862E-02 0.12500086E+03</pdfrwt>
<pdfrwt beam="1">  1       -4 0.15580646E-01 0.12500086E+03</pdfrwt>
<totfact> 0.10136587E+04</totfact>
</mgrwt>
</event>
<event>
 5    1  0.3246948E-002  0.1249997E+03  0.7818608E-02  0.1235070E+00
          4   -1    0    0  501    0  0.00000000000E+00  0.00000000000E+00  0.28268815711E+02  0.28297329233E+02  0.12700000000E+01 0. -1.
         -4   -1    0    0    0  501 -0.00000000000E+00 -0.00000000000E+00 -0.13808046050E+03  0.13808630082E+03  0.12700000000E+01 0. -1.
         25    2    1    2    0    0  0.00000000000E+00  0.00000000000E+00 -0.10981164479E+03  0.16638363005E+03  0.12499966006E+03 0.  0.
    9000005    1    3    3    0    0  0.54470569171E+02  0.29976814811E+02 -0.63279573108E+02  0.88718412434E+02  0.10000000000E+01 0.  0.
    9000005    1    3    3    0    0 -0.54470569171E+02 -0.29976814811E+02 -0.46532071685E+02  0.77665217616E+02  0.10000000000E+01 0.  0.
<mgrwt>
<rscale>  0 0.12499966E+03</rscale>
<asrwt>0</asrwt>
<pdfrwt beam="1">  1        4 0.43516912E-02 0.12499966E+03</pdfrwt>
<pdfrwt beam="2">  1       -4 0.21245790E-01 0.12499966E+03</pdfrwt>
<totfact> 0.96126729E+03</totfact>
</mgrwt>
</event>
<event>
 5    1  0.3246948E-002  0.1249985E+03  0.7818608E-02  0.1235072E+00
          4   -1    0    0  501    0  0.00000000000E+00  0.00000000000E+00  0.43134142657E+01  0.44964922582E+01  0.12700000000E+01 0. -1.
         -4   -1    0    0    0  501 -0.00000000000E+00 -0.00000000000E+00 -0.88658066905E+03  0.88658157867E+03  0.12700000000E+01 0. -1.
         25    2    1    2    0    0  0.00000000000E+00  0.00000000000E+00 -0.88226725478E+03  0.89107807092E+03  0.12499847847E+03 0.  0.
    9000005    1    3    3    0    0 -0.35598720299E+02  0.38027499267E+02 -0.19503348399E+03  0.20187228503E+03  0.10000000000E+01 0.  0.
    9000005    1    3    3    0    0  0.35598720299E+02 -0.38027499267E+02 -0.68723377079E+03  0.68920578589E+03  0.10000000000E+01 0.  0.
<mgrwt>
<rscale>  0 0.12499848E+03</rscale>
<asrwt>0</asrwt>
<pdfrwt beam="1">  1        4 0.67775579E-03 0.12499848E+03</pdfrwt>
<pdfrwt beam="2">  1       -4 0.13641104E+00 0.12499848E+03</pdfrwt>
<totfact> 0.34503864E+03</totfact>
</mgrwt>
</event>
<event>
 5    1  0.3246948E-002  0.1249868E+03  0.7818608E-02  0.1235090E+00
          4   -1    0    0  501    0  0.00000000000E+00  0.00000000000E+00  0.40422730556E+02  0.40442676044E+02  0.12700000000E+01 0.  1.
         -4   -1    0    0    0  501 -0.00000000000E+00 -0.00000000000E+00 -0.96566600928E+02  0.96574951798E+02  0.12700000000E+01 0.  1.
         25    2    1    2    0    0  0.00000000000E+00  0.00000000000E+00 -0.56143870372E+02  0.13701762784E+03  0.12498678394E+03 0.  0.
    9000005    1    3    3    0    0  0.55199428608E+02  0.27985370665E+02 -0.37519237342E+02  0.72379907852E+02  0.10000000000E+01 0.  0.
    9000005    1    3    3    0    0 -0.55199428608E+02 -0.27985370665E+02 -0.18624633030E+02  0.64637719990E+02  0.10000000000E+01 0.  0.
<mgrwt>
<rscale>  0 0.12498678E+03</rscale>
<asrwt>0</asrwt>
<pdfrwt beam="1">  1        4 0.62210583E-02 0.12498678E+03</pdfrwt>
<pdfrwt beam="2">  1       -4 0.14858577E-01 0.12498678E+03</pdfrwt>
<totfact> 0.10198756E+04</totfact>
</mgrwt>
</event>
<event>
 5    1  0.3246948E-002  0.1249993E+03  0.7818608E-02  0.1235070E+00
         -4   -1    0    0    0  501 -0.00000000000E+00  0.00000000000E+00  0.78559710840E+02  0.78569975610E+02  0.12700000000E+01 0.  1.
          4   -1    0    0  501    0  0.00000000000E+00 -0.00000000000E+00 -0.49701170625E+02  0.49717393953E+02  0.12700000000E+01 0.  1.
         25    2    1    2    0    0  0.00000000000E+00  0.00000000000E+00  0.28858540215E+02  0.12828736956E+03  0.12499933538E+03 0.  0.
    9000005    1    3    3    0    0 -0.93928963009E+01 -0.59622665359E+02 -0.21867135891E+01  0.60405880854E+02  0.10000000000E+01 0.  0.
    9000005    1    3    3    0    0  0.93928963009E+01  0.59622665359E+02  0.31045253804E+02  0.67881488708E+02  0.10000000000E+01 0.  0.
<mgrwt>
<rscale>  0 0.12499934E+03</rscale>
<asrwt>0</asrwt>
<pdfrwt beam="2">  1        4 0.76483715E-02 0.12499934E+03</pdfrwt>
<pdfrwt beam="1">  1       -4 0.12088147E-01 0.12499934E+03</pdfrwt>
<totfact> 0.10381442E+04</totfact>
</mgrwt>
</event>
<event>
 5    1  0.3246948E-002  0.1249998E+03  0.7818608E-02  0.1235070E+00
          4   -1    0    0  501    0  0.00000000000E+00  0.00000000000E+00  0.39642066925E+02  0.39662404996E+02  0.12700000000E+01 0. -1.
         -4   -1    0    0    0  501 -0.00000000000E+00 -0.00000000000E+00 -0.98487915399E+02  0.98496103373E+02  0.12700000000E+01 0. -1.
         25    2    1    2    0    0  0.00000000000E+00  0.00000000000E+00 -0.58845848474E+02  0.13815850837E+03  0.12499975821E+03 0.  0.
    9000005    1    3    3    0    0  0.43891400235E+02  0.11419760930E+02  0.18095583432E+02  0.48839697931E+02  0.10000000000E+01 0.  0.
    9000005    1    3    3    0    0 -0.43891400235E+02 -0.11419760930E+02 -0.76941431906E+02  0.89318810438E+02  0.10000000000E+01 0.  0.
<mgrwt>
<rscale>  0 0.12499976E+03</rscale>
<asrwt>0</asrwt>
<pdfrwt beam="1">  1        4 0.61009739E-02 0.12499976E+03</pdfrwt>
<pdfrwt beam="2">  1       -4 0.15154181E-01 0.12499976E+03</pdfrwt>
<totfact> 0.10171950E+04</totfact>
</mgrwt>
</event>
<event>
 5    1  0.3246948E-002  0.1250095E+03  0.7818608E-02  0.1235054E+00
         -4   -1    0    0    0  501 -0.00000000000E+00  0.00000000000E+00  0.25672764743E+02  0.25704158216E+02  0.12700000000E+01 0. -1.
          4   -1    0    0  501    0  0.00000000000E+00 -0.00000000000E+00 -0.15205151034E+03  0.15205681404E+03  0.12700000000E+01 0. -1.
         25    2    1    2    0    0  0.00000000000E+00  0.00000000000E+00 -0.12637874560E+03  0.17776097226E+03  0.12500950332E+03 0.  0.
    9000005    1    3    3    0    0 -0.20663028764E+02 -0.10158956771E+01 -0.14704821931E+03  0.14849973604E+03  0.10000000000E+01 0.  0.
    9000005    1    3    3    0    0  0.20663028764E+02  0.10158956771E+01  0.20669473710E+02  0.29261236221E+02  0.10000000000E+01 0.  0.
<mgrwt>
<rscale>  0 0.12500950E+03</rscale>
<asrwt>0</asrwt>
<pdfrwt beam="2">  1        4 0.23395362E-01 0.12500950E+03</pdfrwt>
<pdfrwt beam="1">  1       -4 0.39524791E-02 0.12500950E+03</pdfrwt>
<totfact> 0.94001559E+03</totfact>
</mgrwt>
</event>
<event>
 5    1  0.3246948E-002  0.1250011E+03  0.7818608E-02  0.1235068E+00
         -4   -1    0    0    0  501 -0.00000000000E+00  0.00000000000E+00  0.21629736941E+03  0.21630109781E+03  0.12700000000E+01 0. -1.
          4   -1    0    0  501    0  0.00000000000E+00 -0.00000000000E+00 -0.18033733519E+02  0.18078397181E+02  0.12700000000E+01 0. -1.
         25    2    1    2    0    0  0.00000000000E+00  0.00000000000E+00  0.19826363589E+03  0.23437949499E+03  0.12500111342E+03 0.  0.
    9000005    1    3    3    0    0 -0.11891626375E+02  0.60843678306E+02  0.11389044948E+03  0.12967420118E+03  0.10000000000E+01 0.  0.
    9000005    1    3    3    0    0  0.11891626375E+02 -0.60843678306E+02  0.84373186409E+02  0.10470529381E+03  0.10000000000E+01 0.  0.
<mgrwt>
<rscale>  0 0.12500111E+03</rscale>
<asrwt>0</asrwt>
<pdfrwt beam="2">  1        4 0.27781429E-02 0.12500111E+03</pdfrwt>
<pdfrwt beam="1">  1       -4 0.33280242E-01 0.12500111E+03</pdfrwt>
<totfact> 0.84639523E+03</totfact>
</mgrwt>
</event>
<event>
 4    1  0.3246948E-002  0.1243621E+03  0.7818608E-02  0.1236070E+00
          4   -1    0    0  501    0  0.00000000000E+00  0.00000000000E+00  0.42566281582E+02  0.42585223115E+02  0.12700000000E+01 0.  1.
         -4   -1    0    0    0  501 -0.00000000000E+00 -0.00000000000E+00 -0.90790820339E+02  0.90799702410E+02  0.12700000000E+01 0.  1.
    9000005    1    1    2    0    0  0.48640984942E+01 -0.28623398479E+02  0.34853996428E+02  0.45373554651E+02  0.10000000000E+01 0.  0.
    9000005    1    1    2    0    0 -0.48640984942E+01  0.28623398479E+02 -0.83078535185E+02  0.88011370874E+02  0.10000000000E+01 0.  0.
<mgrwt>
<rscale>  0 0.12436210E+03</rscale>
<asrwt>0</asrwt>
<pdfrwt beam="1">  1        4 0.65507990E-02 0.12436210E+03</pdfrwt>
<pdfrwt beam="2">  1       -4 0.13969959E-01 0.12436210E+03</pdfrwt>
<totfact> 0.10421436E+04</totfact>
</mgrwt>
</event>
<event>
 5    1  0.3246948E-002  0.1250034E+03  0.7818608E-02  0.1235064E+00
         -4   -1    0    0    0  501 -0.00000000000E+00  0.00000000000E+00  0.57450945574E+02  0.57464981052E+02  0.12700000000E+01 0. -1.
          4   -1    0    0  501    0  0.00000000000E+00 -0.00000000000E+00 -0.67968180192E+02  0.67980044268E+02  0.12700000000E+01 0. -1.
         25    2    1    2    0    0  0.00000000000E+00  0.00000000000E+00 -0.10517234619E+02  0.12544502532E+03  0.12500336857E+03 0.  0.
    9000005    1    3    3    0    0 -0.41396165086E+02  0.46806482817E+02 -0.62476046243E+01  0.62805428755E+02  0.10000000000E+01 0.  0.
    9000005    1    3    3    0    0  0.41396165086E+02 -0.46806482817E+02 -0.42696299944E+01  0.62639596565E+02  0.10000000000E+01 0.  0.
<mgrwt>
<rscale>  0 0.12500337E+03</rscale>
<asrwt>0</asrwt>
<pdfrwt beam="2">  1        4 0.10458635E-01 0.12500337E+03</pdfrwt>
<pdfrwt beam="1">  1       -4 0.88405993E-02 0.12500337E+03</pdfrwt>
<totfact> 0.10442376E+04</totfact>
</mgrwt>
</event>
<event>
 5    1  0.3246948E-002  0.1249527E+03  0.7818608E-02  0.1235143E+00
          4   -1    0    0  501    0  0.00000000000E+00  0.00000000000E+00  0.11206683429E+04  0.11206690625E+04  0.12700000000E+01 0.  1.
         -4   -1    0    0    0  501 -0.00000000000E+00 -0.00000000000E+00 -0.33664911647E+01  0.35980776482E+01  0.12700000000E+01 0.  1.
         25    2    1    2    0    0  0.00000000000E+00  0.00000000000E+00  0.11173018517E+04  0.11242671401E+04  0.12495268928E+03 0.  0.
    9000005    1    3    3    0    0 -0.17267852283E+01 -0.62428150132E+02  0.54580640608E+03  0.54936862728E+03  0.10000000000E+01 0.  0.
    9000005    1    3    3    0    0  0.17267852283E+01  0.62428150132E+02  0.57149544563E+03  0.57489851286E+03  0.10000000000E+01 0.  0.
<mgrwt>
<rscale>  0 0.12495269E+03</rscale>
<asrwt>0</asrwt>
<pdfrwt beam="1">  1        4 0.17242860E+00 0.12495269E+03</pdfrwt>
<pdfrwt beam="2">  1       -4 0.53579074E-03 0.12495269E+03</pdfrwt>
<totfact> 0.26811413E+03</totfact>
</mgrwt>
</event>
<event>
 5    1  0.3246948E-002  0.1250039E+03  0.7818608E-02  0.1235063E+00
         -4   -1    0    0    0  501 -0.00000000000E+00  0.00000000000E+00  0.94346876601E+01  0.95197810502E+01  0.12700000000E+01 0. -1.
          4   -1    0    0  501    0  0.00000000000E+00 -0.00000000000E+00 -0.41211154750E+03  0.41211350437E+03  0.12700000000E+01 0. -1.
         25    2    1    2    0    0  0.00000000000E+00  0.00000000000E+00 -0.40267685984E+03  0.42163328542E+03  0.12500389563E+03 0.  0.
    9000005    1    3    3    0    0 -0.11639082219E+02  0.59964477641E+02 -0.24586747923E+03  0.25334368782E+03  0.10000000000E+01 0.  0.
    9000005    1    3    3    0    0  0.11639082219E+02 -0.59964477641E+02 -0.15680938060E+03  0.16828959760E+03  0.10000000000E+01 0.  0.
<mgrwt>
<rscale>  0 0.12500390E+03</rscale>
<asrwt>0</asrwt>
<pdfrwt beam="2">  1        4 0.63408459E-01 0.12500390E+03</pdfrwt>
<pdfrwt beam="1">  1       -4 0.14581869E-02 0.12500390E+03</pdfrwt>
<totfact> 0.62496411E+03</totfact>
</mgrwt>
</event>
<event>
 5    1  0.3246948E-002  0.1249987E+03  0.7818608E-02  0.1235071E+00
         -4   -1    0    0    0  501 -0.00000000000E+00  0.00000000000E+00  0.41530677527E+03  0.41530871709E+03  0.12700000000E+01 0.  1.
          4   -1    0    0  501    0  0.00000000000E+00 -0.00000000000E+00 -0.93606645730E+01  0.94464247865E+01  0.12700000000E+01 0.  1.
         25    2    1    2    0    0  0.00000000000E+00  0.00000000000E+00  0.40594611070E+03  0.42475514187E+03  0.12499874301E+03 0.  0.
    9000005    1    3    3    0    0  0.57410772644E+02  0.19021282005E+02  0.25641749439E+03  0.26345538031E+03  0.10000000000E+01 0.  0.
    9000005    1    3    3    0    0 -0.57410772644E+02 -0.19021282005E+02  0.14952861631E+03  0.16129976156E+03  0.10000000000E+01 0.  0.
<mgrwt>
<rscale>  0 0.12499874E+03</rscale>
<asrwt>0</asrwt>
<pdfrwt beam="2">  1        4 0.14468488E-02 0.12499874E+03</pdfrwt>
<pdfrwt beam="1">  1       -4 0.63900087E-01 0.12499874E+03</pdfrwt>
<totfact> 0.62216028E+03</totfact>
</mgrwt>
</event>
<event>
 5    1  0.3246948E-002  0.1250061E+03  0.7818608E-02  0.1235060E+00
          4   -1    0    0  501    0  0.00000000000E+00  0.00000000000E+00  0.49321805111E+03  0.49321968619E+03  0.12700000000E+01 0.  1.
         -4   -1    0    0    0  501 -0.00000000000E+00 -0.00000000000E+00 -0.78681328809E+01  0.79699695754E+01  0.12700000000E+01 0.  1.
         25    2    1    2    0    0  0.00000000000E+00  0.00000000000E+00  0.48534991823E+03  0.50118965576E+03  0.12500611152E+03 0.  0.
    9000005    1    3    3    0    0 -0.20026672091E+02 -0.51332481942E+02  0.36090172390E+03  0.36508512105E+03  0.10000000000E+01 0.  0.
    9000005    1    3    3    0    0  0.20026672091E+02  0.51332481942E+02  0.12444819433E+03  0.13610453471E+03  0.10000000000E+01 0.  0.
<mgrwt>
<rscale>  0 0.12500611E+03</rscale>
<asrwt>0</asrwt>
<pdfrwt beam="1">  1        4 0.75887673E-01 0.12500611E+03</pdfrwt>
<pdfrwt beam="2">  1       -4 0.12184411E-02 0.12500611E+03</pdfrwt>
<totfact> 0.55764680E+03</totfact>
</mgrwt>
</event>
<event>
 5    1  0.3246948E-002  0.1249926E+03  0.7818608E-02  0.1235081E+00
         -4   -1    0    0    0  501 -0.00000000000E+00  0.00000000000E+00  0.15235906138E+02  0.15288745398E+02  0.12700000000E+01 0.  1.
          4   -1    0    0  501    0  0.00000000000E+00 -0.00000000000E+00 -0.25585613981E+03  0.25585929176E+03  0.12700000000E+01 0.  1.
         25    2    1    2    0    0  0.00000000000E+00  0.00000000000E+00 -0.24062023368E+03  0.27114803716E+03  0.12499264459E+03 0.  0.
    9000005    1    3    3    0    0  0.46335857615E+02  0.19438015429E+02 -0.39725443646E+02  0.64062149649E+02  0.10000000000E+01 0.  0.
    9000005    1    3    3    0    0 -0.46335857615E+02 -0.19438015429E+02 -0.20089479003E+03  0.20708588751E+03  0.10000000000E+01 0.  0.
<mgrwt>
<rscale>  0 0.12499264E+03</rscale>
<asrwt>0</asrwt>
<pdfrwt beam="2">  1        4 0.39366787E-01 0.12499264E+03</pdfrwt>
<pdfrwt beam="1">  1       -4 0.23482928E-02 0.12499264E+03</pdfrwt>
<totfact> 0.79379594E+03</totfact>
</mgrwt>
</event>
<event>
 5    1  0.3246948E-002  0.1250014E+03  0.7818608E-02  0.1235067E+00
         -4   -1    0    0    0  501 -0.00000000000E+00  0.00000000000E+00  0.10857302617E+03  0.10858045363E+03  0.12700000000E+01 0.  1.
          4   -1    0    0  501    0  0.00000000000E+00 -0.00000000000E+00 -0.35959004614E+02  0.35981424553E+02  0.12700000000E+01 0.  1.
         25    2    1    2    0    0  0.00000000000E+00  0.00000000000E+00  0.72614021554E+02  0.14456187819E+03  0.12500136199E+03 0.  0.
    9000005    1    3    3    0    0 -0.16483450728E+02 -0.49083037126E+02 -0.41613886305E+01  0.51953496868E+02  0.10000000000E+01 0.  0.
    9000005    1    3    3    0    0  0.16483450728E+02  0.49083037126E+02  0.76775410185E+02  0.92608381319E+02  0.10000000000E+01 0.  0.
<mgrwt>
<rscale>  0 0.12500136E+03</rscale>
<asrwt>0</asrwt>
<pdfrwt beam="2">  1        4 0.55344506E-02 0.12500136E+03</pdfrwt>
<pdfrwt beam="1">  1       -4 0.16705838E-01 0.12500136E+03</pdfrwt>
<totfact> 0.10039590E+04</totfact>
</mgrwt>
</event>
<event>
 5    1  0.3246948E-002  0.1249996E+03  0.7818608E-02  0.1235070E+00
          4   -1    0    0  501    0  0.00000000000E+00  0.00000000000E+00  0.39468410437E+02  0.39488837947E+02  0.12700000000E+01 0. -1.
         -4   -1    0    0    0  501 -0.00000000000E+00 -0.00000000000E+00 -0.98920881735E+02  0.98929033874E+02  0.12700000000E+01 0. -1.
         25    2    1    2    0    0  0.00000000000E+00  0.00000000000E+00 -0.59452471298E+02  0.13841787182E+03  0.12499964358E+03 0.  0.
    9000005    1    3    3    0    0 -0.48428297054E+02 -0.21003756655E+02  0.73122988095E+01  0.53300351434E+02  0.10000000000E+01 0.  0.
    9000005    1    3    3    0    0  0.48428297054E+02  0.21003756655E+02 -0.66764770108E+02  0.85117520386E+02  0.10000000000E+01 0.  0.
<mgrwt>
<rscale>  0 0.12499964E+03</rscale>
<asrwt>0</asrwt>
<pdfrwt beam="1">  1        4 0.60742616E-02 0.12499964E+03</pdfrwt>
<pdfrwt beam="2">  1       -4 0.15220796E-01 0.12499964E+03</pdfrwt>
<totfact> 0.10166564E+04</totfact>
</mgrwt>
</event>
<event>
 5    1  0.3246948E-002  0.1250050E+03  0.7818608E-02  0.1235061E+00
          4   -1    0    0  501    0  0.00000000000E+00  0.00000000000E+00  0.10468168500E+03  0.10468938855E+03  0.12700000000E+01 0. -1.
         -4   -1    0    0    0  501 -0.00000000000E+00 -0.00000000000E+00 -0.37298626990E+02  0.37320242166E+02  0.12700000000E+01 0. -1.
         25    2    1    2    0    0  0.00000000000E+00  0.00000000000E+00  0.67383058011E+02  0.14200963072E+03  0.12500503473E+03 0.  0.
    9000005    1    3    3    0    0 -0.26031110673E+01 -0.54966304331E+02  0.39415846931E-01  0.55037008937E+02  0.10000000000E+01 0.  0.
    9000005    1    3    3    0    0  0.26031110673E+01  0.54966304331E+02  0.67343642164E+02  0.86972621779E+02  0.10000000000E+01 0.  0.
<mgrwt>
<rscale>  0 0.12500503E+03</rscale>
<asrwt>0</asrwt>
<pdfrwt beam="1">  1        4 0.16107130E-01 0.12500503E+03</pdfrwt>
<pdfrwt beam="2">  1       -4 0.57405056E-02 0.12500503E+03</pdfrwt>
<totfact> 0.10090959E+04</totfact>
</mgrwt>
</event>
<event>
 5    1  0.3246948E-002  0.1250019E+03  0.7818608E-02  0.1235066E+00
          4   -1    0    0  501    0  0.00000000000E+00  0.00000000000E+00  0.63472994593E+02  0.63485698725E+02  0.12700000000E+01 0.  1.
         -4   -1    0    0    0  501 -0.00000000000E+00 -0.00000000000E+00 -0.61518368239E+02  0.61531475936E+02  0.12700000000E+01 0.  1.
         25    2    1    2    0    0  0.00000000000E+00  0.00000000000E+00  0.19546263535E+01  0.12501717466E+03  0.12500189357E+03 0.  0.
    9000005    1    3    3    0    0 -0.41202890324E+02  0.35895889057E+02  0.31298923838E+02  0.62982661548E+02  0.10000000000E+01 0.  0.
    9000005    1    3    3    0    0  0.41202890324E+02 -0.35895889057E+02 -0.29344297485E+02  0.62034513113E+02  0.10000000000E+01 0.  0.
<mgrwt>
<rscale>  0 0.12500189E+03</rscale>
<asrwt>0</asrwt>
<pdfrwt beam="1">  1        4 0.97670616E-02 0.12500189E+03</pdfrwt>
<pdfrwt beam="2">  1       -4 0.94663499E-02 0.12500189E+03</pdfrwt>
<totfact> 0.10452042E+04</totfact>
</mgrwt>
</event>
<event>
 5    1  0.3246948E-002  0.1250069E+03  0.7818608E-02  0.1235059E+00
         -4   -1    0    0    0  501 -0.00000000000E+00  0.00000000000E+00  0.15061963131E+02  0.15115410459E+02  0.12700000000E+01 0.  1.
          4   -1    0    0  501    0  0.00000000000E+00 -0.00000000000E+00 -0.25885951396E+03  0.25886262934E+03  0.12700000000E+01 0.  1.
         25    2    1    2    0    0  0.00000000000E+00  0.00000000000E+00 -0.24379755083E+03  0.27397803980E+03  0.12500688181E+03 0.  0.
    9000005    1    3    3    0    0 -0.29665414567E+02 -0.49095255793E+02 -0.17626447662E+03  0.18536598037E+03  0.10000000000E+01 0.  0.
    9000005    1    3    3    0    0  0.29665414567E+02  0.49095255793E+02 -0.67533074217E+02  0.88612059428E+02  0.10000000000E+01 0.  0.
<mgrwt>
<rscale>  0 0.12500688E+03</rscale>
<asrwt>0</asrwt>
<pdfrwt beam="2">  1        4 0.39828888E-01 0.12500688E+03</pdfrwt>
<pdfrwt beam="1">  1       -4 0.23215763E-02 0.12500688E+03</pdfrwt>
<totfact> 0.78971324E+03</totfact>
</mgrwt>
</event>
<event>
 5    1  0.3246948E-002  0.1250002E+03  0.7818608E-02  0.1235069E+00
         -4   -1    0    0    0  501 -0.00000000000E+00  0.00000000000E+00  0.36039443335E+02  0.36061813264E+02  0.12700000000E+01 0.  1.
          4   -1    0    0  501    0  0.00000000000E+00 -0.00000000000E+00 -0.10832886897E+03  0.10833631317E+03  0.12700000000E+01 0.  1.
         25    2    1    2    0    0  0.00000000000E+00  0.00000000000E+00 -0.72289425631E+02  0.14439812644E+03  0.12500023144E+03 0.  0.
    9000005    1    3    3    0    0  0.53210040447E+02 -0.30465024434E+02 -0.50095111124E+02  0.79182992344E+02  0.10000000000E+01 0.  0.
    9000005    1    3    3    0    0 -0.53210040447E+02  0.30465024434E+02 -0.22194314507E+02  0.65215134091E+02  0.10000000000E+01 0.  0.
<mgrwt>
<rscale>  0 0.12500023E+03</rscale>
<asrwt>0</asrwt>
<pdfrwt beam="2">  1        4 0.16668273E-01 0.12500023E+03</pdfrwt>
<pdfrwt beam="1">  1       -4 0.55468232E-02 0.12500023E+03</pdfrwt>
<totfact> 0.10043179E+04</totfact>
</mgrwt>
</event>
<event>
 5    1  0.3246948E-002  0.1250006E+03  0.7818608E-02  0.1235068E+00
          4   -1    0    0  501    0  0.00000000000E+00  0.00000000000E+00  0.41929022436E+02  0.41948251721E+02  0.12700000000E+01 0.  1.
         -4   -1    0    0    0  501 -0.00000000000E+00 -0.00000000000E+00 -0.93119375763E+02  0.93128035749E+02  0.12700000000E+01 0.  1.
         25    2    1    2    0    0  0.00000000000E+00  0.00000000000E+00 -0.51190353327E+02  0.13507628747E+03  0.12500060465E+03 0.  0.
    9000005    1    3    3    0    0 -0.21723333304E+02 -0.74054848817E+01  0.37215251131E+02  0.43734646825E+02  0.10000000000E+01 0.  0.
    9000005    1    3    3    0    0  0.21723333304E+02  0.74054848817E+01 -0.88405604458E+02  0.91341640645E+02  0.10000000000E+01 0.  0.
<mgrwt>
<rscale>  0 0.12500060E+03</rscale>
<asrwt>0</asrwt>
<pdfrwt beam="1">  1        4 0.64527642E-02 0.12500060E+03</pdfrwt>
<pdfrwt beam="2">  1       -4 0.14328203E-01 0.12500060E+03</pdfrwt>
<totfact> 0.10236324E+04</totfact>
</mgrwt>
</event>
<event>
 5    1  0.3246948E-002  0.1250007E+03  0.7818608E-02  0.1235068E+00
          4   -1    0    0  501    0  0.00000000000E+00  0.00000000000E+00  0.19761119928E+03  0.19761528023E+03  0.12700000000E+01 0.  1.
         -4   -1    0    0    0  501 -0.00000000000E+00 -0.00000000000E+00 -0.19742892217E+02  0.19783697660E+02  0.12700000000E+01 0.  1.
         25    2    1    2    0    0  0.00000000000E+00  0.00000000000E+00  0.17786830706E+03  0.21739897789E+03  0.12500072372E+03 0.  0.
    9000005    1    3    3    0    0 -0.36506161626E+02 -0.47439129121E+02  0.57719623678E+02  0.83160842745E+02  0.10000000000E+01 0.  0.
    9000005    1    3    3    0    0  0.36506161626E+02  0.47439129121E+02  0.12014868338E+03  0.13423813514E+03  0.10000000000E+01 0.  0.
<mgrwt>
<rscale>  0 0.12500072E+03</rscale>
<asrwt>0</asrwt>
<pdfrwt beam="1">  1        4 0.30405175E-01 0.12500072E+03</pdfrwt>
<pdfrwt beam="2">  1       -4 0.30408209E-02 0.12500072E+03</pdfrwt>
<totfact> 0.87280197E+03</totfact>
</mgrwt>
</event>
<event>
 5    1  0.3246948E-002  0.1249983E+03  0.7818608E-02  0.1235072E+00
          4   -1    0    0  501    0  0.00000000000E+00  0.00000000000E+00  0.30543374573E+03  0.30543638606E+03  0.12700000000E+01 0. -1.
         -4   -1    0    0    0  501 -0.00000000000E+00 -0.00000000000E+00 -0.12754615457E+02  0.12817687602E+02  0.12700000000E+01 0. -1.
         25    2    1    2    0    0  0.00000000000E+00  0.00000000000E+00  0.29267913027E+03  0.31825407367E+03  0.12499832842E+03 0.  0.
    9000005    1    3    3    0    0 -0.96800896312E+01 -0.29817870086E+02  0.28397645208E+03  0.28570340363E+03  0.10000000000E+01 0.  0.
    9000005    1    3    3    0    0  0.96800896312E+01  0.29817870086E+02  0.87026781936E+01  0.32550670032E+02  0.10000000000E+01 0.  0.
<mgrwt>
<rscale>  0 0.12499833E+03</rscale>
<asrwt>0</asrwt>
<pdfrwt beam="1">  1        4 0.46994871E-01 0.12499833E+03</pdfrwt>
<pdfrwt beam="2">  1       -4 0.19673030E-02 0.12499833E+03</pdfrwt>
<totfact> 0.73366972E+03</totfact>
</mgrwt>
</event>
<event>
 5    1  0.3246948E-002  0.1250027E+03  0.7818608E-02  0.1235065E+00
         -4   -1    0    0    0  501 -0.00000000000E+00  0.00000000000E+00  0.24887449066E+02  0.24919831882E+02  0.12700000000E+01 0.  1.
          4   -1    0    0  501    0  0.00000000000E+00 -0.00000000000E+00 -0.15682634254E+03  0.15683148476E+03  0.12700000000E+01 0.  1.
         25    2    1    2    0    0  0.00000000000E+00  0.00000000000E+00 -0.13193889347E+03  0.18175131665E+03  0.12500267794E+03 0.  0.
    9000005    1    3    3    0    0  0.19724174120E+02  0.51582507773E+01  0.19923291977E+02  0.28523466812E+02  0.10000000000E+01 0.  0.
    9000005    1    3    3    0    0 -0.19724174120E+02 -0.51582507773E+01 -0.15186218545E+03  0.15322784983E+03  0.10000000000E+01 0.  0.
<mgrwt>
<rscale>  0 0.12500268E+03</rscale>
<asrwt>0</asrwt>
<pdfrwt beam="2">  1        4 0.24130016E-01 0.12500268E+03</pdfrwt>
<pdfrwt beam="1">  1       -4 0.38317250E-02 0.12500268E+03</pdfrwt>
<totfact> 0.93297106E+03</totfact>
</mgrwt>
</event>
<event>
 5    1  0.3246948E-002  0.1250001E+03  0.7818608E-02  0.1235069E+00
         -4   -1    0    0    0  501 -0.00000000000E+00  0.00000000000E+00  0.55573112919E+02  0.55587622538E+02  0.12700000000E+01 0. -1.
          4   -1    0    0  501    0  0.00000000000E+00 -0.00000000000E+00 -0.70260965716E+02  0.70272442702E+02  0.12700000000E+01 0. -1.
         25    2    1    2    0    0  0.00000000000E+00  0.00000000000E+00 -0.14687852797E+02  0.12586006524E+03  0.12500009201E+03 0.  0.
    9000005    1    3    3    0    0 -0.14477515929E+02 -0.37767268185E+02  0.40620879358E+02  0.57332546197E+02  0.10000000000E+01 0.  0.
    9000005    1    3    3    0    0  0.14477515929E+02  0.37767268185E+02 -0.55308732156E+02  0.68527519044E+02  0.10000000000E+01 0.  0.
<mgrwt>
<rscale>  0 0.12500009E+03</rscale>
<asrwt>0</asrwt>
<pdfrwt beam="2">  1        4 0.10811378E-01 0.12500009E+03</pdfrwt>
<pdfrwt beam="1">  1       -4 0.85517086E-02 0.12500009E+03</pdfrwt>
<totfact> 0.10434004E+04</totfact>
</mgrwt>
</event>
<event>
 5    1  0.3246948E-002  0.1249914E+03  0.7818608E-02  0.1235083E+00
          4   -1    0    0  501    0  0.00000000000E+00  0.00000000000E+00  0.36881201749E+01  0.39006576912E+01  0.12700000000E+01 0.  1.
         -4   -1    0    0    0  501 -0.00000000000E+00 -0.00000000000E+00 -0.10291263797E+04  0.10291271633E+04  0.12700000000E+01 0.  1.
         25    2    1    2    0    0  0.00000000000E+00  0.00000000000E+00 -0.10254382595E+04  0.10330278210E+04  0.12499141929E+03 0.  0.
    9000005    1    3    3    0    0  0.36544958331E+02  0.16695854453E+02 -0.11717935823E+03  0.12388013372E+03  0.10000000000E+01 0.  0.
    9000005    1    3    3    0    0 -0.36544958331E+02 -0.16695854453E+02 -0.90825890129E+03  0.90914768729E+03  0.10000000000E+01 0.  0.
<mgrwt>
<rscale>  0 0.12499142E+03</rscale>
<asrwt>0</asrwt>
<pdfrwt beam="1">  1        4 0.58381324E-03 0.12499142E+03</pdfrwt>
<pdfrwt beam="2">  1       -4 0.15834332E+00 0.12499142E+03</pdfrwt>
<totfact> 0.29536251E+03</totfact>
</mgrwt>
</event>
<event>
 5    1  0.3246948E-002  0.1250094E+03  0.7818608E-02  0.1235055E+00
         -4   -1    0    0    0  501 -0.00000000000E+00  0.00000000000E+00  0.10567153476E+03  0.10567916615E+03  0.12700000000E+01 0. -1.
          4   -1    0    0  501    0  0.00000000000E+00 -0.00000000000E+00 -0.36951647603E+02  0.36973465628E+02  0.12700000000E+01 0. -1.
         25    2    1    2    0    0  0.00000000000E+00  0.00000000000E+00  0.68719887158E+02  0.14265263178E+03  0.12500940150E+03 0.  0.
    9000005    1    3    3    0    0  0.97848925398E+01 -0.85407708490E+01  0.10412007712E+03  0.10493178426E+03  0.10000000000E+01 0.  0.
    9000005    1    3    3    0    0 -0.97848925398E+01  0.85407708490E+01 -0.35400189959E+02  0.37720847523E+02  0.10000000000E+01 0.  0.
<mgrwt>
<rscale>  0 0.12500940E+03</rscale>
<asrwt>0</asrwt>
<pdfrwt beam="2">  1        4 0.56871342E-02 0.12500940E+03</pdfrwt>
<pdfrwt beam="1">  1       -4 0.16259425E-01 0.12500940E+03</pdfrwt>
<totfact> 0.10076768E+04</totfact>
</mgrwt>
</event>
<event>
 5    1  0.3246948E-002  0.1250015E+03  0.7818608E-02  0.1235067E+00
         -4   -1    0    0    0  501 -0.00000000000E+00  0.00000000000E+00  0.66259597778E+01  0.67465726837E+01  0.12700000000E+01 0.  1.
          4   -1    0    0  501    0  0.00000000000E+00 -0.00000000000E+00 -0.58411272917E+03  0.58411410981E+03  0.12700000000E+01 0.  1.
         25    2    1    2    0    0  0.00000000000E+00  0.00000000000E+00 -0.57748676939E+03  0.59086068249E+03  0.12500150916E+03 0.  0.
    9000005    1    3    3    0    0  0.29931036720E+02  0.54787848507E+02 -0.27556831381E+03  0.28255348322E+03  0.10000000000E+01 0.  0.
    9000005    1    3    3    0    0 -0.29931036720E+02 -0.54787848507E+02 -0.30191845558E+03  0.30830719927E+03  0.10000000000E+01 0.  0.
<mgrwt>
<rscale>  0 0.12500151E+03</rscale>
<asrwt>0</asrwt>
<pdfrwt beam="2">  1        4 0.89872840E-01 0.12500151E+03</pdfrwt>
<pdfrwt beam="1">  1       -4 0.10287630E-02 0.12500151E+03</pdfrwt>
<totfact> 0.49448019E+03</totfact>
</mgrwt>
</event>
<event>
 5    1  0.3246948E-002  0.1250089E+03  0.7818608E-02  0.1235055E+00
          4   -1    0    0  501    0  0.00000000000E+00  0.00000000000E+00  0.12235328287E+03  0.12235987385E+03  0.12700000000E+01 0.  1.
         -4   -1    0    0    0  501 -0.00000000000E+00 -0.00000000000E+00 -0.31910447190E+02  0.31935709478E+02  0.12700000000E+01 0.  1.
         25    2    1    2    0    0  0.00000000000E+00  0.00000000000E+00  0.90442835676E+02  0.15429558333E+03  0.12500888172E+03 0.  0.
    9000005    1    3    3    0    0 -0.43632721680E+02  0.39083003479E+02  0.72107969799E+02  0.92907776158E+02  0.10000000000E+01 0.  0.
    9000005    1    3    3    0    0  0.43632721680E+02 -0.39083003479E+02  0.18334865877E+02  0.61387807168E+02  0.10000000000E+01 0.  0.
<mgrwt>
<rscale>  0 0.12500888E+03</rscale>
<asrwt>0</asrwt>
<pdfrwt beam="1">  1        4 0.18826032E-01 0.12500888E+03</pdfrwt>
<pdfrwt beam="2">  1       -4 0.49117498E-02 0.12500888E+03</pdfrwt>
<totfact> 0.98434297E+03</totfact>
</mgrwt>
</event>
<event>
 5    1  0.3246948E-002  0.1250343E+03  0.7818608E-02  0.1235016E+00
          4   -1    0    0  501    0  0.00000000000E+00  0.00000000000E+00  0.30756893733E+03  0.30757155933E+03  0.12700000000E+01 0. -1.
         -4   -1    0    0    0  501 -0.00000000000E+00 -0.00000000000E+00 -0.12672966793E+02  0.12736443277E+02  0.12700000000E+01 0. -1.
         25    2    1    2    0    0  0.00000000000E+00  0.00000000000E+00  0.29489597053E+03  0.32030800261E+03  0.12503432767E+03 0.  0.
    9000005    1    3    3    0    0 -0.39351367812E+02  0.43858135732E+02  0.20089797213E+03  0.20936346726E+03  0.10000000000E+01 0.  0.
    9000005    1    3    3    0    0  0.39351367812E+02 -0.43858135732E+02  0.93997998403E+02  0.11094453534E+03  0.10000000000E+01 0.  0.
<mgrwt>
<rscale>  0 0.12503433E+03</rscale>
<asrwt>0</asrwt>
<pdfrwt beam="1">  1        4 0.47323377E-01 0.12503433E+03</pdfrwt>
<pdfrwt beam="2">  1       -4 0.19547719E-02 0.12503433E+03</pdfrwt>
<totfact> 0.73063898E+03</totfact>
</mgrwt>
</event>
<event>
 5    1  0.3246948E-002  0.1249997E+03  0.7818608E-02  0.1235070E+00
         -4   -1    0    0    0  501 -0.00000000000E+00  0.00000000000E+00  0.27546712424E+02  0.27575972610E+02  0.12700000000E+01 0.  1.
          4   -1    0    0  501    0  0.00000000000E+00 -0.00000000000E+00 -0.14169652337E+03  0.14170221464E+03  0.12700000000E+01 0.  1.
         25    2    1    2    0    0  0.00000000000E+00  0.00000000000E+00 -0.11414981095E+03  0.16927818725E+03  0.12499970136E+03 0.  0.
    9000005    1    3    3    0    0  0.12720122525E+02 -0.56733529468E+02 -0.26053416334E+02  0.63720290219E+02  0.10000000000E+01 0.  0.
    9000005    1    3    3    0    0 -0.12720122525E+02  0.56733529468E+02 -0.88096394612E+02  0.10555789704E+03  0.10000000000E+01 0.  0.
<mgrwt>
<rscale>  0 0.12499970E+03</rscale>
<asrwt>0</asrwt>
<pdfrwt beam="2">  1        4 0.21802153E-01 0.12499970E+03</pdfrwt>
<pdfrwt beam="1">  1       -4 0.42406444E-02 0.12499970E+03</pdfrwt>
<totfact> 0.95583891E+03</totfact>
</mgrwt>
</event>
<event>
 5    1  0.3246948E-002  0.1250128E+03  0.7818608E-02  0.1235049E+00
          4   -1    0    0  501    0  0.00000000000E+00  0.00000000000E+00  0.17406100483E+03  0.17406563791E+03  0.12700000000E+01 0. -1.
         -4   -1    0    0    0  501 -0.00000000000E+00 -0.00000000000E+00 -0.22423537096E+02  0.22459472743E+02  0.12700000000E+01 0. -1.
         25    2    1    2    0    0  0.00000000000E+00  0.00000000000E+00  0.15163746773E+03  0.19652511066E+03  0.12501278934E+03 0.  0.
    9000005    1    3    3    0    0 -0.31892541121E+02 -0.22682557142E+02  0.15242108191E+03  0.15736841737E+03  0.10000000000E+01 0.  0.
    9000005    1    3    3    0    0  0.31892541121E+02  0.22682557142E+02 -0.78361417189E+00  0.39156693283E+02  0.10000000000E+01 0.  0.
<mgrwt>
<rscale>  0 0.12501279E+03</rscale>
<asrwt>0</asrwt>
<pdfrwt beam="1">  1        4 0.26781737E-01 0.12501279E+03</pdfrwt>
<pdfrwt beam="2">  1       -4 0.34528956E-02 0.12501279E+03</pdfrwt>
<totfact> 0.90698229E+03</totfact>
</mgrwt>
</event>
<event>
 5    1  0.3246948E-002  0.1250010E+03  0.7818608E-02  0.1235068E+00
         -4   -1    0    0    0  501 -0.00000000000E+00  0.00000000000E+00  0.12934333482E+03  0.12934956963E+03  0.12700000000E+01 0. -1.
          4   -1    0    0  501    0  0.00000000000E+00 -0.00000000000E+00 -0.30180780014E+02  0.30207488843E+02  0.12700000000E+01 0. -1.
         25    2    1    2    0    0  0.00000000000E+00  0.00000000000E+00  0.99162554807E+02  0.15955705847E+03  0.12500097052E+03 0.  0.
    9000005    1    3    3    0    0  0.18588208746E+02  0.71733568812E+01  0.12518670695E+03  0.12676628160E+03  0.10000000000E+01 0.  0.
    9000005    1    3    3    0    0 -0.18588208746E+02 -0.71733568812E+01 -0.26024152141E+02  0.32790776874E+02  0.10000000000E+01 0.  0.
<mgrwt>
<rscale>  0 0.12500097E+03</rscale>
<asrwt>0</asrwt>
<pdfrwt beam="2">  1        4 0.46457311E-02 0.12500097E+03</pdfrwt>
<pdfrwt beam="1">  1       -4 0.19901508E-01 0.12500097E+03</pdfrwt>
<totfact> 0.97426123E+03</totfact>
</mgrwt>
</event>
<event>
 5    1  0.3246948E-002  0.1249992E+03  0.7818608E-02  0.1235071E+00
          4   -1    0    0  501    0  0.00000000000E+00  0.00000000000E+00  0.43454233613E+02  0.43472788258E+02  0.12700000000E+01 0. -1.
         -4   -1    0    0    0  501 -0.00000000000E+00 -0.00000000000E+00 -0.89850003119E+02  0.89858978186E+02  0.12700000000E+01 0. -1.
         25    2    1    2    0    0  0.00000000000E+00  0.00000000000E+00 -0.46395769506E+02  0.13333176644E+03  0.12499917006E+03 0.  0.
    9000005    1    3    3    0    0  0.53603861480E+02 -0.30210371833E+02 -0.11554282232E+02  0.62614231367E+02  0.10000000000E+01 0.  0.
    9000005    1    3    3    0    0 -0.53603861480E+02  0.30210371833E+02 -0.34841487274E+02  0.70717535076E+02  0.10000000000E+01 0.  0.
<mgrwt>
<rscale>  0 0.12499917E+03</rscale>
<asrwt>0</asrwt>
<pdfrwt beam="1">  1        4 0.66873844E-02 0.12499917E+03</pdfrwt>
<pdfrwt beam="2">  1       -4 0.13825195E-01 0.12499917E+03</pdfrwt>
<totfact> 0.10273546E+04</totfact>
</mgrwt>
</event>
<event>
 5    1  0.3246948E-002  0.1250025E+03  0.7818608E-02  0.1235065E+00
         -4   -1    0    0    0  501 -0.00000000000E+00  0.00000000000E+00  0.14129350280E+02  0.14186311689E+02  0.12700000000E+01 0. -1.
          4   -1    0    0  501    0  0.00000000000E+00 -0.00000000000E+00 -0.27585986969E+03  0.27586279308E+03  0.12700000000E+01 0. -1.
         25    2    1    2    0    0  0.00000000000E+00  0.00000000000E+00 -0.26173051941E+03  0.29004910477E+03  0.12500247352E+03 0.  0.
    9000005    1    3    3    0    0  0.23900298645E+02 -0.32789894820E+02 -0.20581557258E+02  0.45508262731E+02  0.10000000000E+01 0.  0.
    9000005    1    3    3    0    0 -0.23900298645E+02  0.32789894820E+02 -0.24114896215E+03  0.24454084204E+03  0.10000000000E+01 0.  0.
<mgrwt>
<rscale>  0 0.12500247E+03</rscale>
<asrwt>0</asrwt>
<pdfrwt beam="2">  1        4 0.42444582E-01 0.12500247E+03</pdfrwt>
<pdfrwt beam="1">  1       -4 0.21783529E-02 0.12500247E+03</pdfrwt>
<totfact> 0.76860037E+03</totfact>
</mgrwt>
</event>
<event>
 5    1  0.3246948E-002  0.1250059E+03  0.7818608E-02  0.1235060E+00
          4   -1    0    0  501    0  0.00000000000E+00  0.00000000000E+00  0.46320337730E+03  0.46320511833E+03  0.12700000000E+01 0. -1.
         -4   -1    0    0    0  501 -0.00000000000E+00 -0.00000000000E+00 -0.83843337396E+01  0.84799736000E+01  0.12700000000E+01 0. -1.
         25    2    1    2    0    0  0.00000000000E+00  0.00000000000E+00  0.45481904356E+03  0.47168509193E+03  0.12500585410E+03 0.  0.
    9000005    1    3    3    0    0  0.60984410320E+02  0.73967408117E+01  0.18408945868E+03  0.19407147878E+03  0.10000000000E+01 0.  0.
    9000005    1    3    3    0    0 -0.60984410320E+02 -0.73967408117E+01  0.27072958488E+03  0.27761361315E+03  0.10000000000E+01 0.  0.
<mgrwt>
<rscale>  0 0.12500585E+03</rscale>
<asrwt>0</asrwt>
<pdfrwt beam="1">  1        4 0.71269564E-01 0.12500585E+03</pdfrwt>
<pdfrwt beam="2">  1       -4 0.12973881E-02 0.12500585E+03</pdfrwt>
<totfact> 0.58122691E+03</totfact>
</mgrwt>
</event>
<event>
 5    1  0.3246948E-002  0.1250001E+03  0.7818608E-02  0.1235069E+00
         -4   -1    0    0    0  501 -0.00000000000E+00  0.00000000000E+00  0.51423225998E+03  0.51423382824E+03  0.12700000000E+01 0.  1.
          4   -1    0    0  501    0  0.00000000000E+00 -0.00000000000E+00 -0.75416184793E+01  0.76478042134E+01  0.12700000000E+01 0.  1.
         25    2    1    2    0    0  0.00000000000E+00  0.00000000000E+00  0.50669064150E+03  0.52188163246E+03  0.12500012842E+03 0.  0.
    9000005    1    3    3    0    0 -0.30297435671E+02 -0.32496576449E+02  0.69866488904E+02  0.82802707449E+02  0.10000000000E+01 0.  0.
    9000005    1    3    3    0    0  0.30297435671E+02  0.32496576449E+02  0.43682415260E+03  0.43907892501E+03  0.10000000000E+01 0.  0.
<mgrwt>
<rscale>  0 0.12500013E+03</rscale>
<asrwt>0</asrwt>
<pdfrwt beam="2">  1        4 0.11685373E-02 0.12500013E+03</pdfrwt>
<pdfrwt beam="1">  1       -4 0.79120972E-01 0.12500013E+03</pdfrwt>
<totfact> 0.54205543E+03</totfact>
</mgrwt>
</event>
<event>
 5    1  0.3246948E-002  0.1249981E+03  0.7818608E-02  0.1235072E+00
          4   -1    0    0  501    0  0.00000000000E+00  0.00000000000E+00  0.41423794980E+03  0.41423989662E+03  0.12700000000E+01 0. -1.
         -4   -1    0    0    0  501 -0.00000000000E+00 -0.00000000000E+00 -0.93849410399E+01  0.94704814197E+01  0.12700000000E+01 0. -1.
         25    2    1    2    0    0  0.00000000000E+00  0.00000000000E+00  0.40485300876E+03  0.42371037804E+03  0.12499810302E+03 0.  0.
    9000005    1    3    3    0    0 -0.67071000820E+01 -0.21646519917E+02  0.50177741736E+01  0.23232199071E+02  0.10000000000E+01 0.  0.
    9000005    1    3    3    0    0  0.67071000820E+01  0.21646519917E+02  0.39983523458E+03  0.40047817897E+03  0.10000000000E+01 0.  0.
<mgrwt>
<rscale>  0 0.12499810E+03</rscale>
<asrwt>0</asrwt>
<pdfrwt beam="1">  1        4 0.63735643E-01 0.12499810E+03</pdfrwt>
<pdfrwt beam="2">  1       -4 0.14505669E-02 0.12499810E+03</pdfrwt>
<totfact> 0.62312880E+03</totfact>
</mgrwt>
</event>
<event>
 5    1  0.3246948E-002  0.1250017E+03  0.7818608E-02  0.1235067E+00
         -4   -1    0    0    0  501 -0.00000000000E+00  0.00000000000E+00  0.77265268956E+02  0.77275705671E+02  0.12700000000E+01 0. -1.
          4   -1    0    0  501    0  0.00000000000E+00 -0.00000000000E+00 -0.50535888910E+02  0.50551844357E+02  0.12700000000E+01 0. -1.
         25    2    1    2    0    0  0.00000000000E+00  0.00000000000E+00  0.26729380046E+02  0.12782755003E+03  0.12500169114E+03 0.  0.
    9000005    1    3    3    0    0 -0.38421357913E+02 -0.44803328714E+02 -0.76377839894E+01  0.59522052653E+02  0.10000000000E+01 0.  0.
    9000005    1    3    3    0    0  0.38421357913E+02  0.44803328714E+02  0.34367164036E+02  0.68305497375E+02  0.10000000000E+01 0.  0.
<mgrwt>
<rscale>  0 0.12500169E+03</rscale>
<asrwt>0</asrwt>
<pdfrwt beam="2">  1        4 0.77767824E-02 0.12500169E+03</pdfrwt>
<pdfrwt beam="1">  1       -4 0.11888995E-01 0.12500169E+03</pdfrwt>
<totfact> 0.10390817E+04</totfact>
</mgrwt>
</event>
<event>
 4    1  0.3246948E-002  0.1275612E+03  0.7818608E-02  0.1231120E+00
          4   -1    0    0  501    0  0.00000000000E+00  0.00000000000E+00  0.22436876326E+02  0.22472790643E+02  0.12700000000E+01 0. -1.
         -4   -1    0    0    0  501 -0.00000000000E+00 -0.00000000000E+00 -0.18112401905E+03  0.18112847147E+03  0.12700000000E+01 0. -1.
    9000005    1    1    2    0    0  0.25229818593E+02  0.52632484380E+02 -0.12035586315E+03  0.13376567554E+03  0.10000000000E+01 0.  0.
    9000005    1    1    2    0    0 -0.25229818593E+02 -0.52632484380E+02 -0.38331279579E+02  0.69835586576E+02  0.10000000000E+01 0.  0.
<mgrwt>
<rscale>  0 0.12756122E+03</rscale>
<asrwt>0</asrwt>
<pdfrwt beam="1">  1        4 0.34549324E-02 0.12756122E+03</pdfrwt>
<pdfrwt beam="2">  1       -4 0.27868338E-01 0.12756122E+03</pdfrwt>
<totfact> 0.84589466E+03</totfact>
</mgrwt>
</event>
<event>
 5    1  0.3246948E-002  0.1250007E+03  0.7818608E-02  0.1235068E+00
         -4   -1    0    0    0  501 -0.00000000000E+00  0.00000000000E+00  0.23485963893E+02  0.23520276358E+02  0.12700000000E+01 0.  1.
          4   -1    0    0  501    0  0.00000000000E+00 -0.00000000000E+00 -0.16616655500E+03  0.16617140819E+03  0.12700000000E+01 0.  1.
         25    2    1    2    0    0  0.00000000000E+00  0.00000000000E+00 -0.14268059110E+03  0.18969168455E+03  0.12500073643E+03 0.  0.
    9000005    1    3    3    0    0  0.65825165614E-01  0.21974033641E+02 -0.16011786144E+03  0.16162175608E+03  0.10000000000E+01 0.  0.
    9000005    1    3    3    0    0 -0.65825165614E-01 -0.21974033641E+02  0.17437270333E+02  0.28069928466E+02  0.10000000000E+01 0.  0.
<mgrwt>
<rscale>  0 0.12500074E+03</rscale>
<asrwt>0</asrwt>
<pdfrwt beam="2">  1        4 0.25567097E-01 0.12500074E+03</pdfrwt>
<pdfrwt beam="1">  1       -4 0.36162381E-02 0.12500074E+03</pdfrwt>
<totfact> 0.91899472E+03</totfact>
</mgrwt>
</event>
<event>
 5    1  0.3246948E-002  0.1250000E+03  0.7818608E-02  0.1235069E+00
          4   -1    0    0  501    0  0.00000000000E+00  0.00000000000E+00  0.17822084696E+03  0.17822537191E+03  0.12700000000E+01 0.  1.
         -4   -1    0    0    0  501 -0.00000000000E+00 -0.00000000000E+00 -0.21894827779E+02  0.21931629749E+02  0.12700000000E+01 0.  1.
         25    2    1    2    0    0  0.00000000000E+00  0.00000000000E+00  0.15632601919E+03  0.20015700166E+03  0.12500000416E+03 0.  0.
    9000005    1    3    3    0    0  0.18897306958E+02  0.54861978956E+02  0.11531440179E+03  0.12909436938E+03  0.10000000000E+01 0.  0.
    9000005    1    3    3    0    0 -0.18897306958E+02 -0.54861978956E+02  0.41011617394E+02  0.71062632279E+02  0.10000000000E+01 0.  0.
<mgrwt>
<rscale>  0 0.12500000E+03</rscale>
<asrwt>0</asrwt>
<pdfrwt beam="1">  1        4 0.27421770E-01 0.12500000E+03</pdfrwt>
<pdfrwt beam="2">  1       -4 0.33716141E-02 0.12500000E+03</pdfrwt>
<totfact> 0.90109025E+03</totfact>
</mgrwt>
</event>
<event>
 5    1  0.3246948E-002  0.1250000E+03  0.7818608E-02  0.1235069E+00
         -4   -1    0    0    0  501 -0.00000000000E+00  0.00000000000E+00  0.46997341518E+01  0.48683057728E+01  0.12700000000E+01 0. -1.
          4   -1    0    0  501    0  0.00000000000E+00 -0.00000000000E+00 -0.81635100868E+03  0.81635199655E+03  0.12700000000E+01 0. -1.
         25    2    1    2    0    0  0.00000000000E+00  0.00000000000E+00 -0.81165127453E+03  0.82122030233E+03  0.12499997402E+03 0.  0.
    9000005    1    3    3    0    0 -0.55743712950E+01 -0.41316747664E+02 -0.71166215731E+03  0.71288300120E+03  0.10000000000E+01 0.  0.
    9000005    1    3    3    0    0  0.55743712950E+01  0.41316747664E+02 -0.99989117224E+02  0.10833730113E+03  0.10000000000E+01 0.  0.
<mgrwt>
<rscale>  0 0.12499997E+03</rscale>
<asrwt>0</asrwt>
<pdfrwt beam="2">  1        4 0.12560540E+00 0.12499997E+03</pdfrwt>
<pdfrwt beam="1">  1       -4 0.73607971E-03 0.12499997E+03</pdfrwt>
<totfact> 0.37334825E+03</totfact>
</mgrwt>
</event>
<event>
 5    1  0.3246948E-002  0.1250050E+03  0.7818608E-02  0.1235061E+00
          4   -1    0    0  501    0  0.00000000000E+00  0.00000000000E+00  0.70258845990E+02  0.70270323323E+02  0.12700000000E+01 0. -1.
         -4   -1    0    0    0  501 -0.00000000000E+00 -0.00000000000E+00 -0.55579151186E+02  0.55593659230E+02  0.12700000000E+01 0. -1.
         25    2    1    2    0    0  0.00000000000E+00  0.00000000000E+00  0.14679694805E+02  0.12586398255E+03  0.12500499456E+03 0.  0.
    9000005    1    3    3    0    0  0.61081818040E+02  0.11982428840E+02  0.12945425606E+02  0.63585777813E+02  0.10000000000E+01 0.  0.
    9000005    1    3    3    0    0 -0.61081818040E+02 -0.11982428840E+02  0.17342691982E+01  0.62278204740E+02  0.10000000000E+01 0.  0.
<mgrwt>
<rscale>  0 0.12500499E+03</rscale>
<asrwt>0</asrwt>
<pdfrwt beam="1">  1        4 0.10811052E-01 0.12500499E+03</pdfrwt>
<pdfrwt beam="2">  1       -4 0.85526376E-02 0.12500499E+03</pdfrwt>
<totfact> 0.10432764E+04</totfact>
</mgrwt>
</event>
<event>
 5    1  0.3246948E-002  0.1250038E+03  0.7818608E-02  0.1235063E+00
          4   -1    0    0  501    0  0.00000000000E+00  0.00000000000E+00  0.34193993485E+01  0.36476282575E+01  0.12700000000E+01 0. -1.
         -4   -1    0    0    0  501 -0.00000000000E+00 -0.00000000000E+00 -0.11053243873E+04  0.11053251169E+04  0.12700000000E+01 0. -1.
         25    2    1    2    0    0  0.00000000000E+00  0.00000000000E+00 -0.11019049879E+04  0.11089727451E+04  0.12500378810E+03 0.  0.
    9000005    1    3    3    0    0 -0.55422387067E+02 -0.94944781312E+01 -0.79288642454E+03  0.79487839845E+03  0.10000000000E+01 0.  0.
    9000005    1    3    3    0    0  0.55422387067E+02  0.94944781312E+01 -0.30901856339E+03  0.31409434669E+03  0.10000000000E+01 0.  0.
<mgrwt>
<rscale>  0 0.12500379E+03</rscale>
<asrwt>0</asrwt>
<pdfrwt beam="1">  1        4 0.54367451E-03 0.12500379E+03</pdfrwt>
<pdfrwt beam="2">  1       -4 0.17006724E+00 0.12500379E+03</pdfrwt>
<totfact> 0.27220064E+03</totfact>
</mgrwt>
</event>
<event>
 5    1  0.3246948E-002  0.1250002E+03  0.7818608E-02  0.1235069E+00
         -4   -1    0    0    0  501 -0.00000000000E+00  0.00000000000E+00  0.69738731923E+02  0.69750294840E+02  0.12700000000E+01 0. -1.
          4   -1    0    0  501    0  0.00000000000E+00 -0.00000000000E+00 -0.55989414722E+02  0.56003816485E+02  0.12700000000E+01 0. -1.
         25    2    1    2    0    0  0.00000000000E+00  0.00000000000E+00  0.13749317201E+02  0.12575411133E+03  0.12500021117E+03 0.  0.
    9000005    1    3    3    0    0  0.42076264448E+02  0.40245898183E+02  0.29707773706E+02  0.65373512748E+02  0.10000000000E+01 0.  0.
    9000005    1    3    3    0    0 -0.42076264448E+02 -0.40245898183E+02 -0.15958456505E+02  0.60380598577E+02  0.10000000000E+01 0.  0.
<mgrwt>
<rscale>  0 0.12500021E+03</rscale>
<asrwt>0</asrwt>
<pdfrwt beam="2">  1        4 0.86157534E-02 0.12500021E+03</pdfrwt>
<pdfrwt beam="1">  1       -4 0.10731033E-01 0.12500021E+03</pdfrwt>
<totfact> 0.10436304E+04</totfact>
</mgrwt>
</event>
<event>
 5    1  0.3246948E-002  0.1250075E+03  0.7818608E-02  0.1235058E+00
         -4   -1    0    0    0  501 -0.00000000000E+00  0.00000000000E+00  0.21322591730E+01  0.24818197317E+01  0.12700000000E+01 0.  1.
          4   -1    0    0  501    0  0.00000000000E+00 -0.00000000000E+00 -0.16930400295E+04  0.16930405058E+04  0.12700000000E+01 0.  1.
         25    2    1    2    0    0  0.00000000000E+00  0.00000000000E+00 -0.16909077703E+04  0.16955223255E+04  0.12500747471E+03 0.  0.
    9000005    1    3    3    0    0 -0.19766086524E+02 -0.26546708831E+02 -0.12643019969E+03  0.13069438136E+03  0.10000000000E+01 0.  0.
    9000005    1    3    3    0    0  0.19766086524E+02  0.26546708831E+02 -0.15644775706E+04  0.15648279442E+04  0.10000000000E+01 0.  0.
<mgrwt>
<rscale>  0 0.12500747E+03</rscale>
<asrwt>0</asrwt>
<pdfrwt beam="2">  1        4 0.26049363E+00 0.12500747E+03</pdfrwt>
<pdfrwt beam="1">  1       -4 0.35496714E-03 0.12500747E+03</pdfrwt>
<totfact> 0.14380511E+03</totfact>
</mgrwt>
</event>
<event>
 5    1  0.3246948E-002  0.1250014E+03  0.7818608E-02  0.1235067E+00
          4   -1    0    0  501    0  0.00000000000E+00  0.00000000000E+00  0.14410188372E+02  0.14466043997E+02  0.12700000000E+01 0. -1.
         -4   -1    0    0    0  501 -0.00000000000E+00 -0.00000000000E+00 -0.27050010674E+03  0.27050308805E+03  0.12700000000E+01 0. -1.
         25    2    1    2    0    0  0.00000000000E+00  0.00000000000E+00 -0.25608991837E+03  0.28496913205E+03  0.12500143972E+03 0.  0.
    9000005    1    3    3    0    0  0.12600301544E+02 -0.54100253053E+02 -0.19331585071E+03  0.20114080420E+03  0.10000000000E+01 0.  0.
    9000005    1    3    3    0    0 -0.12600301544E+02  0.54100253053E+02 -0.62774067658E+02  0.83828327848E+02  0.10000000000E+01 0.  0.
<mgrwt>
<rscale>  0 0.12500144E+03</rscale>
<asrwt>0</asrwt>
<pdfrwt beam="1">  1        4 0.22214782E-02 0.12500144E+03</pdfrwt>
<pdfrwt beam="2">  1       -4 0.41619923E-01 0.12500144E+03</pdfrwt>
<totfact> 0.77521336E+03</totfact>
</mgrwt>
</event>
<event>
 5    1  0.3246948E-002  0.1250086E+03  0.7818608E-02  0.1235056E+00
         -4   -1    0    0    0  501 -0.00000000000E+00  0.00000000000E+00  0.19405873327E+03  0.19406288892E+03  0.12700000000E+01 0.  1.
          4   -1    0    0  501    0  0.00000000000E+00 -0.00000000000E+00 -0.20107582900E+02  0.20147649741E+02  0.12700000000E+01 0.  1.
         25    2    1    2    0    0  0.00000000000E+00  0.00000000000E+00  0.17395115037E+03  0.21421053867E+03  0.12500860835E+03 0.  0.
    9000005    1    3    3    0    0  0.15020199800E+01 -0.23548267775E+02 -0.12189604656E+02  0.26577498770E+02  0.10000000000E+01 0.  0.
    9000005    1    3    3    0    0 -0.15020199800E+01  0.23548267775E+02  0.18614075502E+03  0.18763303990E+03  0.10000000000E+01 0.  0.
<mgrwt>
<rscale>  0 0.12500861E+03</rscale>
<asrwt>0</asrwt>
<pdfrwt beam="2">  1        4 0.30968760E-02 0.12500861E+03</pdfrwt>
<pdfrwt beam="1">  1       -4 0.29858591E-01 0.12500861E+03</pdfrwt>
<totfact> 0.87775940E+03</totfact>
</mgrwt>
</event>
<event>
 5    1  0.3246948E-002  0.1249991E+03  0.7818608E-02  0.1235071E+00
          4   -1    0    0  501    0  0.00000000000E+00  0.00000000000E+00  0.16685629612E+02  0.16733891823E+02  0.12700000000E+01 0.  1.
         -4   -1    0    0    0  501 -0.00000000000E+00 -0.00000000000E+00 -0.23371721688E+03  0.23372066739E+03  0.12700000000E+01 0.  1.
         25    2    1    2    0    0  0.00000000000E+00  0.00000000000E+00 -0.21703158727E+03  0.25045455922E+03  0.12499910543E+03 0.  0.
    9000005    1    3    3    0    0 -0.56819284162E+02  0.22409987672E+02 -0.82043669373E+02  0.10228784035E+03  0.10000000000E+01 0.  0.
    9000005    1    3    3    0    0  0.56819284162E+02 -0.22409987672E+02 -0.13498791790E+03  0.14816671886E+03  0.10000000000E+01 0.  0.
<mgrwt>
<rscale>  0 0.12499911E+03</rscale>
<asrwt>0</asrwt>
<pdfrwt beam="1">  1        4 0.25709980E-02 0.12499911E+03</pdfrwt>
<pdfrwt beam="2">  1       -4 0.35960470E-01 0.12499911E+03</pdfrwt>
<totfact> 0.82266215E+03</totfact>
</mgrwt>
</event>
<event>
 5    1  0.3246948E-002  0.1249999E+03  0.7818608E-02  0.1235069E+00
         -4   -1    0    0    0  501 -0.00000000000E+00  0.00000000000E+00  0.10204837307E+03  0.10205627539E+03  0.12700000000E+01 0. -1.
          4   -1    0    0  501    0  0.00000000000E+00 -0.00000000000E+00 -0.38258448490E+02  0.38279521691E+02  0.12700000000E+01 0. -1.
         25    2    1    2    0    0  0.00000000000E+00  0.00000000000E+00  0.63789924577E+02  0.14033579708E+03  0.12499992585E+03 0.  0.
    9000005    1    3    3    0    0  0.12886910958E+02 -0.19794135752E+02  0.96849612891E+02  0.99693168278E+02  0.10000000000E+01 0.  0.
    9000005    1    3    3    0    0 -0.12886910958E+02  0.19794135752E+02 -0.33059688314E+02  0.40642628798E+02  0.10000000000E+01 0.  0.
<mgrwt>
<rscale>  0 0.12499993E+03</rscale>
<asrwt>0</asrwt>
<pdfrwt beam="2">  1        4 0.58881440E-02 0.12499993E+03</pdfrwt>
<pdfrwt beam="1">  1       -4 0.15701979E-01 0.12499993E+03</pdfrwt>
<totfact> 0.10126648E+04</totfact>
</mgrwt>
</event>
<event>
 5    1  0.3246948E-002  0.1250004E+03  0.7818608E-02  0.1235069E+00
         -4   -1    0    0    0  501 -0.00000000000E+00  0.00000000000E+00  0.57190822989E+03  0.57190963999E+03  0.12700000000E+01 0. -1.
          4   -1    0    0  501    0  0.00000000000E+00 -0.00000000000E+00 -0.67697861980E+01  0.68878810361E+01  0.12700000000E+01 0. -1.
         25    2    1    2    0    0  0.00000000000E+00  0.00000000000E+00  0.56513844369E+03  0.57879752103E+03  0.12500043924E+03 0.  0.
    9000005    1    3    3    0    0  0.45340877886E+02 -0.23980569554E+02  0.11727012516E+03  0.12800056710E+03  0.10000000000E+01 0.  0.
    9000005    1    3    3    0    0 -0.45340877886E+02  0.23980569554E+02  0.44786831853E+03  0.45079695392E+03  0.10000000000E+01 0.  0.
<mgrwt>
<rscale>  0 0.12500044E+03</rscale>
<asrwt>0</asrwt>
<pdfrwt beam="2">  1        4 0.10506982E-02 0.12500044E+03</pdfrwt>
<pdfrwt beam="1">  1       -4 0.87995082E-01 0.12500044E+03</pdfrwt>
<totfact> 0.50233431E+03</totfact>
</mgrwt>
</event>
<event>
 5    1  0.3246948E-002  0.1249997E+03  0.7818608E-02  0.1235070E+00
          4   -1    0    0  501    0  0.00000000000E+00  0.00000000000E+00  0.92934788323E+01  0.93798533468E+01  0.12700000000E+01 0.  1.
         -4   -1    0    0    0  501 -0.00000000000E+00 -0.00000000000E+00 -0.41828830768E+03  0.41829023566E+03  0.12700000000E+01 0.  1.
         25    2    1    2    0    0  0.00000000000E+00  0.00000000000E+00 -0.40899482885E+03  0.42767008900E+03  0.12499974000E+03 0.  0.
    9000005    1    3    3    0    0  0.24350043413E+02  0.14334936716E+02 -0.39520050192E+03  0.39621061538E+03  0.10000000000E+01 0.  0.
    9000005    1    3    3    0    0 -0.24350043413E+02 -0.14334936716E+02 -0.13794326931E+02  0.31459473619E+02  0.10000000000E+01 0.  0.
<mgrwt>
<rscale>  0 0.12499974E+03</rscale>
<asrwt>0</asrwt>
<pdfrwt beam="1">  1        4 0.14365588E-02 0.12499974E+03</pdfrwt>
<pdfrwt beam="2">  1       -4 0.64358825E-01 0.12499974E+03</pdfrwt>
<totfact> 0.61948114E+03</totfact>
</mgrwt>
</event>
<event>
 5    1  0.3246948E-002  0.1249930E+03  0.7818608E-02  0.1235080E+00
          4   -1    0    0  501    0  0.00000000000E+00  0.00000000000E+00  0.10813834378E+02  0.10888154755E+02  0.12700000000E+01 0.  1.
         -4   -1    0    0    0  501 -0.00000000000E+00 -0.00000000000E+00 -0.35987440302E+03  0.35987664393E+03  0.12700000000E+01 0.  1.
         25    2    1    2    0    0  0.00000000000E+00  0.00000000000E+00 -0.34906056864E+03  0.37076479868E+03  0.12499302127E+03 0.  0.
    9000005    1    3    3    0    0  0.61592707233E+01  0.60630127059E+02 -0.21551064573E+03  0.22396380812E+03  0.10000000000E+01 0.  0.
    9000005    1    3    3    0    0 -0.61592707233E+01 -0.60630127059E+02 -0.13354992290E+03  0.14680099057E+03  0.10000000000E+01 0.  0.
<mgrwt>
<rscale>  0 0.12499302E+03</rscale>
<asrwt>0</asrwt>
<pdfrwt beam="1">  1        4 0.16695564E-02 0.12499302E+03</pdfrwt>
<pdfrwt beam="2">  1       -4 0.55371173E-01 0.12499302E+03</pdfrwt>
<totfact> 0.67509420E+03</totfact>
</mgrwt>
</event>
<event>
 5    1  0.3246948E-002  0.1249999E+03  0.7818608E-02  0.1235069E+00
          4   -1    0    0  501    0  0.00000000000E+00  0.00000000000E+00  0.45614476806E+02  0.45632153075E+02  0.12700000000E+01 0. -1.
         -4   -1    0    0    0  501 -0.00000000000E+00 -0.00000000000E+00 -0.85597088042E+02  0.85606508989E+02  0.12700000000E+01 0. -1.
         25    2    1    2    0    0  0.00000000000E+00  0.00000000000E+00 -0.39982611236E+02  0.13123866206E+03  0.12499990888E+03 0.  0.
    9000005    1    3    3    0    0 -0.25664880115E+02  0.11876659451E+02 -0.78499687579E+02  0.83444245224E+02  0.10000000000E+01 0.  0.
    9000005    1    3    3    0    0  0.25664880115E+02 -0.11876659451E+02  0.38517076343E+02  0.47794416839E+02  0.10000000000E+01 0.  0.
<mgrwt>
<rscale>  0 0.12499991E+03</rscale>
<asrwt>0</asrwt>
<pdfrwt beam="1">  1        4 0.70196962E-02 0.12499991E+03</pdfrwt>
<pdfrwt beam="2">  1       -4 0.13170867E-01 0.12499991E+03</pdfrwt>
<totfact> 0.10317997E+04</totfact>
</mgrwt>
</event>
<event>
 5    1  0.3246948E-002  0.1249999E+03  0.7818608E-02  0.1235069E+00
          4   -1    0    0  501    0  0.00000000000E+00  0.00000000000E+00  0.34239684933E+03  0.34239920463E+03  0.12700000000E+01 0. -1.
         -4   -1    0    0    0  501 -0.00000000000E+00 -0.00000000000E+00 -0.11370783215E+02  0.11441486395E+02  0.12700000000E+01 0. -1.
         25    2    1    2    0    0  0.00000000000E+00  0.00000000000E+00  0.33102606612E+03  0.35384069103E+03  0.12499991271E+03 0.  0.
    9000005    1    3    3    0    0 -0.41774147539E+02 -0.26748655591E+02  0.57920265643E+02  0.76264848723E+02  0.10000000000E+01 0.  0.
    9000005    1    3    3    0    0  0.41774147539E+02  0.26748655591E+02  0.27310580047E+03  0.27757584230E+03  0.10000000000E+01 0.  0.
<mgrwt>
<rscale>  0 0.12499991E+03</rscale>
<asrwt>0</asrwt>
<pdfrwt beam="1">  1        4 0.52682057E-01 0.12499991E+03</pdfrwt>
<pdfrwt beam="2">  1       -4 0.17549712E-02 0.12499991E+03</pdfrwt>
<totfact> 0.69304223E+03</totfact>
</mgrwt>
</event>
<event>
 5    1  0.3246948E-002  0.1249955E+03  0.7818608E-02  0.1235076E+00
          4   -1    0    0  501    0  0.00000000000E+00  0.00000000000E+00  0.27092661477E+01  0.29921602662E+01  0.12700000000E+01 0. -1.
         -4   -1    0    0    0  501 -0.00000000000E+00 -0.00000000000E+00 -0.13698902136E+04  0.13698908023E+04  0.12700000000E+01 0. -1.
         25    2    1    2    0    0  0.00000000000E+00  0.00000000000E+00 -0.13671809474E+04  0.13728829626E+04  0.12499554320E+03 0.  0.
    9000005    1    3    3    0    0 -0.46727701086E+02 -0.40947382016E+02 -0.75711017607E+03  0.75965583316E+03  0.10000000000E+01 0.  0.
    9000005    1    3    3    0    0  0.46727701086E+02  0.40947382016E+02 -0.61007077138E+03  0.61322712940E+03  0.10000000000E+01 0.  0.
<mgrwt>
<rscale>  0 0.12499554E+03</rscale>
<asrwt>0</asrwt>
<pdfrwt beam="1">  1        4 0.43861764E-03 0.12499554E+03</pdfrwt>
<pdfrwt beam="2">  1       -4 0.21077362E+00 0.12499554E+03</pdfrwt>
<totfact> 0.20572481E+03</totfact>
</mgrwt>
</event>
<event>
 5    1  0.3246948E-002  0.1250017E+03  0.7818608E-02  0.1235067E+00
          4   -1    0    0  501    0  0.00000000000E+00  0.00000000000E+00  0.95161359142E+02  0.95169833318E+02  0.12700000000E+01 0.  1.
         -4   -1    0    0    0  501 -0.00000000000E+00 -0.00000000000E+00 -0.41029710466E+02  0.41049361030E+02  0.12700000000E+01 0.  1.
         25    2    1    2    0    0  0.00000000000E+00  0.00000000000E+00  0.54131648676E+02  0.13621919435E+03  0.12500173407E+03 0.  0.
    9000005    1    3    3    0    0 -0.33044953135E+02 -0.40457381154E+02 -0.10313788797E+02  0.53255449081E+02  0.10000000000E+01 0.  0.
    9000005    1    3    3    0    0  0.33044953135E+02  0.40457381154E+02  0.64445437473E+02  0.82963745266E+02  0.10000000000E+01 0.  0.
<mgrwt>
<rscale>  0 0.12500173E+03</rscale>
<asrwt>0</asrwt>
<pdfrwt beam="1">  1        4 0.14642373E-01 0.12500173E+03</pdfrwt>
<pdfrwt beam="2">  1       -4 0.63144266E-02 0.12500173E+03</pdfrwt>
<totfact> 0.10212038E+04</totfact>
</mgrwt>
</event>
<event>
 5    1  0.3246948E-002  0.1250070E+03  0.7818608E-02  0.1235058E+00
          4   -1    0    0  501    0  0.00000000000E+00  0.00000000000E+00  0.15196770895E+03  0.15197301558E+03  0.12700000000E+01 0. -1.
         -4   -1    0    0    0  501 -0.00000000000E+00 -0.00000000000E+00 -0.25685928480E+02  0.25717305883E+02  0.12700000000E+01 0. -1.
         25    2    1    2    0    0  0.00000000000E+00  0.00000000000E+00  0.12628178047E+03  0.17769032146E+03  0.12500704885E+03 0.  0.
    9000005    1    3    3    0    0  0.57001860286E+02 -0.20171170520E+02  0.85597987621E+02  0.10480507469E+03  0.10000000000E+01 0.  0.
    9000005    1    3    3    0    0 -0.57001860286E+02  0.20171170520E+02  0.40683792849E+02  0.72885246770E+02  0.10000000000E+01 0.  0.
<mgrwt>
<rscale>  0 0.12500705E+03</rscale>
<asrwt>0</asrwt>
<pdfrwt beam="1">  1        4 0.23382469E-01 0.12500705E+03</pdfrwt>
<pdfrwt beam="2">  1       -4 0.39545032E-02 0.12500705E+03</pdfrwt>
<totfact> 0.94019549E+03</totfact>
</mgrwt>
</event>
<event>
 5    1  0.3246948E-002  0.1250009E+03  0.7818608E-02  0.1235068E+00
         -4   -1    0    0    0  501 -0.00000000000E+00  0.00000000000E+00  0.16545828702E+03  0.16546316099E+03  0.12700000000E+01 0. -1.
          4   -1    0    0  501    0  0.00000000000E+00 -0.00000000000E+00 -0.23586717862E+02  0.23620883970E+02  0.12700000000E+01 0. -1.
         25    2    1    2    0    0  0.00000000000E+00  0.00000000000E+00  0.14187156916E+03  0.18908404496E+03  0.12500093568E+03 0.  0.
    9000005    1    3    3    0    0 -0.14672152937E+02  0.31985834342E+02  0.14905330899E+03  0.15315434892E+03  0.10000000000E+01 0.  0.
    9000005    1    3    3    0    0  0.14672152937E+02 -0.31985834342E+02 -0.71817398350E+01  0.35929696039E+02  0.10000000000E+01 0.  0.
<mgrwt>
<rscale>  0 0.12500094E+03</rscale>
<asrwt>0</asrwt>
<pdfrwt beam="2">  1        4 0.36317288E-02 0.12500094E+03</pdfrwt>
<pdfrwt beam="1">  1       -4 0.25458125E-01 0.12500094E+03</pdfrwt>
<totfact> 0.92005003E+03</totfact>
</mgrwt>
</event>
<event>
 5    1  0.3246948E-002  0.1250016E+03  0.7818608E-02  0.1235067E+00
         -4   -1    0    0    0  501 -0.00000000000E+00  0.00000000000E+00  0.80050832052E+03  0.80050932794E+03  0.12700000000E+01 0.  1.
          4   -1    0    0  501    0  0.00000000000E+00 -0.00000000000E+00 -0.47961752705E+01  0.49614712762E+01  0.12700000000E+01 0.  1.
         25    2    1    2    0    0  0.00000000000E+00  0.00000000000E+00  0.79571214525E+03  0.80547079922E+03  0.12500156117E+03 0.  0.
    9000005    1    3    3    0    0 -0.25633873257E+02 -0.26572864706E+02  0.72274406957E+03  0.72368722712E+03  0.10000000000E+01 0.  0.
    9000005    1    3    3    0    0  0.25633873257E+02  0.26572864706E+02  0.72968075677E+02  0.81783572096E+02  0.10000000000E+01 0.  0.
<mgrwt>
<rscale>  0 0.12500156E+03</rscale>
<asrwt>0</asrwt>
<pdfrwt beam="2">  1        4 0.75066539E-03 0.12500156E+03</pdfrwt>
<pdfrwt beam="1">  1       -4 0.12316797E+00 0.12500156E+03</pdfrwt>
<totfact> 0.38020346E+03</totfact>
</mgrwt>
</event>
<event>
 5    1  0.3246948E-002  0.1250015E+03  0.7818608E-02  0.1235067E+00
          4   -1    0    0  501    0  0.00000000000E+00  0.00000000000E+00  0.21358781476E+03  0.21359159045E+03  0.12700000000E+01 0. -1.
         -4   -1    0    0    0  501 -0.00000000000E+00 -0.00000000000E+00 -0.18263182665E+02  0.18307286556E+02  0.12700000000E+01 0. -1.
         25    2    1    2    0    0  0.00000000000E+00  0.00000000000E+00  0.19532463209E+03  0.23189887701E+03  0.12500150902E+03 0.  0.
    9000005    1    3    3    0    0  0.41762951085E+02 -0.46477862280E+02  0.95799234536E+02  0.11438019541E+03  0.10000000000E+01 0.  0.
    9000005    1    3    3    0    0 -0.41762951085E+02  0.46477862280E+02  0.99525397557E+02  0.11751868160E+03  0.10000000000E+01 0.  0.
<mgrwt>
<rscale>  0 0.12500151E+03</rscale>
<asrwt>0</asrwt>
<pdfrwt beam="1">  1        4 0.32863349E-01 0.12500151E+03</pdfrwt>
<pdfrwt beam="2">  1       -4 0.28134033E-02 0.12500151E+03</pdfrwt>
<totfact> 0.85016008E+03</totfact>
</mgrwt>
</event>
<event>
 5    1  0.3246948E-002  0.1250045E+03  0.7818608E-02  0.1235062E+00
          4   -1    0    0  501    0  0.00000000000E+00  0.00000000000E+00  0.28779193448E+03  0.28779473666E+03  0.12700000000E+01 0.  1.
         -4   -1    0    0    0  501 -0.00000000000E+00 -0.00000000000E+00 -0.13541565560E+02  0.13600988854E+02  0.12700000000E+01 0.  1.
         25    2    1    2    0    0  0.00000000000E+00  0.00000000000E+00  0.27425036892E+03  0.30139572551E+03  0.12500447395E+03 0.  0.
    9000005    1    3    3    0    0 -0.98386286059E+01 -0.48819656139E+02  0.46097043730E+02  0.67868217002E+02  0.10000000000E+01 0.  0.
    9000005    1    3    3    0    0  0.98386286059E+01  0.48819656139E+02  0.22815332519E+03  0.23352750851E+03  0.10000000000E+01 0.  0.
<mgrwt>
<rscale>  0 0.12500447E+03</rscale>
<asrwt>0</asrwt>
<pdfrwt beam="1">  1        4 0.44280470E-01 0.12500447E+03</pdfrwt>
<pdfrwt beam="2">  1       -4 0.20881043E-02 0.12500447E+03</pdfrwt>
<totfact> 0.75416602E+03</totfact>
</mgrwt>
</event>
<event>
 5    1  0.3246948E-002  0.1250013E+03  0.7818608E-02  0.1235067E+00
          4   -1    0    0  501    0  0.00000000000E+00  0.00000000000E+00  0.10204873148E+03  0.10205663378E+03  0.12700000000E+01 0.  1.
         -4   -1    0    0    0  501 -0.00000000000E+00 -0.00000000000E+00 -0.38259149459E+02  0.38280222274E+02  0.12700000000E+01 0.  1.
         25    2    1    2    0    0  0.00000000000E+00  0.00000000000E+00  0.63789582025E+02  0.14033685605E+03  0.12500128956E+03 0.  0.
    9000005    1    3    3    0    0 -0.38619505753E+01  0.35355827800E+02 -0.25793886078E+02  0.43946260144E+02  0.10000000000E+01 0.  0.
    9000005    1    3    3    0    0  0.38619505753E+01 -0.35355827800E+02  0.89583468103E+02  0.96390595905E+02  0.10000000000E+01 0.  0.
<mgrwt>
<rscale>  0 0.12500129E+03</rscale>
<asrwt>0</asrwt>
<pdfrwt beam="1">  1        4 0.15702034E-01 0.12500129E+03</pdfrwt>
<pdfrwt beam="2">  1       -4 0.58882519E-02 0.12500129E+03</pdfrwt>
<totfact> 0.10126315E+04</totfact>
</mgrwt>
</event>
<event>
 5    1  0.3246948E-002  0.1249988E+03  0.7818608E-02  0.1235071E+00
          4   -1    0    0  501    0  0.00000000000E+00  0.00000000000E+00  0.48574106143E+02  0.48590705774E+02  0.12700000000E+01 0.  1.
         -4   -1    0    0    0  501 -0.00000000000E+00 -0.00000000000E+00 -0.80381398268E+02  0.80391430436E+02  0.12700000000E+01 0.  1.
         25    2    1    2    0    0  0.00000000000E+00  0.00000000000E+00 -0.31807292125E+02  0.12898213621E+03  0.12499875051E+03 0.  0.
    9000005    1    3    3    0    0 -0.74534632753E+01 -0.45736253554E+02 -0.59166007139E+02  0.75159666077E+02  0.10000000000E+01 0.  0.
    9000005    1    3    3    0    0  0.74534632753E+01  0.45736253554E+02  0.27358715014E+02  0.53822470133E+02  0.10000000000E+01 0.  0.
<mgrwt>
<rscale>  0 0.12499875E+03</rscale>
<asrwt>0</asrwt>
<pdfrwt beam="1">  1        4 0.74749880E-02 0.12499875E+03</pdfrwt>
<pdfrwt beam="2">  1       -4 0.12368418E-01 0.12499875E+03</pdfrwt>
<totfact> 0.10366623E+04</totfact>
</mgrwt>
</event>
<event>
 5    1  0.3246948E-002  0.1249977E+03  0.7818608E-02  0.1235073E+00
         -4   -1    0    0    0  501 -0.00000000000E+00  0.00000000000E+00  0.99828892248E+03  0.99828973031E+03  0.12700000000E+01 0. -1.
          4   -1    0    0  501    0  0.00000000000E+00 -0.00000000000E+00 -0.38089209810E+01  0.40150689956E+01  0.12700000000E+01 0. -1.
         25    2    1    2    0    0  0.00000000000E+00  0.00000000000E+00  0.99448000150E+03  0.10023047993E+04  0.12499774931E+03 0.  0.
    9000005    1    3    3    0    0 -0.50287354366E+02  0.34852455261E+02  0.39530691158E+03  0.40001508220E+03  0.10000000000E+01 0.  0.
    9000005    1    3    3    0    0  0.50287354366E+02 -0.34852455261E+02  0.59917308992E+03  0.60228971711E+03  0.10000000000E+01 0.  0.
<mgrwt>
<rscale>  0 0.12499775E+03</rscale>
<asrwt>0</asrwt>
<pdfrwt beam="2">  1        4 0.60190766E-03 0.12499775E+03</pdfrwt>
<pdfrwt beam="1">  1       -4 0.15359880E+00 0.12499775E+03</pdfrwt>
<totfact> 0.30530009E+03</totfact>
</mgrwt>
</event>
<event>
 5    1  0.3246948E-002  0.1250017E+03  0.7818608E-02  0.1235067E+00
          4   -1    0    0  501    0  0.00000000000E+00  0.00000000000E+00  0.31808180089E+01  0.34249822198E+01  0.12700000000E+01 0.  1.
         -4   -1    0    0    0  501 -0.00000000000E+00 -0.00000000000E+00 -0.11824603776E+04  0.11824610596E+04  0.12700000000E+01 0.  1.
         25    2    1    2    0    0  0.00000000000E+00  0.00000000000E+00 -0.11792795596E+04  0.11858860418E+04  0.12500169814E+03 0.  0.
    9000005    1    3    3    0    0 -0.28368066713E+02 -0.74986445607E+01 -0.11130912469E+04  0.11134783792E+04  0.10000000000E+01 0.  0.
    9000005    1    3    3    0    0  0.28368066713E+02  0.74986445607E+01 -0.66188312652E+02  0.72407662654E+02  0.10000000000E+01 0.  0.
<mgrwt>
<rscale>  0 0.12500170E+03</rscale>
<asrwt>0</asrwt>
<pdfrwt beam="1">  1        4 0.50819189E-03 0.12500170E+03</pdfrwt>
<pdfrwt beam="2">  1       -4 0.18193548E+00 0.12500170E+03</pdfrwt>
<totfact> 0.25084326E+03</totfact>
</mgrwt>
</event>
<event>
 4    1  0.3246948E-002  0.1247046E+03  0.7818608E-02  0.1235532E+00
          4   -1    0    0  501    0  0.00000000000E+00  0.00000000000E+00  0.34167154091E+01  0.36451123695E+01  0.12700000000E+01 0. -1.
         -4   -1    0    0    0  501 -0.00000000000E+00 -0.00000000000E+00 -0.11008487019E+04  0.11008494345E+04  0.12700000000E+01 0. -1.
    9000005    1    1    2    0    0 -0.41563200734E+02 -0.32771869431E+02 -0.84049827453E+03  0.84216378725E+03  0.10000000000E+01 0.  0.
    9000005    1    1    2    0    0  0.41563200734E+02  0.32771869431E+02 -0.25693371199E+03  0.26233075961E+03  0.10000000000E+01 0.  0.
<mgrwt>
<rscale>  0 0.12470461E+03</rscale>
<asrwt>0</asrwt>
<pdfrwt beam="1">  1        4 0.54327475E-03 0.12470461E+03</pdfrwt>
<pdfrwt beam="2">  1       -4 0.16937869E+00 0.12470461E+03</pdfrwt>
<totfact> 0.27529252E+03</totfact>
</mgrwt>
</event>
<event>
 5    1  0.3246948E-002  0.1250007E+03  0.7818608E-02  0.1235068E+00
         -4   -1    0    0    0  501 -0.00000000000E+00  0.00000000000E+00  0.24662039424E+02  0.24694717827E+02  0.12700000000E+01 0. -1.
          4   -1    0    0  501    0  0.00000000000E+00 -0.00000000000E+00 -0.15825286965E+03  0.15825796553E+03  0.12700000000E+01 0. -1.
         25    2    1    2    0    0  0.00000000000E+00  0.00000000000E+00 -0.13359083023E+03  0.18295268336E+03  0.12500069770E+03 0.  0.
    9000005    1    3    3    0    0  0.23668059207E+02 -0.13875812577E+02  0.15383290176E+02  0.31469998696E+02  0.10000000000E+01 0.  0.
    9000005    1    3    3    0    0 -0.23668059207E+02  0.13875812577E+02 -0.14897412041E+03  0.15148268466E+03  0.10000000000E+01 0.  0.
<mgrwt>
<rscale>  0 0.12500070E+03</rscale>
<asrwt>0</asrwt>
<pdfrwt beam="2">  1        4 0.24349500E-01 0.12500070E+03</pdfrwt>
<pdfrwt beam="1">  1       -4 0.37970657E-02 0.12500070E+03</pdfrwt>
<totfact> 0.93086739E+03</totfact>
</mgrwt>
</event>
<event>
 5    1  0.3246948E-002  0.1249994E+03  0.7818608E-02  0.1235070E+00
          4   -1    0    0  501    0  0.00000000000E+00  0.00000000000E+00  0.25053912028E+03  0.25054233912E+03  0.12700000000E+01 0. -1.
         -4   -1    0    0    0  501 -0.00000000000E+00 -0.00000000000E+00 -0.15562040641E+02  0.15613776254E+02  0.12700000000E+01 0. -1.
         25    2    1    2    0    0  0.00000000000E+00  0.00000000000E+00  0.23497707964E+03  0.26615611537E+03  0.12499939918E+03 0.  0.
    9000005    1    3    3    0    0  0.37467213020E+02 -0.49998697895E+02  0.11483711544E+03  0.13073723619E+03  0.10000000000E+01 0.  0.
    9000005    1    3    3    0    0 -0.37467213020E+02  0.49998697895E+02  0.12013996420E+03  0.13541887919E+03  0.10000000000E+01 0.  0.
<mgrwt>
<rscale>  0 0.12499940E+03</rscale>
<asrwt>0</asrwt>
<pdfrwt beam="1">  1        4 0.38548705E-01 0.12499940E+03</pdfrwt>
<pdfrwt beam="2">  1       -4 0.23983875E-02 0.12499940E+03</pdfrwt>
<totfact> 0.80050896E+03</totfact>
</mgrwt>
</event>
<event>
 5    1  0.3246948E-002  0.1249937E+03  0.7818608E-02  0.1235079E+00
         -4   -1    0    0    0  501 -0.00000000000E+00  0.00000000000E+00  0.12130617576E+03  0.12131282364E+03  0.12700000000E+01 0.  1.
          4   -1    0    0  501    0  0.00000000000E+00 -0.00000000000E+00 -0.32178252512E+02  0.32203304717E+02  0.12700000000E+01 0.  1.
         25    2    1    2    0    0  0.00000000000E+00  0.00000000000E+00  0.89127923251E+02  0.15351612835E+03  0.12499365968E+03 0.  0.
    9000005    1    3    3    0    0 -0.48147614116E+02  0.55382499353E+00 -0.43537481952E+01  0.48357570148E+02  0.10000000000E+01 0.  0.
    9000005    1    3    3    0    0  0.48147614116E+02 -0.55382499353E+00  0.93481671447E+02  0.10515855820E+03  0.10000000000E+01 0.  0.
<mgrwt>
<rscale>  0 0.12499366E+03</rscale>
<asrwt>0</asrwt>
<pdfrwt beam="2">  1        4 0.49529387E-02 0.12499366E+03</pdfrwt>
<pdfrwt beam="1">  1       -4 0.18664927E-01 0.12499366E+03</pdfrwt>
<totfact> 0.98621437E+03</totfact>
</mgrwt>
</event>
<event>
 5    1  0.3246948E-002  0.1250004E+03  0.7818608E-02  0.1235069E+00
         -4   -1    0    0    0  501 -0.00000000000E+00  0.00000000000E+00  0.63447571586E+01  0.64706138350E+01  0.12700000000E+01 0.  1.
          4   -1    0    0  501    0  0.00000000000E+00 -0.00000000000E+00 -0.60949642867E+03  0.60949775181E+03  0.12700000000E+01 0.  1.
         25    2    1    2    0    0  0.00000000000E+00  0.00000000000E+00 -0.60315167151E+03  0.61596836564E+03  0.12500035451E+03 0.  0.
    9000005    1    3    3    0    0 -0.50887303661E+02 -0.22621036454E+02 -0.16184673835E+03  0.17116248327E+03  0.10000000000E+01 0.  0.
    9000005    1    3    3    0    0  0.50887303661E+02  0.22621036454E+02 -0.44130493315E+03  0.44480588237E+03  0.10000000000E+01 0.  0.
<mgrwt>
<rscale>  0 0.12500035E+03</rscale>
<asrwt>0</asrwt>
<pdfrwt beam="2">  1        4 0.93778419E-01 0.12500035E+03</pdfrwt>
<pdfrwt beam="1">  1       -4 0.98590002E-03 0.12500035E+03</pdfrwt>
<totfact> 0.47874554E+03</totfact>
</mgrwt>
</event>
<event>
 5    1  0.3246948E-002  0.1249991E+03  0.7818608E-02  0.1235071E+00
          4   -1    0    0  501    0  0.00000000000E+00  0.00000000000E+00  0.10590484495E+02  0.10666361228E+02  0.12700000000E+01 0. -1.
         -4   -1    0    0    0  501 -0.00000000000E+00 -0.00000000000E+00 -0.36744630407E+03  0.36744849881E+03  0.12700000000E+01 0. -1.
         25    2    1    2    0    0  0.00000000000E+00  0.00000000000E+00 -0.35685581958E+03  0.37811486004E+03  0.12499908565E+03 0.  0.
    9000005    1    3    3    0    0  0.11467587237E+02 -0.25018066144E+02 -0.34814256568E+03  0.34923008924E+03  0.10000000000E+01 0.  0.
    9000005    1    3    3    0    0 -0.11467587237E+02  0.25018066144E+02 -0.87132538975E+01  0.28884770799E+02  0.10000000000E+01 0.  0.
<mgrwt>
<rscale>  0 0.12499909E+03</rscale>
<asrwt>0</asrwt>
<pdfrwt beam="1">  1        4 0.16353111E-02 0.12499909E+03</pdfrwt>
<pdfrwt beam="2">  1       -4 0.56536196E-01 0.12499909E+03</pdfrwt>
<totfact> 0.66739783E+03</totfact>
</mgrwt>
</event>
<event>
 5    1  0.3246948E-002  0.1250006E+03  0.7818608E-02  0.1235068E+00
          4   -1    0    0  501    0  0.00000000000E+00  0.00000000000E+00  0.78824228910E+02  0.78834459238E+02  0.12700000000E+01 0. -1.
         -4   -1    0    0    0  501 -0.00000000000E+00 -0.00000000000E+00 -0.49535391096E+02  0.49551668700E+02  0.12700000000E+01 0. -1.
         25    2    1    2    0    0  0.00000000000E+00  0.00000000000E+00  0.29288837815E+02  0.12838612794E+03  0.12500064730E+03 0.  0.
    9000005    1    3    3    0    0  0.59371319983E+02  0.16255008221E+02  0.25711765449E+02  0.66717867257E+02  0.10000000000E+01 0.  0.
    9000005    1    3    3    0    0 -0.59371319983E+02 -0.16255008221E+02  0.35770723653E+01  0.61668260681E+02  0.10000000000E+01 0.  0.
<mgrwt>
<rscale>  0 0.12500065E+03</rscale>
<asrwt>0</asrwt>
<pdfrwt beam="1">  1        4 0.12128843E-01 0.12500065E+03</pdfrwt>
<pdfrwt beam="2">  1       -4 0.76228685E-02 0.12500065E+03</pdfrwt>
<totfact> 0.10379006E+04</totfact>
</mgrwt>
</event>
<event>
 5    1  0.3246948E-002  0.1249950E+03  0.7818608E-02  0.1235077E+00
         -4   -1    0    0    0  501 -0.00000000000E+00  0.00000000000E+00  0.63369439477E+01  0.64629527768E+01  0.12700000000E+01 0.  1.
          4   -1    0    0  501    0  0.00000000000E+00 -0.00000000000E+00 -0.61018075544E+03  0.61018207710E+03  0.12700000000E+01 0.  1.
         25    2    1    2    0    0  0.00000000000E+00  0.00000000000E+00 -0.60384381149E+03  0.61664502987E+03  0.12499497666E+03 0.  0.
    9000005    1    3    3    0    0  0.49807477917E+02 -0.16101126358E+02 -0.13354290974E+03  0.14343897612E+03  0.10000000000E+01 0.  0.
    9000005    1    3    3    0    0 -0.49807477917E+02  0.16101126358E+02 -0.47030090175E+03  0.47320605376E+03  0.10000000000E+01 0.  0.
<mgrwt>
<rscale>  0 0.12499498E+03</rscale>
<asrwt>0</asrwt>
<pdfrwt beam="2">  1        4 0.93883712E-01 0.12499498E+03</pdfrwt>
<pdfrwt beam="1">  1       -4 0.98470958E-03 0.12499498E+03</pdfrwt>
<totfact> 0.47838791E+03</totfact>
</mgrwt>
</event>
<event>
 5    1  0.3246948E-002  0.1249870E+03  0.7818608E-02  0.1235090E+00
          4   -1    0    0  501    0  0.00000000000E+00  0.00000000000E+00  0.15433433465E+02  0.15485598745E+02  0.12700000000E+01 0.  1.
         -4   -1    0    0    0  501 -0.00000000000E+00 -0.00000000000E+00 -0.25256970354E+03  0.25257289650E+03  0.12700000000E+01 0.  1.
         25    2    1    2    0    0  0.00000000000E+00  0.00000000000E+00 -0.23713627008E+03  0.26805849525E+03  0.12498698447E+03 0.  0.
    9000005    1    3    3    0    0  0.32583217116E+01  0.62399313466E+02 -0.11938647065E+03  0.13475318310E+03  0.10000000000E+01 0.  0.
    9000005    1    3    3    0    0 -0.32583217116E+01 -0.62399313466E+02 -0.11774979943E+03  0.13330531215E+03  0.10000000000E+01 0.  0.
<mgrwt>
<rscale>  0 0.12498698E+03</rscale>
<asrwt>0</asrwt>
<pdfrwt beam="1">  1        4 0.23786329E-02 0.12498698E+03</pdfrwt>
<pdfrwt beam="2">  1       -4 0.38861133E-01 0.12498698E+03</pdfrwt>
<totfact> 0.79811409E+03</totfact>
</mgrwt>
</event>
<event>
 5    1  0.3246948E-002  0.1250020E+03  0.7818608E-02  0.1235066E+00
         -4   -1    0    0    0  501 -0.00000000000E+00  0.00000000000E+00  0.14681487016E+02  0.14736314362E+02  0.12700000000E+01 0.  1.
          4   -1    0    0  501    0  0.00000000000E+00 -0.00000000000E+00 -0.26552274544E+03  0.26552578264E+03  0.12700000000E+01 0.  1.
         25    2    1    2    0    0  0.00000000000E+00  0.00000000000E+00 -0.25084125843E+03  0.28026209700E+03  0.12500202433E+03 0.  0.
    9000005    1    3    3    0    0  0.10186456993E+02 -0.24393291997E+02  0.15397922369E+01  0.26498444495E+02  0.10000000000E+01 0.  0.
    9000005    1    3    3    0    0 -0.10186456993E+02  0.24393291997E+02 -0.25238105066E+03  0.25376365251E+03  0.10000000000E+01 0.  0.
<mgrwt>
<rscale>  0 0.12500202E+03</rscale>
<asrwt>0</asrwt>
<pdfrwt beam="2">  1        4 0.40854101E-01 0.12500202E+03</pdfrwt>
<pdfrwt beam="1">  1       -4 0.22631416E-02 0.12500202E+03</pdfrwt>
<totfact> 0.78139851E+03</totfact>
</mgrwt>
</event>
<event>
 5    1  0.3246948E-002  0.1249994E+03  0.7818608E-02  0.1235070E+00
         -4   -1    0    0    0  501 -0.00000000000E+00  0.00000000000E+00  0.14141374449E+02  0.14198287619E+02  0.12700000000E+01 0. -1.
          4   -1    0    0  501    0  0.00000000000E+00 -0.00000000000E+00 -0.27561267039E+03  0.27561559640E+03  0.12700000000E+01 0. -1.
         25    2    1    2    0    0  0.00000000000E+00  0.00000000000E+00 -0.26147129594E+03  0.28981388402E+03  0.12499939508E+03 0.  0.
    9000005    1    3    3    0    0  0.18860218708E+01 -0.43928961094E+02 -0.23369217483E+03  0.23779475032E+03  0.10000000000E+01 0.  0.
    9000005    1    3    3    0    0 -0.18860218708E+01  0.43928961094E+02 -0.27779121104E+02  0.52019133697E+02  0.10000000000E+01 0.  0.
<mgrwt>
<rscale>  0 0.12499940E+03</rscale>
<asrwt>0</asrwt>
<pdfrwt beam="2">  1        4 0.42406548E-01 0.12499940E+03</pdfrwt>
<pdfrwt beam="1">  1       -4 0.21801993E-02 0.12499940E+03</pdfrwt>
<totfact> 0.76895628E+03</totfact>
</mgrwt>
</event>
<event>
 5    1  0.3246948E-002  0.1249958E+03  0.7818608E-02  0.1235076E+00
          4   -1    0    0  501    0  0.00000000000E+00  0.00000000000E+00  0.72380297027E+03  0.72380408445E+03  0.12700000000E+01 0.  1.
         -4   -1    0    0    0  501 -0.00000000000E+00 -0.00000000000E+00 -0.53206217682E+01  0.54700928694E+01  0.12700000000E+01 0.  1.
         25    2    1    2    0    0  0.00000000000E+00  0.00000000000E+00  0.71848234850E+03  0.72927417732E+03  0.12499576233E+03 0.  0.
    9000005    1    3    3    0    0 -0.28216371569E+02  0.17712424391E+02  0.66769741748E+03  0.66852878391E+03  0.10000000000E+01 0.  0.
    9000005    1    3    3    0    0  0.28216371569E+02 -0.17712424391E+02  0.50784931019E+02  0.60745393413E+02  0.10000000000E+01 0.  0.
<mgrwt>
<rscale>  0 0.12499576E+03</rscale>
<asrwt>0</asrwt>
<pdfrwt beam="1">  1        4 0.11136585E+00 0.12499576E+03</pdfrwt>
<pdfrwt beam="2">  1       -4 0.83014096E-03 0.12499576E+03</pdfrwt>
<totfact> 0.41589474E+03</totfact>
</mgrwt>
</event>
<event>
 5    1  0.3246948E-002  0.1250031E+03  0.7818608E-02  0.1235064E+00
         -4   -1    0    0    0  501 -0.00000000000E+00  0.00000000000E+00  0.72826047965E+02  0.72837120771E+02  0.12700000000E+01 0. -1.
          4   -1    0    0  501    0  0.00000000000E+00 -0.00000000000E+00 -0.53618048689E+02  0.53633087225E+02  0.12700000000E+01 0. -1.
         25    2    1    2    0    0  0.00000000000E+00  0.00000000000E+00  0.19207999276E+02  0.12647020800E+03  0.12500306506E+03 0.  0.
    9000005    1    3    3    0    0  0.54160912994E+02 -0.30920894276E+02  0.55652341343E+01  0.62621705743E+02  0.10000000000E+01 0.  0.
    9000005    1    3    3    0    0 -0.54160912994E+02  0.30920894276E+02  0.13642765142E+02  0.63848502253E+02  0.10000000000E+01 0.  0.
<mgrwt>
<rscale>  0 0.12500307E+03</rscale>
<asrwt>0</asrwt>
<pdfrwt beam="2">  1        4 0.82509392E-02 0.12500307E+03</pdfrwt>
<pdfrwt beam="1">  1       -4 0.11206016E-01 0.12500307E+03</pdfrwt>
<totfact> 0.10419957E+04</totfact>
</mgrwt>
</event>
<event>
 5    1  0.3246948E-002  0.1250001E+03  0.7818608E-02  0.1235069E+00
          4   -1    0    0  501    0  0.00000000000E+00  0.00000000000E+00  0.20471541421E+02  0.20510897303E+02  0.12700000000E+01 0.  1.
         -4   -1    0    0    0  501 -0.00000000000E+00 -0.00000000000E+00 -0.19058938876E+03  0.19059362006E+03  0.12700000000E+01 0.  1.
         25    2    1    2    0    0  0.00000000000E+00  0.00000000000E+00 -0.17011784734E+03  0.21110451736E+03  0.12500014107E+03 0.  0.
    9000005    1    3    3    0    0 -0.13418987063E+02 -0.53262085715E+02 -0.34723168260E+02  0.64989363764E+02  0.10000000000E+01 0.  0.
    9000005    1    3    3    0    0  0.13418987063E+02  0.53262085715E+02 -0.13539467908E+03  0.14611515360E+03  0.10000000000E+01 0.  0.
<mgrwt>
<rscale>  0 0.12500014E+03</rscale>
<asrwt>0</asrwt>
<pdfrwt beam="1">  1        4 0.31528209E-02 0.12500014E+03</pdfrwt>
<pdfrwt beam="2">  1       -4 0.29324796E-01 0.12500014E+03</pdfrwt>
<totfact> 0.88295538E+03</totfact>
</mgrwt>
</event>
<event>
 5    1  0.3246948E-002  0.1250007E+03  0.7818608E-02  0.1235068E+00
         -4   -1    0    0    0  501 -0.00000000000E+00  0.00000000000E+00  0.56052248509E+03  0.56052392384E+03  0.12700000000E+01 0.  1.
          4   -1    0    0  501    0  0.00000000000E+00 -0.00000000000E+00 -0.69097076818E+01  0.70254508928E+01  0.12700000000E+01 0.  1.
         25    2    1    2    0    0  0.00000000000E+00  0.00000000000E+00  0.55361277741E+03  0.56754937473E+03  0.12500074178E+03 0.  0.
    9000005    1    3    3    0    0 -0.14998275286E+02  0.52307767093E+02  0.13728732775E+03  0.14768162079E+03  0.10000000000E+01 0.  0.
    9000005    1    3    3    0    0  0.14998275286E+02 -0.52307767093E+02  0.41632544966E+03  0.41986775394E+03  0.10000000000E+01 0.  0.
<mgrwt>
<rscale>  0 0.12500074E+03</rscale>
<asrwt>0</asrwt>
<pdfrwt beam="2">  1        4 0.10720461E-02 0.12500074E+03</pdfrwt>
<pdfrwt beam="1">  1       -4 0.86243228E-01 0.12500074E+03</pdfrwt>
<totfact> 0.50981395E+03</totfact>
</mgrwt>
</event>
<event>
 5    1  0.3246948E-002  0.1249986E+03  0.7818608E-02  0.1235071E+00
          4   -1    0    0  501    0  0.00000000000E+00  0.00000000000E+00  0.34312412526E+02  0.34335907638E+02  0.12700000000E+01 0.  1.
         -4   -1    0    0    0  501 -0.00000000000E+00 -0.00000000000E+00 -0.11377515037E+03  0.11378223826E+03  0.12700000000E+01 0.  1.
         25    2    1    2    0    0  0.00000000000E+00  0.00000000000E+00 -0.79462737847E+02  0.14811814589E+03  0.12499863374E+03 0.  0.
    9000005    1    3    3    0    0 -0.38681457359E+02  0.13017515469E+02  0.16344246731E+02  0.43975507429E+02  0.10000000000E+01 0.  0.
    9000005    1    3    3    0    0  0.38681457359E+02 -0.13017515469E+02 -0.95806984578E+02  0.10414263846E+03  0.10000000000E+01 0.  0.
<mgrwt>
<rscale>  0 0.12499863E+03</rscale>
<asrwt>0</asrwt>
<pdfrwt beam="1">  1        4 0.52811853E-02 0.12499863E+03</pdfrwt>
<pdfrwt beam="2">  1       -4 0.17506222E-01 0.12499863E+03</pdfrwt>
<totfact> 0.99683214E+03</totfact>
</mgrwt>
</event>
<event>
 5    1  0.3246948E-002  0.1250006E+03  0.7818608E-02  0.1235068E+00
          4   -1    0    0  501    0  0.00000000000E+00  0.00000000000E+00  0.80836047328E+01  0.81827602602E+01  0.12700000000E+01 0.  1.
         -4   -1    0    0    0  501 -0.00000000000E+00 -0.00000000000E+00 -0.48018979304E+03  0.48019147248E+03  0.12700000000E+01 0.  1.
         25    2    1    2    0    0  0.00000000000E+00  0.00000000000E+00 -0.47210618831E+03  0.48837423274E+03  0.12500055265E+03 0.  0.
    9000005    1    3    3    0    0  0.57373167884E+01  0.52098196672E+02 -0.10309266837E+03  0.11565568370E+03  0.10000000000E+01 0.  0.
    9000005    1    3    3    0    0 -0.57373167884E+01 -0.52098196672E+02 -0.36901351994E+03  0.37271854904E+03  0.10000000000E+01 0.  0.
<mgrwt>
<rscale>  0 0.12500055E+03</rscale>
<asrwt>0</asrwt>
<pdfrwt beam="1">  1        4 0.12513884E-02 0.12500055E+03</pdfrwt>
<pdfrwt beam="2">  1       -4 0.73883087E-01 0.12500055E+03</pdfrwt>
<totfact> 0.56777121E+03</totfact>
</mgrwt>
</event>
<event>
 5    1  0.3246948E-002  0.1250020E+03  0.7818608E-02  0.1235066E+00
          4   -1    0    0  501    0  0.00000000000E+00  0.00000000000E+00  0.68377187127E+03  0.68377305068E+03  0.12700000000E+01 0. -1.
         -4   -1    0    0    0  501 -0.00000000000E+00 -0.00000000000E+00 -0.56411993400E+01  0.57823896438E+01  0.12700000000E+01 0. -1.
         25    2    1    2    0    0  0.00000000000E+00  0.00000000000E+00  0.67813067193E+03  0.68955544033E+03  0.12500198827E+03 0.  0.
    9000005    1    3    3    0    0 -0.32153537680E+02 -0.29005760054E+00  0.43466885890E+02  0.54076836888E+02  0.10000000000E+01 0.  0.
    9000005    1    3    3    0    0  0.32153537680E+02  0.29005760054E+00  0.63466378604E+03  0.63547860344E+03  0.10000000000E+01 0.  0.
<mgrwt>
<rscale>  0 0.12500199E+03</rscale>
<asrwt>0</asrwt>
<pdfrwt beam="1">  1        4 0.10520662E+00 0.12500199E+03</pdfrwt>
<pdfrwt beam="2">  1       -4 0.87882836E-03 0.12500199E+03</pdfrwt>
<totfact> 0.43641910E+03</totfact>
</mgrwt>
</event>
<event>
 5    1  0.3246948E-002  0.1249937E+03  0.7818608E-02  0.1235079E+00
         -4   -1    0    0    0  501 -0.00000000000E+00  0.00000000000E+00  0.14507099196E+02  0.14562583119E+02  0.12700000000E+01 0. -1.
          4   -1    0    0  501    0  0.00000000000E+00 -0.00000000000E+00 -0.26866688103E+03  0.26866988269E+03  0.12700000000E+01 0. -1.
         25    2    1    2    0    0  0.00000000000E+00  0.00000000000E+00 -0.25415978183E+03  0.28323246581E+03  0.12499373978E+03 0.  0.
    9000005    1    3    3    0    0 -0.70949438414E+01 -0.58667206894E+02 -0.81047753438E+02  0.10030911090E+03  0.10000000000E+01 0.  0.
    9000005    1    3    3    0    0  0.70949438414E+01  0.58667206894E+02 -0.17311202840E+03  0.18292335490E+03  0.10000000000E+01 0.  0.
<mgrwt>
<rscale>  0 0.12499374E+03</rscale>
<asrwt>0</asrwt>
<pdfrwt beam="2">  1        4 0.41337861E-01 0.12499374E+03</pdfrwt>
<pdfrwt beam="1">  1       -4 0.22363605E-02 0.12499374E+03</pdfrwt>
<totfact> 0.77762267E+03</totfact>
</mgrwt>
</event>
<event>
 5    1  0.3246948E-002  0.1249888E+03  0.7818608E-02  0.1235087E+00
          4   -1    0    0  501    0  0.00000000000E+00  0.00000000000E+00  0.11188585744E+03  0.11189306500E+03  0.12700000000E+01 0.  1.
         -4   -1    0    0    0  501 -0.00000000000E+00 -0.00000000000E+00 -0.34886670608E+02  0.34909779233E+02  0.12700000000E+01 0.  1.
         25    2    1    2    0    0  0.00000000000E+00  0.00000000000E+00  0.76999186830E+02  0.14680284423E+03  0.12498880071E+03 0.  0.
    9000005    1    3    3    0    0  0.22332481432E+02 -0.29060056188E+02  0.97941890590E+02  0.10457935038E+03  0.10000000000E+01 0.  0.
    9000005    1    3    3    0    0 -0.22332481432E+02  0.29060056188E+02 -0.20942703760E+02  0.42223493855E+02  0.10000000000E+01 0.  0.
<mgrwt>
<rscale>  0 0.12498880E+03</rscale>
<asrwt>0</asrwt>
<pdfrwt beam="1">  1        4 0.17215541E-01 0.12498880E+03</pdfrwt>
<pdfrwt beam="2">  1       -4 0.53695120E-02 0.12498880E+03</pdfrwt>
<totfact> 0.99970068E+03</totfact>
</mgrwt>
</event>
<event>
 5    1  0.3246948E-002  0.1250059E+03  0.7818608E-02  0.1235060E+00
          4   -1    0    0  501    0  0.00000000000E+00  0.00000000000E+00  0.16541166290E+03  0.16541653824E+03  0.12700000000E+01 0. -1.
         -4   -1    0    0    0  501 -0.00000000000E+00 -0.00000000000E+00 -0.23595254290E+02  0.23629408054E+02  0.12700000000E+01 0. -1.
         25    2    1    2    0    0  0.00000000000E+00  0.00000000000E+00  0.14181640861E+03  0.18904594630E+03  0.12500590410E+03 0.  0.
    9000005    1    3    3    0    0 -0.16154506996E+02  0.56963469800E+02  0.10114709514E+03  0.11720725167E+03  0.10000000000E+01 0.  0.
    9000005    1    3    3    0    0  0.16154506996E+02 -0.56963469800E+02  0.40669313474E+02  0.71838694632E+02  0.10000000000E+01 0.  0.
<mgrwt>
<rscale>  0 0.12500590E+03</rscale>
<asrwt>0</asrwt>
<pdfrwt beam="1">  1        4 0.25450950E-01 0.12500590E+03</pdfrwt>
<pdfrwt beam="2">  1       -4 0.36330413E-02 0.12500590E+03</pdfrwt>
<totfact> 0.92001413E+03</totfact>
</mgrwt>
</event>
<event>
 5    1  0.3246948E-002  0.1249971E+03  0.7818608E-02  0.1235074E+00
         -4   -1    0    0    0  501 -0.00000000000E+00  0.00000000000E+00  0.27225152514E+02  0.27254757922E+02  0.12700000000E+01 0.  1.
          4   -1    0    0  501    0  0.00000000000E+00 -0.00000000000E+00 -0.14336233389E+03  0.14336795903E+03  0.12700000000E+01 0.  1.
         25    2    1    2    0    0  0.00000000000E+00  0.00000000000E+00 -0.11613718137E+03  0.17062271696E+03  0.12499706654E+03 0.  0.
    9000005    1    3    3    0    0 -0.35759876225E+02 -0.46228771901E+01  0.11599643687E+02  0.37890519590E+02  0.10000000000E+01 0.  0.
    9000005    1    3    3    0    0  0.35759876225E+02  0.46228771901E+01 -0.12773682506E+03  0.13273219736E+03  0.10000000000E+01 0.  0.
<mgrwt>
<rscale>  0 0.12499707E+03</rscale>
<asrwt>0</asrwt>
<pdfrwt beam="2">  1        4 0.22058453E-01 0.12499707E+03</pdfrwt>
<pdfrwt beam="1">  1       -4 0.41911951E-02 0.12499707E+03</pdfrwt>
<totfact> 0.95338975E+03</totfact>
</mgrwt>
</event>
<event>
 5    1  0.3246948E-002  0.1250012E+03  0.7818608E-02  0.1235067E+00
         -4   -1    0    0    0  501 -0.00000000000E+00  0.00000000000E+00  0.35906222489E+02  0.35928675364E+02  0.12700000000E+01 0. -1.
          4   -1    0    0  501    0  0.00000000000E+00 -0.00000000000E+00 -0.10873217531E+03  0.10873959191E+03  0.12700000000E+01 0. -1.
         25    2    1    2    0    0  0.00000000000E+00  0.00000000000E+00 -0.72825952822E+02  0.14466826727E+03  0.12500115260E+03 0.  0.
    9000005    1    3    3    0    0 -0.60593518824E+02 -0.11516090408E+02 -0.24774578491E+02  0.66475368379E+02  0.10000000000E+01 0.  0.
    9000005    1    3    3    0    0  0.60593518824E+02  0.11516090408E+02 -0.48051374331E+02  0.78192898890E+02  0.10000000000E+01 0.  0.
<mgrwt>
<rscale>  0 0.12500115E+03</rscale>
<asrwt>0</asrwt>
<pdfrwt beam="2">  1        4 0.16730325E-01 0.12500115E+03</pdfrwt>
<pdfrwt beam="1">  1       -4 0.55263319E-02 0.12500115E+03</pdfrwt>
<totfact> 0.10037472E+04</totfact>
</mgrwt>
</event>
<event>
 5    1  0.3246948E-002  0.1250043E+03  0.7818608E-02  0.1235063E+00
         -4   -1    0    0    0  501 -0.00000000000E+00  0.00000000000E+00  0.42123926598E+02  0.42143066951E+02  0.12700000000E+01 0.  1.
          4   -1    0    0  501    0  0.00000000000E+00 -0.00000000000E+00 -0.92694084837E+02  0.92702784553E+02  0.12700000000E+01 0.  1.
         25    2    1    2    0    0  0.00000000000E+00  0.00000000000E+00 -0.50570158239E+02  0.13484585150E+03  0.12500425098E+03 0.  0.
    9000005    1    3    3    0    0 -0.62342876149E+02  0.13525847430E+00 -0.29970195367E+02  0.69179947324E+02  0.10000000000E+01 0.  0.
    9000005    1    3    3    0    0  0.62342876149E+02 -0.13525847430E+00 -0.20599962873E+02  0.65665904180E+02  0.10000000000E+01 0.  0.
<mgrwt>
<rscale>  0 0.12500425E+03</rscale>
<asrwt>0</asrwt>
<pdfrwt beam="2">  1        4 0.14262770E-01 0.12500425E+03</pdfrwt>
<pdfrwt beam="1">  1       -4 0.64827457E-02 0.12500425E+03</pdfrwt>
<totfact> 0.10240339E+04</totfact>
</mgrwt>
</event>
<event>
 5    1  0.3246948E-002  0.1249985E+03  0.7818608E-02  0.1235072E+00
         -4   -1    0    0    0  501 -0.00000000000E+00  0.00000000000E+00  0.34205294212E+02  0.34228862852E+02  0.12700000000E+01 0. -1.
          4   -1    0    0  501    0  0.00000000000E+00 -0.00000000000E+00 -0.11413098535E+03  0.11413805114E+03  0.12700000000E+01 0. -1.
         25    2    1    2    0    0  0.00000000000E+00  0.00000000000E+00 -0.79925691141E+02  0.14836691399E+03  0.12499850024E+03 0.  0.
    9000005    1    3    3    0    0 -0.32027108859E+02 -0.37499072161E+02  0.55956143358E+01  0.49640981201E+02  0.10000000000E+01 0.  0.
    9000005    1    3    3    0    0  0.32027108859E+02  0.37499072161E+02 -0.85521305477E+02  0.98725932790E+02  0.10000000000E+01 0.  0.
<mgrwt>
<rscale>  0 0.12499850E+03</rscale>
<asrwt>0</asrwt>
<pdfrwt beam="2">  1        4 0.17560969E-01 0.12499850E+03</pdfrwt>
<pdfrwt beam="1">  1       -4 0.52647095E-02 0.12499850E+03</pdfrwt>
<totfact> 0.99633594E+03</totfact>
</mgrwt>
</event>
<event>
 5    1  0.3246948E-002  0.1249992E+03  0.7818608E-02  0.1235071E+00
         -4   -1    0    0    0  501 -0.00000000000E+00  0.00000000000E+00  0.15639052916E+03  0.15639568571E+03  0.12700000000E+01 0. -1.
          4   -1    0    0  501    0  0.00000000000E+00 -0.00000000000E+00 -0.24955505930E+02  0.24987800548E+02  0.12700000000E+01 0. -1.
         25    2    1    2    0    0  0.00000000000E+00  0.00000000000E+00  0.13143502323E+03  0.18138348626E+03  0.12499921503E+03 0.  0.
    9000005    1    3    3    0    0  0.44206504780E+02 -0.32467792728E+02  0.10917304788E+03  0.12218071457E+03  0.10000000000E+01 0.  0.
    9000005    1    3    3    0    0 -0.44206504780E+02  0.32467792728E+02  0.22261975344E+02  0.59202771690E+02  0.10000000000E+01 0.  0.
<mgrwt>
<rscale>  0 0.12499922E+03</rscale>
<asrwt>0</asrwt>
<pdfrwt beam="2">  1        4 0.38421894E-02 0.12499922E+03</pdfrwt>
<pdfrwt beam="1">  1       -4 0.24062962E-01 0.12499922E+03</pdfrwt>
<totfact> 0.93370205E+03</totfact>
</mgrwt>
</event>
<event>
 5    1  0.3246948E-002  0.1250047E+03  0.7818608E-02  0.1235062E+00
          4   -1    0    0  501    0  0.00000000000E+00  0.00000000000E+00  0.14905176852E+03  0.14905717896E+03  0.12700000000E+01 0. -1.
         -4   -1    0    0    0  501 -0.00000000000E+00 -0.00000000000E+00 -0.26188023542E+02  0.26218800068E+02  0.12700000000E+01 0. -1.
         25    2    1    2    0    0  0.00000000000E+00  0.00000000000E+00  0.12286374498E+03  0.17527597902E+03  0.12500467589E+03 0.  0.
    9000005    1    3    3    0    0 -0.25882477256E+02 -0.49949640744E+02  0.99591963565E+02  0.11438718655E+03  0.10000000000E+01 0.  0.
    9000005    1    3    3    0    0  0.25882477256E+02  0.49949640744E+02  0.23271781411E+02  0.60888792478E+02  0.10000000000E+01 0.  0.
<mgrwt>
<rscale>  0 0.12500468E+03</rscale>
<asrwt>0</asrwt>
<pdfrwt beam="1">  1        4 0.22933825E-01 0.12500468E+03</pdfrwt>
<pdfrwt beam="2">  1       -4 0.40317103E-02 0.12500468E+03</pdfrwt>
<totfact> 0.94464411E+03</totfact>
</mgrwt>
</event>
<event>
 5    1  0.3246948E-002  0.1250010E+03  0.7818608E-02  0.1235068E+00
          4   -1    0    0  501    0  0.00000000000E+00  0.00000000000E+00  0.49560335715E+02  0.49576605130E+02  0.12700000000E+01 0. -1.
         -4   -1    0    0    0  501 -0.00000000000E+00 -0.00000000000E+00 -0.78785069755E+02  0.78795305167E+02  0.12700000000E+01 0. -1.
         25    2    1    2    0    0  0.00000000000E+00  0.00000000000E+00 -0.29224734040E+02  0.12837191030E+03  0.12500104909E+03 0.  0.
    9000005    1    3    3    0    0 -0.94154222182E+01  0.51776122530E+02 -0.49224320757E+02  0.72065600627E+02  0.10000000000E+01 0.  0.
    9000005    1    3    3    0    0  0.94154222182E+01 -0.51776122530E+02  0.19999586717E+02  0.56306309670E+02  0.10000000000E+01 0.  0.
<mgrwt>
<rscale>  0 0.12500105E+03</rscale>
<asrwt>0</asrwt>
<pdfrwt beam="1">  1        4 0.76267059E-02 0.12500105E+03</pdfrwt>
<pdfrwt beam="2">  1       -4 0.12122819E-01 0.12500105E+03</pdfrwt>
<totfact> 0.10379218E+04</totfact>
</mgrwt>
</event>
<event>
 5    1  0.3246948E-002  0.1250006E+03  0.7818608E-02  0.1235068E+00
          4   -1    0    0  501    0  0.00000000000E+00  0.00000000000E+00  0.22862882224E+03  0.22863234954E+03  0.12700000000E+01 0. -1.
         -4   -1    0    0    0  501 -0.00000000000E+00 -0.00000000000E+00 -0.17058461505E+02  0.17105671835E+02  0.12700000000E+01 0. -1.
         25    2    1    2    0    0  0.00000000000E+00  0.00000000000E+00  0.21157036073E+03  0.24573802138E+03  0.12500063044E+03 0.  0.
    9000005    1    3    3    0    0  0.47034390192E+02  0.19838118734E+02  0.34917362206E+02  0.61854724954E+02  0.10000000000E+01 0.  0.
    9000005    1    3    3    0    0 -0.47034390192E+02 -0.19838118734E+02  0.17665299852E+03  0.18388329642E+03  0.10000000000E+01 0.  0.
<mgrwt>
<rscale>  0 0.12500063E+03</rscale>
<asrwt>0</asrwt>
<pdfrwt beam="1">  1        4 0.35177564E-01 0.12500063E+03</pdfrwt>
<pdfrwt beam="2">  1       -4 0.26282818E-02 0.12500063E+03</pdfrwt>
<totfact> 0.82948981E+03</totfact>
</mgrwt>
</event>
<event>
 5    1  0.3246948E-002  0.1249982E+03  0.7818608E-02  0.1235072E+00
         -4   -1    0    0    0  501 -0.00000000000E+00  0.00000000000E+00  0.43711759419E+02  0.43730204796E+02  0.12700000000E+01 0. -1.
          4   -1    0    0  501    0  0.00000000000E+00 -0.00000000000E+00 -0.89319410338E+02  0.89328438715E+02  0.12700000000E+01 0. -1.
         25    2    1    2    0    0  0.00000000000E+00  0.00000000000E+00 -0.45607650919E+02  0.13305864351E+03  0.12499817915E+03 0.  0.
    9000005    1    3    3    0    0  0.56980677387E+02  0.22441435065E+02 -0.95630485761E+01  0.61990866274E+02  0.10000000000E+01 0.  0.
    9000005    1    3    3    0    0 -0.56980677387E+02 -0.22441435065E+02 -0.36044602343E+02  0.71067777237E+02  0.10000000000E+01 0.  0.
<mgrwt>
<rscale>  0 0.12499818E+03</rscale>
<asrwt>0</asrwt>
<pdfrwt beam="2">  1        4 0.13743561E-01 0.12499818E+03</pdfrwt>
<pdfrwt beam="1">  1       -4 0.67269995E-02 0.12499818E+03</pdfrwt>
<totfact> 0.10279576E+04</totfact>
</mgrwt>
</event>
<event>
 5    1  0.3246948E-002  0.1249944E+03  0.7818608E-02  0.1235078E+00
         -4   -1    0    0    0  501 -0.00000000000E+00  0.00000000000E+00  0.48295737830E+02  0.48312433106E+02  0.12700000000E+01 0.  1.
          4   -1    0    0  501    0  0.00000000000E+00 -0.00000000000E+00 -0.80838929564E+02  0.80848904959E+02  0.12700000000E+01 0.  1.
         25    2    1    2    0    0  0.00000000000E+00  0.00000000000E+00 -0.32543191733E+02  0.12916133806E+03  0.12499436756E+03 0.  0.
    9000005    1    3    3    0    0 -0.33823131655E+02  0.25095259613E+02  0.31431461734E+02  0.52561517070E+02  0.10000000000E+01 0.  0.
    9000005    1    3    3    0    0  0.33823131655E+02 -0.25095259613E+02 -0.63974653468E+02  0.76599820994E+02  0.10000000000E+01 0.  0.
<mgrwt>
<rscale>  0 0.12499437E+03</rscale>
<asrwt>0</asrwt>
<pdfrwt beam="2">  1        4 0.12438810E-01 0.12499437E+03</pdfrwt>
<pdfrwt beam="1">  1       -4 0.74321651E-02 0.12499437E+03</pdfrwt>
<totfact> 0.10363799E+04</totfact>
</mgrwt>
</event>
<event>
 5    1  0.3246948E-002  0.1249947E+03  0.7818608E-02  0.1235078E+00
         -4   -1    0    0    0  501 -0.00000000000E+00  0.00000000000E+00  0.20648280879E+02  0.20687300531E+02  0.12700000000E+01 0. -1.
          4   -1    0    0  501    0  0.00000000000E+00 -0.00000000000E+00 -0.18894470486E+03  0.18894897299E+03  0.12700000000E+01 0. -1.
         25    2    1    2    0    0  0.00000000000E+00  0.00000000000E+00 -0.16829642398E+03  0.20963627353E+03  0.12499472330E+03 0.  0.
    9000005    1    3    3    0    0  0.58871545432E+02 -0.18769446050E+02 -0.99770968514E+02  0.11736011727E+03  0.10000000000E+01 0.  0.
    9000005    1    3    3    0    0 -0.58871545432E+02  0.18769446050E+02 -0.68525455470E+02  0.92276156259E+02  0.10000000000E+01 0.  0.
<mgrwt>
<rscale>  0 0.12499472E+03</rscale>
<asrwt>0</asrwt>
<pdfrwt beam="2">  1        4 0.29071745E-01 0.12499472E+03</pdfrwt>
<pdfrwt beam="1">  1       -4 0.31799885E-02 0.12499472E+03</pdfrwt>
<totfact> 0.88545763E+03</totfact>
</mgrwt>
</event>
<event>
 5    1  0.3246948E-002  0.1250020E+03  0.7818608E-02  0.1235066E+00
         -4   -1    0    0    0  501 -0.00000000000E+00  0.00000000000E+00  0.15177463514E+03  0.15177994852E+03  0.12700000000E+01 0.  1.
          4   -1    0    0  501    0  0.00000000000E+00 -0.00000000000E+00 -0.25716580188E+02  0.25747920237E+02  0.12700000000E+01 0.  1.
         25    2    1    2    0    0  0.00000000000E+00  0.00000000000E+00  0.12605805495E+03  0.17752786876E+03  0.12500204385E+03 0.  0.
    9000005    1    3    3    0    0  0.61274007063E+01 -0.47782814274E+02  0.64944569963E+01  0.48620164037E+02  0.10000000000E+01 0.  0.
    9000005    1    3    3    0    0 -0.61274007063E+01  0.47782814274E+02  0.11956359796E+03  0.12890770472E+03  0.10000000000E+01 0.  0.
<mgrwt>
<rscale>  0 0.12500204E+03</rscale>
<asrwt>0</asrwt>
<pdfrwt beam="2">  1        4 0.39592165E-02 0.12500204E+03</pdfrwt>
<pdfrwt beam="1">  1       -4 0.23352763E-01 0.12500204E+03</pdfrwt>
<totfact> 0.94059585E+03</totfact>
</mgrwt>
</event>
<event>
 5    1  0.3246948E-002  0.1249971E+03  0.7818608E-02  0.1235074E+00
         -4   -1    0    0    0  501 -0.00000000000E+00  0.00000000000E+00  0.21604502946E+03  0.21604876221E+03  0.12700000000E+01 0. -1.
          4   -1    0    0  501    0  0.00000000000E+00 -0.00000000000E+00 -0.18053695187E+02  0.18098309587E+02  0.12700000000E+01 0. -1.
         25    2    1    2    0    0  0.00000000000E+00  0.00000000000E+00  0.19799133427E+03  0.23414707180E+03  0.12499713111E+03 0.  0.
    9000005    1    3    3    0    0  0.10923842811E+02 -0.11799650755E+02 -0.14121183851E+02  0.21423583571E+02  0.10000000000E+01 0.  0.
    9000005    1    3    3    0    0 -0.10923842811E+02  0.11799650755E+02  0.21211251812E+03  0.21272348823E+03  0.10000000000E+01 0.  0.
<mgrwt>
<rscale>  0 0.12499713E+03</rscale>
<asrwt>0</asrwt>
<pdfrwt beam="2">  1        4 0.27812106E-02 0.12499713E+03</pdfrwt>
<pdfrwt beam="1">  1       -4 0.33241416E-01 0.12499713E+03</pdfrwt>
<totfact> 0.84682269E+03</totfact>
</mgrwt>
</event>
<event>
 5    1  0.3246948E-002  0.1250001E+03  0.7818608E-02  0.1235069E+00
          4   -1    0    0  501    0  0.00000000000E+00  0.00000000000E+00  0.83781936653E+03  0.83782032909E+03  0.12700000000E+01 0. -1.
         -4   -1    0    0    0  501 -0.00000000000E+00 -0.00000000000E+00 -0.45749431730E+01  0.47479474551E+01  0.12700000000E+01 0. -1.
         25    2    1    2    0    0  0.00000000000E+00  0.00000000000E+00  0.83324442336E+03  0.84256827654E+03  0.12500012632E+03 0.  0.
    9000005    1    3    3    0    0  0.27186138404E+02  0.25160884416E+02  0.77371347848E+02  0.85787421535E+02  0.10000000000E+01 0.  0.
    9000005    1    3    3    0    0 -0.27186138404E+02 -0.25160884416E+02  0.75587307551E+03  0.75678085501E+03  0.10000000000E+01 0.  0.
<mgrwt>
<rscale>  0 0.12500013E+03</rscale>
<asrwt>0</asrwt>
<pdfrwt beam="1">  1        4 0.12890880E+00 0.12500013E+03</pdfrwt>
<pdfrwt beam="2">  1       -4 0.71721876E-03 0.12500013E+03</pdfrwt>
<totfact> 0.36433246E+03</totfact>
</mgrwt>
</event>
<event>
 5    1  0.3246948E-002  0.1250023E+03  0.7818608E-02  0.1235066E+00
         -4   -1    0    0    0  501 -0.00000000000E+00  0.00000000000E+00  0.21803254054E+02  0.21840210332E+02  0.12700000000E+01 0. -1.
          4   -1    0    0  501    0  0.00000000000E+00 -0.00000000000E+00 -0.17897461560E+03  0.17897912149E+03  0.12700000000E+01 0. -1.
         25    2    1    2    0    0  0.00000000000E+00  0.00000000000E+00 -0.15717136155E+03  0.20081933182E+03  0.12500226855E+03 0.  0.
    9000005    1    3    3    0    0 -0.46773117731E+02 -0.20116516364E+02 -0.13679852654E+03  0.14596998197E+03  0.10000000000E+01 0.  0.
    9000005    1    3    3    0    0  0.46773117731E+02  0.20116516364E+02 -0.20372835006E+02  0.54849349851E+02  0.10000000000E+01 0.  0.
<mgrwt>
<rscale>  0 0.12500227E+03</rscale>
<asrwt>0</asrwt>
<pdfrwt beam="2">  1        4 0.27537745E-01 0.12500227E+03</pdfrwt>
<pdfrwt beam="1">  1       -4 0.33575363E-02 0.12500227E+03</pdfrwt>
<totfact> 0.89992935E+03</totfact>
</mgrwt>
</event>
<event>
 5    1  0.3246948E-002  0.1250003E+03  0.7818608E-02  0.1235069E+00
          4   -1    0    0  501    0  0.00000000000E+00  0.00000000000E+00  0.32641046391E+03  0.32641293457E+03  0.12700000000E+01 0.  1.
         -4   -1    0    0    0  501 -0.00000000000E+00 -0.00000000000E+00 -0.11931136344E+02  0.11998538014E+02  0.12700000000E+01 0.  1.
         25    2    1    2    0    0  0.00000000000E+00  0.00000000000E+00  0.31447932757E+03  0.33841147258E+03  0.12500030922E+03 0.  0.
    9000005    1    3    3    0    0 -0.24070605664E+02  0.34541531982E+02  0.28226693820E+03  0.28539119799E+03  0.10000000000E+01 0.  0.
    9000005    1    3    3    0    0  0.24070605664E+02 -0.34541531982E+02  0.32212389365E+02  0.53020274587E+02  0.10000000000E+01 0.  0.
<mgrwt>
<rscale>  0 0.12500031E+03</rscale>
<asrwt>0</asrwt>
<pdfrwt beam="1">  1        4 0.50222371E-01 0.12500031E+03</pdfrwt>
<pdfrwt beam="2">  1       -4 0.18409342E-02 0.12500031E+03</pdfrwt>
<totfact> 0.71018047E+03</totfact>
</mgrwt>
</event>
<event>
 5    1  0.3246948E-002  0.1250014E+03  0.7818608E-02  0.1235067E+00
         -4   -1    0    0    0  501 -0.00000000000E+00  0.00000000000E+00  0.34457225416E+03  0.34457459459E+03  0.12700000000E+01 0.  1.
          4   -1    0    0  501    0  0.00000000000E+00 -0.00000000000E+00 -0.11298825223E+02  0.11369975876E+02  0.12700000000E+01 0.  1.
         25    2    1    2    0    0  0.00000000000E+00  0.00000000000E+00  0.33327342894E+03  0.35594457047E+03  0.12500143523E+03 0.  0.
    9000005    1    3    3    0    0  0.42682147836E+02 -0.45550022996E+02  0.17506911856E+03  0.18586760507E+03  0.10000000000E+01 0.  0.
    9000005    1    3    3    0    0 -0.42682147836E+02  0.45550022996E+02  0.15820431037E+03  0.17007696540E+03  0.10000000000E+01 0.  0.
<mgrwt>
<rscale>  0 0.12500144E+03</rscale>
<asrwt>0</asrwt>
<pdfrwt beam="2">  1        4 0.17439342E-02 0.12500144E+03</pdfrwt>
<pdfrwt beam="1">  1       -4 0.53016761E-01 0.12500144E+03</pdfrwt>
<totfact> 0.69073304E+03</totfact>
</mgrwt>
</event>
<event>
 5    1  0.3246948E-002  0.1249963E+03  0.7818608E-02  0.1235075E+00
          4   -1    0    0  501    0  0.00000000000E+00  0.00000000000E+00  0.79951876906E+01  0.80954262524E+01  0.12700000000E+01 0. -1.
         -4   -1    0    0    0  501 -0.00000000000E+00 -0.00000000000E+00 -0.48540139724E+03  0.48540305865E+03  0.12700000000E+01 0. -1.
         25    2    1    2    0    0  0.00000000000E+00  0.00000000000E+00 -0.47740620955E+03  0.49349848490E+03  0.12499626267E+03 0.  0.
    9000005    1    3    3    0    0  0.39205065018E+02 -0.42601691403E+02 -0.33155288561E+03  0.33657132557E+03  0.10000000000E+01 0.  0.
    9000005    1    3    3    0    0 -0.39205065018E+02  0.42601691403E+02 -0.14585332394E+03  0.15692715934E+03  0.10000000000E+01 0.  0.
<mgrwt>
<rscale>  0 0.12499626E+03</rscale>
<asrwt>0</asrwt>
<pdfrwt beam="1">  1        4 0.12378677E-02 0.12499626E+03</pdfrwt>
<pdfrwt beam="2">  1       -4 0.74684954E-01 0.12499626E+03</pdfrwt>
<totfact> 0.56377000E+03</totfact>
</mgrwt>
</event>
<event>
 5    1  0.3246948E-002  0.1250088E+03  0.7818608E-02  0.1235056E+00
          4   -1    0    0  501    0  0.00000000000E+00  0.00000000000E+00  0.31378992562E+02  0.31404682361E+02  0.12700000000E+01 0.  1.
         -4   -1    0    0    0  501 -0.00000000000E+00 -0.00000000000E+00 -0.12442382563E+03  0.12443030694E+03  0.12700000000E+01 0.  1.
         25    2    1    2    0    0  0.00000000000E+00  0.00000000000E+00 -0.93044833068E+02  0.15583498930E+03  0.12500881141E+03 0.  0.
    9000005    1    3    3    0    0  0.13783244371E+02 -0.54105761132E+02 -0.11520262580E+02  0.57018660656E+02  0.10000000000E+01 0.  0.
    9000005    1    3    3    0    0 -0.13783244371E+02  0.54105761132E+02 -0.81524570488E+02  0.98816328642E+02  0.10000000000E+01 0.  0.
<mgrwt>
<rscale>  0 0.12500881E+03</rscale>
<asrwt>0</asrwt>
<pdfrwt beam="1">  1        4 0.48300121E-02 0.12500881E+03</pdfrwt>
<pdfrwt beam="2">  1       -4 0.19144601E-01 0.12500881E+03</pdfrwt>
<totfact> 0.98132383E+03</totfact>
</mgrwt>
</event>
<event>
 5    1  0.3246948E-002  0.1250023E+03  0.7818608E-02  0.1235066E+00
         -4   -1    0    0    0  501 -0.00000000000E+00  0.00000000000E+00  0.35393748225E+02  0.35416525993E+02  0.12700000000E+01 0.  1.
          4   -1    0    0  501    0  0.00000000000E+00 -0.00000000000E+00 -0.11030764224E+03  0.11031495291E+03  0.12700000000E+01 0.  1.
         25    2    1    2    0    0  0.00000000000E+00  0.00000000000E+00 -0.74913894015E+02  0.14573147891E+03  0.12500228969E+03 0.  0.
    9000005    1    3    3    0    0 -0.24073658114E+02  0.72062695586E+01  0.29249767819E+02  0.38574865566E+02  0.10000000000E+01 0.  0.
    9000005    1    3    3    0    0  0.24073658114E+02 -0.72062695586E+01 -0.10416366183E+03  0.10715661334E+03  0.10000000000E+01 0.  0.
<mgrwt>
<rscale>  0 0.12500229E+03</rscale>
<asrwt>0</asrwt>
<pdfrwt beam="2">  1        4 0.16972721E-01 0.12500229E+03</pdfrwt>
<pdfrwt beam="1">  1       -4 0.54475066E-02 0.12500229E+03</pdfrwt>
<totfact> 0.10015631E+04</totfact>
</mgrwt>
</event>
<event>
 5    1  0.3246948E-002  0.1250023E+03  0.7818608E-02  0.1235066E+00
         -4   -1    0    0    0  501 -0.00000000000E+00  0.00000000000E+00  0.57723615022E+02  0.57737584216E+02  0.12700000000E+01 0.  1.
          4   -1    0    0  501    0  0.00000000000E+00 -0.00000000000E+00 -0.67645998245E+02  0.67657918816E+02  0.12700000000E+01 0.  1.
         25    2    1    2    0    0  0.00000000000E+00  0.00000000000E+00 -0.99223832236E+01  0.12539550303E+03  0.12500231395E+03 0.  0.
    9000005    1    3    3    0    0 -0.21379624416E+02  0.11427491406E+02 -0.62742010354E+02  0.67269872627E+02  0.10000000000E+01 0.  0.
    9000005    1    3    3    0    0  0.21379624416E+02 -0.11427491406E+02  0.52819627130E+02  0.58125630406E+02  0.10000000000E+01 0.  0.
<mgrwt>
<rscale>  0 0.12500231E+03</rscale>
<asrwt>0</asrwt>
<pdfrwt beam="2">  1        4 0.10409068E-01 0.12500231E+03</pdfrwt>
<pdfrwt beam="1">  1       -4 0.88825477E-02 0.12500231E+03</pdfrwt>
<totfact> 0.10443722E+04</totfact>
</mgrwt>
</event>
<event>
 5    1  0.3246948E-002  0.1249996E+03  0.7818608E-02  0.1235070E+00
          4   -1    0    0  501    0  0.00000000000E+00  0.00000000000E+00  0.94579102493E+03  0.94579187760E+03  0.12700000000E+01 0.  1.
         -4   -1    0    0    0  501 -0.00000000000E+00 -0.00000000000E+00 -0.40316076376E+01  0.42269090531E+01  0.12700000000E+01 0.  1.
         25    2    1    2    0    0  0.00000000000E+00  0.00000000000E+00  0.94175941729E+03  0.95001878666E+03  0.12499957976E+03 0.  0.
    9000005    1    3    3    0    0 -0.59868827364E+02  0.15834086667E+02  0.40718817444E+03  0.41187158702E+03  0.10000000000E+01 0.  0.
    9000005    1    3    3    0    0  0.59868827364E+02 -0.15834086667E+02  0.53457124285E+03  0.53814719964E+03  0.10000000000E+01 0.  0.
<mgrwt>
<rscale>  0 0.12499958E+03</rscale>
<asrwt>0</asrwt>
<pdfrwt beam="1">  1        4 0.14552145E+00 0.12499958E+03</pdfrwt>
<pdfrwt beam="2">  1       -4 0.63533590E-03 0.12499958E+03</pdfrwt>
<totfact> 0.32315587E+03</totfact>
</mgrwt>
</event>
<event>
 5    1  0.3246948E-002  0.1250037E+03  0.7818608E-02  0.1235063E+00
          4   -1    0    0  501    0  0.00000000000E+00  0.00000000000E+00  0.68081014970E+01  0.69255430107E+01  0.12700000000E+01 0.  1.
         -4   -1    0    0    0  501 -0.00000000000E+00 -0.00000000000E+00 -0.56877429707E+03  0.56877571494E+03  0.12700000000E+01 0.  1.
         25    2    1    2    0    0  0.00000000000E+00  0.00000000000E+00 -0.56196619557E+03  0.57570125795E+03  0.12500373371E+03 0.  0.
    9000005    1    3    3    0    0 -0.73759102989E+01  0.58812226487E+02 -0.37219021320E+03  0.37688172792E+03  0.10000000000E+01 0.  0.
    9000005    1    3    3    0    0  0.73759102989E+01 -0.58812226487E+02 -0.18977598237E+03  0.19881953003E+03  0.10000000000E+01 0.  0.
<mgrwt>
<rscale>  0 0.12500373E+03</rscale>
<asrwt>0</asrwt>
<pdfrwt beam="1">  1        4 0.10565437E-02 0.12500373E+03</pdfrwt>
<pdfrwt beam="2">  1       -4 0.87512844E-01 0.12500373E+03</pdfrwt>
<totfact> 0.50434123E+03</totfact>
</mgrwt>
</event>
<event>
 5    1  0.3246948E-002  0.1250080E+03  0.7818608E-02  0.1235057E+00
         -4   -1    0    0    0  501 -0.00000000000E+00  0.00000000000E+00  0.23455395675E+03  0.23455739496E+03  0.12700000000E+01 0. -1.
          4   -1    0    0  501    0  0.00000000000E+00 -0.00000000000E+00 -0.16628299352E+02  0.16676727477E+02  0.12700000000E+01 0. -1.
         25    2    1    2    0    0  0.00000000000E+00  0.00000000000E+00  0.21792565740E+03  0.25123412243E+03  0.12500796823E+03 0.  0.
    9000005    1    3    3    0    0  0.12067003604E+02  0.46884961566E+02  0.18839062663E+03  0.19451437067E+03  0.10000000000E+01 0.  0.
    9000005    1    3    3    0    0 -0.12067003604E+02 -0.46884961566E+02  0.29535030775E+02  0.56719751762E+02  0.10000000000E+01 0.  0.
<mgrwt>
<rscale>  0 0.12500797E+03</rscale>
<asrwt>0</asrwt>
<pdfrwt beam="2">  1        4 0.25621896E-02 0.12500797E+03</pdfrwt>
<pdfrwt beam="1">  1       -4 0.36089214E-01 0.12500797E+03</pdfrwt>
<totfact> 0.82137605E+03</totfact>
</mgrwt>
</event>
<event>
 4    1  0.3246948E-002  0.1250811E+03  0.7818608E-02  0.1234943E+00
          4   -1    0    0  501    0  0.00000000000E+00  0.00000000000E+00  0.17043283215E+03  0.17043756386E+03  0.12700000000E+01 0.  1.
         -4   -1    0    0    0  501 -0.00000000000E+00 -0.00000000000E+00 -0.22926724471E+02  0.22961872637E+02  0.12700000000E+01 0.  1.
    9000005    1    1    2    0    0 -0.39341298489E+02 -0.47804868870E+02  0.87345417767E+02  0.10706663934E+03  0.10000000000E+01 0.  0.
    9000005    1    1    2    0    0  0.39341298489E+02  0.47804868870E+02  0.60160689911E+02  0.86332797158E+02  0.10000000000E+01 0.  0.
<mgrwt>
<rscale>  0 0.12508113E+03</rscale>
<asrwt>0</asrwt>
<pdfrwt beam="1">  1        4 0.26223504E-01 0.12508113E+03</pdfrwt>
<pdfrwt beam="2">  1       -4 0.35302560E-02 0.12508113E+03</pdfrwt>
<totfact> 0.91093563E+03</totfact>
</mgrwt>
</event>
<event>
 5    1  0.3246948E-002  0.1249985E+03  0.7818608E-02  0.1235072E+00
         -4   -1    0    0    0  501 -0.00000000000E+00  0.00000000000E+00  0.16066070945E+02  0.16116188620E+02  0.12700000000E+01 0. -1.
          4   -1    0    0  501    0  0.00000000000E+00 -0.00000000000E+00 -0.24270031417E+03  0.24270363697E+03  0.12700000000E+01 0. -1.
         25    2    1    2    0    0  0.00000000000E+00  0.00000000000E+00 -0.22663424322E+03  0.25881982559E+03  0.12499848765E+03 0.  0.
    9000005    1    3    3    0    0  0.30439052478E+02 -0.54345048750E+02 -0.12371863416E+03  0.13851794352E+03  0.10000000000E+01 0.  0.
    9000005    1    3    3    0    0 -0.30439052478E+02  0.54345048750E+02 -0.10291560906E+03  0.12030188206E+03  0.10000000000E+01 0.  0.
<mgrwt>
<rscale>  0 0.12499849E+03</rscale>
<asrwt>0</asrwt>
<pdfrwt beam="2">  1        4 0.37342618E-01 0.12499849E+03</pdfrwt>
<pdfrwt beam="1">  1       -4 0.24758142E-02 0.12499849E+03</pdfrwt>
<totfact> 0.81074698E+03</totfact>
</mgrwt>
</event>
<event>
 5    1  0.3246948E-002  0.1250045E+03  0.7818608E-02  0.1235062E+00
         -4   -1    0    0    0  501 -0.00000000000E+00  0.00000000000E+00  0.93595676935E+03  0.93595763099E+03  0.12700000000E+01 0. -1.
          4   -1    0    0  501    0  0.00000000000E+00 -0.00000000000E+00 -0.40763431593E+01  0.42695987578E+01  0.12700000000E+01 0. -1.
         25    2    1    2    0    0  0.00000000000E+00  0.00000000000E+00  0.93188042620E+03  0.94022722974E+03  0.12500445922E+03 0.  0.
    9000005    1    3    3    0    0  0.31786285594E+02 -0.51840301505E+01  0.63113196570E+02  0.70862667899E+02  0.10000000000E+01 0.  0.
    9000005    1    3    3    0    0 -0.31786285594E+02  0.51840301505E+01  0.86876722963E+03  0.86936456184E+03  0.10000000000E+01 0.  0.
<mgrwt>
<rscale>  0 0.12500446E+03</rscale>
<asrwt>0</asrwt>
<pdfrwt beam="2">  1        4 0.64206077E-03 0.12500446E+03</pdfrwt>
<pdfrwt beam="1">  1       -4 0.14400851E+00 0.12500446E+03</pdfrwt>
<totfact> 0.32662272E+03</totfact>
</mgrwt>
</event>
<event>
 5    1  0.3246948E-002  0.1249776E+03  0.7818608E-02  0.1235104E+00
         -4   -1    0    0    0  501 -0.00000000000E+00  0.00000000000E+00  0.21539980726E+03  0.21540355119E+03  0.12700000000E+01 0. -1.
          4   -1    0    0  501    0  0.00000000000E+00 -0.00000000000E+00 -0.18102224662E+02  0.18146719751E+02  0.12700000000E+01 0. -1.
         25    2    1    2    0    0  0.00000000000E+00  0.00000000000E+00  0.19729758260E+03  0.23355027095E+03  0.12497756983E+03 0.  0.
    9000005    1    3    3    0    0  0.21790096233E+02 -0.58398604099E+02  0.10671753704E+03  0.12359141542E+03  0.10000000000E+01 0.  0.
    9000005    1    3    3    0    0 -0.21790096233E+02  0.58398604099E+02  0.90580045557E+02  0.10995885552E+03  0.10000000000E+01 0.  0.
<mgrwt>
<rscale>  0 0.12497757E+03</rscale>
<asrwt>0</asrwt>
<pdfrwt beam="2">  1        4 0.27886686E-02 0.12497757E+03</pdfrwt>
<pdfrwt beam="1">  1       -4 0.33142140E-01 0.12497757E+03</pdfrwt>
<totfact> 0.84809840E+03</totfact>
</mgrwt>
</event>
<event>
 5    1  0.3246948E-002  0.1250017E+03  0.7818608E-02  0.1235067E+00
          4   -1    0    0  501    0  0.00000000000E+00  0.00000000000E+00  0.64519728659E+03  0.64519853652E+03  0.12700000000E+01 0. -1.
         -4   -1    0    0    0  501 -0.00000000000E+00 -0.00000000000E+00 -0.59866427020E+01  0.61198685314E+01  0.12700000000E+01 0. -1.
         25    2    1    2    0    0  0.00000000000E+00  0.00000000000E+00  0.63921064389E+03  0.65131840505E+03  0.12500166997E+03 0.  0.
    9000005    1    3    3    0    0  0.31416030837E+02 -0.39646641196E+02  0.12840626336E+03  0.13801446164E+03  0.10000000000E+01 0.  0.
    9000005    1    3    3    0    0 -0.31416030837E+02  0.39646641196E+02  0.51080438053E+03  0.51330394341E+03  0.10000000000E+01 0.  0.
<mgrwt>
<rscale>  0 0.12500167E+03</rscale>
<asrwt>0</asrwt>
<pdfrwt beam="1">  1        4 0.99271433E-01 0.12500167E+03</pdfrwt>
<pdfrwt beam="2">  1       -4 0.93136654E-03 0.12500167E+03</pdfrwt>
<totfact> 0.45778745E+03</totfact>
</mgrwt>
</event>
<event>
 5    1  0.3246948E-002  0.1250014E+03  0.7818608E-02  0.1235067E+00
         -4   -1    0    0    0  501 -0.00000000000E+00  0.00000000000E+00  0.17056916163E+03  0.17057388956E+03  0.12700000000E+01 0. -1.
          4   -1    0    0  501    0  0.00000000000E+00 -0.00000000000E+00 -0.22879131921E+02  0.22914353088E+02  0.12700000000E+01 0. -1.
         25    2    1    2    0    0  0.00000000000E+00  0.00000000000E+00  0.14769002971E+03  0.19348824265E+03  0.12500142066E+03 0.  0.
    9000005    1    3    3    0    0 -0.56183143586E+02  0.25519177215E+02  0.58555766765E+02  0.85073802374E+02  0.10000000000E+01 0.  0.
    9000005    1    3    3    0    0  0.56183143586E+02 -0.25519177215E+02  0.89134262944E+02  0.10841444027E+03  0.10000000000E+01 0.  0.
<mgrwt>
<rscale>  0 0.12500142E+03</rscale>
<asrwt>0</asrwt>
<pdfrwt beam="2">  1        4 0.35229394E-02 0.12500142E+03</pdfrwt>
<pdfrwt beam="1">  1       -4 0.26244483E-01 0.12500142E+03</pdfrwt>
<totfact> 0.91240986E+03</totfact>
</mgrwt>
</event>
<event>
 5    1  0.3246948E-002  0.1250087E+03  0.7818608E-02  0.1235056E+00
         -4   -1    0    0    0  501 -0.00000000000E+00  0.00000000000E+00  0.68373856473E+02  0.68385650169E+02  0.12700000000E+01 0.  1.
          4   -1    0    0  501    0  0.00000000000E+00 -0.00000000000E+00 -0.57114951312E+02  0.57129069338E+02  0.12700000000E+01 0.  1.
         25    2    1    2    0    0  0.00000000000E+00  0.00000000000E+00  0.11258905161E+02  0.12551471951E+03  0.12500872716E+03 0.  0.
    9000005    1    3    3    0    0 -0.61511164019E+02 -0.56664072331E+01 -0.38991658207E+01  0.61902624856E+02  0.10000000000E+01 0.  0.
    9000005    1    3    3    0    0  0.61511164019E+02  0.56664072331E+01  0.15158070981E+02  0.63612094651E+02  0.10000000000E+01 0.  0.
<mgrwt>
<rscale>  0 0.12500873E+03</rscale>
<asrwt>0</asrwt>
<pdfrwt beam="2">  1        4 0.87889088E-02 0.12500873E+03</pdfrwt>
<pdfrwt beam="1">  1       -4 0.10521048E-01 0.12500873E+03</pdfrwt>
<totfact> 0.10439574E+04</totfact>
</mgrwt>
</event>
<event>
 5    1  0.3246948E-002  0.1249860E+03  0.7818608E-02  0.1235091E+00
          4   -1    0    0  501    0  0.00000000000E+00  0.00000000000E+00  0.89509056399E+02  0.89518065648E+02  0.12700000000E+01 0. -1.
         -4   -1    0    0    0  501 -0.00000000000E+00 -0.00000000000E+00 -0.43610578326E+02  0.43629066480E+02  0.12700000000E+01 0. -1.
         25    2    1    2    0    0  0.00000000000E+00  0.00000000000E+00  0.45898478073E+02  0.13314713213E+03  0.12498595323E+03 0.  0.
    9000005    1    3    3    0    0  0.42407333117E+02  0.33904029270E+02  0.55896149176E+02  0.77931024602E+02  0.10000000000E+01 0.  0.
    9000005    1    3    3    0    0 -0.42407333117E+02 -0.33904029270E+02 -0.99976711024E+01  0.55216107526E+02  0.10000000000E+01 0.  0.
<mgrwt>
<rscale>  0 0.12498595E+03</rscale>
<asrwt>0</asrwt>
<pdfrwt beam="1">  1        4 0.13772739E-01 0.12498595E+03</pdfrwt>
<pdfrwt beam="2">  1       -4 0.67114350E-02 0.12498595E+03</pdfrwt>
<totfact> 0.10280531E+04</totfact>
</mgrwt>
</event>
<event>
 5    1  0.3246948E-002  0.1249968E+03  0.7818608E-02  0.1235074E+00
         -4   -1    0    0    0  501 -0.00000000000E+00  0.00000000000E+00  0.57964799695E+02  0.57978710780E+02  0.12700000000E+01 0.  1.
          4   -1    0    0  501    0  0.00000000000E+00 -0.00000000000E+00 -0.67358656508E+02  0.67370627922E+02  0.12700000000E+01 0.  1.
         25    2    1    2    0    0  0.00000000000E+00  0.00000000000E+00 -0.93938568129E+01  0.12534933870E+03  0.12499684863E+03 0.  0.
    9000005    1    3    3    0    0  0.26022357828E+02  0.18557062536E+01 -0.61641267497E+02  0.66942158699E+02  0.10000000000E+01 0.  0.
    9000005    1    3    3    0    0 -0.26022357828E+02 -0.18557062536E+01  0.52247410684E+02  0.58407180003E+02  0.10000000000E+01 0.  0.
<mgrwt>
<rscale>  0 0.12499685E+03</rscale>
<asrwt>0</asrwt>
<pdfrwt beam="2">  1        4 0.10364861E-01 0.12499685E+03</pdfrwt>
<pdfrwt beam="1">  1       -4 0.89196525E-02 0.12499685E+03</pdfrwt>
<totfact> 0.10446023E+04</totfact>
</mgrwt>
</event>
<event>
 4    1  0.3246948E-002  0.1250909E+03  0.7818608E-02  0.1234927E+00
         -4   -1    0    0    0  501 -0.00000000000E+00  0.00000000000E+00  0.68924792901E+02  0.68936492342E+02  0.12700000000E+01 0. -1.
          4   -1    0    0  501    0  0.00000000000E+00 -0.00000000000E+00 -0.56732944397E+02  0.56747157461E+02  0.12700000000E+01 0. -1.
    9000005    1    1    2    0    0 -0.59077259365E+02 -0.12159015801E+01 -0.14478744949E+02  0.60845994495E+02  0.10000000000E+01 0.  0.
    9000005    1    1    2    0    0  0.59077259365E+02  0.12159015801E+01  0.26670593453E+02  0.64837655309E+02  0.10000000000E+01 0.  0.
<mgrwt>
<rscale>  0 0.12509092E+03</rscale>
<asrwt>0</asrwt>
<pdfrwt beam="2">  1        4 0.87301386E-02 0.12509092E+03</pdfrwt>
<pdfrwt beam="1">  1       -4 0.10605808E-01 0.12509092E+03</pdfrwt>
<totfact> 0.10416523E+04</totfact>
</mgrwt>
</event>
<event>
 5    1  0.3246948E-002  0.1250027E+03  0.7818608E-02  0.1235065E+00
         -4   -1    0    0    0  501 -0.00000000000E+00  0.00000000000E+00  0.21941823468E+03  0.21942191005E+03  0.12700000000E+01 0.  1.
          4   -1    0    0  501    0  0.00000000000E+00 -0.00000000000E+00 -0.17777045369E+02  0.17822352316E+02  0.12700000000E+01 0.  1.
         25    2    1    2    0    0  0.00000000000E+00  0.00000000000E+00  0.20164118931E+03  0.23724426237E+03  0.12500268317E+03 0.  0.
    9000005    1    3    3    0    0  0.51822459953E+02  0.31689724037E+02  0.72952159730E+02  0.94935891918E+02  0.10000000000E+01 0.  0.
    9000005    1    3    3    0    0 -0.51822459953E+02 -0.31689724037E+02  0.12868902958E+03  0.14230837045E+03  0.10000000000E+01 0.  0.
<mgrwt>
<rscale>  0 0.12500268E+03</rscale>
<asrwt>0</asrwt>
<pdfrwt beam="2">  1        4 0.27386978E-02 0.12500268E+03</pdfrwt>
<pdfrwt beam="1">  1       -4 0.33760421E-01 0.12500268E+03</pdfrwt>
<totfact> 0.84204464E+03</totfact>
</mgrwt>
</event>
<event>
 5    1  0.3246948E-002  0.1250131E+03  0.7818608E-02  0.1235049E+00
          4   -1    0    0  501    0  0.00000000000E+00  0.00000000000E+00  0.24196707414E+01  0.27327104670E+01  0.12700000000E+01 0.  1.
         -4   -1    0    0    0  501 -0.00000000000E+00 -0.00000000000E+00 -0.15162930631E+04  0.15162935949E+04  0.12700000000E+01 0.  1.
         25    2    1    2    0    0  0.00000000000E+00  0.00000000000E+00 -0.15138733923E+04  0.15190263054E+04  0.12501307322E+03 0.  0.
    9000005    1    3    3    0    0  0.57437717589E+02 -0.20605025201E+02 -0.92104576528E+03  0.92306552325E+03  0.10000000000E+01 0.  0.
    9000005    1    3    3    0    0 -0.57437717589E+02  0.20605025201E+02 -0.59282762706E+03  0.59596078216E+03  0.10000000000E+01 0.  0.
<mgrwt>
<rscale>  0 0.12501307E+03</rscale>
<asrwt>0</asrwt>
<pdfrwt beam="1">  1        4 0.39637914E-03 0.12501307E+03</pdfrwt>
<pdfrwt beam="2">  1       -4 0.23329926E+00 0.12501307E+03</pdfrwt>
<totfact> 0.17554479E+03</totfact>
</mgrwt>
</event>
<event>
 5    1  0.3246948E-002  0.1250012E+03  0.7818608E-02  0.1235067E+00
          4   -1    0    0  501    0  0.00000000000E+00  0.00000000000E+00  0.12806749046E+03  0.12807378738E+03  0.12700000000E+01 0.  1.
         -4   -1    0    0    0  501 -0.00000000000E+00 -0.00000000000E+00 -0.30481793560E+02  0.30508238864E+02  0.12700000000E+01 0.  1.
         25    2    1    2    0    0  0.00000000000E+00  0.00000000000E+00  0.97585696901E+02  0.15858202624E+03  0.12500116322E+03 0.  0.
    9000005    1    3    3    0    0 -0.53256722988E+02  0.32084620709E+02  0.40807311626E+02  0.74376999883E+02  0.10000000000E+01 0.  0.
    9000005    1    3    3    0    0  0.53256722988E+02 -0.32084620709E+02  0.56778385275E+02  0.84205026358E+02  0.10000000000E+01 0.  0.
<mgrwt>
<rscale>  0 0.12500116E+03</rscale>
<asrwt>0</asrwt>
<pdfrwt beam="1">  1        4 0.19705210E-01 0.12500116E+03</pdfrwt>
<pdfrwt beam="2">  1       -4 0.46920253E-02 0.12500116E+03</pdfrwt>
<totfact> 0.97614305E+03</totfact>
</mgrwt>
</event>
<event>
 5    1  0.3246948E-002  0.1249963E+03  0.7818608E-02  0.1235075E+00
         -4   -1    0    0    0  501 -0.00000000000E+00  0.00000000000E+00  0.17911666119E+03  0.17912116351E+03  0.12700000000E+01 0.  1.
          4   -1    0    0  501    0  0.00000000000E+00 -0.00000000000E+00 -0.21783856017E+02  0.21820845147E+02  0.12700000000E+01 0.  1.
         25    2    1    2    0    0  0.00000000000E+00  0.00000000000E+00  0.15733280518E+03  0.20094200866E+03  0.12499631698E+03 0.  0.
    9000005    1    3    3    0    0 -0.52187232152E+02  0.22864416665E+02  0.11992624787E+03  0.13277648013E+03  0.10000000000E+01 0.  0.
    9000005    1    3    3    0    0  0.52187232152E+02 -0.22864416665E+02  0.37406557309E+02  0.68165528523E+02  0.10000000000E+01 0.  0.
<mgrwt>
<rscale>  0 0.12499632E+03</rscale>
<asrwt>0</asrwt>
<pdfrwt beam="2">  1        4 0.33545541E-02 0.12499632E+03</pdfrwt>
<pdfrwt beam="1">  1       -4 0.27559601E-01 0.12499632E+03</pdfrwt>
<totfact> 0.89984287E+03</totfact>
</mgrwt>
</event>
<event>
 5    1  0.3246948E-002  0.1249969E+03  0.7818608E-02  0.1235074E+00
         -4   -1    0    0    0  501 -0.00000000000E+00  0.00000000000E+00  0.34856159453E+02  0.34879288292E+02  0.12700000000E+01 0.  1.
          4   -1    0    0  501    0  0.00000000000E+00 -0.00000000000E+00 -0.11199824335E+03  0.11200544368E+03  0.12700000000E+01 0.  1.
         25    2    1    2    0    0  0.00000000000E+00  0.00000000000E+00 -0.77142083896E+02  0.14688473197E+03  0.12499689347E+03 0.  0.
    9000005    1    3    3    0    0 -0.25992255891E+02 -0.56172305743E+02 -0.28453476233E+02  0.68128742895E+02  0.10000000000E+01 0.  0.
    9000005    1    3    3    0    0  0.25992255891E+02  0.56172305743E+02 -0.48688607663E+02  0.78755989073E+02  0.10000000000E+01 0.  0.
<mgrwt>
<rscale>  0 0.12499689E+03</rscale>
<asrwt>0</asrwt>
<pdfrwt beam="2">  1        4 0.17232832E-01 0.12499689E+03</pdfrwt>
<pdfrwt beam="1">  1       -4 0.53648191E-02 0.12499689E+03</pdfrwt>
<totfact> 0.99935334E+03</totfact>
</mgrwt>
</event>
<event>
 5    1  0.3246948E-002  0.1250028E+03  0.7818608E-02  0.1235065E+00
         -4   -1    0    0    0  501 -0.00000000000E+00  0.00000000000E+00  0.13463629990E+02  0.13523395746E+02  0.12700000000E+01 0.  1.
          4   -1    0    0  501    0  0.00000000000E+00 -0.00000000000E+00 -0.28944292419E+03  0.28944571039E+03  0.12700000000E+01 0.  1.
         25    2    1    2    0    0  0.00000000000E+00  0.00000000000E+00 -0.27597929420E+03  0.30296910613E+03  0.12500283375E+03 0.  0.
    9000005    1    3    3    0    0 -0.18544999233E+02 -0.52904965337E+02 -0.20491947371E+03  0.21245197825E+03  0.10000000000E+01 0.  0.
    9000005    1    3    3    0    0  0.18544999233E+02  0.52904965337E+02 -0.71059820484E+02  0.90517127888E+02  0.10000000000E+01 0.  0.
<mgrwt>
<rscale>  0 0.12500283E+03</rscale>
<asrwt>0</asrwt>
<pdfrwt beam="2">  1        4 0.44534488E-01 0.12500283E+03</pdfrwt>
<pdfrwt beam="1">  1       -4 0.20761396E-02 0.12500283E+03</pdfrwt>
<totfact> 0.75223173E+03</totfact>
</mgrwt>
</event>
<event>
 5    1  0.3246948E-002  0.1249968E+03  0.7818608E-02  0.1235074E+00
          4   -1    0    0  501    0  0.00000000000E+00  0.00000000000E+00  0.12902347842E+02  0.12964701301E+02  0.12700000000E+01 0. -1.
         -4   -1    0    0    0  501 -0.00000000000E+00 -0.00000000000E+00 -0.30194620411E+03  0.30194887493E+03  0.12700000000E+01 0. -1.
         25    2    1    2    0    0  0.00000000000E+00  0.00000000000E+00 -0.28904385626E+03  0.31491357624E+03  0.12499683857E+03 0.  0.
    9000005    1    3    3    0    0  0.10259536790E+02 -0.31239807718E+02 -0.10642266129E+02  0.34575157407E+02  0.10000000000E+01 0.  0.
    9000005    1    3    3    0    0 -0.10259536790E+02  0.31239807718E+02 -0.27840159014E+03  0.28033841883E+03  0.10000000000E+01 0.  0.
<mgrwt>
<rscale>  0 0.12499684E+03</rscale>
<asrwt>0</asrwt>
<pdfrwt beam="1">  1        4 0.19899787E-02 0.12499684E+03</pdfrwt>
<pdfrwt beam="2">  1       -4 0.46458259E-01 0.12499684E+03</pdfrwt>
<totfact> 0.73770373E+03</totfact>
</mgrwt>
</event>
<event>
 5    1  0.3246948E-002  0.1249990E+03  0.7818608E-02  0.1235071E+00
         -4   -1    0    0    0  501 -0.00000000000E+00  0.00000000000E+00  0.11993146205E+03  0.11993818612E+03  0.12700000000E+01 0. -1.
          4   -1    0    0  501    0  0.00000000000E+00 -0.00000000000E+00 -0.32550147740E+02  0.32574913935E+02  0.12700000000E+01 0. -1.
         25    2    1    2    0    0  0.00000000000E+00  0.00000000000E+00  0.87381314313E+02  0.15251310006E+03  0.12499900639E+03 0.  0.
    9000005    1    3    3    0    0 -0.55680746491E+02 -0.27798331057E+02  0.36778392458E+02  0.72296216300E+02  0.10000000000E+01 0.  0.
    9000005    1    3    3    0    0  0.55680746491E+02  0.27798331057E+02  0.50602921855E+02  0.80216883757E+02  0.10000000000E+01 0.  0.
<mgrwt>
<rscale>  0 0.12499901E+03</rscale>
<asrwt>0</asrwt>
<pdfrwt beam="2">  1        4 0.50101373E-02 0.12499901E+03</pdfrwt>
<pdfrwt beam="1">  1       -4 0.18453417E-01 0.12499901E+03</pdfrwt>
<totfact> 0.98807297E+03</totfact>
</mgrwt>
</event>
<event>
 4    1  0.3246948E-002  0.1250829E+03  0.7818608E-02  0.1234940E+00
         -4   -1    0    0    0  501 -0.00000000000E+00  0.00000000000E+00  0.33173131795E+02  0.33197433231E+02  0.12700000000E+01 0.  1.
          4   -1    0    0  501    0  0.00000000000E+00 -0.00000000000E+00 -0.11783868592E+03  0.11784552940E+03  0.12700000000E+01 0.  1.
    9000005    1    1    2    0    0  0.20780778336E+02  0.24412403851E+02  0.22500310466E+02  0.39179971683E+02  0.10000000000E+01 0.  0.
    9000005    1    1    2    0    0 -0.20780778336E+02 -0.24412403851E+02 -0.10716586459E+03  0.11186299095E+03  0.10000000000E+01 0.  0.
<mgrwt>
<rscale>  0 0.12508285E+03</rscale>
<asrwt>0</asrwt>
<pdfrwt beam="2">  1        4 0.18131424E-01 0.12508285E+03</pdfrwt>
<pdfrwt beam="1">  1       -4 0.51059546E-02 0.12508285E+03</pdfrwt>
<totfact> 0.98911668E+03</totfact>
</mgrwt>
</event>
<event>
 5    1  0.3246948E-002  0.1249980E+03  0.7818608E-02  0.1235072E+00
          4   -1    0    0  501    0  0.00000000000E+00  0.00000000000E+00  0.12702953658E+02  0.12766281042E+02  0.12700000000E+01 0.  1.
         -4   -1    0    0    0  501 -0.00000000000E+00 -0.00000000000E+00 -0.30666797108E+03  0.30667060078E+03  0.12700000000E+01 0.  1.
         25    2    1    2    0    0  0.00000000000E+00  0.00000000000E+00 -0.29396501742E+03  0.31943688183E+03  0.12499796000E+03 0.  0.
    9000005    1    3    3    0    0 -0.40653148837E+02 -0.47452639854E+02 -0.14910677542E+03  0.16167331881E+03  0.10000000000E+01 0.  0.
    9000005    1    3    3    0    0  0.40653148837E+02  0.47452639854E+02 -0.14485824200E+03  0.15776356302E+03  0.10000000000E+01 0.  0.
<mgrwt>
<rscale>  0 0.12499796E+03</rscale>
<asrwt>0</asrwt>
<pdfrwt beam="1">  1        4 0.19593744E-02 0.12499796E+03</pdfrwt>
<pdfrwt beam="2">  1       -4 0.47184756E-01 0.12499796E+03</pdfrwt>
<totfact> 0.73226464E+03</totfact>
</mgrwt>
</event>
<event>
 5    1  0.3246948E-002  0.1250006E+03  0.7818608E-02  0.1235068E+00
          4   -1    0    0  501    0  0.00000000000E+00  0.00000000000E+00  0.17843495940E+03  0.17843947892E+03  0.12700000000E+01 0. -1.
         -4   -1    0    0    0  501 -0.00000000000E+00 -0.00000000000E+00 -0.21868714880E+02  0.21905560721E+02  0.12700000000E+01 0. -1.
         25    2    1    2    0    0  0.00000000000E+00  0.00000000000E+00  0.15656624452E+03  0.20034503964E+03  0.12500058394E+03 0.  0.
    9000005    1    3    3    0    0  0.18100408378E+02 -0.27844295098E+02 -0.65622731880E+01  0.33867284839E+02  0.10000000000E+01 0.  0.
    9000005    1    3    3    0    0 -0.18100408378E+02  0.27844295098E+02  0.16312851771E+03  0.16647775480E+03  0.10000000000E+01 0.  0.
<mgrwt>
<rscale>  0 0.12500058E+03</rscale>
<asrwt>0</asrwt>
<pdfrwt beam="1">  1        4 0.27454715E-01 0.12500058E+03</pdfrwt>
<pdfrwt beam="2">  1       -4 0.33675995E-02 0.12500058E+03</pdfrwt>
<totfact> 0.90076167E+03</totfact>
</mgrwt>
</event>
<event>
 5    1  0.3246948E-002  0.1250129E+03  0.7818608E-02  0.1235049E+00
          4   -1    0    0  501    0  0.00000000000E+00  0.00000000000E+00  0.16115357656E+03  0.16115858071E+03  0.12700000000E+01 0.  1.
         -4   -1    0    0    0  501 -0.00000000000E+00 -0.00000000000E+00 -0.24222300827E+02  0.24255571676E+02  0.12700000000E+01 0.  1.
         25    2    1    2    0    0  0.00000000000E+00  0.00000000000E+00  0.13693127573E+03  0.18541415239E+03  0.12501293386E+03 0.  0.
    9000005    1    3    3    0    0  0.52206968614E+01  0.46292283107E+01  0.16058135754E+03  0.16073598795E+03  0.10000000000E+01 0.  0.
    9000005    1    3    3    0    0 -0.52206968614E+01 -0.46292283107E+01 -0.23650081813E+02  0.24678164442E+02  0.10000000000E+01 0.  0.
<mgrwt>
<rscale>  0 0.12501293E+03</rscale>
<asrwt>0</asrwt>
<pdfrwt beam="1">  1        4 0.24795803E-01 0.12501293E+03</pdfrwt>
<pdfrwt beam="2">  1       -4 0.37294519E-02 0.12501293E+03</pdfrwt>
<totfact> 0.92624566E+03</totfact>
</mgrwt>
</event>
<event>
 5    1  0.3246948E-002  0.1250018E+03  0.7818608E-02  0.1235067E+00
          4   -1    0    0  501    0  0.00000000000E+00  0.00000000000E+00  0.14416862595E+02  0.14472692461E+02  0.12700000000E+01 0.  1.
         -4   -1    0    0    0  501 -0.00000000000E+00 -0.00000000000E+00 -0.27037682986E+03  0.27037981253E+03  0.12700000000E+01 0.  1.
         25    2    1    2    0    0  0.00000000000E+00  0.00000000000E+00 -0.25595996726E+03  0.28485250499E+03  0.12500177902E+03 0.  0.
    9000005    1    3    3    0    0 -0.45653473979E+02 -0.41832966679E+00 -0.22522166123E+03  0.22980472444E+03  0.10000000000E+01 0.  0.
    9000005    1    3    3    0    0  0.45653473979E+02  0.41832966679E+00 -0.30738306030E+02  0.55047780552E+02  0.10000000000E+01 0.  0.
<mgrwt>
<rscale>  0 0.12500178E+03</rscale>
<asrwt>0</asrwt>
<pdfrwt beam="1">  1        4 0.22225031E-02 0.12500178E+03</pdfrwt>
<pdfrwt beam="2">  1       -4 0.41600956E-01 0.12500178E+03</pdfrwt>
<totfact> 0.77536003E+03</totfact>
</mgrwt>
</event>
<event>
 4    1  0.3246948E-002  0.1246192E+03  0.7818608E-02  0.1235666E+00
          4   -1    0    0  501    0  0.00000000000E+00  0.00000000000E+00  0.19468840890E+03  0.19469255112E+03  0.12700000000E+01 0.  1.
         -4   -1    0    0    0  501 -0.00000000000E+00 -0.00000000000E+00 -0.19917468384E+02  0.19957916896E+02  0.12700000000E+01 0.  1.
    9000005    1    1    2    0    0 -0.58577678557E+02 -0.20748194684E+02  0.79749466161E+02  0.10110790949E+03  0.10000000000E+01 0.  0.
    9000005    1    1    2    0    0  0.58577678557E+02  0.20748194684E+02  0.95021474355E+02  0.11354255852E+03  0.10000000000E+01 0.  0.
<mgrwt>
<rscale>  0 0.12461919E+03</rscale>
<asrwt>0</asrwt>
<pdfrwt beam="1">  1        4 0.29955492E-01 0.12461919E+03</pdfrwt>
<pdfrwt beam="2">  1       -4 0.30676561E-02 0.12461919E+03</pdfrwt>
<totfact> 0.88472709E+03</totfact>
</mgrwt>
</event>
<event>
 5    1  0.3246948E-002  0.1250115E+03  0.7818608E-02  0.1235051E+00
          4   -1    0    0  501    0  0.00000000000E+00  0.00000000000E+00  0.72354400687E+01  0.73460528849E+01  0.12700000000E+01 0.  1.
         -4   -1    0    0    0  501 -0.00000000000E+00 -0.00000000000E+00 -0.53576912759E+03  0.53577063280E+03  0.12700000000E+01 0.  1.
         25    2    1    2    0    0  0.00000000000E+00  0.00000000000E+00 -0.52853368752E+03  0.54311668569E+03  0.12501150120E+03 0.  0.
    9000005    1    3    3    0    0 -0.37165574049E+02 -0.31290519248E+02 -0.43506794143E+03  0.43777333193E+03  0.10000000000E+01 0.  0.
    9000005    1    3    3    0    0  0.37165574049E+02  0.31290519248E+02 -0.93465746084E+02  0.10534335375E+03  0.10000000000E+01 0.  0.
<mgrwt>
<rscale>  0 0.12501150E+03</rscale>
<asrwt>0</asrwt>
<pdfrwt beam="1">  1        4 0.11217695E-02 0.12501150E+03</pdfrwt>
<pdfrwt beam="2">  1       -4 0.82434613E-01 0.12501150E+03</pdfrwt>
<totfact> 0.52654362E+03</totfact>
</mgrwt>
</event>
<event>
 5    1  0.3246948E-002  0.1250005E+03  0.7818608E-02  0.1235068E+00
          4   -1    0    0  501    0  0.00000000000E+00  0.00000000000E+00  0.36636950007E+02  0.36658955329E+02  0.12700000000E+01 0. -1.
         -4   -1    0    0    0  501 -0.00000000000E+00 -0.00000000000E+00 -0.10656360839E+03  0.10657117590E+03  0.12700000000E+01 0. -1.
         25    2    1    2    0    0  0.00000000000E+00  0.00000000000E+00 -0.69926658380E+02  0.14323013123E+03  0.12500053176E+03 0.  0.
    9000005    1    3    3    0    0  0.12961350173E+02  0.57314649264E+02 -0.59332697989E+02  0.83512482117E+02  0.10000000000E+01 0.  0.
    9000005    1    3    3    0    0 -0.12961350173E+02 -0.57314649264E+02 -0.10593960391E+02  0.59717649111E+02  0.10000000000E+01 0.  0.
<mgrwt>
<rscale>  0 0.12500053E+03</rscale>
<asrwt>0</asrwt>
<pdfrwt beam="1">  1        4 0.56387287E-02 0.12500053E+03</pdfrwt>
<pdfrwt beam="2">  1       -4 0.16396676E-01 0.12500053E+03</pdfrwt>
<totfact> 0.10066952E+04</totfact>
</mgrwt>
</event>
<event>
 5    1  0.3246948E-002  0.1250002E+03  0.7818608E-02  0.1235069E+00
         -4   -1    0    0    0  501 -0.00000000000E+00  0.00000000000E+00  0.46667239428E+02  0.46684517089E+02  0.12700000000E+01 0. -1.
          4   -1    0    0  501    0  0.00000000000E+00 -0.00000000000E+00 -0.83667068301E+02  0.83676706544E+02  0.12700000000E+01 0. -1.
         25    2    1    2    0    0  0.00000000000E+00  0.00000000000E+00 -0.36999828873E+02  0.13036122363E+03  0.12500024516E+03 0.  0.
    9000005    1    3    3    0    0 -0.56046519732E+02  0.22189612453E+02 -0.35689350948E+02  0.70059410831E+02  0.10000000000E+01 0.  0.
    9000005    1    3    3    0    0  0.56046519732E+02 -0.22189612453E+02 -0.13104779246E+01  0.60301812802E+02  0.10000000000E+01 0.  0.
<mgrwt>
<rscale>  0 0.12500025E+03</rscale>
<asrwt>0</asrwt>
<pdfrwt beam="2">  1        4 0.12873927E-01 0.12500025E+03</pdfrwt>
<pdfrwt beam="1">  1       -4 0.71816458E-02 0.12500025E+03</pdfrwt>
<totfact> 0.10336729E+04</totfact>
</mgrwt>
</event>
<event>
 5    1  0.3246948E-002  0.1250059E+03  0.7818608E-02  0.1235060E+00
          4   -1    0    0  501    0  0.00000000000E+00  0.00000000000E+00  0.11350315562E+03  0.11351026049E+03  0.12700000000E+01 0. -1.
         -4   -1    0    0    0  501 -0.00000000000E+00 -0.00000000000E+00 -0.34398701964E+02  0.34422138179E+02  0.12700000000E+01 0. -1.
         25    2    1    2    0    0  0.00000000000E+00  0.00000000000E+00  0.79104453658E+02  0.14793239867E+03  0.12500591981E+03 0.  0.
    9000005    1    3    3    0    0  0.43202730456E+02  0.32731042108E+02  0.27367288150E+01  0.54279708188E+02  0.10000000000E+01 0.  0.
    9000005    1    3    3    0    0 -0.43202730456E+02 -0.32731042108E+02  0.76367724843E+02  0.93652690480E+02  0.10000000000E+01 0.  0.
<mgrwt>
<rscale>  0 0.12500592E+03</rscale>
<asrwt>0</asrwt>
<pdfrwt beam="1">  1        4 0.17464373E-01 0.12500592E+03</pdfrwt>
<pdfrwt beam="2">  1       -4 0.52944573E-02 0.12500592E+03</pdfrwt>
<totfact> 0.99704164E+03</totfact>
</mgrwt>
</event>
<event>
 5    1  0.3246948E-002  0.1250028E+03  0.7818608E-02  0.1235065E+00
         -4   -1    0    0    0  501 -0.00000000000E+00  0.00000000000E+00  0.30757399310E+03  0.30757661506E+03  0.12700000000E+01 0.  1.
          4   -1    0    0  501    0  0.00000000000E+00 -0.00000000000E+00 -0.12666341705E+02  0.12729851224E+02  0.12700000000E+01 0.  1.
         25    2    1    2    0    0  0.00000000000E+00  0.00000000000E+00  0.29490765139E+03  0.32030646628E+03  0.12500283793E+03 0.  0.
    9000005    1    3    3    0    0  0.43863912700E+02  0.44349605990E+02  0.13769753654E+03  0.15117057239E+03  0.10000000000E+01 0.  0.
    9000005    1    3    3    0    0 -0.43863912700E+02 -0.44349605990E+02  0.15721011485E+03  0.16913589389E+03  0.10000000000E+01 0.  0.
<mgrwt>
<rscale>  0 0.12500284E+03</rscale>
<asrwt>0</asrwt>
<pdfrwt beam="2">  1        4 0.19537552E-02 0.12500284E+03</pdfrwt>
<pdfrwt beam="1">  1       -4 0.47324158E-01 0.12500284E+03</pdfrwt>
<totfact> 0.73115092E+03</totfact>
</mgrwt>
</event>
<event>
 5    1  0.3246948E-002  0.1249996E+03  0.7818608E-02  0.1235070E+00
          4   -1    0    0  501    0  0.00000000000E+00  0.00000000000E+00  0.22421205029E+01  0.25768205893E+01  0.12700000000E+01 0.  1.
         -4   -1    0    0    0  501 -0.00000000000E+00 -0.00000000000E+00 -0.16208623366E+04  0.16208628341E+04  0.12700000000E+01 0.  1.
         25    2    1    2    0    0  0.00000000000E+00  0.00000000000E+00 -0.16186202161E+04  0.16234396547E+04  0.12499963440E+03 0.  0.
    9000005    1    3    3    0    0  0.33373887759E+02 -0.28359475429E+02 -0.13882624742E+04  0.13889534814E+04  0.10000000000E+01 0.  0.
    9000005    1    3    3    0    0 -0.33373887759E+02  0.28359475429E+02 -0.23035774188E+03  0.23448617331E+03  0.10000000000E+01 0.  0.
<mgrwt>
<rscale>  0 0.12499963E+03</rscale>
<asrwt>0</asrwt>
<pdfrwt beam="1">  1        4 0.37072735E-03 0.12499963E+03</pdfrwt>
<pdfrwt beam="2">  1       -4 0.24938835E+00 0.12499963E+03</pdfrwt>
<totfact> 0.15626335E+03</totfact>
</mgrwt>
</event>
<event>
 5    1  0.3246948E-002  0.1250018E+03  0.7818608E-02  0.1235066E+00
          4   -1    0    0  501    0  0.00000000000E+00  0.00000000000E+00  0.20584592881E+03  0.20584984651E+03  0.12700000000E+01 0. -1.
         -4   -1    0    0    0  501 -0.00000000000E+00 -0.00000000000E+00 -0.18951763909E+02  0.18994269011E+02  0.12700000000E+01 0. -1.
         25    2    1    2    0    0  0.00000000000E+00  0.00000000000E+00  0.18689416491E+03  0.22484411553E+03  0.12500178963E+03 0.  0.
    9000005    1    3    3    0    0  0.40875080782E+01  0.61119298391E+02  0.71191840716E+02  0.93923131031E+02  0.10000000000E+01 0.  0.
    9000005    1    3    3    0    0 -0.40875080782E+01 -0.61119298391E+02  0.11570232419E+03  0.13092098449E+03  0.10000000000E+01 0.  0.
<mgrwt>
<rscale>  0 0.12500179E+03</rscale>
<asrwt>0</asrwt>
<pdfrwt beam="1">  1        4 0.31672178E-01 0.12500179E+03</pdfrwt>
<pdfrwt beam="2">  1       -4 0.29192268E-02 0.12500179E+03</pdfrwt>
<totfact> 0.86104145E+03</totfact>
</mgrwt>
</event>
<event>
 5    1  0.3246948E-002  0.1249921E+03  0.7818608E-02  0.1235082E+00
          4   -1    0    0  501    0  0.00000000000E+00  0.00000000000E+00  0.15838135956E+02  0.15888972608E+02  0.12700000000E+01 0.  1.
         -4   -1    0    0    0  501 -0.00000000000E+00 -0.00000000000E+00 -0.24615709348E+03  0.24616036962E+03  0.12700000000E+01 0.  1.
         25    2    1    2    0    0  0.00000000000E+00  0.00000000000E+00 -0.23031895753E+03  0.26204934223E+03  0.12499214202E+03 0.  0.
    9000005    1    3    3    0    0  0.25895174232E+02 -0.98361746126E+01  0.22731186644E+01  0.27811462529E+02  0.10000000000E+01 0.  0.
    9000005    1    3    3    0    0 -0.25895174232E+02  0.98361746126E+01 -0.23259207619E+03  0.23423787970E+03  0.10000000000E+01 0.  0.
<mgrwt>
<rscale>  0 0.12499214E+03</rscale>
<asrwt>0</asrwt>
<pdfrwt beam="1">  1        4 0.24407990E-02 0.12499214E+03</pdfrwt>
<pdfrwt beam="2">  1       -4 0.37874482E-01 0.12499214E+03</pdfrwt>
<totfact> 0.80633425E+03</totfact>
</mgrwt>
</event>
<event>
 5    1  0.3246948E-002  0.1250009E+03  0.7818608E-02  0.1235068E+00
         -4   -1    0    0    0  501 -0.00000000000E+00  0.00000000000E+00  0.23225986871E+03  0.23226334088E+03  0.12700000000E+01 0. -1.
          4   -1    0    0  501    0  0.00000000000E+00 -0.00000000000E+00 -0.16791118387E+02  0.16839078261E+02  0.12700000000E+01 0. -1.
         25    2    1    2    0    0  0.00000000000E+00  0.00000000000E+00  0.21546875033E+03  0.24910241914E+03  0.12500093141E+03 0.  0.
    9000005    1    3    3    0    0  0.58754974303E+02  0.20779013591E+02  0.11695178043E+03  0.13252408595E+03  0.10000000000E+01 0.  0.
    9000005    1    3    3    0    0 -0.58754974303E+02 -0.20779013591E+02  0.98516969895E+02  0.11657833319E+03  0.10000000000E+01 0.  0.
<mgrwt>
<rscale>  0 0.12500093E+03</rscale>
<asrwt>0</asrwt>
<pdfrwt beam="2">  1        4 0.25872054E-02 0.12500093E+03</pdfrwt>
<pdfrwt beam="1">  1       -4 0.35736242E-01 0.12500093E+03</pdfrwt>
<totfact> 0.82458419E+03</totfact>
</mgrwt>
</event>
<event>
 5    1  0.3246948E-002  0.1250006E+03  0.7818608E-02  0.1235068E+00
         -4   -1    0    0    0  501 -0.00000000000E+00  0.00000000000E+00  0.33056382417E+02  0.33080769618E+02  0.12700000000E+01 0.  1.
          4   -1    0    0  501    0  0.00000000000E+00 -0.00000000000E+00 -0.11809906274E+03  0.11810589114E+03  0.12700000000E+01 0.  1.
         25    2    1    2    0    0  0.00000000000E+00  0.00000000000E+00 -0.85042680326E+02  0.15118666075E+03  0.12500059565E+03 0.  0.
    9000005    1    3    3    0    0 -0.46727682776E+02 -0.41001919147E+02 -0.34809634365E+02  0.71255486498E+02  0.10000000000E+01 0.  0.
    9000005    1    3    3    0    0  0.46727682776E+02  0.41001919147E+02 -0.50233045961E+02  0.79931174256E+02  0.10000000000E+01 0.  0.
<mgrwt>
<rscale>  0 0.12500060E+03</rscale>
<asrwt>0</asrwt>
<pdfrwt beam="2">  1        4 0.18171488E-01 0.12500060E+03</pdfrwt>
<pdfrwt beam="1">  1       -4 0.50879985E-02 0.12500060E+03</pdfrwt>
<totfact> 0.99066351E+03</totfact>
</mgrwt>
</event>
<event>
 5    1  0.3246948E-002  0.1249829E+03  0.7818608E-02  0.1235096E+00
          4   -1    0    0  501    0  0.00000000000E+00  0.00000000000E+00  0.12301947240E+03  0.12302602769E+03  0.12700000000E+01 0.  1.
         -4   -1    0    0    0  501 -0.00000000000E+00 -0.00000000000E+00 -0.31724292590E+02  0.31749702996E+02  0.12700000000E+01 0.  1.
         25    2    1    2    0    0  0.00000000000E+00  0.00000000000E+00  0.91295179805E+02  0.15477573068E+03  0.12498286664E+03 0.  0.
    9000005    1    3    3    0    0  0.10425543066E+02  0.59051810934E+02  0.67394075742E+02  0.90215130483E+02  0.10000000000E+01 0.  0.
    9000005    1    3    3    0    0 -0.10425543066E+02 -0.59051810934E+02  0.23901104063E+02  0.64560600201E+02  0.10000000000E+01 0.  0.
<mgrwt>
<rscale>  0 0.12498287E+03</rscale>
<asrwt>0</asrwt>
<pdfrwt beam="1">  1        4 0.18928531E-01 0.12498287E+03</pdfrwt>
<pdfrwt beam="2">  1       -4 0.48831193E-02 0.12498287E+03</pdfrwt>
<totfact> 0.98397455E+03</totfact>
</mgrwt>
</event>
<event>
 5    1  0.3246948E-002  0.1249982E+03  0.7818608E-02  0.1235072E+00
          4   -1    0    0  501    0  0.00000000000E+00  0.00000000000E+00  0.17204346452E+02  0.17251157551E+02  0.12700000000E+01 0. -1.
         -4   -1    0    0    0  501 -0.00000000000E+00 -0.00000000000E+00 -0.22668641558E+03  0.22668997311E+03  0.12700000000E+01 0. -1.
         25    2    1    2    0    0  0.00000000000E+00  0.00000000000E+00 -0.20948206913E+03  0.24394113066E+03  0.12499815176E+03 0.  0.
    9000005    1    3    3    0    0 -0.37801184286E+02 -0.49701752306E+02 -0.99984366952E+02  0.11788582337E+03  0.10000000000E+01 0.  0.
    9000005    1    3    3    0    0  0.37801184286E+02  0.49701752306E+02 -0.10949770218E+03  0.12605530730E+03  0.10000000000E+01 0.  0.
<mgrwt>
<rscale>  0 0.12499815E+03</rscale>
<asrwt>0</asrwt>
<pdfrwt beam="1">  1        4 0.26506972E-02 0.12499815E+03</pdfrwt>
<pdfrwt beam="2">  1       -4 0.34878706E-01 0.12499815E+03</pdfrwt>
<totfact> 0.83217314E+03</totfact>
</mgrwt>
</event>
<event>
 5    1  0.3246948E-002  0.1250037E+03  0.7818608E-02  0.1235063E+00
          4   -1    0    0  501    0  0.00000000000E+00  0.00000000000E+00  0.60497880798E+01  0.61816531616E+01  0.12700000000E+01 0. -1.
         -4   -1    0    0    0  501 -0.00000000000E+00 -0.00000000000E+00 -0.63862835369E+03  0.63862961647E+03  0.12700000000E+01 0. -1.
         25    2    1    2    0    0  0.00000000000E+00  0.00000000000E+00 -0.63257856561E+03  0.64481126964E+03  0.12500372706E+03 0.  0.
    9000005    1    3    3    0    0 -0.35703841668E+02  0.16639004061E+02 -0.56655431488E+03  0.56792289307E+03  0.10000000000E+01 0.  0.
    9000005    1    3    3    0    0  0.35703841668E+02 -0.16639004061E+02 -0.66024250731E+02  0.76888376563E+02  0.10000000000E+01 0.  0.
<mgrwt>
<rscale>  0 0.12500373E+03</rscale>
<asrwt>0</asrwt>
<pdfrwt beam="1">  1        4 0.94097774E-03 0.12500373E+03</pdfrwt>
<pdfrwt beam="2">  1       -4 0.98260704E-01 0.12500373E+03</pdfrwt>
<totfact> 0.46152027E+03</totfact>
</mgrwt>
</event>
<event>
 5    1  0.3246948E-002  0.1250003E+03  0.7818608E-02  0.1235069E+00
          4   -1    0    0  501    0  0.00000000000E+00  0.00000000000E+00  0.35736860700E+01  0.37926418400E+01  0.12700000000E+01 0. -1.
         -4   -1    0    0    0  501 -0.00000000000E+00 -0.00000000000E+00 -0.10603555643E+04  0.10603563248E+04  0.12700000000E+01 0. -1.
         25    2    1    2    0    0  0.00000000000E+00  0.00000000000E+00 -0.10567818782E+04  0.10641489667E+04  0.12500034058E+03 0.  0.
    9000005    1    3    3    0    0 -0.39713585873E+02  0.43150544815E+02 -0.34459069085E+03  0.34954668164E+03  0.10000000000E+01 0.  0.
    9000005    1    3    3    0    0  0.39713585873E+02 -0.43150544815E+02 -0.71219118736E+03  0.71460228503E+03  0.10000000000E+01 0.  0.
<mgrwt>
<rscale>  0 0.12500034E+03</rscale>
<asrwt>0</asrwt>
<pdfrwt beam="1">  1        4 0.56669996E-03 0.12500034E+03</pdfrwt>
<pdfrwt beam="2">  1       -4 0.16314828E+00 0.12500034E+03</pdfrwt>
<totfact> 0.28556901E+03</totfact>
</mgrwt>
</event>
<event>
 5    1  0.3246948E-002  0.1249862E+03  0.7818608E-02  0.1235091E+00
          4   -1    0    0  501    0  0.00000000000E+00  0.00000000000E+00  0.17364495271E+03  0.17364959690E+03  0.12700000000E+01 0.  1.
         -4   -1    0    0    0  501 -0.00000000000E+00 -0.00000000000E+00 -0.22467780078E+02  0.22503645074E+02  0.12700000000E+01 0.  1.
         25    2    1    2    0    0  0.00000000000E+00  0.00000000000E+00  0.15117717263E+03  0.19615324197E+03  0.12498622648E+03 0.  0.
    9000005    1    3    3    0    0 -0.22243977770E+02  0.56551895916E+02  0.98411214122E+02  0.11566623770E+03  0.10000000000E+01 0.  0.
    9000005    1    3    3    0    0  0.22243977770E+02 -0.56551895916E+02  0.52765958512E+02  0.80487004271E+02  0.10000000000E+01 0.  0.
<mgrwt>
<rscale>  0 0.12498623E+03</rscale>
<asrwt>0</asrwt>
<pdfrwt beam="1">  1        4 0.26717724E-01 0.12498623E+03</pdfrwt>
<pdfrwt beam="2">  1       -4 0.34596976E-02 0.12498623E+03</pdfrwt>
<totfact> 0.90815555E+03</totfact>
</mgrwt>
</event>
<event>
 5    1  0.3246948E-002  0.1249960E+03  0.7818608E-02  0.1235075E+00
         -4   -1    0    0    0  501 -0.00000000000E+00  0.00000000000E+00  0.96099419717E+02  0.96107811180E+02  0.12700000000E+01 0.  1.
          4   -1    0    0  501    0  0.00000000000E+00 -0.00000000000E+00 -0.40625343021E+02  0.40645189083E+02  0.12700000000E+01 0.  1.
         25    2    1    2    0    0  0.00000000000E+00  0.00000000000E+00  0.55474076696E+02  0.13675300026E+03  0.12499603952E+03 0.  0.
    9000005    1    3    3    0    0  0.24646327608E+02 -0.10881542921E+02  0.89424418669E+02  0.93400086162E+02  0.10000000000E+01 0.  0.
    9000005    1    3    3    0    0 -0.24646327608E+02  0.10881542921E+02 -0.33950341973E+02  0.43352914100E+02  0.10000000000E+01 0.  0.
<mgrwt>
<rscale>  0 0.12499604E+03</rscale>
<asrwt>0</asrwt>
<pdfrwt beam="2">  1        4 0.62522250E-02 0.12499604E+03</pdfrwt>
<pdfrwt beam="1">  1       -4 0.14786698E-01 0.12499604E+03</pdfrwt>
<totfact> 0.10202164E+04</totfact>
</mgrwt>
</event>
<event>
 5    1  0.3246948E-002  0.1250014E+03  0.7818608E-02  0.1235067E+00
         -4   -1    0    0    0  501 -0.00000000000E+00  0.00000000000E+00  0.54131544393E+03  0.54131693373E+03  0.12700000000E+01 0.  1.
          4   -1    0    0  501    0  0.00000000000E+00 -0.00000000000E+00 -0.71589938050E+01  0.72707697186E+01  0.12700000000E+01 0.  1.
         25    2    1    2    0    0  0.00000000000E+00  0.00000000000E+00  0.53415645013E+03  0.54858770345E+03  0.12500142063E+03 0.  0.
    9000005    1    3    3    0    0 -0.39913864001E+02 -0.42359343784E+02  0.36695339522E+03  0.37154168651E+03  0.10000000000E+01 0.  0.
    9000005    1    3    3    0    0  0.39913864001E+02  0.42359343784E+02  0.16720305491E+03  0.17704601694E+03  0.10000000000E+01 0.  0.
<mgrwt>
<rscale>  0 0.12500142E+03</rscale>
<asrwt>0</asrwt>
<pdfrwt beam="2">  1        4 0.11100963E-02 0.12500142E+03</pdfrwt>
<pdfrwt beam="1">  1       -4 0.83288016E-01 0.12500142E+03</pdfrwt>
<totfact> 0.52280875E+03</totfact>
</mgrwt>
</event>
<event>
 5    1  0.3246948E-002  0.1250023E+03  0.7818608E-02  0.1235066E+00
         -4   -1    0    0    0  501 -0.00000000000E+00  0.00000000000E+00  0.33909938493E+03  0.33910176313E+03  0.12700000000E+01 0.  1.
          4   -1    0    0  501    0  0.00000000000E+00 -0.00000000000E+00 -0.11482481875E+02  0.11552501461E+02  0.12700000000E+01 0.  1.
         25    2    1    2    0    0  0.00000000000E+00  0.00000000000E+00  0.32761690305E+03  0.35065426459E+03  0.12500231242E+03 0.  0.
    9000005    1    3    3    0    0 -0.23907832746E+02 -0.17107351287E+02  0.91121615548E+01  0.30794113445E+02  0.10000000000E+01 0.  0.
    9000005    1    3    3    0    0  0.23907832746E+02  0.17107351287E+02  0.31850474150E+03  0.31986015115E+03  0.10000000000E+01 0.  0.
<mgrwt>
<rscale>  0 0.12500231E+03</rscale>
<asrwt>0</asrwt>
<pdfrwt beam="2">  1        4 0.17721047E-02 0.12500231E+03</pdfrwt>
<pdfrwt beam="1">  1       -4 0.52174705E-01 0.12500231E+03</pdfrwt>
<totfact> 0.69649073E+03</totfact>
</mgrwt>
</event>
<event>
 5    1  0.3246948E-002  0.1250019E+03  0.7818608E-02  0.1235066E+00
         -4   -1    0    0    0  501 -0.00000000000E+00  0.00000000000E+00  0.44971149603E+01  0.46730014943E+01  0.12700000000E+01 0.  1.
          4   -1    0    0  501    0  0.00000000000E+00 -0.00000000000E+00 -0.85180186106E+03  0.85180280782E+03  0.12700000000E+01 0.  1.
         25    2    1    2    0    0  0.00000000000E+00  0.00000000000E+00 -0.84730474610E+03  0.85647580932E+03  0.12500191668E+03 0.  0.
    9000005    1    3    3    0    0 -0.28300722162E+02 -0.23078373034E+02 -0.76180738985E+02  0.84486964492E+02  0.10000000000E+01 0.  0.
    9000005    1    3    3    0    0  0.28300722162E+02  0.23078373034E+02 -0.77112400712E+03  0.77198884482E+03  0.10000000000E+01 0.  0.
<mgrwt>
<rscale>  0 0.12500192E+03</rscale>
<asrwt>0</asrwt>
<pdfrwt beam="2">  1        4 0.13105992E+00 0.12500192E+03</pdfrwt>
<pdfrwt beam="1">  1       -4 0.70546708E-03 0.12500192E+03</pdfrwt>
<totfact> 0.35862314E+03</totfact>
</mgrwt>
</event>
<event>
 5    1  0.3246948E-002  0.1249955E+03  0.7818608E-02  0.1235076E+00
         -4   -1    0    0    0  501 -0.00000000000E+00  0.00000000000E+00  0.12597477045E+03  0.12598117196E+03  0.12700000000E+01 0.  1.
          4   -1    0    0  501    0  0.00000000000E+00 -0.00000000000E+00 -0.30985783875E+02  0.31011799405E+02  0.12700000000E+01 0.  1.
         25    2    1    2    0    0  0.00000000000E+00  0.00000000000E+00  0.94988986572E+02  0.15699297137E+03  0.12499554188E+03 0.  0.
    9000005    1    3    3    0    0 -0.31743574183E+02 -0.34457961566E+02  0.99431796088E+02  0.10992127952E+03  0.10000000000E+01 0.  0.
    9000005    1    3    3    0    0  0.31743574183E+02  0.34457961566E+02 -0.44428095169E+01  0.47071691850E+02  0.10000000000E+01 0.  0.
<mgrwt>
<rscale>  0 0.12499554E+03</rscale>
<asrwt>0</asrwt>
<pdfrwt beam="2">  1        4 0.47695372E-02 0.12499554E+03</pdfrwt>
<pdfrwt beam="1">  1       -4 0.19383228E-01 0.12499554E+03</pdfrwt>
<totfact> 0.97935485E+03</totfact>
</mgrwt>
</event>
<event>
 5    1  0.3246948E-002  0.1250003E+03  0.7818608E-02  0.1235069E+00
         -4   -1    0    0    0  501 -0.00000000000E+00  0.00000000000E+00  0.91007608785E+03  0.91007697399E+03  0.12700000000E+01 0. -1.
          4   -1    0    0  501    0  0.00000000000E+00 -0.00000000000E+00 -0.41973971486E+01  0.43853212907E+01  0.12700000000E+01 0. -1.
         25    2    1    2    0    0  0.00000000000E+00  0.00000000000E+00  0.90587869071E+03  0.91446229528E+03  0.12500034885E+03 0.  0.
    9000005    1    3    3    0    0 -0.25878634534E+02  0.56408347898E+02  0.50653204935E+03  0.51032080347E+03  0.10000000000E+01 0.  0.
    9000005    1    3    3    0    0  0.25878634534E+02 -0.56408347898E+02  0.39934664136E+03  0.40414149181E+03  0.10000000000E+01 0.  0.
<mgrwt>
<rscale>  0 0.12500035E+03</rscale>
<asrwt>0</asrwt>
<pdfrwt beam="2">  1        4 0.66027775E-03 0.12500035E+03</pdfrwt>
<pdfrwt beam="1">  1       -4 0.14002613E+00 0.12500035E+03</pdfrwt>
<totfact> 0.33611933E+03</totfact>
</mgrwt>
</event>
<event>
 5    1  0.3246948E-002  0.1249996E+03  0.7818608E-02  0.1235070E+00
          4   -1    0    0  501    0  0.00000000000E+00  0.00000000000E+00  0.48377481058E+01  0.50016703945E+01  0.12700000000E+01 0. -1.
         -4   -1    0    0    0  501 -0.00000000000E+00 -0.00000000000E+00 -0.79383068340E+03  0.79383169930E+03  0.12700000000E+01 0. -1.
         25    2    1    2    0    0  0.00000000000E+00  0.00000000000E+00 -0.78899293530E+03  0.79883336970E+03  0.12499960235E+03 0.  0.
    9000005    1    3    3    0    0  0.20017895632E+02  0.58549845025E+02 -0.45036461795E+03  0.45459662296E+03  0.10000000000E+01 0.  0.
    9000005    1    3    3    0    0 -0.20017895632E+02 -0.58549845025E+02 -0.33862831735E+03  0.34423674674E+03  0.10000000000E+01 0.  0.
<mgrwt>
<rscale>  0 0.12499960E+03</rscale>
<asrwt>0</asrwt>
<pdfrwt beam="1">  1        4 0.75695712E-03 0.12499960E+03</pdfrwt>
<pdfrwt beam="2">  1       -4 0.12214038E+00 0.12499960E+03</pdfrwt>
<totfact> 0.38317220E+03</totfact>
</mgrwt>
</event>
<event>
 5    1  0.3246948E-002  0.1250005E+03  0.7818608E-02  0.1235068E+00
          4   -1    0    0  501    0  0.00000000000E+00  0.00000000000E+00  0.20564530080E+02  0.20603708341E+02  0.12700000000E+01 0.  1.
         -4   -1    0    0    0  501 -0.00000000000E+00 -0.00000000000E+00 -0.18973030921E+03  0.18973455967E+03  0.12700000000E+01 0.  1.
         25    2    1    2    0    0  0.00000000000E+00  0.00000000000E+00 -0.16916577913E+03  0.21033826801E+03  0.12500050464E+03 0.  0.
    9000005    1    3    3    0    0  0.38996031215E+02  0.70513536908E+01 -0.32740368183E+01  0.39776014839E+02  0.10000000000E+01 0.  0.
    9000005    1    3    3    0    0 -0.38996031215E+02 -0.70513536908E+01 -0.16589174232E+03  0.17056225317E+03  0.10000000000E+01 0.  0.
<mgrwt>
<rscale>  0 0.12500050E+03</rscale>
<asrwt>0</asrwt>
<pdfrwt beam="1">  1        4 0.31671147E-02 0.12500050E+03</pdfrwt>
<pdfrwt beam="2">  1       -4 0.29192618E-01 0.12500050E+03</pdfrwt>
<totfact> 0.88419670E+03</totfact>
</mgrwt>
</event>
<event>
 4    1  0.3246948E-002  0.1251120E+03  0.7818608E-02  0.1234894E+00
         -4   -1    0    0    0  501 -0.00000000000E+00  0.00000000000E+00  0.65097027441E+02  0.65109414693E+02  0.12700000000E+01 0.  1.
          4   -1    0    0  501    0  0.00000000000E+00 -0.00000000000E+00 -0.60089374707E+02  0.60102794050E+02  0.12700000000E+01 0.  1.
    9000005    1    1    2    0    0  0.61998207763E+00 -0.52664096008E+02 -0.31262835642E+02  0.61255663236E+02  0.10000000000E+01 0.  0.
    9000005    1    1    2    0    0 -0.61998207763E+00  0.52664096008E+02  0.36270488377E+02  0.63956545507E+02  0.10000000000E+01 0.  0.
<mgrwt>
<rscale>  0 0.12511203E+03</rscale>
<asrwt>0</asrwt>
<pdfrwt beam="2">  1        4 0.92465043E-02 0.12511203E+03</pdfrwt>
<pdfrwt beam="1">  1       -4 0.10016912E-01 0.12511203E+03</pdfrwt>
<totfact> 0.10421845E+04</totfact>
</mgrwt>
</event>
<event>
 5    1  0.3246948E-002  0.1249992E+03  0.7818608E-02  0.1235071E+00
         -4   -1    0    0    0  501 -0.00000000000E+00  0.00000000000E+00  0.60953514732E+03  0.60953647037E+03  0.12700000000E+01 0. -1.
          4   -1    0    0  501    0  0.00000000000E+00 -0.00000000000E+00 -0.63442250203E+01  0.64700920479E+01  0.12700000000E+01 0. -1.
         25    2    1    2    0    0  0.00000000000E+00  0.00000000000E+00  0.60319092230E+03  0.61600656242E+03  0.12499918482E+03 0.  0.
    9000005    1    3    3    0    0 -0.25716406357E+02 -0.36870419783E+02  0.51552415680E+03  0.51748132107E+03  0.10000000000E+01 0.  0.
    9000005    1    3    3    0    0  0.25716406357E+02  0.36870419783E+02  0.87666765499E+02  0.98525241354E+02  0.10000000000E+01 0.  0.
<mgrwt>
<rscale>  0 0.12499918E+03</rscale>
<asrwt>0</asrwt>
<pdfrwt beam="2">  1        4 0.98581802E-03 0.12499918E+03</pdfrwt>
<pdfrwt beam="1">  1       -4 0.93784465E-01 0.12499918E+03</pdfrwt>
<totfact> 0.47873409E+03</totfact>
</mgrwt>
</event>
<event>
 5    1  0.3246948E-002  0.1250003E+03  0.7818608E-02  0.1235069E+00
         -4   -1    0    0    0  501 -0.00000000000E+00  0.00000000000E+00  0.12763575842E+02  0.12826603926E+02  0.12700000000E+01 0.  1.
          4   -1    0    0  501    0  0.00000000000E+00 -0.00000000000E+00 -0.30523017224E+03  0.30523281433E+03  0.12700000000E+01 0.  1.
         25    2    1    2    0    0  0.00000000000E+00  0.00000000000E+00 -0.29246659640E+03  0.31805941826E+03  0.12500033414E+03 0.  0.
    9000005    1    3    3    0    0  0.43563334207E+02  0.21968135020E+02 -0.24559496884E+03  0.25039618959E+03  0.10000000000E+01 0.  0.
    9000005    1    3    3    0    0 -0.43563334207E+02 -0.21968135020E+02 -0.46871627559E+02  0.67663228666E+02  0.10000000000E+01 0.  0.
<mgrwt>
<rscale>  0 0.12500033E+03</rscale>
<asrwt>0</asrwt>
<pdfrwt beam="2">  1        4 0.46963534E-01 0.12500033E+03</pdfrwt>
<pdfrwt beam="1">  1       -4 0.19686788E-02 0.12500033E+03</pdfrwt>
<totfact> 0.73386986E+03</totfact>
</mgrwt>
</event>
<event>
 5    1  0.3246948E-002  0.1249963E+03  0.7818608E-02  0.1235075E+00
          4   -1    0    0  501    0  0.00000000000E+00  0.00000000000E+00  0.11211599972E+02  0.11283300667E+02  0.12700000000E+01 0.  1.
         -4   -1    0    0    0  501 -0.00000000000E+00 -0.00000000000E+00 -0.34720726278E+03  0.34720958545E+03  0.12700000000E+01 0.  1.
         25    2    1    2    0    0  0.00000000000E+00  0.00000000000E+00 -0.33599566281E+03  0.35849288611E+03  0.12499625582E+03 0.  0.
    9000005    1    3    3    0    0  0.59248523401E+02  0.96538382607E+00 -0.11109101168E+03  0.12591081117E+03  0.10000000000E+01 0.  0.
    9000005    1    3    3    0    0 -0.59248523401E+02 -0.96538382607E+00 -0.22490465112E+03  0.23258207495E+03  0.10000000000E+01 0.  0.
<mgrwt>
<rscale>  0 0.12499626E+03</rscale>
<asrwt>0</asrwt>
<pdfrwt beam="1">  1        4 0.17305559E-02 0.12499626E+03</pdfrwt>
<pdfrwt beam="2">  1       -4 0.53422188E-01 0.12499626E+03</pdfrwt>
<totfact> 0.68805933E+03</totfact>
</mgrwt>
</event>
<event>
 5    1  0.3246948E-002  0.1249942E+03  0.7818608E-02  0.1235078E+00
          4   -1    0    0  501    0  0.00000000000E+00  0.00000000000E+00  0.82930216583E+02  0.82939940454E+02  0.12700000000E+01 0.  1.
         -4   -1    0    0    0  501 -0.00000000000E+00 -0.00000000000E+00 -0.47077399443E+02  0.47094526628E+02  0.12700000000E+01 0.  1.
         25    2    1    2    0    0  0.00000000000E+00  0.00000000000E+00  0.35852817140E+02  0.13003446708E+03  0.12499415239E+03 0.  0.
    9000005    1    3    3    0    0 -0.50332124489E+02 -0.36152641728E+02  0.95682404625E+01  0.62712737821E+02  0.10000000000E+01 0.  0.
    9000005    1    3    3    0    0  0.50332124489E+02  0.36152641728E+02  0.26284576678E+02  0.67321729260E+02  0.10000000000E+01 0.  0.
<mgrwt>
<rscale>  0 0.12499415E+03</rscale>
<asrwt>0</asrwt>
<pdfrwt beam="1">  1        4 0.12760560E-01 0.12499415E+03</pdfrwt>
<pdfrwt beam="2">  1       -4 0.72447424E-02 0.12499415E+03</pdfrwt>
<totfact> 0.10345136E+04</totfact>
</mgrwt>
</event>
<event>
 5    1  0.3246948E-002  0.1250018E+03  0.7818608E-02  0.1235066E+00
         -4   -1    0    0    0  501 -0.00000000000E+00  0.00000000000E+00  0.86678028343E+01  0.87603485076E+01  0.12700000000E+01 0.  1.
          4   -1    0    0  501    0  0.00000000000E+00 -0.00000000000E+00 -0.44818875153E+03  0.44819055088E+03  0.12700000000E+01 0.  1.
         25    2    1    2    0    0  0.00000000000E+00  0.00000000000E+00 -0.43952094870E+03  0.45695089939E+03  0.12500184042E+03 0.  0.
    9000005    1    3    3    0    0  0.22461651046E+02 -0.26221373909E+02 -0.29345832261E+02  0.45323990210E+02  0.10000000000E+01 0.  0.
    9000005    1    3    3    0    0 -0.22461651046E+02  0.26221373909E+02 -0.41017511644E+03  0.41162690918E+03  0.10000000000E+01 0.  0.
<mgrwt>
<rscale>  0 0.12500184E+03</rscale>
<asrwt>0</asrwt>
<pdfrwt beam="2">  1        4 0.68959355E-01 0.12500184E+03</pdfrwt>
<pdfrwt beam="1">  1       -4 0.13407658E-02 0.12500184E+03</pdfrwt>
<totfact> 0.59363936E+03</totfact>
</mgrwt>
</event>
<event>
 5    1  0.3246948E-002  0.1249978E+03  0.7818608E-02  0.1235073E+00
         -4   -1    0    0    0  501 -0.00000000000E+00  0.00000000000E+00  0.58198527782E+02  0.58212383013E+02  0.12700000000E+01 0.  1.
          4   -1    0    0  501    0  0.00000000000E+00 -0.00000000000E+00 -0.67089157513E+02  0.67101177008E+02  0.12700000000E+01 0.  1.
         25    2    1    2    0    0  0.00000000000E+00  0.00000000000E+00 -0.88906297310E+01  0.12531356002E+03  0.12499778009E+03 0.  0.
    9000005    1    3    3    0    0 -0.43830716704E+02  0.11383054240E+02 -0.47616913781E+02  0.65719678397E+02  0.10000000000E+01 0.  0.
    9000005    1    3    3    0    0  0.43830716704E+02 -0.11383054240E+02  0.38726284050E+02  0.59593881623E+02  0.10000000000E+01 0.  0.
<mgrwt>
<rscale>  0 0.12499778E+03</rscale>
<asrwt>0</asrwt>
<pdfrwt beam="2">  1        4 0.10323399E-01 0.12499778E+03</pdfrwt>
<pdfrwt beam="1">  1       -4 0.89556100E-02 0.12499778E+03</pdfrwt>
<totfact> 0.10446580E+04</totfact>
</mgrwt>
</event>
<event>
 5    1  0.3246948E-002  0.1249935E+03  0.7818608E-02  0.1235079E+00
         -4   -1    0    0    0  501 -0.00000000000E+00  0.00000000000E+00  0.40873742876E+02  0.40893468387E+02  0.12700000000E+01 0.  1.
          4   -1    0    0  501    0  0.00000000000E+00 -0.00000000000E+00 -0.95511821434E+02  0.95520264519E+02  0.12700000000E+01 0.  1.
         25    2    1    2    0    0  0.00000000000E+00  0.00000000000E+00 -0.54638078558E+02  0.13641373291E+03  0.12499354742E+03 0.  0.
    9000005    1    3    3    0    0 -0.13293206571E+02 -0.60999581666E+02 -0.30245126156E+02  0.69378858167E+02  0.10000000000E+01 0.  0.
    9000005    1    3    3    0    0  0.13293206571E+02  0.60999581666E+02 -0.24392952402E+02  0.67034874739E+02  0.10000000000E+01 0.  0.
<mgrwt>
<rscale>  0 0.12499355E+03</rscale>
<asrwt>0</asrwt>
<pdfrwt beam="2">  1        4 0.14696293E-01 0.12499355E+03</pdfrwt>
<pdfrwt beam="1">  1       -4 0.62904350E-02 0.12499355E+03</pdfrwt>
<totfact> 0.10209844E+04</totfact>
</mgrwt>
</event>
<event>
 4    1  0.3246948E-002  0.1248843E+03  0.7818608E-02  0.1235250E+00
         -4   -1    0    0    0  501 -0.00000000000E+00  0.00000000000E+00  0.28695606540E+02  0.28723696397E+02  0.12700000000E+01 0.  1.
          4   -1    0    0  501    0  0.00000000000E+00 -0.00000000000E+00 -0.13577759134E+03  0.13578353070E+03  0.12700000000E+01 0.  1.
    9000005    1    1    2    0    0  0.58192092259E+02  0.22571268545E+02 -0.51570656140E+02  0.80971071006E+02  0.10000000000E+01 0.  0.
    9000005    1    1    2    0    0 -0.58192092259E+02 -0.22571268545E+02 -0.55511328658E+02  0.83536156091E+02  0.10000000000E+01 0.  0.
<mgrwt>
<rscale>  0 0.12488425E+03</rscale>
<asrwt>0</asrwt>
<pdfrwt beam="2">  1        4 0.20891477E-01 0.12488425E+03</pdfrwt>
<pdfrwt beam="1">  1       -4 0.44173264E-02 0.12488425E+03</pdfrwt>
<totfact> 0.96732116E+03</totfact>
</mgrwt>
</event>
<event>
 5    1  0.3246948E-002  0.1250170E+03  0.7818608E-02  0.1235043E+00
          4   -1    0    0  501    0  0.00000000000E+00  0.00000000000E+00  0.62002682678E+02  0.62015688010E+02  0.12700000000E+01 0. -1.
         -4   -1    0    0    0  501 -0.00000000000E+00 -0.00000000000E+00 -0.62992391397E+02  0.63005192436E+02  0.12700000000E+01 0. -1.
         25    2    1    2    0    0  0.00000000000E+00  0.00000000000E+00 -0.98970871816E+00  0.12502088045E+03  0.12501696294E+03 0.  0.
    9000005    1    3    3    0    0  0.37771581721E+02  0.43997304753E+02 -0.23816285050E+02  0.62695060769E+02  0.10000000000E+01 0.  0.
    9000005    1    3    3    0    0 -0.37771581721E+02 -0.43997304753E+02  0.22826576332E+02  0.62325819676E+02  0.10000000000E+01 0.  0.
<mgrwt>
<rscale>  0 0.12501696E+03</rscale>
<asrwt>0</asrwt>
<pdfrwt beam="1">  1        4 0.95408593E-02 0.12501696E+03</pdfrwt>
<pdfrwt beam="2">  1       -4 0.96931223E-02 0.12501696E+03</pdfrwt>
<totfact> 0.10448403E+04</totfact>
</mgrwt>
</event>
<event>
 5    1  0.3246948E-002  0.1249992E+03  0.7818608E-02  0.1235070E+00
         -4   -1    0    0    0  501 -0.00000000000E+00  0.00000000000E+00  0.12904682148E+03  0.12905307061E+03  0.12700000000E+01 0. -1.
          4   -1    0    0  501    0  0.00000000000E+00 -0.00000000000E+00 -0.30249343356E+02  0.30275991701E+02  0.12700000000E+01 0. -1.
         25    2    1    2    0    0  0.00000000000E+00  0.00000000000E+00  0.98797478125E+02  0.15932906231E+03  0.12499923365E+03 0.  0.
    9000005    1    3    3    0    0  0.17063164348E+02  0.59639816851E+02  0.59034106951E+02  0.85639273205E+02  0.10000000000E+01 0.  0.
    9000005    1    3    3    0    0 -0.17063164348E+02 -0.59639816851E+02  0.39763371174E+02  0.73689789107E+02  0.10000000000E+01 0.  0.
<mgrwt>
<rscale>  0 0.12499923E+03</rscale>
<asrwt>0</asrwt>
<pdfrwt beam="2">  1        4 0.46562757E-02 0.12499923E+03</pdfrwt>
<pdfrwt beam="1">  1       -4 0.19855888E-01 0.12499923E+03</pdfrwt>
<totfact> 0.97473972E+03</totfact>
</mgrwt>
</event>
<event>
 5    1  0.3246948E-002  0.1249510E+03  0.7818608E-02  0.1235146E+00
          4   -1    0    0  501    0  0.00000000000E+00  0.00000000000E+00  0.12134410558E+03  0.12135075138E+03  0.12700000000E+01 0. -1.
         -4   -1    0    0    0  501 -0.00000000000E+00 -0.00000000000E+00 -0.32146209053E+02  0.32171286211E+02  0.12700000000E+01 0. -1.
         25    2    1    2    0    0  0.00000000000E+00  0.00000000000E+00  0.89197896531E+02  0.15352203759E+03  0.12495099551E+03 0.  0.
    9000005    1    3    3    0    0 -0.21873271335E+02 -0.48707564824E+02  0.47608439318E+01  0.53614666883E+02  0.10000000000E+01 0.  0.
    9000005    1    3    3    0    0  0.21873271335E+02  0.48707564824E+02  0.84437052599E+02  0.99907370707E+02  0.10000000000E+01 0.  0.
<mgrwt>
<rscale>  0 0.12495100E+03</rscale>
<asrwt>0</asrwt>
<pdfrwt beam="1">  1        4 0.18670764E-01 0.12495100E+03</pdfrwt>
<pdfrwt beam="2">  1       -4 0.49480109E-02 0.12495100E+03</pdfrwt>
<totfact> 0.98714995E+03</totfact>
</mgrwt>
</event>
<event>
 5    1  0.3246948E-002  0.1249955E+03  0.7818608E-02  0.1235076E+00
         -4   -1    0    0    0  501 -0.00000000000E+00  0.00000000000E+00  0.12373813915E+03  0.12374465637E+03  0.12700000000E+01 0. -1.
          4   -1    0    0  501    0  0.00000000000E+00 -0.00000000000E+00 -0.31546306998E+02  0.31571860655E+02  0.12700000000E+01 0. -1.
         25    2    1    2    0    0  0.00000000000E+00  0.00000000000E+00  0.92191832150E+02  0.15531651702E+03  0.12499554610E+03 0.  0.
    9000005    1    3    3    0    0  0.13734902973E+02  0.51598909633E+02  0.57575794636E+01  0.53714474365E+02  0.10000000000E+01 0.  0.
    9000005    1    3    3    0    0 -0.13734902973E+02 -0.51598909633E+02  0.86434252686E+02  0.10160204266E+03  0.10000000000E+01 0.  0.
<mgrwt>
<rscale>  0 0.12499555E+03</rscale>
<asrwt>0</asrwt>
<pdfrwt beam="2">  1        4 0.48557450E-02 0.12499555E+03</pdfrwt>
<pdfrwt beam="1">  1       -4 0.19039104E-01 0.12499555E+03</pdfrwt>
<totfact> 0.98263241E+03</totfact>
</mgrwt>
</event>
<event>
 5    1  0.3246948E-002  0.1250015E+03  0.7818608E-02  0.1235067E+00
          4   -1    0    0  501    0  0.00000000000E+00  0.00000000000E+00  0.14227554476E+03  0.14228121288E+03  0.12700000000E+01 0. -1.
         -4   -1    0    0    0  501 -0.00000000000E+00 -0.00000000000E+00 -0.27435260557E+02  0.27464639481E+02  0.12700000000E+01 0. -1.
         25    2    1    2    0    0  0.00000000000E+00  0.00000000000E+00  0.11484028421E+03  0.16974585236E+03  0.12500145406E+03 0.  0.
    9000005    1    3    3    0    0  0.37433910896E+02  0.46759515080E+01  0.12507525549E+03  0.13064448608E+03  0.10000000000E+01 0.  0.
    9000005    1    3    3    0    0 -0.37433910896E+02 -0.46759515080E+01 -0.10234971284E+02  0.39101366276E+02  0.10000000000E+01 0.  0.
<mgrwt>
<rscale>  0 0.12500145E+03</rscale>
<asrwt>0</asrwt>
<pdfrwt beam="1">  1        4 0.21891241E-01 0.12500145E+03</pdfrwt>
<pdfrwt beam="2">  1       -4 0.42235053E-02 0.12500145E+03</pdfrwt>
<totfact> 0.95492910E+03</totfact>
</mgrwt>
</event>
<event>
 5    1  0.3246948E-002  0.1250027E+03  0.7818608E-02  0.1235065E+00
         -4   -1    0    0    0  501 -0.00000000000E+00  0.00000000000E+00  0.73128839197E+03  0.73128949475E+03  0.12700000000E+01 0. -1.
          4   -1    0    0  501    0  0.00000000000E+00 -0.00000000000E+00 -0.52652213631E+01  0.54162215615E+01  0.12700000000E+01 0. -1.
         25    2    1    2    0    0  0.00000000000E+00  0.00000000000E+00  0.72602317061E+03  0.73670571632E+03  0.12500267272E+03 0.  0.
    9000005    1    3    3    0    0  0.10260113078E+01  0.39002640750E+02  0.65071909107E+03  0.65188848293E+03  0.10000000000E+01 0.  0.
    9000005    1    3    3    0    0 -0.10260113078E+01 -0.39002640750E+02  0.75304079539E+02  0.84817233390E+02  0.10000000000E+01 0.  0.
<mgrwt>
<rscale>  0 0.12500267E+03</rscale>
<asrwt>0</asrwt>
<pdfrwt beam="2">  1        4 0.82173359E-03 0.12500267E+03</pdfrwt>
<pdfrwt beam="1">  1       -4 0.11251770E+00 0.12500267E+03</pdfrwt>
<totfact> 0.41215779E+03</totfact>
</mgrwt>
</event>
<event>
 5    1  0.3246948E-002  0.1249992E+03  0.7818608E-02  0.1235071E+00
          4   -1    0    0  501    0  0.00000000000E+00  0.00000000000E+00  0.25669700205E+02  0.25701097420E+02  0.12700000000E+01 0. -1.
         -4   -1    0    0    0  501 -0.00000000000E+00 -0.00000000000E+00 -0.15204451179E+03  0.15204981574E+03  0.12700000000E+01 0. -1.
         25    2    1    2    0    0  0.00000000000E+00  0.00000000000E+00 -0.12637481159E+03  0.17775091316E+03  0.12499917650E+03 0.  0.
    9000005    1    3    3    0    0  0.50216333473E+02  0.15250673337E+02 -0.14944867236E+02  0.54576663890E+02  0.10000000000E+01 0.  0.
    9000005    1    3    3    0    0 -0.50216333473E+02 -0.15250673337E+02 -0.11142994435E+03  0.12317424927E+03  0.10000000000E+01 0.  0.
<mgrwt>
<rscale>  0 0.12499918E+03</rscale>
<asrwt>0</asrwt>
<pdfrwt beam="1">  1        4 0.39520079E-02 0.12499918E+03</pdfrwt>
<pdfrwt beam="2">  1       -4 0.23394286E-01 0.12499918E+03</pdfrwt>
<totfact> 0.94025156E+03</totfact>
</mgrwt>
</event>
<event>
 5    1  0.3246948E-002  0.1250000E+03  0.7818608E-02  0.1235069E+00
         -4   -1    0    0    0  501 -0.00000000000E+00  0.00000000000E+00  0.11290566497E+03  0.11291280743E+03  0.12700000000E+01 0.  1.
          4   -1    0    0  501    0  0.00000000000E+00 -0.00000000000E+00 -0.34577552811E+02  0.34600867885E+02  0.12700000000E+01 0.  1.
         25    2    1    2    0    0  0.00000000000E+00  0.00000000000E+00  0.78328112158E+02  0.14751367532E+03  0.12499996501E+03 0.  0.
    9000005    1    3    3    0    0  0.25841224360E+02  0.44359172931E+02 -0.28873243276E+01  0.51428024863E+02  0.10000000000E+01 0.  0.
    9000005    1    3    3    0    0 -0.25841224360E+02 -0.44359172931E+02  0.81215436485E+02  0.96085650453E+02  0.10000000000E+01 0.  0.
<mgrwt>
<rscale>  0 0.12499997E+03</rscale>
<asrwt>0</asrwt>
<pdfrwt beam="2">  1        4 0.53219663E-02 0.12499997E+03</pdfrwt>
<pdfrwt beam="1">  1       -4 0.17372446E-01 0.12499997E+03</pdfrwt>
<totfact> 0.99801716E+03</totfact>
</mgrwt>
</event>
<event>
 5    1  0.3246948E-002  0.1250024E+03  0.7818608E-02  0.1235065E+00
          4   -1    0    0  501    0  0.00000000000E+00  0.00000000000E+00  0.15706239161E+03  0.15706752611E+03  0.12700000000E+01 0. -1.
         -4   -1    0    0    0  501 -0.00000000000E+00 -0.00000000000E+00 -0.24849901511E+02  0.24882333192E+02  0.12700000000E+01 0. -1.
         25    2    1    2    0    0  0.00000000000E+00  0.00000000000E+00  0.13221249010E+03  0.18194985930E+03  0.12500243502E+03 0.  0.
    9000005    1    3    3    0    0 -0.48464773085E+02  0.22158087057E+01  0.12344275773E+03  0.13263807325E+03  0.10000000000E+01 0.  0.
    9000005    1    3    3    0    0  0.48464773085E+02 -0.22158087057E+01  0.87697323715E+01  0.49311786058E+02  0.10000000000E+01 0.  0.
<mgrwt>
<rscale>  0 0.12500244E+03</rscale>
<asrwt>0</asrwt>
<pdfrwt beam="1">  1        4 0.24166334E-01 0.12500244E+03</pdfrwt>
<pdfrwt beam="2">  1       -4 0.38259515E-02 0.12500244E+03</pdfrwt>
<totfact> 0.93262104E+03</totfact>
</mgrwt>
</event>
<event>
 5    1  0.3246948E-002  0.1250068E+03  0.7818608E-02  0.1235059E+00
         -4   -1    0    0    0  501 -0.00000000000E+00  0.00000000000E+00  0.15266010957E+04  0.15266016239E+04  0.12700000000E+01 0. -1.
          4   -1    0    0  501    0  0.00000000000E+00 -0.00000000000E+00 -0.24009374921E+01  0.27161371175E+01  0.12700000000E+01 0. -1.
         25    2    1    2    0    0  0.00000000000E+00  0.00000000000E+00  0.15242001582E+04  0.15293177610E+04  0.12500676814E+03 0.  0.
    9000005    1    3    3    0    0 -0.49111076400E+01 -0.61575413327E+02  0.87817536911E+03  0.88034574425E+03  0.10000000000E+01 0.  0.
    9000005    1    3    3    0    0  0.49111076400E+01  0.61575413327E+02  0.64602478906E+03  0.64897201680E+03  0.10000000000E+01 0.  0.
<mgrwt>
<rscale>  0 0.12500677E+03</rscale>
<asrwt>0</asrwt>
<pdfrwt beam="2">  1        4 0.39366202E-03 0.12500677E+03</pdfrwt>
<pdfrwt beam="1">  1       -4 0.23488584E+00 0.12500677E+03</pdfrwt>
<totfact> 0.17358685E+03</totfact>
</mgrwt>
</event>
<event>
 5    1  0.3246948E-002  0.1250019E+03  0.7818608E-02  0.1235066E+00
         -4   -1    0    0    0  501 -0.00000000000E+00  0.00000000000E+00  0.86854466937E+02  0.86863751513E+02  0.12700000000E+01 0.  1.
          4   -1    0    0  501    0  0.00000000000E+00 -0.00000000000E+00 -0.44955367272E+02  0.44973302598E+02  0.12700000000E+01 0.  1.
         25    2    1    2    0    0  0.00000000000E+00  0.00000000000E+00  0.41899099665E+02  0.13183705411E+03  0.12500189712E+03 0.  0.
    9000005    1    3    3    0    0  0.48922739165E+02  0.11347987401E+02 -0.18274883642E+02  0.53452620119E+02  0.10000000000E+01 0.  0.
    9000005    1    3    3    0    0 -0.48922739165E+02 -0.11347987401E+02  0.60173983306E+02  0.78384433993E+02  0.10000000000E+01 0.  0.
<mgrwt>
<rscale>  0 0.12500190E+03</rscale>
<asrwt>0</asrwt>
<pdfrwt beam="2">  1        4 0.69183042E-02 0.12500190E+03</pdfrwt>
<pdfrwt beam="1">  1       -4 0.13364320E-01 0.12500190E+03</pdfrwt>
<totfact> 0.10304737E+04</totfact>
</mgrwt>
</event>
<event>
 5    1  0.3246948E-002  0.1250008E+03  0.7818608E-02  0.1235068E+00
         -4   -1    0    0    0  501 -0.00000000000E+00  0.00000000000E+00  0.31293535534E+01  0.33772405396E+01  0.12700000000E+01 0. -1.
          4   -1    0    0  501    0  0.00000000000E+00 -0.00000000000E+00 -0.12004717181E+04  0.12004723899E+04  0.12700000000E+01 0. -1.
         25    2    1    2    0    0  0.00000000000E+00  0.00000000000E+00 -0.11973423646E+04  0.12038496304E+04  0.12500077887E+03 0.  0.
    9000005    1    3    3    0    0  0.12645386177E+02  0.44286825823E+02 -0.19188568282E+03  0.19733814635E+03  0.10000000000E+01 0.  0.
    9000005    1    3    3    0    0 -0.12645386177E+02 -0.44286825823E+02 -0.10054566817E+04  0.10065114841E+04  0.10000000000E+01 0.  0.
<mgrwt>
<rscale>  0 0.12500078E+03</rscale>
<asrwt>0</asrwt>
<pdfrwt beam="2">  1        4 0.18470672E+00 0.12500078E+03</pdfrwt>
<pdfrwt beam="1">  1       -4 0.50055987E-03 0.12500078E+03</pdfrwt>
<totfact> 0.24611847E+03</totfact>
</mgrwt>
</event>
<event>
 5    1  0.3246948E-002  0.1249981E+03  0.7818608E-02  0.1235072E+00
          4   -1    0    0  501    0  0.00000000000E+00  0.00000000000E+00  0.34705978324E+03  0.34706210690E+03  0.12700000000E+01 0. -1.
         -4   -1    0    0    0  501 -0.00000000000E+00 -0.00000000000E+00 -0.11216721250E+02  0.11288389416E+02  0.12700000000E+01 0. -1.
         25    2    1    2    0    0  0.00000000000E+00  0.00000000000E+00  0.33584306199E+03  0.35835049631E+03  0.12499806366E+03 0.  0.
    9000005    1    3    3    0    0  0.64019868829E+01  0.61791339161E+02  0.14848312595E+03  0.16095773893E+03  0.10000000000E+01 0.  0.
    9000005    1    3    3    0    0 -0.64019868829E+01 -0.61791339161E+02  0.18735993605E+03  0.19739275738E+03  0.10000000000E+01 0.  0.
<mgrwt>
<rscale>  0 0.12499806E+03</rscale>
<asrwt>0</asrwt>
<pdfrwt beam="1">  1        4 0.53399504E-01 0.12499806E+03</pdfrwt>
<pdfrwt beam="2">  1       -4 0.17313411E-02 0.12499806E+03</pdfrwt>
<totfact> 0.68818511E+03</totfact>
</mgrwt>
</event>
<event>
 5    1  0.3246948E-002  0.1250002E+03  0.7818608E-02  0.1235069E+00
          4   -1    0    0  501    0  0.00000000000E+00  0.00000000000E+00  0.45644104135E+02  0.45661768935E+02  0.12700000000E+01 0.  1.
         -4   -1    0    0    0  501 -0.00000000000E+00 -0.00000000000E+00 -0.85541917238E+02  0.85551344260E+02  0.12700000000E+01 0.  1.
         25    2    1    2    0    0  0.00000000000E+00  0.00000000000E+00 -0.39897813103E+02  0.13121311320E+03  0.12500018234E+03 0.  0.
    9000005    1    3    3    0    0  0.20785753120E+02 -0.42395615743E+01  0.41754011258E+02  0.46844624785E+02  0.10000000000E+01 0.  0.
    9000005    1    3    3    0    0 -0.20785753120E+02  0.42395615743E+01 -0.81651824361E+02  0.84368488410E+02  0.10000000000E+01 0.  0.
<mgrwt>
<rscale>  0 0.12500018E+03</rscale>
<asrwt>0</asrwt>
<pdfrwt beam="1">  1        4 0.70242539E-02 0.12500018E+03</pdfrwt>
<pdfrwt beam="2">  1       -4 0.13162379E-01 0.12500018E+03</pdfrwt>
<totfact> 0.10318480E+04</totfact>
</mgrwt>
</event>
<event>
 5    1  0.3246948E-002  0.1249994E+03  0.7818608E-02  0.1235070E+00
         -4   -1    0    0    0  501 -0.00000000000E+00  0.00000000000E+00  0.28860566662E+02  0.28888496119E+02  0.12700000000E+01 0. -1.
          4   -1    0    0  501    0  0.00000000000E+00 -0.00000000000E+00 -0.13525126294E+03  0.13525722541E+03  0.12700000000E+01 0. -1.
         25    2    1    2    0    0  0.00000000000E+00  0.00000000000E+00 -0.10639069627E+03  0.16414572153E+03  0.12499935057E+03 0.  0.
    9000005    1    3    3    0    0 -0.39300403930E+02 -0.69934845854E+01  0.99432525094E+01  0.41149712589E+02  0.10000000000E+01 0.  0.
    9000005    1    3    3    0    0  0.39300403930E+02  0.69934845854E+01 -0.11633394878E+03  0.12299600894E+03  0.10000000000E+01 0.  0.
<mgrwt>
<rscale>  0 0.12499935E+03</rscale>
<asrwt>0</asrwt>
<pdfrwt beam="2">  1        4 0.20810493E-01 0.12499935E+03</pdfrwt>
<pdfrwt beam="1">  1       -4 0.44426943E-02 0.12499935E+03</pdfrwt>
<totfact> 0.96550833E+03</totfact>
</mgrwt>
</event>
<event>
 4    1  0.3246948E-002  0.1251566E+03  0.7818608E-02  0.1234825E+00
         -4   -1    0    0    0  501 -0.00000000000E+00  0.00000000000E+00  0.52765404664E+02  0.52780686140E+02  0.12700000000E+01 0.  1.
          4   -1    0    0  501    0  0.00000000000E+00 -0.00000000000E+00 -0.74184716923E+02  0.74195586964E+02  0.12700000000E+01 0.  1.
    9000005    1    1    2    0    0  0.53384875165E+02 -0.32477706387E+02 -0.74535651352E+01  0.62938874646E+02  0.10000000000E+01 0.  0.
    9000005    1    1    2    0    0 -0.53384875165E+02  0.32477706387E+02 -0.13965747124E+02  0.64037398458E+02  0.10000000000E+01 0.  0.
<mgrwt>
<rscale>  0 0.12515665E+03</rscale>
<asrwt>0</asrwt>
<pdfrwt beam="2">  1        4 0.11415045E-01 0.12515665E+03</pdfrwt>
<pdfrwt beam="1">  1       -4 0.81197662E-02 0.12515665E+03</pdfrwt>
<totfact> 0.10372938E+04</totfact>
</mgrwt>
</event>
<event>
 5    1  0.3246948E-002  0.1249993E+03  0.7818608E-02  0.1235070E+00
         -4   -1    0    0    0  501 -0.00000000000E+00  0.00000000000E+00  0.18128368117E+02  0.18172799195E+02  0.12700000000E+01 0.  1.
          4   -1    0    0  501    0  0.00000000000E+00 -0.00000000000E+00 -0.21516477410E+03  0.21516852212E+03  0.12700000000E+01 0.  1.
         25    2    1    2    0    0  0.00000000000E+00  0.00000000000E+00 -0.19703640598E+03  0.23334132132E+03  0.12499930781E+03 0.  0.
    9000005    1    3    3    0    0 -0.38435751701E+02  0.48914710772E+02 -0.87434917263E+02  0.10731179197E+03  0.10000000000E+01 0.  0.
    9000005    1    3    3    0    0  0.38435751701E+02 -0.48914710772E+02 -0.10960148872E+03  0.12602952935E+03  0.10000000000E+01 0.  0.
<mgrwt>
<rscale>  0 0.12499931E+03</rscale>
<asrwt>0</asrwt>
<pdfrwt beam="2">  1        4 0.33105977E-01 0.12499931E+03</pdfrwt>
<pdfrwt beam="1">  1       -4 0.27926860E-02 0.12499931E+03</pdfrwt>
<totfact> 0.84800471E+03</totfact>
</mgrwt>
</event>
<event>
 5    1  0.3246948E-002  0.1249974E+03  0.7818608E-02  0.1235073E+00
         -4   -1    0    0    0  501 -0.00000000000E+00  0.00000000000E+00  0.17817003985E+01  0.21880028131E+01  0.12700000000E+01 0. -1.
          4   -1    0    0  501    0  0.00000000000E+00 -0.00000000000E+00 -0.19675439011E+04  0.19675443109E+04  0.12700000000E+01 0. -1.
         25    2    1    2    0    0  0.00000000000E+00  0.00000000000E+00 -0.19657622007E+04  0.19697323138E+04  0.12499743309E+03 0.  0.
    9000005    1    3    3    0    0  0.45178706601E+02 -0.42217418309E+02 -0.11252845331E+04  0.11269825670E+04  0.10000000000E+01 0.  0.
    9000005    1    3    3    0    0 -0.45178706601E+02  0.42217418309E+02 -0.84047766755E+03  0.84274974672E+03  0.10000000000E+01 0.  0.
<mgrwt>
<rscale>  0 0.12499743E+03</rscale>
<asrwt>0</asrwt>
<pdfrwt beam="2">  1        4 0.30272879E+00 0.12499743E+03</pdfrwt>
<pdfrwt beam="1">  1       -4 0.30539489E-03 0.12499743E+03</pdfrwt>
<totfact> 0.10262277E+03</totfact>
</mgrwt>
</event>
<event>
 5    1  0.3246948E-002  0.1250012E+03  0.7818608E-02  0.1235067E+00
          4   -1    0    0  501    0  0.00000000000E+00  0.00000000000E+00  0.18436273638E+02  0.18479964438E+02  0.12700000000E+01 0.  1.
         -4   -1    0    0    0  501 -0.00000000000E+00 -0.00000000000E+00 -0.21158613324E+03  0.21158994466E+03  0.12700000000E+01 0.  1.
         25    2    1    2    0    0  0.00000000000E+00  0.00000000000E+00 -0.19314985960E+03  0.23006990910E+03  0.12500117922E+03 0.  0.
    9000005    1    3    3    0    0 -0.46830774487E+01 -0.30441104694E+02  0.35060767706E+01  0.31014265165E+02  0.10000000000E+01 0.  0.
    9000005    1    3    3    0    0  0.46830774487E+01  0.30441104694E+02 -0.19665593637E+03  0.19905564393E+03  0.10000000000E+01 0.  0.
<mgrwt>
<rscale>  0 0.12500118E+03</rscale>
<asrwt>0</asrwt>
<pdfrwt beam="1">  1        4 0.28400039E-02 0.12500118E+03</pdfrwt>
<pdfrwt beam="2">  1       -4 0.32555365E-01 0.12500118E+03</pdfrwt>
<totfact> 0.85296620E+03</totfact>
</mgrwt>
</event>
<event>
 5    1  0.3246948E-002  0.1249659E+03  0.7818608E-02  0.1235123E+00
         -4   -1    0    0    0  501 -0.00000000000E+00  0.00000000000E+00  0.11331026101E+02  0.11401975815E+02  0.12700000000E+01 0. -1.
          4   -1    0    0  501    0  0.00000000000E+00 -0.00000000000E+00 -0.34340351777E+03  0.34340586617E+03  0.12700000000E+01 0. -1.
         25    2    1    2    0    0  0.00000000000E+00  0.00000000000E+00 -0.33207249167E+03  0.35480784198E+03  0.12496585537E+03 0.  0.
    9000005    1    3    3    0    0  0.44376521842E+02  0.43660117376E+02 -0.18096176045E+03  0.19137303960E+03  0.10000000000E+01 0.  0.
    9000005    1    3    3    0    0 -0.44376521842E+02 -0.43660117376E+02 -0.15111073122E+03  0.16343480239E+03  0.10000000000E+01 0.  0.
<mgrwt>
<rscale>  0 0.12496586E+03</rscale>
<asrwt>0</asrwt>
<pdfrwt beam="2">  1        4 0.52836941E-01 0.12496586E+03</pdfrwt>
<pdfrwt beam="1">  1       -4 0.17488734E-02 0.12496586E+03</pdfrwt>
<totfact> 0.69251159E+03</totfact>
</mgrwt>
</event>
<event>
 5    1  0.3246948E-002  0.1249957E+03  0.7818608E-02  0.1235076E+00
          4   -1    0    0  501    0  0.00000000000E+00  0.00000000000E+00  0.88622212520E+03  0.88622303519E+03  0.12700000000E+01 0. -1.
         -4   -1    0    0    0  501 -0.00000000000E+00 -0.00000000000E+00 -0.43150309180E+01  0.44980431104E+01  0.12700000000E+01 0. -1.
         25    2    1    2    0    0  0.00000000000E+00  0.00000000000E+00  0.88190709428E+03  0.89072107830E+03  0.12499566543E+03 0.  0.
    9000005    1    3    3    0    0  0.30236262873E+02  0.35810567594E+01  0.52084346141E+02  0.60339329404E+02  0.10000000000E+01 0.  0.
    9000005    1    3    3    0    0 -0.30236262873E+02 -0.35810567594E+01  0.82982274814E+03  0.83038174889E+03  0.10000000000E+01 0.  0.
<mgrwt>
<rscale>  0 0.12499567E+03</rscale>
<asrwt>0</asrwt>
<pdfrwt beam="1">  1        4 0.13635610E+00 0.12499567E+03</pdfrwt>
<pdfrwt beam="2">  1       -4 0.67799833E-03 0.12499567E+03</pdfrwt>
<totfact> 0.34519586E+03</totfact>
</mgrwt>
</event>
<event>
 5    1  0.3246948E-002  0.1249941E+03  0.7818608E-02  0.1235078E+00
         -4   -1    0    0    0  501 -0.00000000000E+00  0.00000000000E+00  0.38024412150E+02  0.38045614982E+02  0.12700000000E+01 0. -1.
          4   -1    0    0  501    0  0.00000000000E+00 -0.00000000000E+00 -0.10266663687E+03  0.10267449161E+03  0.12700000000E+01 0. -1.
         25    2    1    2    0    0  0.00000000000E+00  0.00000000000E+00 -0.64642224723E+02  0.14072010659E+03  0.12499412459E+03 0.  0.
    9000005    1    3    3    0    0  0.40985340497E+02  0.46933939326E+02 -0.37636336471E+02  0.72801693794E+02  0.10000000000E+01 0.  0.
    9000005    1    3    3    0    0 -0.40985340497E+02 -0.46933939326E+02 -0.27005888252E+02  0.67918412795E+02  0.10000000000E+01 0.  0.
<mgrwt>
<rscale>  0 0.12499412E+03</rscale>
<asrwt>0</asrwt>
<pdfrwt beam="2">  1        4 0.15797102E-01 0.12499412E+03</pdfrwt>
<pdfrwt beam="1">  1       -4 0.58521448E-02 0.12499412E+03</pdfrwt>
<totfact> 0.10120022E+04</totfact>
</mgrwt>
</event>
<event>
 5    1  0.3246948E-002  0.1249656E+03  0.7818608E-02  0.1235123E+00
         -4   -1    0    0    0  501 -0.00000000000E+00  0.00000000000E+00  0.12565551927E+02  0.12629568291E+02  0.12700000000E+01 0. -1.
          4   -1    0    0  501    0  0.00000000000E+00 -0.00000000000E+00 -0.30984379626E+03  0.30984639901E+03  0.12700000000E+01 0. -1.
         25    2    1    2    0    0  0.00000000000E+00  0.00000000000E+00 -0.29727824433E+03  0.32247596730E+03  0.12496557500E+03 0.  0.
    9000005    1    3    3    0    0 -0.50855248723E+02 -0.36288229778E+02 -0.14842647671E+03  0.16104195395E+03  0.10000000000E+01 0.  0.
    9000005    1    3    3    0    0  0.50855248723E+02  0.36288229778E+02 -0.14885176763E+03  0.16143401336E+03  0.10000000000E+01 0.  0.
<mgrwt>
<rscale>  0 0.12496557E+03</rscale>
<asrwt>0</asrwt>
<pdfrwt beam="2">  1        4 0.47673395E-01 0.12496557E+03</pdfrwt>
<pdfrwt beam="1">  1       -4 0.19382866E-02 0.12496557E+03</pdfrwt>
<totfact> 0.72918230E+03</totfact>
</mgrwt>
</event>
<event>
 5    1  0.3246948E-002  0.1249971E+03  0.7818608E-02  0.1235074E+00
          4   -1    0    0  501    0  0.00000000000E+00  0.00000000000E+00  0.16581852229E+02  0.16630415609E+02  0.12700000000E+01 0. -1.
         -4   -1    0    0    0  501 -0.00000000000E+00 -0.00000000000E+00 -0.23516821689E+03  0.23517164611E+03  0.12700000000E+01 0. -1.
         25    2    1    2    0    0  0.00000000000E+00  0.00000000000E+00 -0.21858636466E+03  0.25180206172E+03  0.12499711785E+03 0.  0.
    9000005    1    3    3    0    0  0.26785034092E+02  0.52232534027E+02 -0.15247014011E+03  0.16338243262E+03  0.10000000000E+01 0.  0.
    9000005    1    3    3    0    0 -0.26785034092E+02 -0.52232534027E+02 -0.66116224545E+02  0.88419629100E+02  0.10000000000E+01 0.  0.
<mgrwt>
<rscale>  0 0.12499712E+03</rscale>
<asrwt>0</asrwt>
<pdfrwt beam="1">  1        4 0.25550538E-02 0.12499712E+03</pdfrwt>
<pdfrwt beam="2">  1       -4 0.36183723E-01 0.12499712E+03</pdfrwt>
<totfact> 0.82075739E+03</totfact>
</mgrwt>
</event>
<event>
 5    1  0.3246948E-002  0.1249999E+03  0.7818608E-02  0.1235069E+00
         -4   -1    0    0    0  501 -0.00000000000E+00  0.00000000000E+00  0.89258686456E+01  0.90157656957E+01  0.12700000000E+01 0.  1.
          4   -1    0    0  501    0  0.00000000000E+00 -0.00000000000E+00 -0.43534804694E+03  0.43534989936E+03  0.12700000000E+01 0.  1.
         25    2    1    2    0    0  0.00000000000E+00  0.00000000000E+00 -0.42642217829E+03  0.44436566506E+03  0.12499988056E+03 0.  0.
    9000005    1    3    3    0    0  0.40217295165E+02  0.47707296228E+02 -0.22543590514E+03  0.23391401042E+03  0.10000000000E+01 0.  0.
    9000005    1    3    3    0    0 -0.40217295165E+02 -0.47707296228E+02 -0.20098627315E+03  0.21045165463E+03  0.10000000000E+01 0.  0.
<mgrwt>
<rscale>  0 0.12499988E+03</rscale>
<asrwt>0</asrwt>
<pdfrwt beam="2">  1        4 0.66983664E-01 0.12499988E+03</pdfrwt>
<pdfrwt beam="1">  1       -4 0.13802685E-02 0.12499988E+03</pdfrwt>
<totfact> 0.60455190E+03</totfact>
</mgrwt>
</event>
<event>
 5    1  0.3246948E-002  0.1250007E+03  0.7818608E-02  0.1235068E+00
          4   -1    0    0  501    0  0.00000000000E+00  0.00000000000E+00  0.10538582433E+04  0.10538590085E+04  0.12700000000E+01 0.  1.
         -4   -1    0    0    0  501 -0.00000000000E+00 -0.00000000000E+00 -0.35970854370E+01  0.38146983683E+01  0.12700000000E+01 0.  1.
         25    2    1    2    0    0  0.00000000000E+00  0.00000000000E+00  0.10502611579E+04  0.10576737069E+04  0.12500068224E+03 0.  0.
    9000005    1    3    3    0    0  0.31439863300E+02  0.15823634452E+02  0.88207232490E+02  0.94975619373E+02  0.10000000000E+01 0.  0.
    9000005    1    3    3    0    0 -0.31439863300E+02 -0.15823634452E+02  0.96205392537E+03  0.96269808753E+03  0.10000000000E+01 0.  0.
<mgrwt>
<rscale>  0 0.12500068E+03</rscale>
<asrwt>0</asrwt>
<pdfrwt beam="1">  1        4 0.16214883E+00 0.12500068E+03</pdfrwt>
<pdfrwt beam="2">  1       -4 0.57019612E-03 0.12500068E+03</pdfrwt>
<totfact> 0.28755944E+03</totfact>
</mgrwt>
</event>
<event>
 5    1  0.3246948E-002  0.1249790E+03  0.7818608E-02  0.1235102E+00
         -4   -1    0    0    0  501 -0.00000000000E+00  0.00000000000E+00  0.70086507996E+02  0.70098013545E+02  0.12700000000E+01 0. -1.
          4   -1    0    0  501    0  0.00000000000E+00 -0.00000000000E+00 -0.55692622510E+02  0.55707101002E+02  0.12700000000E+01 0. -1.
         25    2    1    2    0    0  0.00000000000E+00  0.00000000000E+00  0.14393885486E+02  0.12580511455E+03  0.12497896986E+03 0.  0.
    9000005    1    3    3    0    0 -0.30174416990E+02  0.17728616346E+02 -0.44905582568E+02  0.56941291028E+02  0.10000000000E+01 0.  0.
    9000005    1    3    3    0    0  0.30174416990E+02 -0.17728616346E+02  0.59299468053E+02  0.68863823519E+02  0.10000000000E+01 0.  0.
<mgrwt>
<rscale>  0 0.12497897E+03</rscale>
<asrwt>0</asrwt>
<pdfrwt beam="2">  1        4 0.85700945E-02 0.12497897E+03</pdfrwt>
<pdfrwt beam="1">  1       -4 0.10784538E-01 0.12497897E+03</pdfrwt>
<totfact> 0.10440186E+04</totfact>
</mgrwt>
</event>
<event>
 5    1  0.3246948E-002  0.1250035E+03  0.7818608E-02  0.1235064E+00
         -4   -1    0    0    0  501 -0.00000000000E+00  0.00000000000E+00  0.15280842390E+02  0.15333526801E+02  0.12700000000E+01 0. -1.
          4   -1    0    0  501    0  0.00000000000E+00 -0.00000000000E+00 -0.25515083920E+03  0.25515399986E+03  0.12700000000E+01 0. -1.
         25    2    1    2    0    0  0.00000000000E+00  0.00000000000E+00 -0.23986999681E+03  0.27048752666E+03  0.12500354679E+03 0.  0.
    9000005    1    3    3    0    0 -0.39696160384E+02  0.46070711897E+02 -0.88789544535E+02  0.10762378391E+03  0.10000000000E+01 0.  0.
    9000005    1    3    3    0    0  0.39696160384E+02 -0.46070711897E+02 -0.15108045228E+03  0.16286374276E+03  0.10000000000E+01 0.  0.
<mgrwt>
<rscale>  0 0.12500355E+03</rscale>
<asrwt>0</asrwt>
<pdfrwt beam="2">  1        4 0.39258268E-01 0.12500355E+03</pdfrwt>
<pdfrwt beam="1">  1       -4 0.23551948E-02 0.12500355E+03</pdfrwt>
<totfact> 0.79450180E+03</totfact>
</mgrwt>
</event>
<event>
 5    1  0.3246948E-002  0.1249984E+03  0.7818608E-02  0.1235072E+00
          4   -1    0    0  501    0  0.00000000000E+00  0.00000000000E+00  0.91126754749E+01  0.92007474866E+01  0.12700000000E+01 0.  1.
         -4   -1    0    0    0  501 -0.00000000000E+00 -0.00000000000E+00 -0.42649966103E+03  0.42650155188E+03  0.12700000000E+01 0.  1.
         25    2    1    2    0    0  0.00000000000E+00  0.00000000000E+00 -0.41738698555E+03  0.43570229937E+03  0.12499839185E+03 0.  0.
    9000005    1    3    3    0    0 -0.38575592606E+02  0.49118525302E+02 -0.21604123327E+03  0.22489001833E+03  0.10000000000E+01 0.  0.
    9000005    1    3    3    0    0  0.38575592606E+02 -0.49118525302E+02 -0.20134575229E+03  0.21081228104E+03  0.10000000000E+01 0.  0.
<mgrwt>
<rscale>  0 0.12499839E+03</rscale>
<asrwt>0</asrwt>
<pdfrwt beam="1">  1        4 0.14088706E-02 0.12499839E+03</pdfrwt>
<pdfrwt beam="2">  1       -4 0.65622237E-01 0.12499839E+03</pdfrwt>
<totfact> 0.61224670E+03</totfact>
</mgrwt>
</event>
<event>
 5    1  0.3246948E-002  0.1249986E+03  0.7818608E-02  0.1235072E+00
          4   -1    0    0  501    0  0.00000000000E+00  0.00000000000E+00  0.16008505711E+02  0.16058803040E+02  0.12700000000E+01 0.  1.
         -4   -1    0    0    0  501 -0.00000000000E+00 -0.00000000000E+00 -0.24357065680E+03  0.24357396773E+03  0.12700000000E+01 0.  1.
         25    2    1    2    0    0  0.00000000000E+00  0.00000000000E+00 -0.22756215109E+03  0.25963277077E+03  0.12499857218E+03 0.  0.
    9000005    1    3    3    0    0  0.27427308340E+02 -0.43813825127E+02 -0.18672353683E+03  0.19374877476E+03  0.10000000000E+01 0.  0.
    9000005    1    3    3    0    0 -0.27427308340E+02  0.43813825127E+02 -0.40838614258E+02  0.65883996005E+02  0.10000000000E+01 0.  0.
<mgrwt>
<rscale>  0 0.12499857E+03</rscale>
<asrwt>0</asrwt>
<pdfrwt beam="1">  1        4 0.24669709E-02 0.12499857E+03</pdfrwt>
<pdfrwt beam="2">  1       -4 0.37476530E-01 0.12499857E+03</pdfrwt>
<totfact> 0.80960198E+03</totfact>
</mgrwt>
</event>
<event>
 5    1  0.3246948E-002  0.1249988E+03  0.7818608E-02  0.1235071E+00
         -4   -1    0    0    0  501 -0.00000000000E+00  0.00000000000E+00  0.90631166875E+02  0.90640064591E+02  0.12700000000E+01 0. -1.
          4   -1    0    0  501    0  0.00000000000E+00 -0.00000000000E+00 -0.43079321186E+02  0.43098037239E+02  0.12700000000E+01 0. -1.
         25    2    1    2    0    0  0.00000000000E+00  0.00000000000E+00  0.47551845688E+02  0.13373810183E+03  0.12499880741E+03 0.  0.
    9000005    1    3    3    0    0  0.45530554952E+02 -0.42196713003E+02  0.31460076123E+02  0.69601224215E+02  0.10000000000E+01 0.  0.
    9000005    1    3    3    0    0 -0.45530554952E+02  0.42196713003E+02  0.16091769565E+02  0.64136877615E+02  0.10000000000E+01 0.  0.
<mgrwt>
<rscale>  0 0.12499881E+03</rscale>
<asrwt>0</asrwt>
<pdfrwt beam="2">  1        4 0.66297121E-02 0.12499881E+03</pdfrwt>
<pdfrwt beam="1">  1       -4 0.13945380E-01 0.12499881E+03</pdfrwt>
<totfact> 0.10265014E+04</totfact>
</mgrwt>
</event>
<event>
 5    1  0.3246948E-002  0.1249692E+03  0.7818608E-02  0.1235117E+00
          4   -1    0    0  501    0  0.00000000000E+00  0.00000000000E+00  0.10129495913E+02  0.10208799511E+02  0.12700000000E+01 0. -1.
         -4   -1    0    0    0  501 -0.00000000000E+00 -0.00000000000E+00 -0.38385813094E+03  0.38386023184E+03  0.12700000000E+01 0. -1.
         25    2    1    2    0    0  0.00000000000E+00  0.00000000000E+00 -0.37372863503E+03  0.39406903136E+03  0.12496923154E+03 0.  0.
    9000005    1    3    3    0    0 -0.23866194760E+02  0.54556383572E+02 -0.24647248214E+03  0.25356592573E+03  0.10000000000E+01 0.  0.
    9000005    1    3    3    0    0  0.23866194760E+02 -0.54556383572E+02 -0.12725615289E+03  0.14050310562E+03  0.10000000000E+01 0.  0.
<mgrwt>
<rscale>  0 0.12496923E+03</rscale>
<asrwt>0</asrwt>
<pdfrwt beam="1">  1        4 0.15646462E-02 0.12496923E+03</pdfrwt>
<pdfrwt beam="2">  1       -4 0.59061348E-01 0.12496923E+03</pdfrwt>
<totfact> 0.65178025E+03</totfact>
</mgrwt>
</event>
<event>
 5    1  0.3246948E-002  0.1249923E+03  0.7818608E-02  0.1235081E+00
         -4   -1    0    0    0  501 -0.00000000000E+00  0.00000000000E+00  0.36188541101E+03  0.36188763947E+03  0.12700000000E+01 0. -1.
          4   -1    0    0  501    0  0.00000000000E+00 -0.00000000000E+00 -0.10753207070E+02  0.10827943585E+02  0.12700000000E+01 0. -1.
         25    2    1    2    0    0  0.00000000000E+00  0.00000000000E+00  0.35113220394E+03  0.37271558306E+03  0.12499232460E+03 0.  0.
    9000005    1    3    3    0    0  0.34918489743E+02  0.37628383042E+02  0.28181470875E+03  0.28645370691E+03  0.10000000000E+01 0.  0.
    9000005    1    3    3    0    0 -0.34918489743E+02 -0.37628383042E+02  0.69317495190E+02  0.86261876142E+02  0.10000000000E+01 0.  0.
<mgrwt>
<rscale>  0 0.12499232E+03</rscale>
<asrwt>0</asrwt>
<pdfrwt beam="2">  1        4 0.16602600E-02 0.12499232E+03</pdfrwt>
<pdfrwt beam="1">  1       -4 0.55680597E-01 0.12499232E+03</pdfrwt>
<totfact> 0.67307208E+03</totfact>
</mgrwt>
</event>
<event>
 5    1  0.3246948E-002  0.1249975E+03  0.7818608E-02  0.1235073E+00
          4   -1    0    0  501    0  0.00000000000E+00  0.00000000000E+00  0.35555599006E+02  0.35578273155E+02  0.12700000000E+01 0. -1.
         -4   -1    0    0    0  501 -0.00000000000E+00 -0.00000000000E+00 -0.10979734766E+03  0.10980469231E+03  0.12700000000E+01 0. -1.
         25    2    1    2    0    0  0.00000000000E+00  0.00000000000E+00 -0.74241748652E+02  0.14538296546E+03  0.12499747759E+03 0.  0.
    9000005    1    3    3    0    0  0.48778966914E+02 -0.29011612224E+02 -0.67540242965E+02  0.88225538688E+02  0.10000000000E+01 0.  0.
    9000005    1    3    3    0    0 -0.48778966914E+02  0.29011612224E+02 -0.67015056878E+01  0.57157426774E+02  0.10000000000E+01 0.  0.
<mgrwt>
<rscale>  0 0.12499748E+03</rscale>
<asrwt>0</asrwt>
<pdfrwt beam="1">  1        4 0.54724013E-02 0.12499748E+03</pdfrwt>
<pdfrwt beam="2">  1       -4 0.16894209E-01 0.12499748E+03</pdfrwt>
<totfact> 0.10023783E+04</totfact>
</mgrwt>
</event>
<event>
 5    1  0.3246948E-002  0.1250004E+03  0.7818608E-02  0.1235069E+00
          4   -1    0    0  501    0  0.00000000000E+00  0.00000000000E+00  0.38243211083E+02  0.38264292675E+02  0.12700000000E+01 0. -1.
         -4   -1    0    0    0  501 -0.00000000000E+00 -0.00000000000E+00 -0.10208986688E+03  0.10209776599E+03  0.12700000000E+01 0. -1.
         25    2    1    2    0    0  0.00000000000E+00  0.00000000000E+00 -0.63846655801E+02  0.14036205867E+03  0.12500044822E+03 0.  0.
    9000005    1    3    3    0    0 -0.43306822516E+02  0.43608558002E+02 -0.19214744625E+02  0.64400261012E+02  0.10000000000E+01 0.  0.
    9000005    1    3    3    0    0  0.43306822516E+02 -0.43608558002E+02 -0.44631911175E+02  0.75961797653E+02  0.10000000000E+01 0.  0.
<mgrwt>
<rscale>  0 0.12500045E+03</rscale>
<asrwt>0</asrwt>
<pdfrwt beam="1">  1        4 0.58858003E-02 0.12500045E+03</pdfrwt>
<pdfrwt beam="2">  1       -4 0.15708363E-01 0.12500045E+03</pdfrwt>
<totfact> 0.10125985E+04</totfact>
</mgrwt>
</event>
<event>
 5    1  0.3246948E-002  0.1249852E+03  0.7818608E-02  0.1235092E+00
         -4   -1    0    0    0  501 -0.00000000000E+00  0.00000000000E+00  0.76147305229E+02  0.76157895150E+02  0.12700000000E+01 0.  1.
          4   -1    0    0  501    0  0.00000000000E+00 -0.00000000000E+00 -0.51264471278E+02  0.51280200033E+02  0.12700000000E+01 0.  1.
         25    2    1    2    0    0  0.00000000000E+00  0.00000000000E+00  0.24882833951E+02  0.12743809518E+03  0.12498524984E+03 0.  0.
    9000005    1    3    3    0    0  0.45046388704E+02  0.63371078161E+01 -0.31236066497E+02  0.55190831856E+02  0.10000000000E+01 0.  0.
    9000005    1    3    3    0    0 -0.45046388704E+02 -0.63371078161E+01  0.56118900448E+02  0.72247263327E+02  0.10000000000E+01 0.  0.
<mgrwt>
<rscale>  0 0.12498525E+03</rscale>
<asrwt>0</asrwt>
<pdfrwt beam="2">  1        4 0.78888663E-02 0.12498525E+03</pdfrwt>
<pdfrwt beam="1">  1       -4 0.11716995E-01 0.12498525E+03</pdfrwt>
<totfact> 0.10403105E+04</totfact>
</mgrwt>
</event>
<event>
 5    1  0.3246948E-002  0.1250091E+03  0.7818608E-02  0.1235055E+00
          4   -1    0    0  501    0  0.00000000000E+00  0.00000000000E+00  0.17677198980E+02  0.17722761178E+02  0.12700000000E+01 0.  1.
         -4   -1    0    0    0  501 -0.00000000000E+00 -0.00000000000E+00 -0.22067720868E+03  0.22068086308E+03  0.12700000000E+01 0.  1.
         25    2    1    2    0    0  0.00000000000E+00  0.00000000000E+00 -0.20300000970E+03  0.23840362426E+03  0.12500913615E+03 0.  0.
    9000005    1    3    3    0    0 -0.11929067337E+02 -0.37561449954E+02 -0.89981797806E+01  0.40436770513E+02  0.10000000000E+01 0.  0.
    9000005    1    3    3    0    0  0.11929067337E+02  0.37561449954E+02 -0.19400182992E+03  0.19796685374E+03  0.10000000000E+01 0.  0.
<mgrwt>
<rscale>  0 0.12500914E+03</rscale>
<asrwt>0</asrwt>
<pdfrwt beam="1">  1        4 0.27233551E-02 0.12500914E+03</pdfrwt>
<pdfrwt beam="2">  1       -4 0.33954124E-01 0.12500914E+03</pdfrwt>
<totfact> 0.84018580E+03</totfact>
</mgrwt>
</event>
<event>
 5    1  0.3246948E-002  0.1250025E+03  0.7818608E-02  0.1235065E+00
          4   -1    0    0  501    0  0.00000000000E+00  0.00000000000E+00  0.57767274214E+01  0.59146833982E+01  0.12700000000E+01 0.  1.
         -4   -1    0    0    0  501 -0.00000000000E+00 -0.00000000000E+00 -0.66811403049E+03  0.66811523755E+03  0.12700000000E+01 0.  1.
         25    2    1    2    0    0  0.00000000000E+00  0.00000000000E+00 -0.66233730307E+03  0.67402992095E+03  0.12500252513E+03 0.  0.
    9000005    1    3    3    0    0  0.22309158250E+02  0.58362393611E+02 -0.32447655876E+03  0.33043895762E+03  0.10000000000E+01 0.  0.
    9000005    1    3    3    0    0 -0.22309158250E+02 -0.58362393611E+02 -0.33786074431E+03  0.34359096332E+03  0.10000000000E+01 0.  0.
<mgrwt>
<rscale>  0 0.12500253E+03</rscale>
<asrwt>0</asrwt>
<pdfrwt beam="1">  1        4 0.89943267E-03 0.12500253E+03</pdfrwt>
<pdfrwt beam="2">  1       -4 0.10279742E+00 0.12500253E+03</pdfrwt>
<totfact> 0.44491093E+03</totfact>
</mgrwt>
</event>
<event>
 5    1  0.3246948E-002  0.1249973E+03  0.7818608E-02  0.1235073E+00
         -4   -1    0    0    0  501 -0.00000000000E+00  0.00000000000E+00  0.88345374598E+02  0.88354502505E+02  0.12700000000E+01 0.  1.
          4   -1    0    0  501    0  0.00000000000E+00 -0.00000000000E+00 -0.44193251317E+02  0.44211495812E+02  0.12700000000E+01 0.  1.
         25    2    1    2    0    0  0.00000000000E+00  0.00000000000E+00  0.44152123281E+02  0.13256599832E+03  0.12499733565E+03 0.  0.
    9000005    1    3    3    0    0 -0.10240183754E+02 -0.26992827482E+02 -0.36701881357E+02  0.46706554079E+02  0.10000000000E+01 0.  0.
    9000005    1    3    3    0    0  0.10240183754E+02  0.26992827482E+02  0.80854004639E+02  0.85859444238E+02  0.10000000000E+01 0.  0.
<mgrwt>
<rscale>  0 0.12499734E+03</rscale>
<asrwt>0</asrwt>
<pdfrwt beam="2">  1        4 0.68010674E-02 0.12499734E+03</pdfrwt>
<pdfrwt beam="1">  1       -4 0.13593702E-01 0.12499734E+03</pdfrwt>
<totfact> 0.10290251E+04</totfact>
</mgrwt>
</event>
<event>
 5    1  0.3246948E-002  0.1249965E+03  0.7818608E-02  0.1235075E+00
          4   -1    0    0  501    0  0.00000000000E+00  0.00000000000E+00  0.21752399460E+03  0.21752770198E+03  0.12700000000E+01 0. -1.
         -4   -1    0    0    0  501 -0.00000000000E+00 -0.00000000000E+00 -0.17930471033E+02  0.17975391275E+02  0.12700000000E+01 0. -1.
         25    2    1    2    0    0  0.00000000000E+00  0.00000000000E+00  0.19959352357E+03  0.23550309325E+03  0.12499652907E+03 0.  0.
    9000005    1    3    3    0    0 -0.47769226044E+02 -0.22860721385E+02  0.16229934026E+03  0.17072371654E+03  0.10000000000E+01 0.  0.
    9000005    1    3    3    0    0  0.47769226044E+02  0.22860721385E+02  0.37294183309E+02  0.64779376716E+02  0.10000000000E+01 0.  0.
<mgrwt>
<rscale>  0 0.12499653E+03</rscale>
<asrwt>0</asrwt>
<pdfrwt beam="1">  1        4 0.33468973E-01 0.12499653E+03</pdfrwt>
<pdfrwt beam="2">  1       -4 0.27622744E-02 0.12499653E+03</pdfrwt>
<totfact> 0.84478229E+03</totfact>
</mgrwt>
</event>
<event>
 5    1  0.3246948E-002  0.1250012E+03  0.7818608E-02  0.1235067E+00
         -4   -1    0    0    0  501 -0.00000000000E+00  0.00000000000E+00  0.29418728240E+02  0.29446128289E+02  0.12700000000E+01 0. -1.
          4   -1    0    0  501    0  0.00000000000E+00 -0.00000000000E+00 -0.13269143696E+03  0.13269751446E+03  0.12700000000E+01 0. -1.
         25    2    1    2    0    0  0.00000000000E+00  0.00000000000E+00 -0.10327270872E+03  0.16214364275E+03  0.12500123406E+03 0.  0.
    9000005    1    3    3    0    0  0.35843907838E+02  0.20254276159E+02 -0.11261977723E+03  0.11991345069E+03  0.10000000000E+01 0.  0.
    9000005    1    3    3    0    0 -0.35843907838E+02 -0.20254276159E+02  0.93470685081E+01  0.42230192061E+02  0.10000000000E+01 0.  0.
<mgrwt>
<rscale>  0 0.12500123E+03</rscale>
<asrwt>0</asrwt>
<pdfrwt beam="2">  1        4 0.20416642E-01 0.12500123E+03</pdfrwt>
<pdfrwt beam="1">  1       -4 0.45285335E-02 0.12500123E+03</pdfrwt>
<totfact> 0.96928405E+03</totfact>
</mgrwt>
</event>
